Membrane in water
40167
    1TCq1    O1    1   3.093   1.902  10.917 -0.0839  0.3287  0.1426
    1TCq1    C1    2   3.042   1.900  11.037  0.1363 -0.2929 -0.2310
    1TCq1    O2    3   3.063   1.987  11.119  0.6609 -0.1626  0.1049
    1TCq1    C2    4   2.997   1.767  11.066 -0.2236 -0.5251 -0.7145
    1TCq1    C3    5   2.923   1.696  10.972 -0.5409 -0.6080  0.6058
    1TCq1    C4    6   2.845   1.589  11.006  0.4726  0.2068  0.0803
    1TCq1    C5    7   2.837   1.563  11.141 -0.3200 -0.6450  0.2668
    1TCq1    C6    8   2.909   1.638  11.236  0.7642  0.2454  0.1191
    1TCq1    C7    9   2.992   1.737  11.199  0.0353  0.1520 -0.9141
    1TCq1    C8   10   2.947   1.580  11.359 -0.9002  0.5741 -0.6693
    1TCq1    O4   11   2.857   1.517  11.418  0.2319 -0.5132 -0.1899
    1TCq1    C9   12   2.747   1.531  10.913  0.3502  0.2566  0.2539
    1TCq1    O5   13   2.734   1.587  10.803  0.7857  0.5205  0.3315
    1TCq1    O6   14   2.652   1.468  10.968  0.1606  0.0513 -0.3043
    1TCq1    H1   15   3.112   1.814  10.878 -0.4831  0.1735  0.2995
    1TCq1    H2   16   2.902   1.720  10.869  1.2283 -0.4719  0.2689
    1TCq1    H3   17   2.776   1.479  11.175 -0.6512 -1.2216 -1.7380
    1TCq1    H4   18   3.038   1.795  11.278 -2.5206 -1.1693  1.5425
    2MPD2     C   19   3.302   1.287  11.584  0.1748 -0.0519 -0.5272
    2MPD2    C1   20   3.168   1.320  11.622 -0.1951 -0.2310  0.1806
    2MPD2    C2   21   3.095   1.413  11.550  0.5800 -0.1331 -0.4330
    2MPD2    C3   22   3.155   1.472  11.442  0.6400 -0.2667  0.1307
    2MPD2    C4   23   3.282   1.440  11.401 -0.7499 -0.2989  0.2832
    2MPD2    C5   24   3.349   1.339  11.468  0.2116  0.8492 -0.1115
    2MPD2     H   25   2.994   1.437  11.583  1.2352  0.5563  1.0480
    2MPD2    H1   26   3.332   1.478  11.313 -0.5568 -1.0154  0.0798
    2MPD2    H2   27   3.356   1.204  11.628 -0.4604 -0.5128 -0.6127
    2MPD2    H3   28   3.451   1.310  11.447 -0.0395 -0.9503  1.1961
    2MPD2     N   29   3.088   1.564  11.359 -0.1717 -0.4305  0.2895
    2MPD2    H5   30   3.142   1.607  11.284  0.1659 -2.0612 -0.4153
    2MPD2    N1   31   3.107   1.252  11.728  0.1584 -0.4417 -0.3397
    2MPD2    H7   32   3.017   1.296  11.746  0.7036  0.2694  0.6338
    3TCq1    O1   33   2.566   3.163  10.449  0.4914 -0.3852  0.6534
    3TCq1    C1   34   2.536   3.045  10.506 -0.9279  0.2535 -0.0166
    3TCq1    O2   35   2.619   2.961  10.539  0.4979  0.3109  0.1653
    3TCq1    C2   36   2.400   3.038  10.552 -0.3080  0.2141  0.4049
    3TCq1    C3   37   2.333   3.153  10.581 -0.8736 -0.4606 -1.0986
    3TCq1    C4   38   2.218   3.136  10.650 -0.7972 -0.3429  0.0466
    3TCq1    C5   39   2.174   3.021  10.704 -0.5773  0.1859 -0.5570
    3TCq1    C6   40   2.248   2.908  10.669 -0.1577  0.5548 -0.6611
    3TCq1    C7   41   2.353   2.913  10.589  0.2778  0.1253 -0.0650
    3TCq1    C8   42   2.215   2.779  10.729  0.0856 -0.0220  0.0155
    3TCq1    O4   43   2.272   2.676  10.687 -0.0155  0.5360 -0.2638
    3TCq1    C9   44   2.145   3.253  10.683  0.6668  0.2439 -0.6024
    3TCq1    O5   45   2.068   3.249  10.780  0.0386  0.0842  0.4063
    3TCq1    O6   46   2.189   3.363  10.643  0.1261  0.5729 -0.0150
    3TCq1    H1   47   2.486   3.210  10.417  2.5271  0.7320 -2.7667
    3TCq1    H2   48   2.368   3.250  10.548 -1.6610  1.2917  3.2667
    3TCq1    H3   49   2.079   3.019  10.756  1.1653  1.3578  2.6690
    3TCq1    H4   50   2.410   2.824  10.563  1.8553 -0.0233  3.8608
    4MPD2     C   51   1.972   2.503  11.090 -0.5010 -0.4259 -0.3511
    4MPD2    C1   52   1.926   2.635  11.107  0.8622 -0.0532  0.1117
    4MPD2    C2   53   1.978   2.729  11.018 -0.3609 -0.1623 -0.4174
    4MPD2    C3   54   2.069   2.688  10.918  0.2763 -0.1350 -0.1688
    4MPD2    C4   55   2.118   2.555  10.915  0.8228 -0.5627  0.2905
    4MPD2    C5   56   2.073   2.466  11.004  0.0197 -0.2405  0.4336
    4MPD2     H   57   1.947   2.832  11.029  1.5896  0.6525 -2.4882
    4MPD2    H1   58   2.187   2.512  10.844  0.6598 -0.4267  0.0498
    4MPD2    H2   59   1.929   2.429  11.156 -0.3854  1.2014  1.5599
    4MPD2    H3   60   2.094   2.360  11.003 -2.0188 -0.6288 -0.7601
    4MPD2     N   61   2.131   2.793  10.840  0.1830 -0.1190  0.4489
    4MPD2    H5   62   2.117   2.892  10.858  0.8109 -0.0365  0.4828
    4MPD2    N1   63   1.837   2.663  11.208 -0.2408  1.0523  0.2985
    4MPD2    H7   64   1.828   2.590  11.278 -1.3873  1.8168  0.9568
    5TCq1    O1   65   2.583   4.303  12.026  0.3904 -0.0505 -0.2689
    5TCq1    C1   66   2.509   4.284  11.911  0.0021 -0.0419  0.0045
    5TCq1    O2   67   2.490   4.359  11.819  0.0090 -0.3387  0.7922
    5TCq1    C2   68   2.511   4.138  11.889 -0.9015  0.3589 -0.0632
    5TCq1    C3   69   2.493   4.050  11.997  0.4071  0.0461  0.8493
    5TCq1    C4   70   2.540   3.928  11.989  0.5726  0.0611 -0.4078
    5TCq1    C5   71   2.591   3.881  11.864  0.4434 -0.3072 -0.1726
    5TCq1    C6   72   2.615   3.964  11.764  0.3852 -0.0224  0.1637
    5TCq1    C7   73   2.564   4.095  11.770  0.2803 -0.0763 -0.2195
    5TCq1    C8   74   2.632   3.907  11.634  0.4143  0.3767 -0.1565
    5TCq1    O4   75   2.610   3.787  11.629  0.2647  0.1329 -0.1231
    5TCq1    C9   76   2.560   3.852  12.108 -0.6068 -0.0501  0.1607
    5TCq1    O5   77   2.530   3.901  12.221 -0.4149  0.3095  0.5057
    5TCq1    O6   78   2.588   3.730  12.087 -0.0764 -0.7363 -0.2225
    5TCq1    H1   79   2.572   4.246  12.105  0.6853 -1.6637 -1.3964
    5TCq1    H2   80   2.441   4.078  12.087 -2.1549 -2.7760  0.2658
    5TCq1    H3   81   2.630   3.780  11.863 -2.7845 -1.5327 -0.8872
    5TCq1    H4   82   2.574   4.160  11.685 -2.2263  1.5759  0.7671
    6MPD2     C   83   2.776   4.073  11.342 -0.5393  0.5094 -0.3048
    6MPD2    C1   84   2.719   3.970  11.410 -0.3998 -0.4496  1.0208
    6MPD2    C2   85   2.714   3.843  11.356 -0.1202  0.3590  0.6557
    6MPD2    C3   86   2.759   3.824  11.225  0.3407  0.1190  0.0407
    6MPD2    C4   87   2.791   3.929  11.149  1.2721 -0.8000 -0.1889
    6MPD2    C5   88   2.808   4.053  11.208 -0.1893  0.0600  0.3203
    6MPD2     H   89   2.699   3.757  11.420 -0.6184  1.5141  2.0758
    6MPD2    H1   90   2.817   3.921  11.044 -1.2067  3.1070 -1.1137
    6MPD2    H2   91   2.767   4.169  11.392  0.1612  0.3056  0.2102
    6MPD2    H3   92   2.844   4.128  11.139  1.2894 -1.9481 -1.0913
    6MPD2     N   93   2.768   3.685  11.178 -0.0425 -0.0112 -0.1387
    6MPD2    H5   94   2.754   3.615  11.250  2.9069 -2.1709 -1.6258
    6MPD2    N1   95   2.686   3.994  11.542 -0.4004 -0.1527  0.9389
    6MPD2    H7   96   2.717   4.083  11.581 -3.1538  0.8760  0.7726
    7TCq1    O1   97   0.407   3.659  12.940  0.4023  0.2756 -0.1394
    7TCq1    C1   98   0.275   3.658  12.902  0.3043 -0.0871  0.1905
    7TCq1    O2   99   0.218   3.743  12.838  0.4284 -0.2851  0.2905
    7TCq1    C2  100   0.219   3.543  12.972 -0.5579  0.0008 -0.0072
    7TCq1    C3  101   0.086   3.554  13.012 -0.6290  0.2654 -0.3076
    7TCq1    C4  102   0.043   3.457  13.097 -1.2950  0.3838  0.4326
    7TCq1    C5  103   0.129   3.359  13.139 -0.2086  0.4708 -0.8442
    7TCq1    C6  104   0.248   3.343  13.094 -0.3951 -0.9925 -0.1804
    7TCq1    C7  105   0.303   3.431  13.001 -0.0760  0.0712  0.2635
    7TCq1    C8  106   0.284   3.200  13.079 -0.3017 -0.1350  0.0291
    7TCq1    O4  107   0.227   3.124  13.155  0.0457  0.0628 -0.2008
    7TCq1    C9  108   4.627   3.466  13.165 -0.1933  0.6221  0.1349
    7TCq1    O5  109   4.552   3.555  13.112  0.5851  0.6666 -0.0150
    7TCq1    O6  110   4.593   3.387  13.262  0.1000  1.0140 -0.5880
    7TCq1    H1  111   0.415   3.620  13.030  1.9351  1.7060  0.3448
    7TCq1    H2  112   0.023   3.635  12.978  0.5498  1.1561 -0.3732
    7TCq1    H3  113   0.087   3.288  13.210 -1.0826  0.2954 -1.5434
    7TCq1    H4  114   0.407   3.416  12.974 -0.1654 -1.8780  0.9365
    8MPD2     C  115   0.503   2.796  12.841  0.0683  0.3142 -0.2138
    8MPD2    C1  116   0.403   2.802  12.938  0.6600  0.1669 -0.7102
    8MPD2    C2  117   0.353   2.926  12.969 -0.1034  0.5334  0.3902
    8MPD2    C3  118   0.415   3.041  12.927  0.9140 -0.1656 -0.0246
    8MPD2    C4  119   0.510   3.035  12.820 -0.0389  0.1006  0.4087
    8MPD2    C5  120   0.546   2.909  12.780 -0.2340  0.5016  0.5875
    8MPD2     H  121   0.264   2.941  13.029 -0.6053  2.4565 -0.8136
    8MPD2    H1  122   0.558   3.120  12.774 -1.1185  1.5176  1.8849
    8MPD2    H2  123   0.557   2.710  12.804 -0.2458 -0.5816  1.4216
    8MPD2    H3  124   0.620   2.906  12.701 -0.6677 -1.2212  0.2386
    8MPD2     N  125   0.371   3.175  12.971  0.1268 -0.1411 -0.2185
    8MPD2    H5  126   0.414   3.254  12.925 -1.7433  1.6302  1.1140
    8MPD2    N1  127   0.342   2.683  12.991  0.2470  0.8714  0.3193
    8MPD2    H7  128   0.263   2.689  13.054 -0.0748  0.9503 -0.0979
    9TCq1    O1  129   2.121   1.822  10.083  0.6511 -0.0738 -0.7583
    9TCq1    C1  130   2.188   1.774  10.190 -0.1746  0.1301 -0.0015
    9TCq1    O2  131   2.143   1.745  10.296  0.5283 -0.3868  0.2697
    9TCq1    C2  132   2.328   1.766  10.157  0.4229  0.4867 -0.2994
    9TCq1    C3  133   2.371   1.716  10.034 -0.3603 -0.3759  0.2979
    9TCq1    C4  134   2.501   1.712   9.999 -0.2040 -0.0121  0.1974
    9TCq1    C5  135   2.589   1.758  10.088 -0.1441 -0.1123 -0.4862
    9TCq1    C6  136   2.549   1.802  10.211  0.2218 -0.0711  0.1831
    9TCq1    C7  137   2.417   1.810  10.248  0.1249 -0.3726  0.7970
    9TCq1    C8  138   2.656   1.853  10.297  0.0768  0.5961  0.1635
    9TCq1    O4  139   2.769   1.883  10.251  0.1382 -0.3459  0.4957
    9TCq1    C9  140   2.546   1.640   9.881 -0.1987  0.5464  0.5482
    9TCq1    O5  141   2.457   1.575   9.823 -0.3282 -0.0928  0.4551
    9TCq1    O6  142   2.667   1.647   9.842 -0.1137 -0.4809 -0.2495
    9TCq1    H1  143   2.186   1.852  10.016  1.4051  1.4323  0.6568
    9TCq1    H2  144   2.310   1.663   9.961 -0.0749 -1.7567  1.0677
    9TCq1    H3  145   2.696   1.756  10.070 -0.2105  0.5320 -0.9497
    9TCq1    H4  146   2.383   1.856  10.340  0.0099 -0.4603  0.7990
   10MPD2     C  147   2.795   1.965  10.531 -0.0989  0.2771 -0.0221
   10MPD2    C1  148   2.683   1.896  10.544 -0.0280  0.3927  0.4074
   10MPD2    C2  149   2.615   1.887  10.667 -0.3973 -0.0838  0.1281
   10MPD2    C3  150   2.680   1.926  10.782 -0.2558  0.2979  0.5072
   10MPD2    C4  151   2.800   1.998  10.771 -0.4383  0.3066 -0.0124
   10MPD2    C5  152   2.850   2.023  10.646 -0.2911 -0.3396  0.0765
   10MPD2     H  153   2.525   1.829  10.683 -1.4179  1.1998 -0.9693
   10MPD2    H1  154   2.862   2.032  10.853 -1.6367  0.4531  0.8399
   10MPD2    H2  155   2.846   1.987  10.438 -0.0042 -2.1504 -0.5344
   10MPD2    H3  156   2.946   2.071  10.630 -0.3909  0.2743  1.3730
   10MPD2     N  157   2.643   1.894  10.911 -0.3981 -0.8304 -0.0862
   10MPD2    H5  158   2.693   1.943  10.984  2.3575 -2.3471 -0.9799
   10MPD2    N1  159   2.612   1.842  10.429  0.2029  0.5956  0.5225
   10MPD2    H7  160   2.521   1.801  10.448  1.6037 -2.0941  1.4910
   11TCq1    O1  161   3.600   1.514  14.872 -0.2734 -0.3710  0.4779
   11TCq1    C1  162   3.475   1.485  14.900 -0.6990 -0.2378  0.3137
   11TCq1    O2  163   3.438   1.438  15.007 -0.0472 -0.6711 -0.5562
   11TCq1    C2  164   3.404   1.573  14.817  0.0987 -0.8211  0.1967
   11TCq1    C3  165   3.469   1.638  14.715  0.1326  0.4640  0.0694
   11TCq1    C4  166   3.422   1.762  14.673 -1.4114 -0.1742  0.3709
   11TCq1    C5  167   3.294   1.793  14.705 -0.7525 -0.2863 -0.1164
   11TCq1    C6  168   3.229   1.727  14.809  0.4381 -0.1177 -0.2147
   11TCq1    C7  169   3.292   1.620  14.874 -0.8386  0.2148 -0.8580
   11TCq1    C8  170   3.087   1.714  14.791  0.0744 -0.1118  0.1628
   11TCq1    O4  171   3.025   1.655  14.877  0.0589  0.2167 -0.0461
   11TCq1    C9  172   3.493   1.832  14.568  0.0287 -0.1452  0.3810
   11TCq1    O5  173   3.414   1.891  14.488 -0.4820 -0.8044  0.3727
   11TCq1    O6  174   3.611   1.789  14.546  0.4532 -0.2609  0.5229
   11TCq1    H1  175   3.615   1.492  14.778  0.8753  1.9022  0.1271
   11TCq1    H2  176   3.557   1.601  14.663  0.6504  0.3349  1.0379
   11TCq1    H3  177   3.245   1.879  14.663 -1.8870 -0.5952  0.5785
   11TCq1    H4  178   3.255   1.591  14.972  1.5680 -0.5890 -0.1801
   12MPD2     C  179   2.819   1.753  14.725  0.4656  0.3316 -0.0822
   12MPD2    C1  180   2.914   1.730  14.626  0.1690 -0.1726  0.0371
   12MPD2    C2  181   2.873   1.696  14.497  0.1107  0.0613  0.7072
   12MPD2    C3  182   2.743   1.671  14.468  0.2222  0.3100  0.3511
   12MPD2    C4  183   2.653   1.696  14.565 -0.4102 -0.6208 -0.4165
   12MPD2    C5  184   2.690   1.736  14.694 -0.7895 -0.2810  0.1833
   12MPD2     H  185   2.947   1.680  14.419 -1.2316 -0.0512 -0.5668
   12MPD2    H1  186   2.549   1.669  14.550 -0.1601 -1.0800 -1.2944
   12MPD2    H2  187   2.847   1.769  14.828 -0.3055  0.6659  0.0786
   12MPD2    H3  188   2.613   1.755  14.768  0.9326  0.2833  1.8037
   12MPD2     N  189   2.711   1.635  14.336 -0.3096 -0.1647  0.4005
   12MPD2    H5  190   2.787   1.612  14.274  0.5478  0.7083  1.1306
   12MPD2    N1  191   3.047   1.740  14.661  0.2118 -0.0344 -0.2928
   12MPD2    H7  192   3.123   1.755  14.596  0.1885  1.8175  0.1193
   13TCq1    O1  193   2.935   1.571  10.608 -0.1527  0.3705 -0.4430
   13TCq1    C1  194   2.947   1.610  10.481 -0.7016  0.9692  0.0968
   13TCq1    O2  195   3.051   1.606  10.420  0.1304  0.0710 -0.0449
   13TCq1    C2  196   2.842   1.542  10.415  0.2861 -0.8131  0.0120
   13TCq1    C3  197   2.865   1.490  10.293 -0.1514  0.0798  0.1639
   13TCq1    C4  198   2.755   1.435  10.225  0.2300  0.5478  0.4188
   13TCq1    C5  199   2.626   1.436  10.279  0.9044  0.5267  0.1017
   13TCq1    C6  200   2.608   1.494  10.398 -0.1778 -0.5191 -0.5265
   13TCq1    C7  201   2.716   1.548  10.467  0.7031 -0.3810 -0.4163
   13TCq1    C8  202   2.481   1.492  10.466  0.6851 -0.9313 -0.3525
   13TCq1    O4  203   2.470   1.569  10.568  0.3939  0.2592  0.1223
   13TCq1    C9  204   2.771   1.356  10.100  0.1496 -0.2875 -0.2842
   13TCq1    O5  205   2.666   1.297  10.060 -0.1272 -0.1475 -0.2692
   13TCq1    O6  206   2.875   1.371  10.027 -0.0757 -0.9802 -0.0680
   13TCq1    H1  207   2.849   1.579  10.654  0.0931  1.9197 -0.2496
   13TCq1    H2  208   2.966   1.470  10.258  0.3900  1.5910  0.8878
   13TCq1    H3  209   2.543   1.400  10.219  0.2589  0.9225  0.7546
   13TCq1    H4  210   2.695   1.596  10.562  2.4693 -0.8401  0.1872
   14MPD2     C  211   2.173   1.310  10.387 -0.2788  0.2944 -0.6178
   14MPD2    C1  212   2.259   1.391  10.462 -0.5559  0.6208  0.0979
   14MPD2    C2  213   2.212   1.449  10.580 -0.7206  0.3712  0.2821
   14MPD2    C3  214   2.080   1.428  10.619 -0.0288  0.3636  0.0814
   14MPD2    C4  215   1.993   1.361  10.531  0.4146  0.7555  0.5337
   14MPD2    C5  216   2.041   1.304  10.417  0.2894  0.0782 -0.2952
   14MPD2     H  217   2.269   1.519  10.640  0.4114 -0.8667  0.6565
   14MPD2    H1  218   1.887   1.362  10.553  0.1854 -1.4599 -0.4561
   14MPD2    H2  219   2.210   1.266  10.295  0.7948  0.8897 -0.4822
   14MPD2    H3  220   1.971   1.258  10.348  1.8971 -0.7031 -1.4036
   14MPD2     N  221   2.039   1.479  10.746  0.3877  0.3813 -0.1309
   14MPD2    H5  222   2.112   1.516  10.807 -0.2703  0.8148  0.3842
   14MPD2    N1  223   2.387   1.411  10.414 -0.7038  0.0495 -0.3047
   14MPD2    H7  224   2.415   1.362  10.329  0.1853  1.2677 -0.7096
   15TCq1    O1  225   4.691   1.078   2.928 -0.1616  0.1413 -0.2932
   15TCq1    C1  226   4.641   1.189   2.886  0.2228  0.3554  0.2392
   15TCq1    O2  227   4.703   1.291   2.857  0.4666 -0.6014  0.5176
   15TCq1    C2  228   4.526   1.141   2.800 -0.1772  0.0086  0.3860
   15TCq1    C3  229   4.395   1.174   2.827 -0.0006 -0.2478 -0.0355
   15TCq1    C4  230   4.300   1.127   2.740 -0.4351 -0.3852  0.2725
   15TCq1    C5  231   4.332   1.047   2.632  0.4368  0.7930 -0.7381
   15TCq1    C6  232   4.464   1.020   2.607  0.1106  0.3266 -0.2185
   15TCq1    C7  233   4.564   1.068   2.690 -0.5661  0.3067 -0.0383
   15TCq1    C8  234   4.502   0.949   2.481  0.0210 -0.2747  0.4785
   15TCq1    O4  235   4.616   0.907   2.479  0.3271  0.1299  0.4857
   15TCq1    C9  236   4.164   1.176   2.758 -0.3204  0.1073  0.0336
   15TCq1    O5  237   4.082   1.143   2.668 -0.1205 -0.1141  0.7244
   15TCq1    O6  238   4.139   1.225   2.873  0.2424  0.1095 -0.1841
   15TCq1    H1  239   4.622   1.008   2.925  0.6115 -0.7078  1.4368
   15TCq1    H2  240   4.370   1.239   2.910 -0.6976 -0.2713 -0.2271
   15TCq1    H3  241   4.253   1.018   2.563 -0.8257 -0.8454  1.3881
   15TCq1    H4  242   4.664   1.060   2.650 -0.4014 -2.5267  0.9379
   16MPD2     C  243   4.303   0.905   2.168 -0.5040 -0.0063 -0.8516
   16MPD2    C1  244   4.416   0.900   2.246 -0.2976 -0.2476 -0.0157
   16MPD2    C2  245   4.519   0.834   2.193  0.0607  0.7060 -0.4066
   16MPD2    C3  246   4.520   0.785   2.065  0.9082  0.2132  0.1450
   16MPD2    C4  247   4.413   0.804   1.981  0.3026  0.1460  0.7325
   16MPD2    C5  248   4.306   0.859   2.037 -0.0904  0.6995 -0.7332
   16MPD2     H  249   4.614   0.839   2.245 -1.0848  2.2640  1.5398
   16MPD2    H1  250   4.402   0.775   1.877  1.1620  1.0254  0.3929
   16MPD2    H2  251   4.223   0.963   2.213  0.5202  1.5425 -1.0534
   16MPD2    H3  252   4.222   0.885   1.974 -1.2884 -0.0628  0.5518
   16MPD2     N  253   4.644   0.715   2.033  0.1338  0.7532 -0.4038
   16MPD2    H5  254   4.698   0.674   2.108 -3.1179 -0.3110  1.3826
   16MPD2    N1  255   4.404   0.949   2.382  0.1137  0.2249 -0.1309
   16MPD2    H7  256   4.319   0.994   2.416 -0.3500  0.2050 -1.2534
   17TCq1    O1  257   2.795   1.112  11.198 -0.1153  0.9392 -0.1351
   17TCq1    C1  258   2.917   1.179  11.209  0.6704 -0.0501  0.0525
   17TCq1    O2  259   3.018   1.120  11.245 -0.1420  0.1168  0.5105
   17TCq1    C2  260   2.930   1.259  11.092  0.7177  0.1390  0.3242
   17TCq1    C3  261   3.051   1.317  11.090  0.5675  0.4899 -0.7996
   17TCq1    C4  262   3.111   1.348  10.970 -0.3241 -0.5518 -0.8184
   17TCq1    C5  263   3.053   1.323  10.854 -0.4103  0.2605  0.0546
   17TCq1    C6  264   2.931   1.256  10.851 -0.1482  0.9550 -0.0788
   17TCq1    C7  265   2.873   1.220  10.967 -0.2860 -0.0300  1.2215
   17TCq1    C8  266   2.877   1.219  10.719  0.2033  0.0886 -0.6931
   17TCq1    O4  267   2.762   1.187  10.707  0.4523  0.2225  0.1985
   17TCq1    C9  268   3.239   1.412  10.969  0.7702 -0.3758 -0.3454
   17TCq1    O5  269   3.318   1.400  11.065 -0.0424  0.2937 -0.1683
   17TCq1    O6  270   3.274   1.471  10.866 -0.4398  0.3589 -0.4328
   17TCq1    H1  271   2.716   1.148  11.154  0.5295  0.0240 -2.0670
   17TCq1    H2  272   3.092   1.344  11.187 -1.4763  0.4620  0.0667
   17TCq1    H3  273   3.108   1.355  10.766 -1.6230 -0.2345 -0.8817
   17TCq1    H4  274   2.785   1.158  10.959  1.7218 -2.5757 -1.0791
   18MPD2     C  275   2.862   1.126  10.430  0.4610 -0.9669 -0.1065
   18MPD2    C1  276   2.978   1.145  10.506 -0.3036 -0.7249 -0.5690
   18MPD2    C2  277   3.099   1.121  10.447  0.3150 -0.3407 -0.0449
   18MPD2    C3  278   3.112   1.081  10.312  0.4473 -0.2670 -0.2949
   18MPD2    C4  279   2.996   1.077  10.233 -0.0676  0.5064 -0.2224
   18MPD2    C5  280   2.877   1.097  10.299 -0.3179  0.5605 -0.6870
   18MPD2     H  281   3.183   1.136  10.514  1.1931  0.9073 -1.4134
   18MPD2    H1  282   3.001   1.050  10.128  1.0910  1.6255 -0.4582
   18MPD2    H2  283   2.764   1.126  10.476  0.3682 -0.8728 -0.3026
   18MPD2    H3  284   2.785   1.083  10.244 -0.2165  1.5594 -1.1054
   18MPD2     N  285   3.242   1.060  10.265 -0.6809 -0.9865 -0.3306
   18MPD2    H5  286   3.256   1.047  10.166 -0.9883 -1.5046 -0.3040
   18MPD2    N1  287   2.983   1.183  10.640 -0.6385 -0.0391  0.7904
   18MPD2    H7  288   3.076   1.195  10.680 -1.3562 -0.7732  2.6912
   19TMC2    C1  289   0.080   1.493  14.128  0.6348  0.9850 -0.3729
   19TMC2    C2  290   0.144   1.531  14.015 -0.2890  1.0774 -0.3410
   19TMC2    C3  291   0.072   1.529  13.898 -0.3351 -0.2343 -0.7005
   19TMC2    C4  292   4.669   1.455  14.133 -0.3008 -0.4661 -0.2184
   19TMC2    C5  293   4.599   1.451  14.013 -0.4136 -0.4950 -0.2658
   19TMC2    C6  294   4.660   1.489  13.889 -0.2674  0.7853 -0.0798
   19TMC2     C  295   0.153   1.534  14.246  0.2377  0.0724 -1.1845
   19TMC2     O  296   0.246   1.608  14.227 -0.0171  0.7360  0.3282
   19TMC2     H  297   0.246   1.566  14.012  0.0164  0.4186  2.1376
   19TMC2    H1  298   4.614   1.435  14.225  1.1257  1.5819  1.0969
   19TMC2    H2  299   4.603   1.501  13.797  0.1692  0.1253 -0.4421
   19TMC2    C7  300   4.465   1.396  14.005  0.6728 -0.1203 -0.8744
   19TMC2    C8  301   0.127   1.598  13.785  0.5454  0.4651  0.9818
   19TMC2    O1  302   4.414   1.415  13.896 -0.1103  0.0266 -0.5384
   19TMC2    O2  303   0.213   1.689  13.798 -0.7038 -1.2566 -0.3097
   19TMC2    O5  304   0.091   1.536  13.674  0.4221 -0.2804 -0.3727
   19TMC2    H5  305   0.069   1.441  13.686 -1.0077 -0.0704 -1.4165
   20MPD2     C  306   0.259   1.589  14.513 -0.7884 -0.3313 -0.1540
   20MPD2    C1  307   0.190   1.474  14.483 -0.8906  0.0106  0.1061
   20MPD2    C2  308   0.167   1.383  14.580  0.2222 -0.5409 -0.7381
   20MPD2    C3  309   0.216   1.402  14.708 -0.1396  0.4892  0.2353
   20MPD2    C4  310   0.295   1.510  14.738  0.5690  0.2391  0.2395
   20MPD2    C5  311   0.317   1.599  14.637 -0.0679 -0.2477 -0.0406
   20MPD2     H  312   0.090   1.308  14.560 -0.7374  0.0549  0.7321
   20MPD2    H1  313   0.333   1.526  14.838  0.4514 -0.5199  0.4079
   20MPD2    H2  314   0.271   1.669  14.441  1.9118  0.0538  0.7095
   20MPD2    H3  315   0.379   1.685  14.657 -1.3946  0.0236  2.9254
   20MPD2     N  316   0.202   1.311  14.815 -0.1051 -0.0360  0.3680
   20MPD2    H5  317   0.258   1.330  14.898 -0.4985 -0.7335  0.7848
   20MPD2    N1  318   0.125   1.461  14.356  0.1104 -0.3112  0.0441
   20MPD2    H7  319   0.081   1.373  14.332 -1.6727  0.0184  2.0203
   21MPD2     C  320   1.619   1.971  14.426  0.2484  0.0244  0.2260
   21MPD2    C1  321   1.642   1.838  14.477 -0.2277  0.3473 -0.5314
   21MPD2    C2  322   1.526   1.771  14.510  0.3475  0.0577  0.4940
   21MPD2    C3  323   1.401   1.823  14.504 -0.1964  0.0062  1.5342
   21MPD2    C4  324   1.387   1.954  14.465  0.1924 -0.5968  0.8230
   21MPD2    C5  325   1.491   2.023  14.421 -0.1464 -0.3238 -0.0823
   21MPD2     H  326   1.536   1.674  14.557  0.3983 -0.6744 -1.0242
   21MPD2    H1  327   1.289   1.998  14.474 -0.1446 -1.0384 -0.8519
   21MPD2    H2  328   1.702   2.034  14.394  0.6543 -0.8946 -0.5222
   21MPD2    H3  329   1.479   2.128  14.401  1.6920 -0.5143 -2.1936
   21MPD2     N  330   1.283   1.756  14.552  0.0570 -0.1733 -0.5447
   21MPD2    H5  331   1.192   1.802  14.551 -0.3606 -1.0133 -1.7780
   21MPD2    N1  332   1.758   1.766  14.480  0.8705 -0.4676  0.2577
   21MPD2    H7  333   1.745   1.671  14.511 -1.0844  0.5937  2.6949
   22TCq2    C1  334   1.281   1.625  14.603 -0.4725 -0.5847  0.4945
   22TCq2    O2  335   1.373   1.548  14.622  0.3113 -0.3559 -0.0435
   22TCq2    C2  336   1.156   1.589  14.652 -0.4939 -0.1880 -1.2942
   22TCq2    C3  337   1.160   1.501  14.755 -0.3436 -0.2506  0.2156
   22TCq2    C4  338   1.047   1.472  14.821 -0.9931  0.3365 -0.0719
   22TCq2    C5  339   0.923   1.522  14.782  0.3697  0.4224 -0.1725
   22TCq2    C6  340   0.924   1.607  14.674  0.1916 -0.0513  0.4999
   22TCq2    C7  341   1.038   1.644  14.611 -0.2747 -0.2059 -0.1795
   22TCq2    C8  342   0.795   1.651  14.615  0.0610  0.2011  0.4486
   22TCq2    O4  343   0.695   1.583  14.633  0.0616  0.5655  0.5780
   22TCq2    C9  344   1.043   1.377  14.922 -0.3925  0.4012  0.3370
   22TCq2    O5  345   1.151   1.331  14.974  0.2582 -0.1504 -0.4387
   22TCq2    O6  346   0.933   1.348  14.970 -0.4834  0.2909  0.6527
   22TCq2    H2  347   1.254   1.458  14.786 -0.4109 -0.5726 -0.0330
   22TCq2    H3  348   0.833   1.515  14.842  0.7559 -1.0409  0.2221
   22TCq2    H4  349   1.032   1.709  14.524 -1.7005  2.0205  1.5875
   23MPD2     C  350   3.494   2.498  14.659 -0.2240  0.4195  0.6547
   23MPD2    C1  351   3.403   2.551  14.748  0.0277  0.7400 -0.0522
   23MPD2    C2  352   3.321   2.655  14.711  0.4024 -0.1005  0.4511
   23MPD2    C3  353   3.339   2.717  14.582 -1.1369  0.3750  0.1558
   23MPD2    C4  354   3.431   2.663  14.496  0.1662  0.4584 -0.6446
   23MPD2    C5  355   3.505   2.556  14.534  0.7438 -0.0557 -1.0915
   23MPD2     H  356   3.249   2.690  14.785 -1.3540 -2.3437 -0.1805
   23MPD2    H1  357   3.447   2.699  14.395 -0.1318  1.3650 -0.3658
   23MPD2    H2  358   3.555   2.418  14.697  0.3963 -0.5551 -2.3614
   23MPD2    H3  359   3.583   2.518  14.469  0.8754 -0.5578 -0.6380
   23MPD2     N  360   3.264   2.834  14.539 -0.3276 -0.4824  0.1298
   23MPD2    H5  361   3.281   2.859  14.442  0.5398 -0.8616  0.1858
   23MPD2    N1  362   3.377   2.504  14.875 -0.5139  1.0019  0.1231
   23MPD2    H7  363   3.307   2.558  14.925 -1.1904 -0.3473  0.6342
   24TCq2    C1  364   3.156   2.881  14.612 -0.0984  0.0816  0.7460
   24TCq2    O2  365   3.141   2.865  14.734  0.2594 -0.3305 -0.2778
   24TCq2    C2  366   3.054   2.954  14.544 -0.5471  0.2342  0.2231
   24TCq2    C3  367   3.055   2.964  14.410  0.4320 -0.3549 -0.0570
   24TCq2    C4  368   2.936   2.981  14.347 -0.0617  0.3764  0.3475
   24TCq2    C5  369   2.825   2.998  14.416  0.1190 -0.2649  0.3350
   24TCq2    C6  370   2.827   3.002  14.557  0.4690 -0.2400  0.4951
   24TCq2    C7  371   2.942   2.987  14.621 -0.8025  0.1244  0.4043
   24TCq2    C8  372   2.703   2.948  14.623 -0.2222  0.4642  0.4049
   24TCq2    O4  373   2.717   2.878  14.723  0.4800 -0.7501 -0.3035
   24TCq2    C9  374   2.935   2.995  14.205 -0.2792 -0.6175 -0.4766
   24TCq2    O5  375   3.050   2.998  14.158 -0.1709 -0.1113 -0.2515
   24TCq2    O6  376   2.836   2.952  14.144  0.1753 -0.2515 -0.8145
   24TCq2    H2  377   3.145   2.948  14.351 -1.2369 -1.1496 -2.3697
   24TCq2    H3  378   2.734   3.006  14.359  1.0266  2.8778 -0.6496
   24TCq2    H4  379   2.957   2.993  14.728  0.2869  1.8128  0.1605
   25TMC2    C1  380   2.432   0.466  11.660 -0.2826  0.7197  0.4047
   25TMC2    C2  381   2.493   0.554  11.743  0.3303  1.0906 -0.4293
   25TMC2    C3  382   2.421   0.649  11.805  0.3311  0.0914 -0.2333
   25TMC2    C4  383   2.302   0.459  11.657 -0.0916 -0.3383  0.3110
   25TMC2    C5  384   2.226   0.558  11.721 -0.2487  0.5116  0.1208
   25TMC2    C6  385   2.284   0.650  11.808  0.2670  0.2561  0.3629
   25TMC2     C  386   2.516   0.380  11.582  0.6309  0.8430  0.1537
   25TMC2     O  387   2.636   0.399  11.580 -0.0913  0.3619  0.2785
   25TMC2     H  388   2.597   0.582  11.725  1.1026 -0.6088  1.4049
   25TMC2    H1  389   2.241   0.396  11.593  0.4923  0.1063 -0.6842
   25TMC2    H2  390   2.233   0.744  11.829  0.1744  0.1501  0.6083
   25TMC2    C7  391   2.092   0.510  11.761 -0.5080  0.3792 -0.5271
   25TMC2    C8  392   2.480   0.764  11.861  0.0169  0.3378  0.2463
   25TMC2    O1  393   2.014   0.476  11.676 -0.0109  0.5086 -0.0844
   25TMC2    O2  394   2.568   0.825  11.803  0.2300  0.2340  0.3373
   25TMC2    O5  395   2.450   0.766  11.990  0.2405 -0.2018 -0.3418
   25TMC2    H5  396   2.378   0.701  12.003  1.0719 -1.2601 -1.1012
   26MPD2     C  397   2.575   0.006  11.245  0.3088  0.4750  0.0176
   26MPD2    C1  398   2.453   4.704  11.310  0.0971  0.1047  0.5456
   26MPD2    C2  399   2.419   0.076  11.412  0.3991 -0.2932 -0.4111
   26MPD2    C3  400   2.504   0.175  11.451  0.0561  0.6995 -0.2657
   26MPD2    C4  401   2.628   0.186  11.387 -0.0304 -0.1470  0.4149
   26MPD2    C5  402   2.666   0.097  11.291 -0.4534 -0.2982 -0.5002
   26MPD2     H  403   2.327   0.060  11.468  0.5536 -1.5381 -0.5033
   26MPD2    H1  404   2.696   0.267  11.411  0.5369 -0.5941  0.3033
   26MPD2    H2  405   2.607   4.659  11.165 -0.5688 -0.2253  0.2365
   26MPD2    H3  406   2.767   0.098  11.252 -0.2199 -0.2602  0.1098
   26MPD2     N  407   2.452   0.272  11.538 -0.4107  0.4840  0.1254
   26MPD2    H5  408   2.358   0.258  11.574 -0.0962  1.8002  1.4674
   26MPD2    N1  409   2.385   4.596  11.264  0.2481  0.0617  0.2793
   26MPD2    H7  410   2.416   4.555  11.177 -0.7718 -2.2372  1.0018
   27TMC2    C1  411   1.217   2.307  12.017  0.2228  0.6248 -0.1115
   27TMC2    C2  412   1.149   2.394  11.938  0.6993 -0.4807 -0.7298
   27TMC2    C3  413   1.213   2.504  11.899 -0.2706 -0.1206  0.3471
   27TMC2    C4  414   1.349   2.334  12.060  0.2630  0.0345 -0.1073
   27TMC2    C5  415   1.409   2.444  12.017 -0.0653 -0.2336 -0.3152
   27TMC2    C6  416   1.339   2.532  11.938  0.8225 -0.0006  0.2624
   27TMC2     C  417   1.140   2.229  12.110 -0.2770  0.0874 -0.8279
   27TMC2     O  418   1.204   2.137  12.165 -0.3347 -0.0483  0.1804
   27TMC2     H  419   1.054   2.365  11.895  0.5086 -0.1693 -0.5247
   27TMC2    H1  420   1.410   2.273  12.125 -0.5982  0.2452  0.8917
   27TMC2    H2  421   1.389   2.614  11.888  0.6539  0.9865  1.6870
   27TMC2    C7  422   1.488   2.513  12.119 -0.7740 -0.2493 -0.2930
   27TMC2    C8  423   1.157   2.580  11.783  0.2329 -0.1283  0.2146
   27TMC2    O1  424   1.519   2.449  12.217  0.4109  0.4996  0.2062
   27TMC2    O2  425   1.224   2.628  11.693  0.9268 -0.0856 -0.7526
   27TMC2    O5  426   1.025   2.587  11.796 -0.2645 -0.5604 -0.1491
   27TMC2    H5  427   0.987   2.554  11.881 -0.4805 -1.3948 -0.5676
   28MPD2     C  428   0.777   2.141  12.451 -0.5312 -0.4071 -0.3703
   28MPD2    C1  429   0.759   2.271  12.406 -0.2828 -0.8380  0.4622
   28MPD2    C2  430   0.841   2.314  12.310  0.1368 -0.8657  0.0728
   28MPD2    C3  431   0.944   2.236  12.252  0.7485  0.1676  0.2284
   28MPD2    C4  432   0.956   2.108  12.298 -0.4414  0.1594  0.6407
   28MPD2    C5  433   0.872   2.061  12.396 -0.1799 -0.3321  0.1332
   28MPD2     H  434   0.827   2.410  12.260 -1.9317 -0.4335  1.4723
   28MPD2    H1  435   1.027   2.037  12.256 -1.2079 -1.5226  2.1947
   28MPD2    H2  436   0.720   2.099  12.532 -1.3820  3.2200  0.8973
   28MPD2    H3  437   0.872   1.959  12.430 -2.1710 -0.6249 -0.7206
   28MPD2     N  438   1.026   2.291  12.152  0.3331  0.5813 -0.4300
   28MPD2    H5  439   1.012   2.384  12.116  1.0840  1.4186  1.4494
   28MPD2    N1  440   0.653   2.338  12.462 -0.1612  0.3109 -0.4686
   28MPD2    H7  441   0.610   2.283  12.536  2.2226  1.4119  1.7549
   29MPD2     C  442   0.131   4.644  14.126 -0.2469  0.5067  0.2165
   29MPD2    C1  443   0.263   4.620  14.098  0.4213 -0.4174 -0.1399
   29MPD2    C2  444   0.358   0.004  14.108  0.1583  0.3007 -0.4390
   29MPD2    C3  445   0.316   0.127  14.153 -0.2503  0.3286  0.2470
   29MPD2    C4  446   0.185   0.142  14.199  0.4393  0.2419  0.1619
   29MPD2    C5  447   0.096   0.037  14.190  0.1248 -0.2038  0.3183
   29MPD2     H  448   0.464   4.702  14.094  0.5012  0.4665  1.9386
   29MPD2    H1  449   0.152   0.241  14.230 -3.1748 -0.3439 -1.8067
   29MPD2    H2  450   0.051   4.574  14.109  0.4930  0.0472 -1.3663
   29MPD2    H3  451   4.712   0.059  14.218  0.5678  1.7252  0.4773
   29MPD2     N  452   0.404   0.241  14.150  0.0816 -0.4407 -0.9932
   29MPD2    H5  453   0.360   0.332  14.153  0.1817 -0.3611 -2.0589
   29MPD2    N1  454   0.305   4.484  14.062 -0.5665 -0.3253 -0.9918
   29MPD2    H7  455   0.404   4.468  14.046 -0.2071  1.0800 -0.1584
   30TCq2    C1  456   0.537   0.242  14.119 -0.1755 -0.4878  0.4441
   30TCq2    O2  457   0.617   0.148  14.106  0.4208  0.1351  0.7486
   30TCq2    C2  458   0.587   0.367  14.086  0.3063 -0.9583  0.6371
   30TCq2    C3  459   0.698   0.374  14.016 -0.3000 -0.0090 -0.3390
   30TCq2    C4  460   0.741   0.496  13.977  0.2075 -0.4521  0.1848
   30TCq2    C5  461   0.678   0.614  14.006 -0.1077 -0.2782 -0.8506
   30TCq2    C6  462   0.562   0.605  14.074 -0.7681 -0.9342 -0.3816
   30TCq2    C7  463   0.520   0.483  14.119 -0.0374 -0.7471 -0.3067
   30TCq2    C8  464   0.492   0.722  14.120 -0.9888  0.0134 -0.1863
   30TCq2    O4  465   0.380   0.701  14.167  1.0252 -0.0368 -0.1927
   30TCq2    C9  466   0.856   0.500  13.896 -0.2987  0.2990 -0.2606
   30TCq2    O5  467   0.942   0.406  13.915 -0.1306 -0.3479  0.3786
   30TCq2    O6  468   0.857   0.576  13.793  0.5980  0.1550  0.2591
   30TCq2    H2  469   0.752   0.287  13.980 -0.5514  0.7029 -2.3903
   30TCq2    H3  470   0.703   0.712  13.967 -1.9809  0.3784 -0.4262
   30TCq2    H4  471   0.424   0.478  14.169 -1.3628  0.6702 -2.7235
   31MPD2     C  472   2.934   3.444  14.724  0.0951 -0.7438  0.2112
   31MPD2    C1  473   2.809   3.510  14.706  0.3539 -0.0643 -0.5222
   31MPD2    C2  474   2.694   3.441  14.731 -0.1887  0.3103 -0.1434
   31MPD2    C3  475   2.700   3.314  14.772  0.2941  0.4595  0.6699
   31MPD2    C4  476   2.824   3.249  14.789  0.0056 -0.0881 -0.0678
   31MPD2    C5  477   2.938   3.315  14.772 -0.0976  0.1097  0.3346
   31MPD2     H  478   2.600   3.493  14.720  0.0954 -0.0704 -4.6431
   31MPD2    H1  479   2.832   3.147  14.827 -1.4382 -1.4737 -3.4932
   31MPD2    H2  480   3.025   3.498  14.701  0.2997 -1.8894 -1.6163
   31MPD2    H3  481   3.035   3.271  14.790  0.2700  0.0786 -1.6917
   31MPD2     N  482   2.592   3.236  14.810  0.6911 -0.3581 -0.4955
   31MPD2    H5  483   2.614   3.141  14.837 -0.7094 -1.0528 -1.7933
   31MPD2    N1  484   2.812   3.644  14.647  0.6005 -0.0004  1.2902
   31MPD2    H7  485   2.902   3.685  14.626  0.8842 -1.3970 -0.2758
   32TCq2    C1  486   2.460   3.271  14.806 -0.0249 -0.2745 -0.7099
   32TCq2    O2  487   2.404   3.371  14.762  0.6954  0.2037 -0.0789
   32TCq2    C2  488   2.374   3.164  14.852  0.3113 -0.0023 -0.8781
   32TCq2    C3  489   2.238   3.170  14.813 -0.8722  0.2030  0.4664
   32TCq2    C4  490   2.152   3.082  14.872  0.2405  0.3655 -0.1920
   32TCq2    C5  491   2.198   2.990  14.967  0.3508  0.0774  0.2884
   32TCq2    C6  492   2.329   2.987  14.999 -0.3604  0.9001 -0.0060
   32TCq2    C7  493   2.420   3.072  14.941 -0.1693 -0.0836  0.4863
   32TCq2    C8  494   2.383   2.891  15.099  0.3622 -0.0426 -1.1348
   32TCq2    O4  495   2.494   2.914  15.137 -0.4878 -0.5432  0.2686
   32TCq2    C9  496   2.008   3.088  14.853 -0.0525 -0.0829 -0.1097
   32TCq2    O5  497   1.931   3.012  14.921 -0.3870 -0.4944 -0.2347
   32TCq2    O6  498   1.965   3.189  14.792 -0.0523 -0.5139  0.1681
   32TCq2    H2  499   2.199   3.230  14.732  3.0778 -0.0211 -1.6542
   32TCq2    H3  500   2.127   2.915  15.001 -0.6870  0.3031 -1.4090
   32TCq2    H4  501   2.520   3.072  14.983 -0.0347 -1.2346  0.1523
   33MPD2     C  502   3.897   1.485   9.887  0.4011 -0.3163  0.4413
   33MPD2    C1  503   3.792   1.396   9.878 -0.2591 -0.1930 -0.9237
   33MPD2    C2  504   3.735   1.382   9.751 -0.0882 -0.3742 -0.6770
   33MPD2    C3  505   3.775   1.456   9.640  0.4633  0.1836  0.0803
   33MPD2    C4  506   3.866   1.552   9.658 -0.0779 -0.2379 -0.4606
   33MPD2    C5  507   3.928   1.563   9.784 -0.2807  0.0880  0.1217
   33MPD2     H  508   3.667   1.301   9.727 -1.4802 -0.0342  2.0626
   33MPD2    H1  509   3.909   1.617   9.582 -1.1930  0.7618 -0.2200
   33MPD2    H2  510   3.956   1.487   9.977  2.2833  0.8952 -0.8180
   33MPD2    H3  511   4.008   1.635   9.786  0.7793 -1.0920  0.0412
   33MPD2     N  512   3.725   1.434   9.506 -0.9323 -0.2015  0.0047
   33MPD2    H5  513   3.757   1.504   9.440 -0.6304 -0.5835 -0.2562
   33MPD2    N1  514   3.753   1.317   9.989  0.2777  0.2552 -0.4131
   33MPD2    H7  515   3.815   1.321  10.069 -0.5204 -1.9986  0.3324
   34TCq2    C1  516   3.618   1.361   9.467  0.7038  0.1668  0.3904
   34TCq2    O2  517   3.566   1.268   9.525 -0.3236  0.1102 -0.2545
   34TCq2    C2  518   3.578   1.393   9.333  0.4361 -0.0835 -0.8401
   34TCq2    C3  519   3.461   1.333   9.297  0.7637 -0.3678 -0.4901
   34TCq2    C4  520   3.395   1.388   9.192 -0.5022  0.8528 -0.2226
   34TCq2    C5  521   3.440   1.504   9.134 -0.5981 -0.1251  0.4513
   34TCq2    C6  522   3.557   1.565   9.180  0.2474 -0.1981 -0.6054
   34TCq2    C7  523   3.629   1.501   9.274  1.0967  0.0944  0.7753
   34TCq2    C8  524   3.599   1.706   9.155 -0.8556 -0.2721 -0.1377
   34TCq2    O4  525   3.707   1.744   9.202 -0.7183 -0.5077 -0.1561
   34TCq2    C9  526   3.281   1.322   9.138  0.8739  0.0401  0.7005
   34TCq2    O5  527   3.228   1.231   9.200 -0.1858 -0.9578  0.4027
   34TCq2    O6  528   3.239   1.355   9.024  0.4666  0.3110  0.0815
   34TCq2    H2  529   3.417   1.249   9.349  1.4105 -0.5134 -0.1775
   34TCq2    H3  530   3.382   1.536   9.048 -1.3137  0.4260  1.1384
   34TCq2    H4  531   3.723   1.545   9.302  0.3495  1.3549  1.3221
   35MPD2     C  532   0.058   3.117  11.853  0.4652 -0.7548  0.1650
   35MPD2    C1  533   0.074   3.007  11.768  0.3440 -0.6309 -0.6157
   35MPD2    C2  534   0.086   3.033  11.633  0.0334  0.7185  0.0625
   35MPD2    C3  535   0.062   3.157  11.581  0.7632  0.4732  0.6929
   35MPD2    C4  536   0.047   3.272  11.661 -0.4221  0.2662 -0.0174
   35MPD2    C5  537   0.052   3.243  11.796  0.1516  0.0995  0.4040
   35MPD2     H  538   0.102   2.947  11.569 -0.0371 -1.0316  2.3954
   35MPD2    H1  539   0.034   3.368  11.613  1.6761  0.1286 -0.8479
   35MPD2    H2  540   0.066   3.105  11.960 -0.8251  0.5841  0.4031
   35MPD2    H3  541   0.059   3.315  11.877 -2.4418 -0.0779  0.7746
   35MPD2     N  542   0.054   3.163  11.441 -0.8096 -0.1554 -0.0927
   35MPD2    H5  543   0.031   3.078  11.389  1.3449 -0.7852 -0.0421
   35MPD2    N1  544   0.066   2.875  11.821 -0.0539 -0.3603  0.0115
   35MPD2    H7  545   0.026   2.861  11.914  0.0445  1.6347  0.3408
   36TCq2    C1  546   0.040   3.284  11.374 -0.5768  0.2421  0.1793
   36TCq2    O2  547   0.113   3.385  11.371 -0.1398  0.1120  0.2865
   36TCq2    C2  548   4.652   3.268  11.275 -0.8645 -0.2756 -0.0288
   36TCq2    C3  549   4.671   3.335  11.157  0.4733 -0.6836  0.0245
   36TCq2    C4  550   4.607   3.281  11.044 -0.5004  0.0862  0.8492
   36TCq2    C5  551   4.528   3.169  11.052 -0.1206 -0.1059  0.0584
   36TCq2    C6  552   4.509   3.113  11.179  0.2627 -0.1748 -0.1772
   36TCq2    C7  553   4.562   3.166  11.294 -0.1447  0.4554  0.1945
   36TCq2    C8  554   4.421   2.996  11.203 -0.2121  0.1602 -0.2902
   36TCq2    O4  555   4.440   2.946  11.314  0.3371  0.0092 -0.2705
   36TCq2    C9  556   4.630   3.350  10.926  0.2865  0.3142  0.5942
   36TCq2    O5  557   4.635   3.279  10.821 -0.1145  0.0725 -0.9887
   36TCq2    O6  558   4.614   3.475  10.935  0.4896  0.5375  0.3674
   36TCq2    H2  559   0.012   3.425  11.152 -0.1371 -0.1549  2.1736
   36TCq2    H3  560   4.491   3.129  10.958 -1.8774 -1.9751  1.5271
   36TCq2    H4  561   4.529   3.136  11.393 -0.8164 -2.0575 -0.7845
   37TMC2    C1  562   2.333   2.662  11.652 -0.4200 -0.2288 -0.0548
   37TMC2    C2  563   2.260   2.586  11.564  0.1398 -0.0515 -0.1451
   37TMC2    C3  564   2.305   2.578  11.431 -0.3010 -0.3235  0.2126
   37TMC2    C4  565   2.438   2.742  11.614 -0.7634  0.0554 -0.3541
   37TMC2    C5  566   2.467   2.729  11.481  0.1856 -0.1880 -0.3470
   37TMC2    C6  567   2.407   2.654  11.389 -0.7996  0.2902 -0.9069
   37TMC2     C  568   2.322   2.619  11.785  0.3762  0.0172  0.7265
   37TMC2     O  569   2.217   2.573  11.826  0.1104  0.0144 -0.3223
   37TMC2     H  570   2.192   2.515  11.608  0.6815  0.0971  0.9267
   37TMC2    H1  571   2.484   2.822  11.671 -3.7109  1.8434 -0.5382
   37TMC2    H2  572   2.428   2.658  11.282 -2.0475  0.2975 -1.1463
   37TMC2    C7  573   2.573   2.820  11.437 -0.4272  0.9013  0.5504
   37TMC2    C8  574   2.231   2.487  11.346  0.3126  0.2362 -0.4208
   37TMC2    O1  575   2.575   2.928  11.499  0.1593  0.4445  0.0414
   37TMC2    O2  576   2.115   2.456  11.362  0.3969  0.2571  0.2921
   37TMC2    O5  577   2.306   2.469  11.237 -0.5877 -0.5454 -0.0776
   37TMC2    H5  578   2.404   2.478  11.237 -0.6291 -0.0967 -0.5517
   38MPD2     C  579   2.500   2.657  12.265  0.3113  0.1274 -0.3315
   38MPD2    C1  580   2.594   2.717  12.181 -0.1873  0.3807 -0.0642
   38MPD2    C2  581   2.577   2.702  12.048 -0.6975  0.1740 -0.6675
   38MPD2    C3  582   2.458   2.656  11.991 -0.6496  0.0353  0.1759
   38MPD2    C4  583   2.372   2.588  12.074  0.7562 -0.6797 -1.1502
   38MPD2    C5  584   2.392   2.595  12.206 -0.1228  0.1922  0.2440
   38MPD2     H  585   2.645   2.760  11.987 -0.2987 -0.5538 -0.9124
   38MPD2    H1  586   2.279   2.544  12.040  0.0136  0.3838 -0.5046
   38MPD2    H2  587   2.503   2.666  12.373  4.5627 -0.3487 -0.4162
   38MPD2    H3  588   2.317   2.539  12.260 -0.3305 -0.0023 -0.2526
   38MPD2     N  589   2.438   2.664  11.854  0.0729  0.3961  0.1084
   38MPD2    H5  590   2.519   2.690  11.799  0.3484 -0.3245  0.1665
   38MPD2    N1  591   2.705   2.787  12.225 -0.1852  0.1072  0.0840
   38MPD2    H7  592   2.774   2.814  12.155 -0.3829  1.3029  0.3537
   39MPD2     C  593   0.186   0.219   2.095 -0.2073 -0.1303  0.3181
   39MPD2    C1  594   0.083   0.301   2.141 -0.2199 -0.1771 -0.3999
   39MPD2    C2  595   4.688   0.315   2.075 -0.4213 -0.5744  0.2232
   39MPD2    C3  596   4.664   0.249   1.950  0.4301 -0.0493  0.1287
   39MPD2    C4  597   0.044   0.160   1.904 -0.0781 -0.3321 -0.2739
   39MPD2    C5  598   0.157   0.143   1.978 -0.0018  0.2528 -0.4074
   39MPD2     H  599   4.608   0.370   2.123 -0.9563  0.5427 -1.9679
   39MPD2    H1  600   0.021   0.091   1.824 -0.4109 -0.6487  0.0915
   39MPD2    H2  601   0.282   0.210   2.146  0.8227  1.4566 -1.3677
   39MPD2    H3  602   0.234   0.074   1.944  1.0796  1.6741 -0.8563
   39MPD2     N  603   4.541   0.273   1.875  0.2948  0.4453 -0.6847
   39MPD2    H5  604   4.531   0.234   1.782 -0.7470 -0.6251 -0.1286
   39MPD2    N1  605   0.116   0.365   2.261 -0.1047  0.2964  0.1644
   39MPD2    H7  606   0.182   0.315   2.320 -0.9560 -0.7348  0.2408
   40TCq2    C1  607   0.054   0.479   2.306 -0.5740 -0.0787 -0.2474
   40TCq2    O2  608   4.687   0.547   2.255  0.2990  0.2693  0.3021
   40TCq2    C2  609   0.095   0.521   2.434  0.2093  1.1539 -0.5126
   40TCq2    C3  610   4.702   0.564   2.506 -0.7228  0.5457 -0.2483
   40TCq2    C4  611   0.005   0.565   2.639 -0.7236  0.2038  0.1836
   40TCq2    C5  612   0.121   0.517   2.698 -0.3936 -0.0100 -0.1830
   40TCq2    C6  613   0.236   0.494   2.619  0.0798 -0.2405  0.6631
   40TCq2    C7  614   0.223   0.493   2.485 -0.0084  0.0553  0.4012
   40TCq2    C8  615   0.358   0.447   2.686 -0.3638 -0.5835 -0.3064
   40TCq2    O4  616   0.334   0.405   2.799 -0.0767 -0.2703 -0.3317
   40TCq2    C9  617   4.615   0.599   2.729  0.8095  0.7012  0.3658
   40TCq2    O5  618   4.500   0.620   2.685 -0.5470  0.6714  0.3589
   40TCq2    O6  619   4.633   0.594   2.856 -0.1242 -0.4719 -0.6616
   40TCq2    H2  620   4.605   0.597   2.468 -1.1050  1.5971  1.6520
   40TCq2    H3  621   0.122   0.525   2.806 -0.6747 -2.3528 -0.0073
   40TCq2    H4  622   0.309   0.472   2.422  0.5886 -0.1209  1.2726
   41TMC2    C1  623   4.341   2.916  13.275 -0.1905 -0.4123  0.2879
   41TMC2    C2  624   4.349   2.996  13.392  1.0565 -0.1602  0.5485
   41TMC2    C3  625   4.369   3.130  13.377  0.4258 -0.0771  0.4802
   41TMC2    C4  626   4.354   2.970  13.148  0.4938  0.3991  0.2203
   41TMC2    C5  627   4.368   3.106  13.141 -0.0355 -0.3160 -0.1368
   41TMC2    C6  628   4.387   3.186  13.249 -0.9238  1.3185 -0.4992
   41TMC2     C  629   4.311   2.779  13.305  0.3968 -0.4862 -0.1379
   41TMC2     O  630   4.351   2.699  13.219 -0.0505  0.0819  0.2971
   41TMC2     H  631   4.332   2.953  13.490 -2.9490 -1.7079 -0.7909
   41TMC2    H1  632   4.337   2.897  13.069 -0.8169  1.0794 -0.1303
   41TMC2    H2  633   4.379   3.292  13.230 -2.2666  1.1302 -1.0149
   41TMC2    C7  634   4.356   3.171  13.012 -0.2996  0.1308 -0.5396
   41TMC2    C8  635   4.395   3.201  13.500 -0.2681  0.8438 -0.4930
   41TMC2    O1  636   4.361   3.290  13.011  0.0724  0.2709 -0.2778
   41TMC2    O2  637   4.360   3.159  13.610 -0.0997  0.3685  0.1545
   41TMC2    O5  638   4.459   3.319  13.479  0.4313 -0.4185 -0.0335
   41TMC2    H5  639   4.500   3.333  13.391  0.7933  0.7314  0.3102
   42MPD2     C  640   4.221   2.519  13.415  0.3830 -0.3823 -0.2751
   42MPD2    C1  641   4.172   2.640  13.463 -0.6546 -0.1915  0.3026
   42MPD2    C2  642   4.089   2.648  13.578  0.3522 -0.2207 -0.2705
   42MPD2    C3  643   4.043   2.533  13.640 -0.7362 -0.1769  0.1517
   42MPD2    C4  644   4.091   2.416  13.592  0.1579 -0.7566  0.0240
   42MPD2    C5  645   4.167   2.410  13.473  0.4663 -0.1162  0.1243
   42MPD2     H  646   4.057   2.747  13.609 -0.6287 -1.1627  1.6845
   42MPD2    H1  647   4.052   2.322  13.630  0.0319  0.5046  3.0043
   42MPD2    H2  648   4.288   2.518  13.330  1.5664 -1.4924  0.6553
   42MPD2    H3  649   4.195   2.311  13.439 -4.5210 -1.3705 -0.3099
   42MPD2     N  650   3.955   2.534  13.751 -0.4734  0.4208  0.3004
   42MPD2    H5  651   3.927   2.440  13.777  0.4451  0.7789  2.6795
   42MPD2    N1  652   4.218   2.762  13.408 -0.2400  0.4232  0.3456
   42MPD2    H7  653   4.170   2.837  13.456 -0.9135  0.3178 -0.1726
   43MPD2     C  654   0.329   0.953   1.123 -0.5521 -0.2376  0.3972
   43MPD2    C1  655   0.451   0.917   1.175  0.4893  0.2033 -0.2090
   43MPD2    C2  656   0.504   0.973   1.287  0.0338 -1.2572  0.3325
   43MPD2    C3  657   0.435   1.069   1.360  0.3130  0.2067 -0.1096
   43MPD2    C4  658   0.316   1.110   1.313 -0.2961 -0.0458 -0.3672
   43MPD2    C5  659   0.265   1.045   1.198  0.0442 -0.2862 -0.1467
   43MPD2     H  660   0.597   0.935   1.327  1.8029  1.9573 -0.7465
   43MPD2    H1  661   0.255   1.186   1.362 -1.3837 -0.3224 -1.2882
   43MPD2    H2  662   0.277   0.913   1.037 -3.5508  1.7645  1.2722
   43MPD2    H3  663   0.165   1.069   1.165  0.6913  0.7732 -1.3320
   43MPD2     N  664   0.492   1.131   1.475 -0.1253 -0.2213 -0.1999
   43MPD2    H5  665   0.434   1.207   1.508  0.3573  0.2524 -0.4430
   43MPD2    N1  666   0.524   0.805   1.125 -0.1820  0.4277  0.9481
   43MPD2    H7  667   0.613   0.786   1.171 -0.5049 -2.4577  0.3787
   44TCq2    C1  668   0.878   1.174   1.908  0.3218 -0.4565 -0.4184
   44TCq2    O2  669   0.983   1.209   1.853 -0.7010  0.2462 -0.2521
   44TCq2    C2  670   0.751   1.192   1.847 -0.1144 -0.0025 -0.5576
   44TCq2    C3  671   0.641   1.235   1.924 -0.8109 -0.3136  0.5258
   44TCq2    C4  672   0.521   1.230   1.864 -1.0049  0.1573 -0.0520
   44TCq2    C5  673   0.498   1.196   1.734  0.3131  0.2073 -0.7052
   44TCq2    C6  674   0.613   1.157   1.676  0.2560  0.0321 -0.1842
   44TCq2    C7  675   0.742   1.148   1.721  0.1231  0.3909  0.5452
   44TCq2    C8  676   0.607   1.096   1.540 -0.4472 -0.4708  0.4511
   44TCq2    O4  677   0.709   1.043   1.496  0.1679  0.0502 -0.3345
   44TCq2    C9  678   0.400   1.257   1.943 -0.0201 -0.6989 -0.6669
   44TCq2    O5  679   0.411   1.254   2.066 -0.5915  0.1844  0.0115
   44TCq2    O6  680   0.295   1.285   1.877 -0.1514 -0.0314  0.1865
   44TCq2    H2  681   0.644   1.286   2.019  1.6765  0.8696 -0.1800
   44TCq2    H3  682   0.401   1.181   1.688 -0.3984  3.3863 -0.2044
   44TCq2    H4  683   0.833   1.120   1.669 -0.6856 -2.0800  0.5126
   45TMC2    C1  684   2.284   2.799   9.604  0.0968  0.3101 -0.1184
   45TMC2    C2  685   2.403   2.742   9.575 -0.6415 -0.6741  0.2513
   45TMC2    C3  686   2.516   2.797   9.624 -0.1927 -0.3092 -0.3513
   45TMC2    C4  687   2.278   2.908   9.692  0.1664 -0.2164  0.4257
   45TMC2    C5  688   2.397   2.955   9.742  0.0570  0.0693  0.5293
   45TMC2    C6  689   2.517   2.909   9.700 -0.2417 -0.2805  0.2118
   45TMC2     C  690   2.159   2.734   9.564 -0.4862 -0.2694 -0.2000
   45TMC2     O  691   2.162   2.614   9.536 -0.0222  0.1035 -0.2733
   45TMC2     H  692   2.391   2.650   9.517  1.0167 -0.9168  0.3077
   45TMC2    H1  693   2.187   2.963   9.710  0.9231  1.4056 -0.6811
   45TMC2    H2  694   2.609   2.927   9.755  1.6538 -0.8241 -2.7783
   45TMC2    C7  695   2.399   3.070   9.828  0.2220  0.0702 -0.4300
   45TMC2    C8  696   2.642   2.735   9.581  0.0917 -0.4730  0.1385
   45TMC2    O1  697   2.318   3.076   9.913 -0.1722  0.4503 -0.5853
   45TMC2    O2  698   2.650   2.623   9.538  0.6815  0.1240 -0.9844
   45TMC2    O5  699   2.733   2.833   9.569 -0.2313 -0.1454  0.0816
   45TMC2    H5  700   2.696   2.923   9.579  0.0317  0.0884 -1.0388
   46MPD2     C  701   1.876   2.663   9.491  0.2439 -0.1761  1.0458
   46MPD2    C1  702   1.914   2.793   9.531 -0.4103 -0.1957 -0.1872
   46MPD2    C2  703   1.828   2.903   9.521 -0.0250 -0.1261 -0.2059
   46MPD2    C3  704   1.700   2.882   9.477  0.0657  0.3828  0.1074
   46MPD2    C4  705   1.661   2.755   9.447  0.2794  0.5057 -0.0649
   46MPD2    C5  706   1.746   2.650   9.450 -0.0817  0.1136 -0.5608
   46MPD2     H  707   1.870   3.002   9.538  0.1987 -0.6843  2.3753
   46MPD2    H1  708   1.565   2.718   9.411  0.2329  1.2089 -0.6693
   46MPD2    H2  709   1.934   2.572   9.485  0.6109  0.2150 -1.2261
   46MPD2    H3  710   1.714   2.551   9.417 -2.2866  0.9960 -1.0825
   46MPD2     N  711   1.618   2.995   9.451 -0.1402 -0.4385  0.2050
   46MPD2    H5  712   1.655   3.088   9.469  0.8062 -0.4149 -1.8260
   46MPD2    N1  713   2.052   2.822   9.570 -0.3021  0.2577  0.1314
   46MPD2    H7  714   2.083   2.916   9.588  0.5543 -0.5409  2.8047
   47TMC2    C1  715   3.169   3.488   9.198  0.0220 -0.3467 -0.5477
   47TMC2    C2  716   3.222   3.419   9.093  0.2813 -0.0638  0.4703
   47TMC2    C3  717   3.159   3.308   9.052 -0.1947 -0.1971 -0.1260
   47TMC2    C4  718   3.054   3.458   9.260 -0.5955  0.3594  0.9211
   47TMC2    C5  719   2.984   3.356   9.203  0.2853  0.1408  0.2795
   47TMC2    C6  720   3.039   3.269   9.105  0.2854 -0.3713 -0.5191
   47TMC2     C  721   3.248   3.577   9.278 -0.2978  0.8466 -0.0791
   47TMC2     O  722   3.194   3.678   9.316 -0.2038  0.0206 -0.3218
   47TMC2     H  723   3.320   3.436   9.049 -0.3894 -1.9987 -1.7254
   47TMC2    H1  724   3.016   3.520   9.340  0.1114  1.8075  0.1237
   47TMC2    H2  725   2.974   3.199   9.054 -0.8544  0.1096  0.2672
   47TMC2    C7  726   2.845   3.328   9.246  0.3777  0.2247  0.6050
   47TMC2    C8  727   3.194   3.253   8.920 -0.7108  0.0603 -0.0470
   47TMC2    O1  728   2.792   3.414   9.311  0.0720 -0.2878 -0.0176
   47TMC2    O2  729   3.241   3.311   8.822 -0.6321  0.4617 -0.4373
   47TMC2    O5  730   3.157   3.121   8.928  0.2025 -0.2743 -0.2240
   47TMC2    H5  731   3.151   3.091   9.022  2.0028 -1.4645 -0.5064
   48MPD2     C  732   3.468   3.742   9.398 -0.1989  0.3349  0.7807
   48MPD2    C1  733   3.482   3.637   9.311 -0.3525  0.1889  0.3159
   48MPD2    C2  734   3.612   3.601   9.280 -0.0990  0.3775  0.4541
   48MPD2    C3  735   3.716   3.682   9.330 -0.2401 -0.2206  0.0844
   48MPD2    C4  736   3.691   3.788   9.415 -0.0292  0.2185  0.0733
   48MPD2    C5  737   3.565   3.821   9.448 -0.6721  0.3446 -1.0583
   48MPD2     H  738   3.629   3.513   9.218 -0.7851  1.4907 -1.3049
   48MPD2    H1  739   3.772   3.844   9.460  0.1058  1.6741 -2.0158
   48MPD2    H2  740   3.371   3.785   9.423 -0.6946 -1.5396  2.0895
   48MPD2    H3  741   3.551   3.900   9.520  0.4837 -2.8737  2.6993
   48MPD2     N  742   3.847   3.643   9.289  1.3259 -1.0180  0.6628
   48MPD2    H5  743   3.853   3.560   9.232  0.0547  0.4997 -1.6944
   48MPD2    N1  744   3.378   3.560   9.253 -0.0881 -0.1873 -0.0472
   48MPD2    H7  745   3.412   3.491   9.187  1.3105  0.5158 -0.0455
   49MPD2     C  746   2.900   0.617  10.089 -0.2280  0.7368  0.3592
   49MPD2    C1  747   2.779   0.620  10.156  0.6462  0.4947 -1.1261
   49MPD2    C2  748   2.777   0.675  10.280  0.0152 -1.1335  0.5596
   49MPD2    C3  749   2.892   0.729  10.343 -0.5593  0.8301  0.0070
   49MPD2    C4  750   3.013   0.738  10.268  0.5972  0.5310  0.3544
   49MPD2    C5  751   3.014   0.685  10.141  0.6379 -0.3606 -0.2411
   49MPD2     H  752   2.689   0.663  10.342  0.5620 -1.4330  1.2825
   49MPD2    H1  753   3.107   0.776  10.306  0.3334  1.6981 -0.1614
   49MPD2    H2  754   2.907   0.577   9.988 -0.4897  0.1709  0.5615
   49MPD2    H3  755   3.100   0.689  10.076  1.1598  1.5555  0.5683
   49MPD2     N  756   2.905   0.789  10.467  0.1943  0.2215 -0.1700
   49MPD2    H5  757   2.993   0.832  10.492 -0.0718  0.2595  0.7048
   49MPD2    N1  758   2.663   0.554  10.112  0.4253  0.4046  0.3409
   49MPD2    H7  759   2.579   0.556  10.169 -1.2600 -0.4841 -2.1293
   50TCq2    C1  760   2.652   0.484   9.996  0.4116 -0.2250 -0.4000
   50TCq2    O2  761   2.732   0.477   9.906  0.9550 -0.0904  0.5389
   50TCq2    C2  762   2.520   0.416   9.975  1.1106 -0.2750  0.2563
   50TCq2    C3  763   2.482   0.375   9.844 -0.0020 -0.3518  0.4480
   50TCq2    C4  764   2.367   0.302   9.841 -0.3158  0.7235  0.1751
   50TCq2    C5  765   2.298   0.269   9.953  0.1146  0.1883 -0.1068
   50TCq2    C6  766   2.338   0.312  10.074  0.0294 -0.3829 -0.2760
   50TCq2    C7  767   2.448   0.393  10.086  0.4289  0.5860 -0.3423
   50TCq2    C8  768   2.276   0.275  10.205 -0.0197  0.2052 -0.1837
   50TCq2    O4  769   2.346   0.273  10.303 -0.0732  0.7255 -0.1105
   50TCq2    C9  770   2.321   0.258   9.719  0.3253 -0.9599 -0.0666
   50TCq2    O5  771   2.369   0.317   9.613  0.4686 -0.0487  0.1406
   50TCq2    O6  772   2.235   0.165   9.713 -0.1795  0.6582  0.1222
   50TCq2    H2  773   2.543   0.405   9.760 -1.0290 -1.2650 -0.6050
   50TCq2    H3  774   2.210   0.206   9.944  1.5419 -1.5167 -2.1395
   50TCq2    H4  775   2.465   0.418  10.190  1.5476  1.0600 -0.6355
   51MPD2     C  776   1.926   4.475   1.250  0.3013  0.4107 -0.2339
   51MPD2    C1  777   2.008   4.515   1.354  0.2131 -0.6572 -0.8360
   51MPD2    C2  778   1.952   4.572   1.465 -0.5982 -0.4814  0.0113
   51MPD2    C3  779   1.819   4.587   1.486 -0.4824 -0.5284  0.0063
   51MPD2    C4  780   1.737   4.523   1.396  0.2731 -0.0990  0.0962
   51MPD2    C5  781   1.792   4.486   1.270 -0.0875 -0.1555  0.0180
   51MPD2     H  782   2.025   4.615   1.533 -1.5589  1.3556 -0.1007
   51MPD2    H1  783   1.630   4.507   1.406  0.3620  0.4967  1.8525
   51MPD2    H2  784   1.956   4.417   1.164  0.4677 -1.3232  0.9764
   51MPD2    H3  785   1.713   4.460   1.200  0.5768 -2.7575  0.2018
   51MPD2     N  786   1.767   4.639   1.601  0.6225  0.7865 -0.4427
   51MPD2    H5  787   1.667   4.642   1.615  0.6969 -0.7902  0.4756
   51MPD2    N1  788   2.148   4.493   1.342 -0.0490  0.3201 -0.4110
   51MPD2    H7  789   2.204   4.516   1.424 -0.0023  1.3009 -0.7142
   52TCq2    C1  790   1.838   4.695   1.704 -0.4694  1.4732 -0.2418
   52TCq2    O2  791   1.953   4.685   1.737 -0.2065  0.2274  0.4219
   52TCq2    C2  792   1.768   0.084   1.773  0.7200 -0.1291 -0.8698
   52TCq2    C3  793   1.657   0.141   1.711  0.6965 -0.4246 -0.5033
   52TCq2    C4  794   1.625   0.275   1.737 -0.0957  0.4179  0.4991
   52TCq2    C5  795   1.710   0.351   1.818  0.0982 -0.4924 -0.2740
   52TCq2    C6  796   1.815   0.295   1.883 -0.3208  0.0913 -0.7661
   52TCq2    C7  797   1.844   0.163   1.857  0.3014  0.2910  0.0186
   52TCq2    C8  798   1.926   0.383   1.932 -0.0226 -0.6652 -0.0961
   52TCq2    O4  799   2.018   0.331   1.989  0.6748  0.1072 -0.2776
   52TCq2    C9  800   1.517   0.335   1.661 -0.1733 -0.4777  0.2685
   52TCq2    O5  801   1.478   0.450   1.698 -0.0862 -0.5602 -0.8766
   52TCq2    O6  802   1.504   0.285   1.546 -0.3832 -0.0212  0.7391
   52TCq2    H2  803   1.592   0.090   1.641  0.1268 -2.8552  1.7894
   52TCq2    H3  804   1.663   0.447   1.835  1.8579  0.2735  0.1359
   52TCq2    H4  805   1.940   0.128   1.895 -0.0264  0.5872  1.1318
   53TMC2    C1  806   3.168   3.186  11.537 -0.2576  0.0902  0.4203
   53TMC2    C2  807   3.302   3.203  11.572  0.1637 -0.5081  0.1842
   53TMC2    C3  808   3.327   3.242  11.698 -0.0938  0.9179  0.4996
   53TMC2    C4  809   3.072   3.202  11.634 -0.2137 -0.0270 -0.0161
   53TMC2    C5  810   3.102   3.238  11.759 -0.1684 -0.0064  0.4924
   53TMC2    C6  811   3.230   3.275  11.788  0.4730  0.1977  0.0484
   53TMC2     C  812   3.157   3.086  11.423  0.3115 -0.4638 -0.5489
   53TMC2     O  813   3.256   3.028  11.388  0.0966 -0.0566  0.0171
   53TMC2     H  814   3.383   3.173  11.507  1.1633  2.4618  0.0837
   53TMC2    H1  815   2.974   3.158  11.614 -0.1936 -0.4342  0.7663
   53TMC2    H2  816   3.261   3.313  11.885 -3.6012 -1.0355  1.8334
   53TMC2    C7  817   3.003   3.227  11.863 -0.1029 -0.2340  0.5025
   53TMC2    C8  818   3.473   3.227  11.734 -0.1136 -0.7990 -0.5528
   53TMC2    O1  819   2.884   3.227  11.831  0.1991 -0.6732 -0.0311
   53TMC2    O2  820   3.554   3.227  11.647 -0.6278  0.6649  0.8142
   53TMC2    O5  821   3.499   3.263  11.863  0.1016 -0.1764 -0.4289
   53TMC2    H5  822   3.441   3.211  11.923 -1.9482  0.1591 -2.0957
   54MPD2     C  823   3.054   2.859  11.255  0.5085  0.0821 -0.7256
   54MPD2    C1  824   2.976   2.942  11.336 -0.6577 -0.7245 -0.8298
   54MPD2    C2  825   2.846   2.906  11.368 -0.1423  0.0440 -0.1542
   54MPD2    C3  826   2.788   2.797  11.311  0.2840 -0.6458 -0.4890
   54MPD2    C4  827   2.869   2.710  11.234  0.3356  0.2089  0.9025
   54MPD2    C5  828   2.993   2.751  11.199  0.0246  0.9091 -0.2419
   54MPD2     H  829   2.789   2.977  11.426 -1.4065 -1.7854  0.8385
   54MPD2    H1  830   2.836   2.611  11.203  1.2526 -0.4188  1.9366
   54MPD2    H2  831   3.157   2.882  11.233  0.2707  0.4247 -1.4826
   54MPD2    H3  832   3.043   2.681  11.133  0.9219  1.6101 -0.2975
   54MPD2     N  833   2.660   2.755  11.352  0.1556 -0.9236  0.4701
   54MPD2    H5  834   2.628   2.665  11.317  1.2466  0.4241 -3.9295
   54MPD2    N1  835   3.024   3.060  11.395  0.0051 -0.7608 -0.4659
   54MPD2    H7  836   2.958   3.124  11.439  1.2337  0.9070 -1.0268
   55MPD2     C  837   3.843   0.550  17.504 -0.2224 -0.3390  0.1138
   55MPD2    C1  838   3.816   0.517  17.632 -0.1013 -0.0219 -0.1988
   55MPD2    C2  839   3.706   0.575   0.019  0.6026  0.3955 -0.0744
   55MPD2    C3  840   3.634   0.672  17.622 -0.2861 -0.0151 -0.4243
   55MPD2    C4  841   3.675   0.707  17.499  0.4929  0.4288 -0.5166
   55MPD2    C5  842   3.776   0.647  17.436 -0.1041 -0.4487  1.0176
   55MPD2     H  843   3.676   0.548   0.119  0.9622  1.0881  0.2177
   55MPD2    H1  844   3.621   0.777  17.435 -1.1844  0.1273  0.5800
   55MPD2    H2  845   3.914   0.496  17.442 -1.0987 -0.8529 -0.4428
   55MPD2    H3  846   3.803   0.672  17.334  2.2120 -0.0433  1.7422
   55MPD2     N  847   3.514   0.718   0.002  0.3497 -0.0451 -0.4533
   55MPD2    H5  848   3.486   0.682   0.093  0.1995 -1.5297 -1.0931
   55MPD2    N1  849   3.904   0.426   0.018  0.3013 -0.0911 -0.3406
   55MPD2    H7  850   3.974   0.387  17.632 -1.4120 -4.1211  0.2009
   56TCq2    C1  851   3.898   0.389   0.153  0.0687 -0.3865 -0.8506
   56TCq2    O2  852   3.812   0.411   0.243 -0.3612 -0.5335 -0.0872
   56TCq2    C2  853   4.013   0.313   0.201 -0.1119  0.3184 -0.2531
   56TCq2    C3  854   4.059   0.222   0.108  0.0695  0.6990  0.1037
   56TCq2    C4  855   4.147   0.131   0.152 -0.1337  0.4290 -0.7451
   56TCq2    C5  856   4.192   0.124   0.283 -0.3584  0.0466  0.0174
   56TCq2    C6  857   4.135   0.207   0.369 -0.3375 -0.6739  0.0182
   56TCq2    C7  858   4.044   0.305   0.332  0.4384  0.3312  0.2353
   56TCq2    C8  859   4.129   0.168   0.510 -0.1710  0.4103 -0.3339
   56TCq2    O4  860   4.217   0.092   0.550 -0.6285 -0.3036 -0.1782
   56TCq2    C9  861   4.199   0.034   0.061  0.2712  0.4173 -0.1442
   56TCq2    O5  862   4.249   4.651   0.112  0.3713 -0.6558 -0.0672
   56TCq2    O6  863   4.177   0.052  17.616 -0.3568  0.7315 -0.5422
   56TCq2    H2  864   4.033   0.218   0.003  3.3641 -0.1540 -0.6661
   56TCq2    H3  865   4.252   0.038   0.312 -0.3854 -0.9063 -2.7254
   56TCq2    H4  866   4.010   0.379   0.404  0.9023  0.7848 -0.0126
   57TMC2    C1  867   2.340   1.933  13.761  0.2143 -0.0784  0.3471
   57TMC2    C2  868   2.420   1.857  13.838 -0.8190  0.3080  0.4183
   57TMC2    C3  869   2.527   1.799  13.780  0.2282  0.2876 -0.5334
   57TMC2    C4  870   2.359   1.952  13.623 -0.2699 -0.1883  0.2810
   57TMC2    C5  871   2.467   1.887  13.569  0.3633  0.4790 -0.1733
   57TMC2    C6  872   2.558   1.809  13.644 -0.3426  0.3381  0.2455
   57TMC2     C  873   2.211   1.963  13.816 -0.3529 -0.3865 -0.2756
   57TMC2     O  874   2.156   2.063  13.769 -0.1390  0.3747  0.1425
   57TMC2     H  875   2.404   1.862  13.945  0.3213  1.6319  0.5316
   57TMC2    H1  876   2.290   2.007  13.560 -1.1137 -0.5546  0.8800
   57TMC2    H2  877   2.648   1.763  13.606 -1.1120 -1.3020  0.4047
   57TMC2    C7  878   2.482   1.889  13.426  0.6132  0.0446 -0.6723
   57TMC2    C8  879   2.620   1.713  13.857 -0.3871 -0.0162  0.0871
   57TMC2    O1  880   2.459   1.997  13.369 -0.2185  0.0644 -0.1984
   57TMC2    O2  881   2.670   1.748  13.964  0.5731  0.0138 -0.0989
   57TMC2    O5  882   2.663   1.611  13.786 -0.6412  0.0955  0.2432
   57TMC2    H5  883   2.605   1.600  13.708 -0.5828 -0.6834  0.3164
   58MPD2     C  884   1.765   1.841  14.058  0.0086  1.0003 -0.0183
   58MPD2    C1  885   1.825   1.960  14.028  0.5009 -0.4586  0.0973
   58MPD2    C2  886   1.952   1.965  13.970  0.3330 -0.3811  1.1325
   58MPD2    C3  887   2.017   1.851  13.932  1.2546  0.8312 -0.9825
   58MPD2    C4  888   1.957   1.728  13.958  0.5691 -0.2384  0.1748
   58MPD2    C5  889   1.834   1.726  14.022  0.1297  0.3492 -0.3907
   58MPD2     H  890   1.996   2.064  13.960  0.3798 -0.6364 -1.2124
   58MPD2    H1  891   2.001   1.632  13.936  0.0500 -0.5800  0.6281
   58MPD2    H2  892   1.667   1.821  14.101  0.6140  2.0066  1.8197
   58MPD2    H3  893   1.789   1.630  14.044 -1.1243  1.8193  3.4630
   58MPD2     N  894   2.157   1.856  13.890  0.3117 -0.1975  0.4021
   58MPD2    H5  895   2.211   1.770  13.891  0.1633 -0.2888  1.0233
   58MPD2    N1  896   1.765   2.085  14.059 -0.1812 -0.3692  0.2193
   58MPD2    H7  897   1.827   2.164  14.052 -3.0458  1.9126  0.7295
   59MPD2     C  898   0.193   1.871  13.097 -0.6454 -0.8397  0.5044
   59MPD2    C1  899   0.280   1.907  12.997 -0.1072 -0.3740  0.2837
   59MPD2    C2  900   0.381   1.999  13.031  0.5220 -1.0619  1.1548
   59MPD2    C3  901   0.396   2.060  13.153 -0.3193  0.4108 -0.1982
   59MPD2    C4  902   0.308   2.015  13.247 -0.2094 -0.1174  0.0094
   59MPD2    C5  903   0.208   1.923  13.224 -0.3707  0.2925 -0.2603
   59MPD2     H  904   0.450   2.020  12.949 -2.0406 -2.0802 -1.2497
   59MPD2    H1  905   0.322   2.035  13.352  1.4298 -1.7867  0.1062
   59MPD2    H2  906   0.114   1.798  13.081 -1.9779  0.7408 -0.1954
   59MPD2    H3  907   0.147   1.887  13.306  3.7342 -0.7014  2.3621
   59MPD2     N  908   0.488   2.157  13.194 -0.2240  0.2806 -0.3688
   59MPD2    H5  909   0.495   2.185  13.291  2.8876  3.1604 -1.4365
   59MPD2    N1  910   0.277   1.849  12.870  0.1716  0.0667 -0.1898
   59MPD2    H7  911   0.337   1.887  12.796 -0.3562  2.4144  0.5794
   60TCq2    C1  912   0.183   1.757  12.826 -0.2303 -0.1619  1.0102
   60TCq2    O2  913   0.105   1.687  12.886 -0.0396 -0.3744 -0.2347
   60TCq2    C2  914   0.169   1.772  12.683  0.1854 -0.1504  0.0705
   60TCq2    C3  915   0.121   1.666  12.612 -0.2692 -0.1574  0.2420
   60TCq2    C4  916   0.130   1.676  12.479  0.4791 -0.6628  0.3567
   60TCq2    C5  917   0.165   1.790  12.413 -0.2926  0.0446  0.5246
   60TCq2    C6  918   0.200   1.900  12.487 -0.0169 -0.1980  0.3037
   60TCq2    C7  919   0.197   1.896  12.626  0.2483 -0.0146 -0.3805
   60TCq2    C8  920   0.297   1.993  12.419  0.2929  0.4025  0.7388
   60TCq2    O4  921   0.403   2.023  12.474  0.8832  0.1962 -0.2279
   60TCq2    C9  922   0.090   1.570  12.400  0.0911  0.7580  0.1406
   60TCq2    O5  923   0.080   1.592  12.276  0.3498  0.5358  0.2582
   60TCq2    O6  924   0.047   1.469  12.457  0.0891  0.1357  0.2086
   60TCq2    H2  925   0.098   1.573  12.662  1.3119 -1.0071 -0.6280
   60TCq2    H3  926   0.173   1.798  12.305 -2.0588  0.7481  0.4454
   60TCq2    H4  927   0.252   1.971  12.681 -2.1216  1.9210 -0.6434
   61MPD2     C  928   4.218   2.824  14.014  0.3999  0.0271  0.9225
   61MPD2    C1  929   4.281   2.881  14.122 -0.3231  0.7401  0.8032
   61MPD2    C2  930   4.378   2.974  14.101 -0.1567 -0.6915 -0.2378
   61MPD2    C3  931   4.420   3.005  13.982  0.2393  0.9678 -0.2335
   61MPD2    C4  932   4.362   2.946  13.869 -0.6694 -0.1425  0.1020
   61MPD2    C5  933   4.258   2.859  13.890  0.5614  0.4186 -0.6928
   61MPD2     H  934   4.419   3.011  14.194  0.7510 -0.0448 -0.8976
   61MPD2    H1  935   4.398   2.973  13.771  0.7953  2.0950  1.2782
   61MPD2    H2  936   4.141   2.748  14.015 -0.5886  1.0018 -1.5829
   61MPD2    H3  937   4.194   2.832  13.806 -0.4347 -0.9516  0.4962
   61MPD2     N  938   4.530   3.082  13.960  0.2202 -0.2654 -0.6692
   61MPD2    H5  939   4.561   3.085  13.863  0.2806 -1.7648 -0.6961
   61MPD2    N1  940   4.234   2.865  14.258 -0.1458  0.3150 -0.0302
   61MPD2    H7  941   4.282   2.925  14.324 -0.6815 -0.9473  1.5133
   62TCq2    C1  942   4.132   2.785  14.306 -0.2818 -0.6119  0.2506
   62TCq2    O2  943   4.074   2.696  14.252 -0.9297  0.2862  0.5999
   62TCq2    C2  944   4.084   2.826  14.438  0.1604  0.7765 -0.1479
   62TCq2    C3  945   4.001   2.741  14.498 -0.0795 -0.4565 -0.2094
   62TCq2    C4  946   3.941   2.779  14.611 -0.0122 -0.3381  0.7759
   62TCq2    C5  947   3.954   2.906  14.662 -0.4064 -0.6207 -0.7481
   62TCq2    C6  948   4.040   2.991  14.600  0.3556 -0.6544  0.7366
   62TCq2    C7  949   4.110   2.949  14.486  0.1345 -0.9402 -0.6734
   62TCq2    C8  950   4.037   3.130  14.637  0.8533  0.6908  0.0873
   62TCq2    O4  951   4.133   3.204  14.626 -0.5016 -0.0493 -0.0425
   62TCq2    C9  952   3.874   2.685  14.692  0.3206  0.2898  0.1057
   62TCq2    O5  953   3.912   2.566  14.679 -0.4576  0.1047 -0.4545
   62TCq2    O6  954   3.843   2.729  14.807  0.5436 -0.6994 -0.6704
   62TCq2    H2  955   3.997   2.637  14.468  2.1053 -0.2755 -1.1217
   62TCq2    H3  956   3.930   2.926  14.766  2.1812 -0.0536 -0.2529
   62TCq2    H4  957   4.150   3.035  14.433  0.4513 -1.4737 -1.2981
   63TMC2    C1  958   3.745   3.628  10.772 -0.0045 -0.0788  0.9156
   63TMC2    C2  959   3.823   3.683  10.860 -0.5639  0.0782  0.0296
   63TMC2    C3  960   3.924   3.751  10.805 -0.4124 -0.2823 -0.6989
   63TMC2    C4  961   3.766   3.646  10.637 -0.5615  0.7347  0.0208
   63TMC2    C5  962   3.871   3.717  10.592  0.9588 -0.0560  0.4471
   63TMC2    C6  963   3.952   3.780  10.676  0.2947 -0.5455  0.4613
   63TMC2     C  964   3.627   3.560  10.822 -0.7154  0.5187  0.1250
   63TMC2     O  965   3.574   3.589  10.932  0.3639 -0.4036  0.2630
   63TMC2     H  966   3.797   3.691  10.965 -2.3661 -0.2027 -0.4004
   63TMC2    H1  967   3.698   3.601  10.566 -0.4260 -2.2470  1.7629
   63TMC2    H2  968   4.042   3.829  10.642  0.1150 -1.7447 -1.7600
   63TMC2    C7  969   3.871   3.750  10.450 -0.4140  0.9899  0.0657
   63TMC2    C8  970   4.017   3.801  10.901 -0.3632 -0.9131 -0.0825
   63TMC2    O1  971   3.762   3.727  10.397 -0.2964  0.1030  0.0083
   63TMC2    O2  972   4.089   3.896  10.874 -0.1245  0.0553 -0.3264
   63TMC2    O5  973   4.048   3.695  10.979  0.2111 -0.3167 -0.0422
   63TMC2    H5  974   3.972   3.633  10.989 -0.0816 -0.0090 -0.3561
   64MPD2     C  975   3.317   3.169  10.699 -0.6001  0.7388 -0.0180
   64MPD2    C1  976   3.437   3.149  10.638  0.1158  0.9922  0.3296
   64MPD2    C2  977   3.539   3.244  10.656 -0.9574 -0.0973  0.5381
   64MPD2    C3  978   3.512   3.357  10.732  0.4809 -0.8904 -0.5710
   64MPD2    C4  979   3.394   3.366  10.807  0.0111 -0.3403  0.2447
   64MPD2    C5  980   3.295   3.273  10.791 -0.1160  0.2448  0.7793
   64MPD2     H  981   3.633   3.227  10.605 -1.0093  1.1043  0.0328
   64MPD2    H1  982   3.389   3.440  10.887 -2.3832  0.9340 -1.0972
   64MPD2    H2  983   3.242   3.092  10.684  1.0833 -0.7365 -0.8852
   64MPD2    H3  984   3.200   3.272  10.844  0.3632  0.8231  1.6547
   64MPD2     N  985   3.615   3.452  10.737 -0.0231  0.1177 -0.5816
   64MPD2    H5  986   3.684   3.437  10.664 -0.3085 -1.1236 -0.6025
   64MPD2    N1  987   3.467   3.042  10.550 -0.2673 -0.0081 -0.4072
   64MPD2    H7  988   3.549   3.049  10.490 -1.4423  0.0853 -2.0077
   65MPD2     C  989   4.630   2.176  15.654  0.1656  0.0680 -0.0059
   65MPD2    C1  990   4.668   2.217  15.525 -0.1074 -0.0518  0.6661
   65MPD2    C2  991   4.695   2.114  15.440 -0.4385 -0.2786 -0.3542
   65MPD2    C3  992   4.701   1.981  15.474 -0.8181  0.0557 -0.5136
   65MPD2    C4  993   4.674   1.946  15.603  0.1995 -0.0632  0.9234
   65MPD2    C5  994   4.635   2.040  15.695 -0.0484  1.0883  1.0525
   65MPD2     H  995   0.005   2.145  15.340 -0.2697  0.9562  0.0814
   65MPD2    H1  996   4.667   1.843  15.633 -1.9158 -0.0603  0.4483
   65MPD2    H2  997   4.610   2.255  15.725 -1.7724 -0.9958  0.6318
   65MPD2    H3  998   4.624   2.020  15.801  1.0223 -0.2225  0.9198
   65MPD2     N  999   0.015   1.876  15.385  0.3708 -0.3863  0.5743
   65MPD2    H5 1000   4.706   1.783  15.416 -0.9131  0.4437  1.9062
   65MPD2    N1 1001   4.694   2.347  15.482  0.7310  0.3484  0.4873
   65MPD2    H7 1002   0.021   2.357  15.391  0.9490  2.1281  0.7932
   66TCq2    C1 1003   4.666   2.460  15.550 -0.0521 -0.3730 -0.1987
   66TCq2    O2 1004   4.562   2.472  15.609 -0.3409 -0.3781  0.5639
   66TCq2    C2 1005   4.703   2.570  15.470  0.1296 -0.6095  0.6116
   66TCq2    C3 1006   0.094   2.555  15.387 -1.0281 -0.6905  0.1323
   66TCq2    C4 1007   0.102   2.631  15.275  0.3135 -0.3360  0.0738
   66TCq2    C5 1008   0.012   2.725  15.243  0.2136  0.5551 -0.2599
   66TCq2    C6 1009   4.624   2.744  15.326  0.3277  0.7801 -0.4534
   66TCq2    C7 1010   4.607   2.668  15.446 -0.2505 -0.9038 -0.6746
   66TCq2    C8 1011   4.558   2.869  15.298  0.5380  1.1953 -0.6327
   66TCq2    O4 1012   4.556   2.937  15.197  0.3250 -0.3892 -0.0601
   66TCq2    C9 1013   0.211   2.610  15.184 -0.3384  0.0580  0.9595
   66TCq2    O5 1014   0.300   2.524  15.213  0.1855  0.2686 -0.5317
   66TCq2    O6 1015   0.215   2.693  15.091  0.2676  0.2026  0.2852
   66TCq2    H2 1016   0.172   2.483  15.407 -0.6792 -0.7939 -1.5813
   66TCq2    H3 1017   0.028   2.770  15.146  0.3582  1.2630  0.0977
   66TCq2    H4 1018   4.516   2.674  15.505 -0.8147  0.1414 -1.6572
   67MPD2     C 1019   0.288   2.205  13.950 -0.1943 -0.7470  0.1418
   67MPD2    C1 1020   0.196   2.200  14.049  0.0422 -0.2719  0.6088
   67MPD2    C2 1021   0.070   2.154  14.014  0.7682 -0.1689 -0.1851
   67MPD2    C3 1022   0.036   2.124  13.884 -0.0491 -0.6843 -0.0411
   67MPD2    C4 1023   0.140   2.117  13.791  0.4304 -1.1355 -0.2542
   67MPD2    C5 1024   0.264   2.163  13.827 -0.3580  0.1861 -0.0236
   67MPD2     H 1025   4.708   2.152  14.086  1.5966 -1.3966  0.7088
   67MPD2    H1 1026   0.119   2.106  13.685 -1.9974 -0.5570  0.1772
   67MPD2    H2 1027   0.388   2.246  13.960  0.0418 -1.2134 -0.2708
   67MPD2    H3 1028   0.337   2.161  13.747  0.9624 -1.6596  1.2202
   67MPD2     N 1029   4.621   2.096  13.852 -0.1183 -0.2735 -0.3817
   67MPD2    H5 1030   4.563   2.079  13.934  1.4880 -0.1217  0.7941
   67MPD2    N1 1031   0.221   2.248  14.184  0.4491  0.1275 -0.5412
   67MPD2    H7 1032   0.144   2.250  14.250  0.5290 -1.1807 -0.4170
   68TCq2    C1 1033   0.340   2.283  14.245 -0.2799  0.7532 -0.8286
   68TCq2    O2 1034   0.445   2.286  14.186 -0.0001 -0.0050  0.0778
   68TCq2    C2 1035   0.332   2.321  14.382 -0.5527  0.4192 -0.4734
   68TCq2    C3 1036   0.205   2.350  14.424 -0.0027 -0.3355 -0.9665
   68TCq2    C4 1037   0.209   2.385  14.557 -1.2288 -0.6419  0.7741
   68TCq2    C5 1038   0.325   2.402  14.636 -0.5799  0.5699 -0.1428
   68TCq2    C6 1039   0.444   2.363  14.582 -1.0831 -0.4599  0.5899
   68TCq2    C7 1040   0.450   2.303  14.453 -0.6556  0.5254  0.2012
   68TCq2    C8 1041   0.557   2.350  14.669  1.1283 -0.5448 -0.4902
   68TCq2    O4 1042   0.642   2.274  14.627  0.0022 -0.2368 -0.0015
   68TCq2    C9 1043   0.087   2.422  14.622  0.3696  0.2642 -0.0928
   68TCq2    O5 1044   0.088   2.414  14.748 -0.7038  0.5680 -0.3184
   68TCq2    O6 1045   4.703   2.450  14.551 -0.2115  0.0628  0.5015
   68TCq2    H2 1046   0.110   2.355  14.372  0.8096 -2.5105 -2.6519
   68TCq2    H3 1047   0.313   2.444  14.735  1.3271 -2.4073  1.3698
   68TCq2    H4 1048   0.541   2.286  14.397  0.3429 -0.1440  2.0566
   69TMC2    C1 1049   2.795   3.511  12.531 -0.6336 -0.8289 -0.2284
   69TMC2    C2 1050   2.657   3.496  12.501 -0.1686  0.2446 -0.0698
   69TMC2    C3 1051   2.617   3.498  12.370  0.0683  0.1509  0.9871
   69TMC2    C4 1052   2.881   3.533  12.428  0.4508 -0.0434  0.6554
   69TMC2    C5 1053   2.834   3.547  12.299  0.5637  0.8370 -0.5484
   69TMC2    C6 1054   2.701   3.534  12.269  0.6919 -0.2080 -1.2543
   69TMC2     C 1055   2.848   3.430  12.642 -0.2054  0.6862 -0.1394
   69TMC2     O 1056   2.775   3.355  12.701  0.0527  0.4472  0.1926
   69TMC2     H 1057   2.591   3.470  12.584  2.4050  1.0348  2.2255
   69TMC2    H1 1058   2.988   3.548  12.435  0.5094  0.9624 -2.0947
   69TMC2    H2 1059   2.665   3.526  12.167 -0.3511  0.5317 -0.9444
   69TMC2    C7 1060   2.931   3.551  12.192  0.4011 -0.6492  0.3427
   69TMC2    C8 1061   2.477   3.493  12.342 -0.3827  0.6988  0.7493
   69TMC2    O1 1062   3.048   3.525  12.231 -0.1669  0.7894 -0.8066
   69TMC2    O2 1063   2.400   3.441  12.420  0.5814 -0.2221 -0.1988
   69TMC2    O5 1064   2.450   3.591  12.255  0.4839  0.1324 -0.6977
   69TMC2    H5 1065   2.519   3.638  12.203  0.0944  1.1180 -0.3211
   70MPD2     C 1066   3.195   3.407  12.758 -0.8696  0.1957  0.4449
   70MPD2    C1 1067   3.065   3.367  12.746 -0.3938 -0.0242  0.3564
   70MPD2    C2 1068   3.023   3.249  12.806  0.4629  0.2179 -0.1211
   70MPD2    C3 1069   3.118   3.179  12.881 -0.0387  0.5307 -0.3018
   70MPD2    C4 1070   3.245   3.221  12.899  0.1595 -0.4518 -0.0467
   70MPD2    C5 1071   3.285   3.329  12.825  0.3768 -0.3978 -0.0639
   70MPD2     H 1072   2.919   3.220  12.804  0.8768 -1.2166 -0.4627
   70MPD2    H1 1073   3.322   3.170  12.955 -0.5246  0.5054  1.7761
   70MPD2    H2 1074   3.236   3.499  12.716 -0.9492  0.4931  1.0240
   70MPD2    H3 1075   3.389   3.358  12.834 -0.5035  2.0783  2.2080
   70MPD2     N 1076   3.080   3.060  12.953  0.1446 -0.1923 -0.4189
   70MPD2    H5 1077   3.154   3.034  13.017 -1.5710 -1.9648  0.8304
   70MPD2    N1 1078   2.980   3.453  12.668  0.0373 -0.5777 -0.1781
   70MPD2    H7 1079   3.030   3.533  12.631  1.7000 -1.5704 -0.0725
   71TMC2    C1 1080   4.128   0.184   2.167  1.2053 -0.8253 -0.0987
   71TMC2    C2 1081   4.208   0.176   2.272 -0.1023 -0.7073 -0.0311
   71TMC2    C3 1082   4.217   0.277   2.355 -0.5766 -0.1833 -0.2764
   71TMC2    C4 1083   4.054   0.293   2.142 -0.4644 -0.2316 -0.1342
   71TMC2    C5 1084   4.060   0.389   2.229 -0.1807 -0.3938  0.1017
   71TMC2    C6 1085   4.142   0.388   2.334  0.1169 -0.4344  0.2657
   71TMC2     C 1086   4.152   0.096   2.057  0.0081 -0.8389 -0.1904
   71TMC2     O 1087   4.267   0.071   2.031 -0.0674  0.1890  1.2875
   71TMC2     H 1088   4.278   0.094   2.285 -1.4945 -2.0205 -0.7985
   71TMC2    H1 1089   4.004   0.300   2.046  0.1241 -0.0300 -0.4232
   71TMC2    H2 1090   4.140   0.458   2.417 -2.0771  0.0876 -0.2373
   71TMC2    C7 1091   3.958   0.492   2.235 -0.0889  0.6164  0.6077
   71TMC2    C8 1092   4.279   0.270   2.480  0.2612 -0.1290 -0.2719
   71TMC2    O1 1093   3.985   0.588   2.300  0.4253  0.7647  0.1612
   71TMC2    O2 1094   4.268   0.159   2.531 -0.3271 -0.1744 -0.0174
   71TMC2    O5 1095   4.401   0.327   2.454 -0.3182 -0.1659  0.1222
   71TMC2    H5 1096   4.404   0.384   2.374 -1.4883 -0.0776  0.1516
   72MPD2     C 1097   4.001   4.504   1.678  0.5298  0.2288  0.1806
   72MPD2    C1 1098   4.132   4.544   1.709  0.9287  0.0340 -0.4583
   72MPD2    C2 1099   4.148   4.639   1.814  0.2093 -0.0488  0.1491
   72MPD2    C3 1100   4.035   4.680   1.883 -0.3547 -0.0861 -0.1754
   72MPD2    C4 1101   3.906   4.644   1.847 -0.2612 -0.4209 -0.2752
   72MPD2    C5 1102   3.891   4.557   1.741 -0.4144 -0.3425  0.4621
   72MPD2     H 1103   4.246   4.676   1.840  0.4455  0.5934 -1.6752
   72MPD2    H1 1104   3.826   4.683   1.909  1.1704  1.3626  0.4291
   72MPD2    H2 1105   3.975   4.426   1.608 -0.4233  3.6068 -3.2419
   72MPD2    H3 1106   3.794   4.519   1.712 -0.1807  0.8314 -1.8319
   72MPD2     N 1107   4.041   0.051   1.996 -0.2021 -0.2184 -0.5849
   72MPD2    H5 1108   3.950   0.076   2.034  0.6577 -1.7764  2.5441
   72MPD2    N1 1109   4.247   4.507   1.645 -0.0765  0.0365 -0.5537
   72MPD2    H7 1110   4.333   4.546   1.683  0.7351  0.0167 -2.3369
   73TMC2    C1 1111   4.227   0.501  13.714 -0.3439 -0.5124  0.1960
   73TMC2    C2 1112   4.099   0.535  13.747  0.4362  0.4361 -0.1104
   73TMC2    C3 1113   4.065   0.561  13.876 -0.6831  0.3832 -0.2916
   73TMC2    C4 1114   4.325   0.515  13.811  0.1196  0.4038  0.0167
   73TMC2    C5 1115   4.292   0.557  13.941  0.3638 -0.6889  0.2362
   73TMC2    C6 1116   4.162   0.578  13.975  0.1182 -0.6795 -0.7935
   73TMC2     C 1117   4.276   0.578  13.598 -0.6551  0.7608 -0.1001
   73TMC2     O 1118   4.383   0.635  13.625  0.2544 -0.1572  0.4460
   73TMC2     H 1119   4.016   0.524  13.678 -1.1780  2.6976  1.4548
   73TMC2    H1 1120   4.420   0.463  13.804  0.1441  0.5661 -0.8354
   73TMC2    H2 1121   4.132   0.625  14.068  0.0397  2.2797 -2.3063
   73TMC2    C7 1122   4.379   0.655  13.999 -0.5735 -0.5942  0.1186
   73TMC2    C8 1123   3.934   0.592  13.914 -0.0478 -0.5418 -0.3249
   73TMC2    O1 1124   4.397   0.657  14.121  0.1481 -0.0745 -0.2882
   73TMC2    O2 1125   3.887   0.532  14.008  0.3657 -0.4279  0.4848
   73TMC2    O5 1126   3.908   0.723  13.894 -0.0004 -0.0969  0.2251
   73TMC2    H5 1127   3.942   0.765  13.813  1.3032  1.3924  1.5325
   74MPD2     C 1128   4.251   0.769  13.129 -0.3702 -0.5118 -0.2387
   74MPD2    C1 1129   4.335   0.803  13.233 -0.1729 -0.3291 -0.1761
   74MPD2    C2 1130   4.319   0.739  13.355 -0.1982 -0.5184 -0.2915
   74MPD2    C3 1131   4.228   0.635  13.359  0.6255  0.8237 -0.2754
   74MPD2    C4 1132   4.144   0.604  13.252  0.1457  0.5296  0.1130
   74MPD2    C5 1133   4.160   0.668  13.134  0.3168 -0.2618 -0.0792
   74MPD2     H 1134   4.366   0.771  13.447  0.5052 -2.8615  0.1532
   74MPD2    H1 1135   4.069   0.526  13.247  1.7619 -1.2193  2.5879
   74MPD2    H2 1136   4.268   0.805  13.028  2.3305  0.5306  0.5598
   74MPD2    H3 1137   4.100   0.628  13.053 -2.6551  1.6731  1.1511
   74MPD2     N 1138   4.198   0.577  13.487  0.2944  0.3627  0.7761
   74MPD2    H5 1139   4.114   0.520  13.487 -1.9528  3.7275  1.4146
   74MPD2    N1 1140   4.430   0.902  13.216 -0.3231  0.6122  0.5146
   74MPD2    H7 1141   4.431   0.950  13.126  0.1964  4.1515  2.4212
   75TCq2    C1 1142   4.566   2.063  13.728  0.1381  0.0742  0.6749
   75TCq2    O2 1143   4.623   2.046  13.620 -0.2237 -0.1107  0.4077
   75TCq2    C2 1144   4.426   2.063  13.729 -0.2217  0.0930  0.6059
   75TCq2    C3 1145   4.344   2.068  13.839 -0.3457  0.2104 -0.5815
   75TCq2    C4 1146   4.208   2.053  13.826  0.2894  0.2340 -0.2430
   75TCq2    C5 1147   4.148   2.052  13.707 -0.0574 -0.3770 -0.8803
   75TCq2    C6 1148   4.224   2.047  13.596  0.5629 -0.3091  0.1742
   75TCq2    C7 1149   4.362   2.059  13.606  0.2539  0.1092  0.2493
   75TCq2    C8 1150   4.158   2.034  13.465 -0.7687 -0.4191  0.2762
   75TCq2    O4 1151   4.221   2.089  13.377  0.1229  0.3993  0.2617
   75TCq2    C9 1152   4.124   2.070  13.948  1.1448  0.2620  0.2702
   75TCq2    O5 1153   4.000   2.066  13.933 -0.3470 -0.0676 -0.0602
   75TCq2    O6 1154   4.171   2.108  14.058 -0.4139 -0.4040 -0.2117
   75TCq2    H2 1155   4.382   2.059  13.940 -0.6057  0.8067 -0.4287
   75TCq2    H3 1156   4.041   2.037  13.717 -0.1728  2.4352  1.9209
   75TCq2    H4 1157   4.412   2.052  13.510  1.1057  0.7083  0.6522
   76MPD2     C 1158   4.003   3.232  11.823 -0.0128  0.6292 -0.2504
   76MPD2    C1 1159   3.870   3.213  11.821  0.5373 -0.0264 -0.6840
   76MPD2    C2 1160   3.812   3.090  11.827 -0.2143 -0.2298 -0.4414
   76MPD2    C3 1161   3.892   2.979  11.823 -0.3494  0.1828 -0.4174
   76MPD2    C4 1162   4.026   2.999  11.820  0.2473 -0.2920 -0.4810
   76MPD2    C5 1163   4.086   3.119  11.809 -0.3171 -0.5286  0.7329
   76MPD2     H 1164   3.703   3.086  11.825 -0.1839 -1.4331  0.0853
   76MPD2    H1 1165   4.098   2.918  11.826 -0.6982 -1.0870  0.2660
   76MPD2    H2 1166   4.051   3.329  11.823  0.7588  0.2524  2.9162
   76MPD2    H3 1167   4.194   3.126  11.806 -0.3648 -0.7384 -1.4493
   76MPD2     N 1168   3.836   2.849  11.830  0.1032 -0.6634  0.9477
   76MPD2    H5 1169   3.900   2.771  11.844  0.9122  0.1162  1.5639
   76MPD2    N1 1170   3.777   3.326  11.801 -0.1578  1.0089 -0.1176
   76MPD2    H7 1171   3.681   3.310  11.831 -0.6875  2.4180 -1.0711
   77TCq2    C1 1172   3.714   2.805  11.788 -0.6964  0.4535 -0.3319
   77TCq2    O2 1173   3.632   2.878  11.734  0.0148 -0.3346  0.3575
   77TCq2    C2 1174   3.712   2.665  11.756 -0.2137 -0.2912  0.1976
   77TCq2    C3 1175   3.665   2.647  11.627  0.4006  0.2900  0.7665
   77TCq2    C4 1176   3.689   2.525  11.565 -0.5028  0.7530 -0.4032
   77TCq2    C5 1177   3.764   2.429  11.633  0.3335 -0.1392 -0.3466
   77TCq2    C6 1178   3.812   2.457  11.760  0.3621 -0.7133  0.1834
   77TCq2    C7 1179   3.793   2.574  11.824  0.2128  0.3350  0.1064
   77TCq2    C8 1180   3.899   2.354  11.820  0.1456 -0.4892 -0.5237
   77TCq2    O4 1181   3.888   2.244  11.773  0.3412  0.1689 -0.4301
   77TCq2    C9 1182   3.630   2.508  11.436  0.1302  0.2803  0.2093
   77TCq2    O5 1183   3.576   2.608  11.378  0.1259 -0.0066 -0.0354
   77TCq2    O6 1184   3.626   2.389  11.398 -0.6342 -0.1371  0.2763
   77TCq2    H2 1185   3.614   2.730  11.578  1.0937 -1.2105 -2.4731
   77TCq2    H3 1186   3.783   2.340  11.574 -2.2826 -1.1638  0.3342
   77TCq2    H4 1187   3.837   2.596  11.920  0.2259  1.7239 -0.2175
   78MPD1     C 1188   0.184   1.690   2.340  0.0724 -0.4240  0.3731
   78MPD1    C1 1189   0.313   1.741   2.346 -0.2396  0.7218  0.3946
   78MPD1    C2 1190   0.333   1.868   2.396  0.0093  0.5061 -0.4489
   78MPD1    C3 1191   0.227   1.937   2.454  0.4631  0.9183  0.0340
   78MPD1    C4 1192   0.106   1.872   2.460  0.0031 -0.3191  0.0270
   78MPD1    C5 1193   0.083   1.757   2.394 -0.1665  0.1136 -0.3067
   78MPD1     H 1194   0.432   1.912   2.398  1.3287 -2.5519  0.5826
   78MPD1    H1 1195   0.032   1.917   2.525  1.0893  0.2938  0.8292
   78MPD1    H2 1196   0.158   1.595   2.294 -1.1994  0.8740 -1.6123
   78MPD1    H3 1197   4.702   1.713   2.394  0.8881 -2.3148 -0.9972
   78MPD1     N 1198   0.242   2.054   2.534 -0.7523  0.1037  0.5076
   78MPD1    H5 1199   0.156   2.083   2.579  0.6365  2.7062  1.5029
   78MPD1    N1 1200   0.416   1.666   2.285 -0.3934  0.5745  0.2754
   78MPD1    H6 1201   0.506   1.689   2.328 -0.0886 -1.5725  0.7856
   78MPD1    H7 1202   0.400   1.566   2.281 -0.4966  0.6833 -1.6693
   79TCq2    C1 1203   0.353   2.133   2.547 -0.2075 -0.6275 -0.1167
   79TCq2    O2 1204   0.464   2.129   2.490  0.2860  0.2332  0.2857
   79TCq2    C2 1205   0.325   2.244   2.640  0.0777  0.0200 -0.0990
   79TCq2    C3 1206   0.253   2.221   2.756  0.0881 -0.3108 -0.3868
   79TCq2    C4 1207   0.238   2.321   2.845 -1.0348  0.1913  0.1988
   79TCq2    C5 1208   0.302   2.440   2.824  0.7104  0.2138  0.2860
   79TCq2    C6 1209   0.384   2.454   2.715  0.0166 -0.7633 -0.6212
   79TCq2    C7 1210   0.400   2.355   2.624 -0.1599  0.1479  0.5792
   79TCq2    C8 1211   0.432   2.588   2.667 -0.3018  0.1056  0.0657
   79TCq2    O4 1212   0.534   2.580   2.595  0.0991  0.2985 -0.4137
   79TCq2    C9 1213   0.152   2.298   2.958  0.0439 -0.1753 -0.1700
   79TCq2    O5 1214   0.140   2.177   2.996 -0.4493 -0.3447 -0.0726
   79TCq2    O6 1215   0.123   2.403   3.022 -0.1364  0.3998 -0.2929
   79TCq2    H2 1216   0.188   2.136   2.775 -1.8374  0.3783 -3.9909
   79TCq2    H3 1217   0.289   2.510   2.905 -1.7489  0.8180 -0.6111
   79TCq2    H4 1218   0.444   2.377   2.528  0.6595  0.8464  1.1119
   80MPD2     C 1219   3.241   2.505  11.731 -0.2721 -0.1674 -1.1123
   80MPD2    C1 1220   3.113   2.520  11.765  0.0724  0.4325  0.0398
   80MPD2    C2 1221   3.086   2.603  11.869 -0.0305 -0.0654  0.0769
   80MPD2    C3 1222   3.186   2.673  11.931 -1.3905  0.1909  0.7392
   80MPD2    C4 1223   3.316   2.652  11.896  0.7602  0.9977 -1.0327
   80MPD2    C5 1224   3.341   2.566  11.791 -0.5407 -0.3928  0.4590
   80MPD2     H 1225   2.982   2.603  11.901  0.4248 -1.3458  1.5690
   80MPD2    H1 1226   3.401   2.711  11.928  0.1680  1.1579  0.2506
   80MPD2    H2 1227   3.266   2.452  11.640 -0.1026  2.1605 -2.4224
   80MPD2    H3 1228   3.444   2.557  11.759 -0.9881 -2.0785 -0.4952
   80MPD2     N 1229   3.167   2.755  12.045  0.4225  0.3970 -0.3732
   80MPD2    H5 1230   3.252   2.789  12.088  0.0304 -1.2182  1.6765
   80MPD2    N1 1231   2.999   2.463  11.707 -0.1070 -0.4650  0.0400
   80MPD2    H7 1232   2.914   2.506  11.744  0.1552  1.3628 -1.4552
   81TCq2    C1 1233   2.997   2.387  11.598  0.0322  0.1681  0.1699
   81TCq2    O2 1234   3.091   2.347  11.526  0.1517 -0.1394 -0.2691
   81TCq2    C2 1235   2.860   2.373  11.549 -0.4270  0.2997 -0.2421
   81TCq2    C3 1236   2.835   2.386  11.416  0.8352 -0.2986 -0.6916
   81TCq2    C4 1237   2.706   2.394  11.381  0.0486  1.2075  0.1593
   81TCq2    C5 1238   2.603   2.379  11.469 -0.1262 -0.4244  0.8431
   81TCq2    C6 1239   2.636   2.368  11.595 -0.3842  0.1995  0.0512
   81TCq2    C7 1240   2.764   2.366  11.642 -0.9233 -0.4067 -0.2694
   81TCq2    C8 1241   2.524   2.344  11.688 -0.2391  0.3322  0.2318
   81TCq2    O4 1242   2.412   2.332  11.639  0.6830  0.6092 -0.4457
   81TCq2    C9 1243   2.673   2.407  11.241 -0.1967  0.4452  0.2048
   81TCq2    O5 1244   2.560   2.449  11.215  0.6470  0.9796  0.3255
   81TCq2    O6 1245   2.764   2.377  11.157 -0.5062 -0.6758 -0.1058
   81TCq2    H2 1246   2.916   2.390  11.345  2.4756 -0.5728  1.1569
   81TCq2    H3 1247   2.499   2.387  11.439  0.3302 -0.0361 -0.6595
   81TCq2    H4 1248   2.791   2.342  11.745  0.1648 -1.8760 -0.8904
   82MPD2     C 1249   1.052   2.716  10.455  0.3612  0.0209  0.0094
   82MPD2    C1 1250   1.060   2.583  10.409  0.4498  0.1013  1.0831
   82MPD2    C2 1251   1.159   2.502  10.464  0.1532  0.0047 -0.1301
   82MPD2    C3 1252   1.236   2.548  10.565 -0.7732  0.1696  0.3341
   82MPD2    C4 1253   1.225   2.673  10.609 -0.1488  0.3793  0.0793
   82MPD2    C5 1254   1.138   2.760  10.555  0.1115  0.2644  0.2678
   82MPD2     H 1255   1.157   2.395  10.447  2.4985 -0.2037  0.8484
   82MPD2    H1 1256   1.279   2.712  10.694  4.1499 -1.7994 -1.6586
   82MPD2    H2 1257   0.985   2.792  10.417  0.4687 -0.6117 -1.4727
   82MPD2    H3 1258   1.140   2.864  10.584 -0.4055  0.0030  1.2380
   82MPD2     N 1259   1.311   2.457  10.644  0.4159  0.5789  0.2132
   82MPD2    H5 1260   1.334   2.493  10.736 -1.7709 -0.5554  1.1868
   82MPD2    N1 1261   0.979   2.546  10.305  0.2555  0.4013  0.2029
   82MPD2    H7 1262   0.926   2.621  10.260 -0.6606  1.8608  3.7265
   83TCq2    C1 1263   1.349   2.330  10.622 -0.1772  0.0067  0.0791
   83TCq2    O2 1264   1.324   2.253  10.530  0.1169 -0.5625 -0.3826
   83TCq2    C2 1265   1.420   2.271  10.733  0.2861 -0.1171  0.3112
   83TCq2    C3 1266   1.496   2.354  10.815 -0.0254 -0.4280 -0.1524
   83TCq2    C4 1267   1.521   2.311  10.941 -0.6807  0.3014 -0.0790
   83TCq2    C5 1268   1.476   2.187  10.978 -0.0272  0.0028 -0.5202
   83TCq2    C6 1269   1.415   2.104  10.891  0.1820 -0.6796  0.6545
   83TCq2    C7 1270   1.388   2.141  10.764  0.0748 -0.0490  0.3259
   83TCq2    C8 1271   1.351   1.987  10.952 -0.6449  0.3983  0.2712
   83TCq2    O4 1272   1.339   1.986  11.076 -0.0275  0.6051 -0.3175
   83TCq2    C9 1273   1.607   2.399  11.019 -0.2479 -0.3112  0.2091
   83TCq2    O5 1274   1.612   2.377  11.142  0.6009  0.0679  0.0770
   83TCq2    O6 1275   1.655   2.503  10.963  0.4744  0.4517  0.5333
   83TCq2    H2 1276   1.528   2.454  10.787  1.3494 -1.0612 -0.8411
   83TCq2    H3 1277   1.496   2.149  11.078 -0.0122  3.0013  0.6101
   83TCq2    H4 1278   1.358   2.066  10.692 -0.9082  0.8154 -0.1627
   84TCq2    C1 1279   2.798   0.803  10.560 -0.6362 -0.3408 -0.2375
   84TCq2    O2 1280   2.678   0.784  10.549  0.5450  0.1210 -0.1071
   84TCq2    C2 1281   2.841   0.831  10.701 -0.2190 -0.2014  0.2374
   84TCq2    C3 1282   2.972   0.857  10.748  0.1893 -0.8654 -0.0662
   84TCq2    C4 1283   2.999   0.872  10.882 -0.1985  0.5229  0.1379
   84TCq2    C5 1284   2.893   0.897  10.965 -0.1144 -0.9026 -0.4724
   84TCq2    C6 1285   2.767   0.878  10.920 -0.5629 -0.1311  0.0523
   84TCq2    C7 1286   2.738   0.832  10.796 -0.3478 -0.9092 -0.5013
   84TCq2    C8 1287   2.657   0.860  11.011 -0.2145 -0.4732  0.1493
   84TCq2    O4 1288   2.540   0.852  10.978 -0.2970  0.1202 -0.6012
   84TCq2    C9 1289   3.137   0.894  10.931  0.0074  0.2057  0.3697
   84TCq2    O5 1290   3.230   0.923  10.846  0.3318  0.0744 -0.3243
   84TCq2    O6 1291   3.145   0.891  11.054 -0.0782  0.4798 -0.4950
   84TCq2    H2 1292   3.058   0.840  10.684  0.4822 -1.0134  0.3643
   84TCq2    H3 1293   2.911   0.938  11.064 -0.8824 -0.8144 -0.3717
   84TCq2    H4 1294   2.635   0.800  10.780 -0.6150 -0.2982  0.0268
   85MPD2     C 1295   1.433   3.511  16.147  0.1636  0.2979 -0.0864
   85MPD2    C1 1296   1.549   3.446  16.108  0.5935  0.6645  0.3830
   85MPD2    C2 1297   1.634   3.528  16.031  0.4365 -0.3239 -0.1411
   85MPD2    C3 1298   1.624   3.667  16.023  0.3370 -0.7080  0.4118
   85MPD2    C4 1299   1.508   3.730  16.069 -0.1378  0.2701  1.2160
   85MPD2    C5 1300   1.416   3.648  16.125  0.5202  0.2399  0.0554
   85MPD2     H 1301   1.732   3.489  16.004  1.2749 -0.2666  2.7586
   85MPD2    H1 1302   1.481   3.835  16.065 -0.7784  0.0776  0.2895
   85MPD2    H2 1303   1.360   3.463  16.211 -2.0358  1.2596 -1.8818
   85MPD2    H3 1304   1.327   3.693  16.166 -1.0887 -1.0647 -2.0114
   85MPD2     N 1305   1.731   3.732  15.957 -0.7355  0.4734  0.0821
   85MPD2    H5 1306   1.809   3.675  15.927 -1.7420  0.4460 -2.4912
   85MPD2    N1 1307   1.577   3.306  16.132 -0.3470  0.3682 -0.4006
   85MPD2    H7 1308   1.662   3.272  16.089 -0.7152 -1.7937  0.5761
   86TCq2    C1 1309   1.730   3.864  15.919 -0.2260  0.6099  0.3345
   86TCq2    O2 1310   1.677   3.953  15.984 -0.0512 -0.2120 -0.1902
   86TCq2    C2 1311   1.829   3.901  15.817  0.6438 -0.0916  0.1851
   86TCq2    C3 1312   1.840   4.033  15.774  0.0307  1.0265 -0.3406
   86TCq2    C4 1313   1.932   4.058  15.677  0.2808  0.3199  0.4696
   86TCq2    C5 1314   2.007   3.959  15.615  0.3719 -0.3163  0.2735
   86TCq2    C6 1315   1.980   3.831  15.658 -0.1115 -1.1653  0.1084
   86TCq2    C7 1316   1.885   3.799  15.749  0.1839  0.3781 -0.5755
   86TCq2    C8 1317   2.076   3.730  15.622 -0.3895  0.5768 -0.5274
   86TCq2    O4 1318   2.047   3.615  15.659 -0.3668  0.0962  0.1908
   86TCq2    C9 1319   1.952   4.197  15.640 -0.2322  0.4338  0.2913
   86TCq2    O5 1320   1.994   4.217  15.522  0.4714 -0.2651 -0.3971
   86TCq2    O6 1321   1.938   4.282  15.729  0.7021  0.3746 -0.1712
   86TCq2    H2 1322   1.784   4.114  15.821 -1.6840  0.9788 -2.3281
   86TCq2    H3 1323   2.093   3.995  15.559 -1.1104 -0.3216 -1.9779
   86TCq2    H4 1324   1.864   3.694  15.765  0.3541  0.6769  1.6868
   87MPD2     C 1325   3.728   2.004   1.510 -0.1883  0.3818 -0.0164
   87MPD2    C1 1326   3.810   2.082   1.427  0.3400  0.0430 -0.5715
   87MPD2    C2 1327   3.764   2.127   1.301  0.7026 -0.8308 -0.0353
   87MPD2    C3 1328   3.639   2.084   1.263  0.1360 -0.2178 -0.8720
   87MPD2    C4 1329   3.566   1.997   1.342 -0.4792 -0.4058 -0.4353
   87MPD2    C5 1330   3.610   1.960   1.465 -0.3572  0.5334  0.4724
   87MPD2     H 1331   3.816   2.202   1.242 -0.2018  0.5763  0.9557
   87MPD2    H1 1332   3.467   1.965   1.313 -2.0179  1.9303  2.1641
   87MPD2    H2 1333   3.765   1.966   1.605  0.3410  2.6680  0.6851
   87MPD2    H3 1334   3.552   1.888   1.521 -0.3705 -0.4093 -0.7535
   87MPD2     N 1335   3.571   2.119   1.139  0.0880  0.1682  0.2677
   87MPD2    H5 1336   3.480   2.082   1.115 -1.0958  2.7454  0.8048
   87MPD2    N1 1337   3.942   2.111   1.467  0.5826 -0.3982  0.0241
   87MPD2    H7 1338   3.976   2.075   1.555 -0.7564 -0.4066  0.5346
   88TCq2    C1 1339   4.042   2.163   1.383  0.5757 -0.8493 -0.3561
   88TCq2    O2 1340   4.034   2.202   1.266 -0.3063  0.4234  0.1914
   88TCq2    C2 1341   4.174   2.139   1.441  0.3546  0.0126 -0.0793
   88TCq2    C3 1342   4.193   2.125   1.573 -0.4640  0.0530 -0.2457
   88TCq2    C4 1343   4.307   2.082   1.627  0.1468  0.0527 -0.2239
   88TCq2    C5 1344   4.410   2.057   1.540  0.1523 -1.1113  0.4898
   88TCq2    C6 1345   4.398   2.075   1.406  0.6009  0.6405 -0.5799
   88TCq2    C7 1346   4.275   2.115   1.358 -0.0721  0.5721  0.1051
   88TCq2    C8 1347   4.499   2.062   1.306 -0.3659  0.1915 -0.4132
   88TCq2    O4 1348   4.468   2.060   1.184  0.0427 -0.1135  0.0379
   88TCq2    C9 1349   4.317   2.071   1.769 -0.1880  0.2435  0.1836
   88TCq2    O5 1350   4.418   2.016   1.821  0.1079  0.7757  0.0774
   88TCq2    O6 1351   4.209   2.076   1.829 -0.0203 -0.5290 -0.0386
   88TCq2    H2 1352   4.115   2.164   1.637 -0.6553 -0.5440 -0.1143
   88TCq2    H3 1353   4.501   2.022   1.587  2.3098  2.2434 -1.1723
   88TCq2    H4 1354   4.261   2.105   1.251 -0.0319 -0.9578  0.2355
   89MPD2     C 1355   0.636   0.435   2.813 -0.4261 -0.0302 -0.0937
   89MPD2    C1 1356   0.604   0.480   2.681  0.0957  0.0235  0.5665
   89MPD2    C2 1357   0.708   0.516   2.596 -0.5247 -0.5254  0.4728
   89MPD2    C3 1358   0.843   0.498   2.629 -0.1472 -0.1222  0.1750
   89MPD2    C4 1359   0.872   0.454   2.755  0.5543  0.3972  0.7052
   89MPD2    C5 1360   0.771   0.432   2.849 -0.0220  0.3424  0.0568
   89MPD2     H 1361   0.688   0.539   2.492 -0.8314  0.0294  0.6568
   89MPD2    H1 1362   0.973   0.457   2.794  0.3782 -2.7129  1.3633
   89MPD2    H2 1363   0.562   0.420   2.891 -0.7602 -1.3622 -0.6706
   89MPD2    H3 1364   0.810   0.404   2.946  1.0669  0.7733 -0.2529
   89MPD2     N 1365   0.940   0.521   2.530 -0.0095  0.4318 -0.1550
   89MPD2    H5 1366   0.902   0.535   2.436 -0.8845  0.7757  0.2483
   89MPD2    N1 1367   0.476   0.493   2.623 -0.1187  0.6516  0.3217
   89MPD2    H7 1368   0.465   0.547   2.537 -0.9745  2.7207  1.7285
   90TCq2    C1 1369   1.076   0.521   2.543  0.5829  0.0203  0.2091
   90TCq2    O2 1370   1.142   0.517   2.644  0.4961 -0.0951 -0.0752
   90TCq2    C2 1371   1.151   0.535   2.417 -0.1459 -0.0160 -0.7136
   90TCq2    C3 1372   1.284   0.557   2.429 -0.5841  0.4023 -0.2648
   90TCq2    C4 1373   1.358   0.597   2.325  0.5925  0.2230 -0.2155
   90TCq2    C5 1374   1.293   0.626   2.206  0.5890  0.3218 -0.1451
   90TCq2    C6 1375   1.157   0.613   2.199 -0.4799 -0.5300 -0.0277
   90TCq2    C7 1376   1.088   0.546   2.295  0.2254 -0.3936  0.3032
   90TCq2    C8 1377   1.083   0.650   2.074 -0.3332 -0.6767  0.2564
   90TCq2    O4 1378   0.966   0.668   2.094 -0.1741 -0.3628  0.2189
   90TCq2    C9 1379   1.497   0.626   2.346 -0.9726 -0.0164 -0.4346
   90TCq2    O5 1380   1.560   0.681   2.250 -0.3008  0.5205 -0.1469
   90TCq2    O6 1381   1.541   0.630   2.462  0.5633 -0.0925 -0.0328
   90TCq2    H2 1382   1.334   0.546   2.524 -0.0408  0.2506 -0.5712
   90TCq2    H3 1383   1.347   0.687   2.135  1.6808 -0.7450 -0.2246
   90TCq2    H4 1384   0.980   0.539   2.289  0.1572 -0.7424  1.9337
   91TMC2    C1 1385   2.110   4.342  16.630  0.4506  0.2864  0.1888
   91TMC2    C2 1386   2.208   4.336  16.727  0.4008  0.2273 -0.3694
   91TMC2    C3 1387   2.180   4.408  16.843 -0.4342 -0.4326 -0.5236
   91TMC2    C4 1388   2.001   4.425  16.637  0.2445 -0.0108  0.4840
   91TMC2    C5 1389   1.975   4.486  16.757 -0.7497  0.8616  0.3500
   91TMC2    C6 1390   2.071   4.490  16.855  1.1506  0.4000 -0.4109
   91TMC2     C 1391   2.148   4.300  16.496 -0.2288 -0.4328  0.1861
   91TMC2     O 1392   2.081   4.320  16.399 -0.3992 -0.3461  0.0157
   91TMC2     H 1393   2.277   4.253  16.736  0.2208  0.0002 -1.1255
   91TMC2    H1 1394   1.944   4.437  16.545 -0.5372 -0.1801  0.9415
   91TMC2    H2 1395   2.059   4.539  16.951  2.4104  0.7227 -0.4133
   91TMC2    C7 1396   1.883   4.596  16.763  0.1725  0.1996 -0.4244
   91TMC2    C8 1397   2.262   4.379  16.962  0.4701  0.6234 -0.0475
   91TMC2    O1 1398   1.910   4.681  16.848  0.3097  0.2252  0.3214
   91TMC2    O2 1399   2.348   4.290  16.959 -0.0462 -0.1933  0.3198
   91TMC2    O5 1400   2.274   4.487  17.037  0.3504 -0.4418 -0.5279
   91TMC2    H5 1401   2.199   4.550  17.026  1.0025  0.3090 -0.6463
   92MPD2     C 1402   2.319   4.230  16.259 -0.0940 -0.0130 -0.3218
   92MPD2    C1 1403   2.367   4.260  16.383 -0.3536 -0.0690 -0.7234
   92MPD2    C2 1404   2.500   4.254  16.404 -0.3566 -0.8114  0.1487
   92MPD2    C3 1405   2.587   4.230  16.304 -0.2305 -0.0113 -0.7141
   92MPD2    C4 1406   2.540   4.191  16.179 -0.1175  0.0765  0.1555
   92MPD2    C5 1407   2.408   4.191  16.158  0.6834 -0.1203  0.0244
   92MPD2     H 1408   2.538   4.290  16.499  0.8176  1.1944 -1.0845
   92MPD2    H1 1409   2.607   4.166  16.099  1.1714  0.2583  1.1817
   92MPD2    H2 1410   2.212   4.226  16.239  0.1435  0.3114 -1.6728
   92MPD2    H3 1411   2.362   4.158  16.066  0.7377  1.7837 -0.6900
   92MPD2     N 1412   2.727   4.246  16.334  0.0853  0.2317  0.0708
   92MPD2    H5 1413   2.748   4.281  16.427  0.8613 -0.4765  0.1587
   92MPD2    N1 1414   2.286   4.291  16.497 -0.4313 -0.1110 -0.0324
   92MPD2    H7 1415   2.336   4.319  16.581  0.1825 -0.6804 -0.2040
   93MPD2     C 1416   3.766   0.268  13.695 -0.4751  0.2881  0.6124
   93MPD2    C1 1417   3.760   0.265  13.832  0.6158 -0.1632  0.6403
   93MPD2    C2 1418   3.642   0.267  13.895 -0.3915 -0.3951 -0.1365
   93MPD2    C3 1419   3.529   0.286  13.824  0.0204 -1.0286 -0.3264
   93MPD2    C4 1420   3.532   0.311  13.684 -0.1757  0.0013  0.0775
   93MPD2    C5 1421   3.653   0.295  13.626  0.2422 -0.1070  0.1806
   93MPD2     H 1422   3.642   0.250  14.002 -0.8725  0.1254 -0.0519
   93MPD2    H1 1423   3.441   0.335  13.631 -1.5945 -0.1030  2.4458
   93MPD2    H2 1424   3.850   0.250  13.630  0.7594  1.8771  1.7691
   93MPD2    H3 1425   3.659   0.305  13.518 -0.9870 -2.2755 -0.0803
   93MPD2     N 1426   3.392   0.282  13.867 -0.5275 -0.9698  0.1432
   93MPD2    H5 1427   3.311   0.301  13.809  0.8949  1.0688 -1.1739
   93MPD2    N1 1428   3.878   0.232  13.910 -0.0385  0.2418  0.0676
   93MPD2    H7 1429   3.859   0.238  14.009 -1.9707  1.4665 -0.3784
   94TCq2    C1 1430   4.005   0.200  13.860 -0.0924 -0.4456 -0.2010
   94TCq2    O2 1431   4.042   0.178  13.743  0.4724 -0.0739  0.5096
   94TCq2    C2 1432   4.105   0.195  13.961 -0.2307  0.4695  0.0815
   94TCq2    C3 1433   4.073   0.231  14.084  0.0910  0.0223 -0.1727
   94TCq2    C4 1434   4.173   0.261  14.174  0.3564 -0.2481  0.2304
   94TCq2    C5 1435   4.304   0.245  14.147  0.8163 -0.2943  0.3258
   94TCq2    C6 1436   4.337   0.199  14.019  0.1142  1.0265 -1.1536
   94TCq2    C7 1437   4.240   0.172  13.922 -0.1126  0.2032  0.7126
   94TCq2    C8 1438   4.469   0.217  13.965  0.7048  0.3738 -0.3718
   94TCq2    O4 1439   4.500   0.169  13.858  0.6417  0.3630 -0.3899
   94TCq2    C9 1440   4.130   0.313  14.305 -0.2463 -0.6595  1.1208
   94TCq2    O5 1441   4.218   0.337  14.390 -0.1663  0.2505 -0.5002
   94TCq2    O6 1442   4.003   0.342  14.318  0.2743  0.2671 -0.0048
   94TCq2    H2 1443   3.973   0.243  14.124 -0.0213 -0.2623 -0.3686
   94TCq2    H3 1444   4.380   0.246  14.223  1.2899  2.6871 -0.1725
   94TCq2    H4 1445   4.275   0.137  13.826 -1.9741 -0.2468  0.1800
   95TMC2    C1 1446   4.361   0.783  15.175 -0.4177  0.1527  0.2533
   95TMC2    C2 1447   4.312   0.706  15.278 -0.1337 -0.4747 -0.1020
   95TMC2    C3 1448   4.220   0.613  15.228 -0.7612  0.0124 -0.8751
   95TMC2    C4 1449   4.346   0.766  15.039  0.9967 -0.4764 -0.0147
   95TMC2    C5 1450   4.248   0.679  14.998 -0.1941  0.4285 -0.4162
   95TMC2    C6 1451   4.190   0.593  15.095 -0.6231 -0.4445  0.1240
   95TMC2     C 1452   4.434   0.907  15.210 -0.3863  0.4899  0.0957
   95TMC2     O 1453   4.492   0.964  15.116  0.2103  0.5787 -0.0397
   95TMC2     H 1454   4.355   0.707  15.378 -0.9696  0.4241  0.2529
   95TMC2    H1 1455   4.414   0.814  14.970  2.0951 -2.1826 -0.1322
   95TMC2    H2 1456   4.122   0.512  15.070 -1.1220 -0.3873  1.2889
   95TMC2    C7 1457   4.224   0.659  14.855  0.4960  1.2771 -0.7208
   95TMC2    C8 1458   4.155   0.519  15.319  0.2726  0.3571  0.4808
   95TMC2    O1 1459   4.183   0.552  14.811 -0.2215  0.6995 -0.5423
   95TMC2    O2 1460   4.062   0.441  15.296  0.6623  0.5725 -0.3965
   95TMC2    O5 1461   4.231   0.500  15.428  0.0349  0.3737 -0.2980
   95TMC2    H5 1462   4.324   0.531  15.430 -0.8563  2.7389  2.9188
   96MPD2     C 1463   4.542   1.311  15.516  0.7937  0.4545 -0.0162
   96MPD2    C1 1464   4.562   1.300  15.378 -0.5322  0.0665  0.1865
   96MPD2    C2 1465   4.523   1.178  15.316 -0.0187 -0.5630  0.3274
   96MPD2    C3 1466   4.454   1.077  15.388  0.3385  0.2117  0.2093
   96MPD2    C4 1467   4.433   1.104  15.518  0.9065  0.4826  0.0659
   96MPD2    C5 1468   4.480   1.211  15.587  0.2093 -0.3156  0.7906
   96MPD2     H 1469   4.549   1.167  15.211  0.7837 -0.9551  0.5649
   96MPD2    H1 1470   4.388   1.026  15.578  0.7833 -0.8559 -1.7846
   96MPD2    H2 1471   4.566   1.407  15.561 -1.7604  0.8450  0.4824
   96MPD2    H3 1472   4.458   1.208  15.693 -0.3423 -0.6327  0.6692
   96MPD2     N 1473   4.416   0.948  15.340 -0.1769 -0.7874  0.0334
   96MPD2    H5 1474   4.360   0.893  15.405 -0.1191  0.9275  1.5352
   96MPD2    N1 1475   4.618   1.410  15.305 -0.6081  0.1725  0.0484
   96MPD2    H7 1476   4.635   1.485  15.371  1.3250 -2.3872  2.4744
   97MPD2     C 1477   1.747   4.160   1.120  0.5116 -0.1815 -0.2197
   97MPD2    C1 1478   1.830   4.109   1.214 -0.0085  0.0840  0.5673
   97MPD2    C2 1479   1.966   4.103   1.189 -0.9151 -0.2269 -0.3164
   97MPD2    C3 1480   2.019   4.142   1.069  0.4087  0.2119  0.2825
   97MPD2    C4 1481   1.929   4.189   0.974 -0.2422  0.0577 -0.5243
   97MPD2    C5 1482   1.796   4.197   1.000  0.4763  0.2709  0.4136
   97MPD2     H 1483   2.035   4.043   1.247  0.3873  0.4967 -1.1413
   97MPD2    H1 1484   1.958   4.201   0.870  1.6278 -0.4923 -0.0603
   97MPD2    H2 1485   1.640   4.156   1.134  0.4940 -3.2123 -1.1392
   97MPD2    H3 1486   1.730   4.223   0.918 -0.2616  1.8383  1.5116
   97MPD2     N 1487   2.152   4.144   1.033  0.3266 -0.6335 -0.1648
   97MPD2    H5 1488   2.179   4.173   0.940  0.1723  1.1093  0.3468
   97MPD2    N1 1489   1.777   4.062   1.335  0.5611  0.2558  0.1371
   97MPD2    H7 1490   1.682   4.087   1.361  0.2383  1.0419 -1.7502
   98TCq2    C1 1491   2.253   4.109   1.112  0.1347  0.0833 -0.3490
   98TCq2    O2 1492   2.256   4.092   1.235 -0.0285 -0.6752  0.2739
   98TCq2    C2 1493   2.375   4.116   1.033  0.6111 -0.5903 -0.3209
   98TCq2    C3 1494   2.475   4.035   1.074  0.0991 -0.6732  0.8964
   98TCq2    C4 1495   2.567   4.000   0.980 -0.2903 -0.7569 -0.3599
   98TCq2    C5 1496   2.565   4.047   0.854  0.1189 -0.5691 -0.3247
   98TCq2    C6 1497   2.473   4.144   0.822 -1.3301 -0.3028 -0.0823
   98TCq2    C7 1498   2.367   4.176   0.909  0.7404  0.5612  0.4181
   98TCq2    C8 1499   2.470   4.199   0.687  0.8185 -0.1606  0.0108
   98TCq2    O4 1500   2.577   4.206   0.632  0.1615  0.4340 -0.7744
   98TCq2    C9 1501   2.676   3.912   1.021 -0.2785 -0.0664  0.2197
   98TCq2    O5 1502   2.754   3.863   0.928  0.5646 -0.1630  0.2204
   98TCq2    O6 1503   2.691   3.890   1.144  0.1661 -0.3745 -0.0852
   98TCq2    H2 1504   2.475   3.982   1.169  1.3347  1.6841  2.2141
   98TCq2    H3 1505   2.637   4.028   0.776 -1.2164 -2.9652 -0.9591
   98TCq2    H4 1506   2.312   4.267   0.885 -1.2748 -0.7433  0.0803
   99MPD2     C 1507   1.149   0.934   2.270 -0.2537 -0.1001  0.0799
   99MPD2    C1 1508   1.019   0.943   2.308  0.4841 -0.1878 -0.1088
   99MPD2    C2 1509   0.925   0.999   2.223 -0.0637  0.2755 -0.6604
   99MPD2    C3 1510   0.967   1.063   2.106 -0.0358 -0.1125 -0.8318
   99MPD2    C4 1511   1.099   1.055   2.069 -0.4729 -0.5957  0.5833
   99MPD2    C5 1512   1.190   0.987   2.151  0.1416 -0.1935 -0.2799
   99MPD2     H 1513   0.822   0.991   2.255 -0.1800  2.8627 -0.3870
   99MPD2    H1 1514   1.139   1.091   1.975 -0.7820 -1.3035  0.1756
   99MPD2    H2 1515   1.228   0.885   2.326 -1.0483 -0.0647  1.2252
   99MPD2    H3 1516   1.294   0.984   2.123 -0.3923 -3.2500 -1.8313
   99MPD2     N 1517   0.864   1.117   2.032  0.5180 -0.1219 -0.4285
   99MPD2    H5 1518   0.770   1.119   2.069  0.0074 -0.0534 -1.7466
   99MPD2    N1 1519   0.970   0.903   2.437 -0.3399 -0.3991 -0.0259
   99MPD2    H7 1520   0.870   0.899   2.453 -0.3985  0.4289 -0.1775
  100TCq2    C1 1521   1.057   0.872   2.538 -0.0225  0.6746  0.2149
  100TCq2    O2 1522   1.164   0.927   2.546 -0.7186 -0.1996 -0.1710
  100TCq2    C2 1523   0.992   0.817   2.658 -0.2447 -0.3930 -0.0983
  100TCq2    C3 1524   1.081   0.809   2.762  0.1387 -0.1511 -0.2964
  100TCq2    C4 1525   1.030   0.787   2.893  0.8730  0.3231 -0.4998
  100TCq2    C5 1526   0.895   0.768   2.916 -0.1188  0.4485 -0.1887
  100TCq2    C6 1527   0.808   0.780   2.809  0.4853  0.1266  0.3235
  100TCq2    C7 1528   0.855   0.802   2.679 -0.2489 -0.6459  0.0748
  100TCq2    C8 1529   0.662   0.795   2.841  0.3622  0.3419  0.2416
  100TCq2    O4 1530   0.618   0.767   2.951  0.6455 -0.6217  0.0064
  100TCq2    C9 1531   1.121   0.783   3.010 -0.0769 -0.2094  0.2955
  100TCq2    O5 1532   1.211   0.871   3.013 -0.1701 -0.5002  0.1847
  100TCq2    O6 1533   1.065   0.731   3.109  0.1975 -0.3527  0.2630
  100TCq2    H2 1534   1.189   0.813   2.758  0.1367  1.4761  1.1401
  100TCq2    H3 1535   0.852   0.761   3.015 -0.2853 -1.1466 -0.3772
  100TCq2    H4 1536   0.783   0.810   2.598  1.2549 -2.4779 -1.4355
  101MPD2     C 1537   1.419   2.705  12.918 -0.1840 -0.5526  0.1052
  101MPD2    C1 1538   1.313   2.784  12.913  0.4190  0.2984  0.4174
  101MPD2    C2 1539   1.192   2.749  12.968  0.3990 -0.1475  0.0896
  101MPD2    C3 1540   1.170   2.623  13.023 -0.0097  0.0357 -0.2823
  101MPD2    C4 1541   1.284   2.545  13.034 -0.1482 -0.2281 -0.3416
  101MPD2    C5 1542   1.402   2.583  12.979  0.0533  0.9121 -0.2499
  101MPD2     H 1543   1.115   2.824  12.961 -0.6287 -1.1313  0.8094
  101MPD2    H1 1544   1.279   2.451  13.087  0.8201  0.1854  0.4703
  101MPD2    H2 1545   1.515   2.737  12.879 -1.5125  1.4408 -1.5293
  101MPD2    H3 1546   1.486   2.515  12.987 -0.6063 -0.0408 -1.4234
  101MPD2     N 1547   1.041   2.577  13.071 -0.1155  0.8503  0.4954
  101MPD2    H5 1548   0.967   2.647  13.074 -0.9000  0.1252 -1.9711
  101MPD2    N1 1549   1.340   2.905  12.842  0.3509 -0.8084 -0.4471
  101MPD2    H7 1550   1.431   2.916  12.799  0.1761 -3.6042 -1.4892
  102TCq2    C1 1551   1.619   3.209  12.591  0.5539  0.2790  0.4525
  102TCq2    O2 1552   1.680   3.117  12.646  0.4280 -0.2419  0.0649
  102TCq2    C2 1553   1.484   3.237  12.644  0.2061 -0.5525 -0.5118
  102TCq2    C3 1554   1.393   3.317  12.574  0.2770  0.6367  0.7032
  102TCq2    C4 1555   1.259   3.293  12.593 -0.3759  0.3244 -0.4752
  102TCq2    C5 1556   1.221   3.198  12.684 -0.1218 -0.6706 -0.5332
  102TCq2    C6 1557   1.310   3.125  12.758 -0.2195  0.5561 -0.8924
  102TCq2    C7 1558   1.444   3.137  12.731 -0.0280  0.5835 -0.5299
  102TCq2    C8 1559   1.255   3.009  12.831  0.0756  0.7307 -0.2131
  102TCq2    O4 1560   1.149   3.035  12.884 -0.5092  0.0740  0.1144
  102TCq2    C9 1561   1.170   3.372  12.513 -0.0308  0.1442 -0.2762
  102TCq2    O5 1562   1.223   3.433  12.414 -0.1728 -0.4023 -0.2514
  102TCq2    O6 1563   1.064   3.304  12.503  0.6316  0.1967  0.2611
  102TCq2    H2 1564   1.424   3.398  12.508  0.3056  1.2004  1.4046
  102TCq2    H3 1565   1.115   3.189  12.707 -0.0796 -0.2666 -0.1772
  102TCq2    H4 1566   1.517   3.076  12.783  1.6487  1.2515 -2.1105
  103TMC2    C1 1567   4.542   2.551  12.224 -0.0289  0.2421  0.2287
  103TMC2    C2 1568   4.663   2.566  12.161  0.7036  0.3038  0.0664
  103TMC2    C3 1569   0.017   2.676  12.196 -0.9414 -0.4366  0.1578
  103TMC2    C4 1570   4.501   2.625  12.334 -0.2764 -0.1481  0.0024
  103TMC2    C5 1571   4.578   2.734  12.366 -0.2675 -0.6222  0.0052
  103TMC2    C6 1572   4.699   2.758  12.298  0.1194  0.3312  0.4384
  103TMC2     C 1573   4.426   2.529  12.143 -0.5146  0.1771 -0.3903
  103TMC2     O 1574   4.326   2.584  12.185  0.1598  0.3068  0.3336
  103TMC2     H 1575   4.703   2.519  12.073  1.8684 -0.0608  0.7898
  103TMC2    H1 1576   4.410   2.602  12.389 -0.4113  1.0221  0.2662
  103TMC2    H2 1577   0.034   2.844  12.336  0.9275  0.5513 -1.2203
  103TMC2    C7 1578   4.548   2.815  12.482 -0.3991  0.2502  0.2651
  103TMC2    C8 1579   0.138   2.710  12.117  0.0326  0.6706  0.5157
  103TMC2    O1 1580   4.497   2.751  12.574 -0.0428 -0.1669  0.4122
  103TMC2    O2 1581   0.168   2.826  12.090 -0.4113  0.3568  0.1452
  103TMC2    O5 1582   0.219   2.618  12.155 -0.0327 -0.6468  0.1899
  103TMC2    H5 1583   0.182   2.553  12.219 -1.4984 -0.4177 -0.4364
  104MPD2     C 1584   4.388   2.226  11.932 -0.9234 -0.7798 -0.6662
  104MPD2    C1 1585   4.353   2.354  11.980 -0.9483  0.1935 -0.2389
  104MPD2    C2 1586   4.227   2.407  11.969 -0.5930 -0.3347  0.4726
  104MPD2    C3 1587   4.130   2.336  11.912  0.8817  0.2673  0.8510
  104MPD2    C4 1588   4.159   2.204  11.874 -0.2151  0.7298  0.2077
  104MPD2    C5 1589   4.283   2.147  11.895  0.2058  0.2400 -0.2555
  104MPD2     H 1590   4.212   2.508  12.004 -2.1263 -0.6737  0.8160
  104MPD2    H1 1591   4.086   2.135  11.833  0.8785 -0.1719 -0.2397
  104MPD2    H2 1592   4.488   2.184  11.942 -0.8219 -0.8534 -1.9887
  104MPD2    H3 1593   4.289   2.043  11.868  0.2766  0.0818  0.3795
  104MPD2     N 1594   4.016   2.402  11.881 -0.6586  0.3946  0.2549
  104MPD2    H5 1595   4.025   2.502  11.898  1.5049  0.6442 -2.3433
  104MPD2    N1 1596   4.451   2.421  12.060 -0.3447  0.0200 -0.2010
  104MPD2    H7 1597   4.544   2.380  12.068 -0.1942  0.3894 -0.0309
  105MPD2     C 1598   0.821   1.768   0.084  0.5937 -0.6695  0.1241
  105MPD2    C1 1599   0.720   1.849   0.052  0.4150  0.4933 -0.6737
  105MPD2    C2 1600   0.604   1.861   0.136 -0.4718  0.0134  0.3118
  105MPD2    C3 1601   0.602   1.798   0.257  0.3917 -0.3951  0.3559
  105MPD2    C4 1602   0.711   1.720   0.293 -0.3170 -0.3166 -0.1754
  105MPD2    C5 1603   0.823   1.708   0.206  0.8070 -0.7627 -0.3715
  105MPD2     H 1604   0.519   1.922   0.105 -0.6482 -0.4111 -0.0420
  105MPD2    H1 1605   0.730   1.684   0.393 -0.8181  0.9795  0.3903
  105MPD2    H2 1606   0.911   1.753   0.026 -0.2850 -0.1382 -1.3737
  105MPD2    H3 1607   0.906   1.643   0.235 -0.3638 -1.9972  0.2381
  105MPD2     N 1608   0.494   1.818   0.340 -0.7391  0.0930  0.6436
  105MPD2    H5 1609   0.424   1.875   0.293  0.6759  0.6262 -0.8058
  105MPD2    N1 1610   0.727   1.932  17.613 -0.1391 -0.0443  0.3017
  105MPD2    H7 1611   0.644   1.985  17.590 -1.0802 -1.0503  1.4036
  106TCq2    C1 1612   0.465   1.761   0.465 -0.2172 -0.0923  0.1733
  106TCq2    O2 1613   0.530   1.671   0.518  0.2855 -0.4832 -0.0436
  106TCq2    C2 1614   0.367   1.836   0.543 -0.0480 -0.0774  0.3556
  106TCq2    C3 1615   0.289   1.927   0.485 -0.2383 -0.2967 -0.0494
  106TCq2    C4 1616   0.202   2.001   0.557  0.0806  0.9811 -0.5097
  106TCq2    C5 1617   0.190   1.983   0.692  0.3644  0.8056 -0.6369
  106TCq2    C6 1618   0.264   1.874   0.745 -0.7896  0.1143 -0.2635
  106TCq2    C7 1619   0.349   1.796   0.669  0.4260 -0.3737  0.1752
  106TCq2    C8 1620   0.249   1.831   0.887 -0.8039  0.6117 -0.4426
  106TCq2    O4 1621   0.346   1.765   0.924  0.7071 -0.0429 -0.3242
  106TCq2    C9 1622   0.117   2.105   0.497 -0.0486  0.3111  0.1657
  106TCq2    O5 1623   0.138   2.142   0.375  0.7497  0.1643 -0.3589
  106TCq2    O6 1624   0.018   2.129   0.570  0.2497 -0.8531  0.1758
  106TCq2    H2 1625   0.305   1.959   0.383 -3.3697 -2.4654 -1.2172
  106TCq2    H3 1626   0.111   2.033   0.747  0.0302  1.7924 -2.0145
  106TCq2    H4 1627   0.409   1.716   0.711  0.8013  1.5925  3.4427
  107TMC2    C1 1628   1.816   0.780  11.477 -0.7806  0.2206  0.2291
  107TMC2    C2 1629   1.778   0.706  11.369  0.5069 -0.5138 -0.1798
  107TMC2    C3 1630   1.883   0.668  11.287 -0.4698  0.0694  0.0923
  107TMC2    C4 1631   1.948   0.811  11.510  0.2702  0.2388 -0.4521
  107TMC2    C5 1632   2.047   0.770  11.424 -0.0767 -0.2745  0.0405
  107TMC2    C6 1633   2.014   0.702  11.300 -0.7490  0.1944  0.1286
  107TMC2     C 1634   1.716   0.839  11.562  0.1003 -0.7065  0.0341
  107TMC2     O 1635   1.744   0.882  11.673  0.2015 -0.1990  0.2786
  107TMC2     H 1636   1.681   0.668  11.343  1.0318 -2.2643  0.4213
  107TMC2    H1 1637   1.967   0.885  11.588  0.5030 -0.1874 -0.1069
  107TMC2    H2 1638   2.091   0.683  11.226 -0.6909 -0.0489  0.2505
  107TMC2    C7 1639   2.183   0.798  11.458 -0.4254  0.0627 -0.1452
  107TMC2    C8 1640   1.839   0.602  11.169 -0.5984 -0.8103  0.3058
  107TMC2    O1 1641   2.215   0.833  11.569  0.1326 -0.1440  0.4650
  107TMC2    O2 1642   1.718   0.585  11.151 -0.1106 -0.1057 -0.0779
  107TMC2    O5 1643   1.933   0.507  11.162 -0.1576  0.4787 -0.3795
  107TMC2    H5 1644   2.019   0.526  11.120  0.8594 -0.7505  1.1334
  108MPD2     C 1645   1.369   0.908  11.453  0.4429 -0.1135  0.5683
  108MPD2    C1 1646   1.474   0.895  11.541 -0.1986  0.8296  0.7023
  108MPD2    C2 1647   1.452   0.925  11.675 -0.0817 -0.2767  0.0832
  108MPD2    C3 1648   1.327   0.982  11.718  0.4441  0.0018 -0.6533
  108MPD2    C4 1649   1.225   1.004  11.622 -0.5459  0.3795  0.6730
  108MPD2    C5 1650   1.248   0.964  11.493  0.4056  0.9301  0.2625
  108MPD2     H 1651   1.530   0.905  11.748  2.3662 -0.3808 -2.5561
  108MPD2    H1 1652   1.127   1.045  11.645 -1.7835 -1.9974 -0.3556
  108MPD2    H2 1653   1.384   0.900  11.346 -0.5571 -1.2500  0.5137
  108MPD2    H3 1654   1.167   0.978  11.423 -0.8810  1.5606  1.8712
  108MPD2     N 1655   1.299   1.014  11.853 -0.6258 -0.1295 -0.6635
  108MPD2    H5 1656   1.204   1.036  11.884 -1.1011 -0.4987 -1.8740
  108MPD2    N1 1657   1.591   0.838  11.492  0.0916  0.1260  0.0801
  108MPD2    H7 1658   1.594   0.827  11.392 -2.6048 -0.0438  0.0155
  109MPD2     C 1659   1.263   2.740   2.341 -0.3579  0.6813 -0.5575
  109MPD2    C1 1660   1.256   2.863   2.285 -0.2322  0.5864  0.0973
  109MPD2    C2 1661   1.375   2.923   2.239  0.4406 -0.1302 -0.1421
  109MPD2    C3 1662   1.499   2.868   2.257 -0.2057  0.5901  0.5534
  109MPD2    C4 1663   1.504   2.746   2.322 -0.3382  0.3105 -0.1255
  109MPD2    C5 1664   1.388   2.683   2.362  0.4855  0.2335 -0.0153
  109MPD2     H 1665   1.379   3.028   2.212 -1.1828  0.0427  0.3293
  109MPD2    H1 1666   1.595   2.686   2.322  1.1793  2.6189  0.9073
  109MPD2    H2 1667   1.176   2.690   2.384 -1.1248  5.3355  3.2840
  109MPD2    H3 1668   1.405   2.580   2.390  1.3429  0.1648 -0.8012
  109MPD2     N 1669   1.609   2.932   2.213  0.4369  1.0594  0.1276
  109MPD2    H5 1670   1.604   3.021   2.164  0.4300  0.6022 -0.7007
  109MPD2    N1 1671   1.133   2.936   2.291 -0.0059  0.3408 -0.1794
  109MPD2    H7 1672   1.058   2.879   2.328  0.3472  0.2821  0.4527
  110TCq2    C1 1673   1.739   2.886   2.231  0.3736 -0.1367 -0.3658
  110TCq2    O2 1674   1.783   2.800   2.307 -0.1853  0.5822  0.5651
  110TCq2    C2 1675   1.839   2.975   2.170  0.2999  0.0203 -0.8219
  110TCq2    C3 1676   1.967   2.930   2.196  0.0799  0.1297  0.1057
  110TCq2    C4 1677   2.067   3.017   2.201 -0.1144 -0.8687  0.2282
  110TCq2    C5 1678   2.040   3.148   2.172 -0.2393 -0.1311  0.5218
  110TCq2    C6 1679   1.912   3.188   2.142  0.0161 -0.4311 -0.2837
  110TCq2    C7 1680   1.803   3.107   2.144  0.5024 -0.3455 -0.6356
  110TCq2    C8 1681   1.883   3.334   2.117  0.4353 -0.7815  0.4168
  110TCq2    O4 1682   1.788   3.376   2.051 -0.1327  0.2015 -0.0335
  110TCq2    C9 1683   2.196   2.960   2.236 -0.0284  0.2358  0.4480
  110TCq2    O5 1684   2.300   3.036   2.237  0.8317 -0.7877 -0.0450
  110TCq2    O6 1685   2.202   2.842   2.270 -0.8327  0.2687 -0.6547
  110TCq2    H2 1686   1.981   2.826   2.223 -0.0651 -0.3313 -1.6171
  110TCq2    H3 1687   2.123   3.217   2.166 -0.9431  0.6217 -0.3911
  110TCq2    H4 1688   1.710   3.134   2.095  1.5203  0.2520 -2.2434
  111TMC2    C1 1689   1.519   3.199  11.628  0.3085  0.4454 -0.2689
  111TMC2    C2 1690   1.424   3.128  11.692  0.3559 -0.5923 -0.1808
  111TMC2    C3 1691   1.459   3.053  11.796 -0.3558  0.4571  0.1190
  111TMC2    C4 1692   1.654   3.175  11.641  0.3127  0.3659  1.0598
  111TMC2    C5 1693   1.685   3.085  11.745 -0.0280  0.1445 -0.5769
  111TMC2    C6 1694   1.593   3.031  11.833 -0.8740 -0.1031  0.4089
  111TMC2     C 1695   1.472   3.297  11.533  0.2474 -0.9984 -0.3684
  111TMC2     O 1696   1.536   3.329  11.433  0.3022 -0.5871 -0.1028
  111TMC2     H 1697   1.317   3.140  11.681  0.6820 -2.0110 -4.7901
  111TMC2    H1 1698   1.728   3.235  11.588  0.9930  0.6567  2.3375
  111TMC2    H2 1699   1.621   2.975  11.922  1.3390  0.7724  0.2496
  111TMC2    C7 1700   1.817   3.034  11.761 -0.3448 -0.2048 -0.1994
  111TMC2    C8 1701   1.356   2.997  11.880  0.2980  0.7759  0.5062
  111TMC2    O1 1702   1.830   2.956  11.856 -0.1686  0.3215 -0.8752
  111TMC2    O2 1703   1.258   3.055  11.916 -0.6032 -0.5993  0.2395
  111TMC2    O5 1704   1.409   2.876  11.916 -0.2744 -0.2023  0.3260
  111TMC2    H5 1705   1.477   2.846  11.852 -1.5658 -0.2194 -1.0451
  112MPD2     C 1706   1.062   3.566  11.349 -0.6429  1.1374 -0.1434
  112MPD2    C1 1707   1.167   3.515  11.280 -0.9171  0.1593 -0.0004
  112MPD2    C2 1708   1.270   3.450  11.353 -0.1726 -0.2161 -0.3555
  112MPD2    C3 1709   1.263   3.433  11.491  0.2902  0.6131 -0.3534
  112MPD2    C4 1710   1.152   3.480  11.553  0.6772  0.2857  0.3039
  112MPD2    C5 1711   1.057   3.551  11.487 -0.0207  0.3338 -0.0402
  112MPD2     H 1712   1.362   3.418  11.306  0.4691 -1.7022  1.9297
  112MPD2    H1 1713   1.143   3.476  11.661  1.3935  1.1255  0.3891
  112MPD2    H2 1714   0.980   3.625  11.309 -0.7595  0.9968 -0.1108
  112MPD2    H3 1715   0.980   3.603  11.543 -1.4854 -0.8837 -0.9113
  112MPD2     N 1716   1.355   3.358  11.571  0.1610 -0.1592 -0.4675
  112MPD2    H5 1717   1.335   3.353  11.670 -1.7189 -0.8785 -0.8768
  112MPD2    N1 1718   1.188   3.546  11.145  0.1886 -0.1577  0.0584
  112MPD2    H7 1719   1.264   3.501  11.096  1.2489 -1.6733  3.0513
  113MPD2     C 1720   0.012   1.210   1.663  0.3535 -0.3446 -0.7072
  113MPD2    C1 1721   4.592   1.240   1.659 -0.3089 -0.7015  0.3287
  113MPD2    C2 1722   4.526   1.182   1.552  0.3200  0.9479  0.3215
  113MPD2    C3 1723   4.595   1.103   1.452  0.0931  0.0067  0.1354
  113MPD2    C4 1724   0.012   1.090   1.463 -0.4382 -0.4627 -0.3949
  113MPD2    C5 1725   0.083   1.139   1.576  0.2496  0.2522  0.5226
  113MPD2     H 1726   4.420   1.196   1.533  0.5415  1.5076 -0.5271
  113MPD2    H1 1727   0.062   1.034   1.385  0.1749  1.9244 -1.6901
  113MPD2    H2 1728   0.066   1.237   1.753  1.6691 -1.6036 -1.1279
  113MPD2    H3 1729   0.188   1.122   1.595  0.7235 -0.5611 -2.7840
  113MPD2     N 1730   4.532   1.067   1.326 -0.0769  0.8017  0.3574
  113MPD2    H5 1731   4.583   1.023   1.250 -2.8114 -1.8772  0.0793
  113MPD2    N1 1732   4.523   1.307   1.765  0.1770  0.1993  0.0036
  113MPD2    H7 1733   4.423   1.314   1.755 -0.0445 -1.2343  1.1998
  114TCq2    C1 1734   4.390   1.056   1.308  0.4606 -0.3575  0.1312
  114TCq2    O2 1735   4.303   1.056   1.396  0.0853  0.0086  0.2361
  114TCq2    C2 1736   4.360   1.033   1.166  0.1979 -0.1620  0.5476
  114TCq2    C3 1737   4.446   1.072   1.066 -0.2401 -0.4641 -0.0198
  114TCq2    C4 1738   4.394   1.105   0.943 -0.4168 -0.2684 -0.5889
  114TCq2    C5 1739   4.262   1.099   0.918 -0.0390 -0.4047 -0.3310
  114TCq2    C6 1740   4.182   1.054   1.014  0.7299  0.5882 -0.4821
  114TCq2    C7 1741   4.228   1.017   1.136 -0.0255  0.4156  0.2354
  114TCq2    C8 1742   4.045   1.063   0.979  0.1277 -0.0493 -0.4232
  114TCq2    O4 1743   4.012   1.063   0.861 -0.0566 -0.1945  0.2330
  114TCq2    C9 1744   4.492   1.170   0.855 -0.2240  0.1488  0.9545
  114TCq2    O5 1745   4.452   1.212   0.743 -0.2331 -0.3082 -0.0840
  114TCq2    O6 1746   4.610   1.188   0.889 -0.1557  0.0521  0.3205
  114TCq2    H2 1747   4.553   1.084   1.076 -0.4784  0.4668  1.5227
  114TCq2    H3 1748   4.225   1.139   0.824  0.2336 -1.3983 -0.8597
  114TCq2    H4 1749   4.158   0.985   1.213  0.1141  2.8014  1.3354
  115TMC2    C1 1750   4.510   3.507   0.421 -0.9486 -0.2805  0.6820
  115TMC2    C2 1751   4.628   3.486   0.481 -0.0031  0.1685 -0.2425
  115TMC2    C3 1752   0.001   3.592   0.491  0.4319 -0.3027  0.3087
  115TMC2    C4 1753   4.480   3.629   0.364  0.5310 -0.2003  0.4079
  115TMC2    C5 1754   4.572   3.730   0.376  0.1570  0.0458 -0.5584
  115TMC2    C6 1755   4.687   3.717   0.448  0.2166 -0.0500  0.3055
  115TMC2     C 1756   4.422   3.394   0.384 -0.1060 -0.0596  0.4323
  115TMC2     O 1757   4.471   3.281   0.379  0.4604  0.1016  0.4422
  115TMC2     H 1758   4.645   3.382   0.509 -2.1864 -0.7453 -2.3471
  115TMC2    H1 1759   4.390   3.651   0.306  0.1236 -2.2772  0.2486
  115TMC2    H2 1760   0.049   3.788   0.458  1.3785 -1.3668  0.4097
  115TMC2    C7 1761   4.533   3.865   0.339  0.4595  0.1157 -0.1340
  115TMC2    C8 1762   0.142   3.544   0.498 -0.1870 -0.7302 -0.5372
  115TMC2    O1 1763   4.412   3.889   0.343  0.0650  0.0106  0.6444
  115TMC2    O2 1764   0.158   3.424   0.496  0.5396  0.2932 -0.2925
  115TMC2    O5 1765   0.225   3.636   0.543 -0.9435  0.1477 -0.0378
  115TMC2    H5 1766   0.180   3.720   0.567  2.7456  2.7291 -2.1541
  116MPD2     C 1767   3.997   3.234   0.155  0.3146 -0.7945  0.8548
  116MPD2    C1 1768   4.120   3.181   0.140 -0.3009 -0.1287  0.5472
  116MPD2    C2 1769   4.219   3.251   0.214 -0.0913  0.8450  0.1813
  116MPD2    C3 1770   4.191   3.366   0.284  0.1925 -0.2585 -0.0874
  116MPD2    C4 1771   4.060   3.404   0.296 -0.3274  0.1254 -0.4992
  116MPD2    C5 1772   3.966   3.343   0.227 -0.8436  0.1093  0.0976
  116MPD2     H 1773   4.320   3.212   0.224 -0.3475  0.8960  2.9486
  116MPD2    H1 1774   4.030   3.490   0.355  2.0605  1.7062 -1.5541
  116MPD2    H2 1775   3.913   3.188   0.105 -0.5155 -0.0916  1.5934
  116MPD2    H3 1776   3.864   3.379   0.236 -2.0034 -3.2118  0.0717
  116MPD2     N 1777   4.293   3.438   0.353  0.3852  0.1206 -0.0534
  116MPD2    H5 1778   4.273   3.532   0.384 -1.2724 -1.0742  2.4926
  116MPD2    N1 1779   4.147   3.073   0.049  0.0954  0.3580 -0.2928
  116MPD2    H7 1780   4.068   3.038  17.672  0.5907 -0.4067 -0.5333
  117TMC2    C1 1781   3.577   1.273  13.932 -0.5171 -0.1193  1.1110
  117TMC2    C2 1782   3.541   1.358  13.833  0.6868 -0.3001 -0.2865
  117TMC2    C3 1783   3.644   1.427  13.780  0.6533 -0.7326  0.6724
  117TMC2    C4 1784   3.702   1.237  13.959 -0.1193 -0.7700 -0.1844
  117TMC2    C5 1785   3.801   1.319  13.911 -0.4249  0.4519 -0.5137
  117TMC2    C6 1786   3.773   1.425  13.831 -0.5680 -0.9176  1.1950
  117TMC2     C 1787   3.474   1.201  14.003 -1.0694  0.2366 -0.3208
  117TMC2     O 1788   3.499   1.103  14.074 -0.0457  0.2698 -0.1709
  117TMC2     H 1789   3.441   1.379  13.798  0.6838 -0.0692 -0.1386
  117TMC2    H1 1790   3.728   1.168  14.039 -0.4045 -1.0870 -0.3676
  117TMC2    H2 1791   3.842   1.506  13.810  0.4480 -2.6790 -2.2423
  117TMC2    C7 1792   3.941   1.285  13.919 -0.0911  0.4290  0.8906
  117TMC2    C8 1793   3.610   1.545  13.701 -0.2992  0.0586  0.4228
  117TMC2    O1 1794   4.010   1.372  13.874  0.3881  0.1257  1.0306
  117TMC2    O2 1795   3.502   1.599  13.713  0.5983 -0.0242 -0.0753
  117TMC2    O5 1796   3.716   1.611  13.638 -0.2279 -0.1289  0.5806
  117TMC2    H5 1797   3.777   1.543  13.601  0.4733  1.3395 -0.9627
  118MPD2     C 1798   4.113   1.053  14.139 -0.7578 -0.1337  0.2115
  118MPD2    C1 1799   4.109   1.158  14.054 -0.6289 -0.6552 -0.1152
  118MPD2    C2 1800   4.217   1.244  14.050  0.1966  0.7969 -0.2457
  118MPD2    C3 1801   4.336   1.217  14.117  0.3961  0.2049 -0.5584
  118MPD2    C4 1802   4.342   1.102  14.195 -0.3126  0.1941  0.7340
  118MPD2    C5 1803   4.228   1.017  14.204  0.4208 -0.3521  0.1065
  118MPD2     H 1804   4.215   1.334  13.991  0.9306 -0.5199 -2.2843
  118MPD2    H1 1805   4.433   1.074  14.246 -1.4858 -1.5450  1.8807
  118MPD2    H2 1806   4.019   0.999  14.147 -0.1617 -1.4648 -1.9455
  118MPD2    H3 1807   4.241   0.923  14.256 -2.2662 -1.4358 -1.1766
  118MPD2     N 1808   4.449   1.298  14.104  0.2950 -0.1395 -0.0392
  118MPD2    H5 1809   4.531   1.280  14.161  0.1326  0.2092  0.2994
  118MPD2    N1 1810   3.981   1.177  13.999 -0.7401  0.2381  0.1154
  118MPD2    H7 1811   3.913   1.117  14.043 -0.6550 -0.3238 -0.5253
  119MPD2     C 1812   2.040   2.478  14.144 -1.0656 -0.6807 -0.2368
  119MPD2    C1 1813   1.929   2.506  14.076 -0.0144  0.0087 -0.0160
  119MPD2    C2 1814   1.918   2.445  13.953  0.2021  0.3758 -0.6332
  119MPD2    C3 1815   2.002   2.354  13.901  0.0041 -0.2165 -0.0176
  119MPD2    C4 1816   2.119   2.331  13.968 -0.9858 -0.1056 -0.3031
  119MPD2    C5 1817   2.137   2.389  14.096 -0.2181  0.7723 -0.4300
  119MPD2     H 1818   1.829   2.469  13.897 -1.4712 -1.7950  1.0779
  119MPD2    H1 1819   2.202   2.262  13.954 -1.1320 -0.4664  0.6185
  119MPD2    H2 1820   2.058   2.524  14.241 -2.3414 -1.3972  0.3372
  119MPD2    H3 1821   2.222   2.369  14.159 -0.3314 -1.3787 -0.9752
  119MPD2     N 1822   1.984   2.285  13.781  0.1706  0.5230 -0.2477
  119MPD2    H5 1823   2.065   2.230  13.753 -1.8987 -1.2721 -2.7372
  119MPD2    N1 1824   1.835   2.586  14.136  0.5921  0.2361  0.1746
  119MPD2    H7 1825   1.873   2.637  14.215 -0.0850  0.3118  0.4512
  120TCq2    C1 1826   1.864   2.272  13.721 -0.5476 -0.0128  0.0014
  120TCq2    O2 1827   1.756   2.318  13.748  0.1298 -0.1828  0.4206
  120TCq2    C2 1828   1.878   2.198  13.599 -0.2176 -0.0592 -0.7631
  120TCq2    C3 1829   2.001   2.196  13.540 -0.5610 -0.4866 -0.1304
  120TCq2    C4 1830   2.013   2.152  13.413 -0.0615 -0.8470  0.0539
  120TCq2    C5 1831   1.903   2.099  13.352 -0.3440  0.1752 -0.0875
  120TCq2    C6 1832   1.779   2.109  13.411 -0.4866  0.7204  0.1033
  120TCq2    C7 1833   1.766   2.147  13.541 -0.7398 -0.8167 -1.2312
  120TCq2    C8 1834   1.666   2.052  13.342  0.0039  0.1948 -0.0753
  120TCq2    O4 1835   1.685   2.021  13.224  0.2835  0.0904  0.5148
  120TCq2    C9 1836   2.138   2.174  13.354  0.9787 -0.1967 -0.1251
  120TCq2    O5 1837   2.221   2.251  13.407  0.3830  0.1546 -0.1582
  120TCq2    O6 1838   2.166   2.131  13.241  0.7298  0.0331  0.1576
  120TCq2    H2 1839   2.094   2.231  13.583  0.8513 -0.8073 -2.8789
  120TCq2    H3 1840   1.916   2.081  13.246 -2.1405 -0.2073 -0.2434
  120TCq2    H4 1841   1.673   2.150  13.597 -0.1507 -3.3028 -0.1057
  121TMC2    C1 1842   3.242   4.230  14.016 -0.6686 -0.3590 -0.8159
  121TMC2    C2 1843   3.301   4.111  13.987  0.5010 -0.1991  0.1608
  121TMC2    C3 1844   3.219   4.002  14.013 -0.4873  0.0917 -0.5322
  121TMC2    C4 1845   3.116   4.250  14.069 -0.6685  0.1990  0.0493
  121TMC2    C5 1846   3.039   4.139  14.085  0.2781  0.7315  0.5673
  121TMC2    C6 1847   3.090   4.010  14.059  0.2930  0.4132 -0.2049
  121TMC2     C 1848   3.313   4.346  13.966  0.3810 -0.0554 -0.5991
  121TMC2     O 1849   3.290   4.455  14.022 -0.3064  0.5596  0.4116
  121TMC2     H 1850   3.406   4.108  13.957  0.4874 -0.7441  0.1548
  121TMC2    H1 1851   3.071   4.348  14.073  1.4157  1.1637  0.0258
  121TMC2    H2 1852   3.023   3.926  14.044 -0.4545  0.8230  0.8869
  121TMC2    C7 1853   2.902   4.176  14.056 -0.4198 -0.4241 -0.2911
  121TMC2    C8 1854   3.268   3.869  13.993 -0.1779  0.1106  0.0294
  121TMC2    O1 1855   2.873   4.297  14.053  0.1090 -0.0500 -0.5546
  121TMC2    O2 1856   3.210   3.768  14.028 -0.0022 -0.1121  0.2558
  121TMC2    O5 1857   3.392   3.866  13.942  0.3170 -0.6836  0.4492
  121TMC2    H5 1858   3.415   3.951  13.898  2.0073 -0.9882  0.7355
  122MPD2     C 1859   3.471   4.534  13.809 -0.3564  0.2243 -0.0574
  122MPD2    C1 1860   3.425   4.415  13.762 -0.0658  0.9527 -0.0791
  122MPD2    C2 1861   3.432   4.385  13.625  0.0717  0.8869 -0.3101
  122MPD2    C3 1862   3.491   4.479  13.543 -0.2338  0.2480 -0.3356
  122MPD2    C4 1863   3.562   4.586  13.596 -0.4430  0.1514  0.1179
  122MPD2    C5 1864   3.542   4.616  13.727  0.4658  0.1648 -0.6215
  122MPD2     H 1865   3.394   4.290  13.588  0.0320  0.7102  0.1756
  122MPD2    H1 1866   3.602   4.667  13.536  1.1239 -1.1166 -0.5399
  122MPD2    H2 1867   3.462   4.566  13.913  1.1882 -0.7401  0.3711
  122MPD2    H3 1868   3.584   4.712  13.755  2.5563 -0.9258  0.0116
  122MPD2     N 1869   3.512   4.467  13.408 -0.1293  0.0730 -0.9280
  122MPD2    H5 1870   3.567   4.538  13.362  0.2424 -0.2583 -0.9940
  122MPD2    N1 1871   3.366   4.318  13.843 -0.1350 -0.1268  0.3751
  122MPD2    H7 1872   3.329   4.236  13.798 -2.8924  2.1638 -1.4894
  123MPD2     C 1873   1.623   1.348   8.748 -0.3437  0.0062  0.1564
  123MPD2    C1 1874   1.732   1.343   8.833 -0.0389  0.5281  0.3258
  123MPD2    C2 1875   1.850   1.290   8.790  0.1555 -0.1955 -0.2184
  123MPD2    C3 1876   1.852   1.222   8.667  0.1780  0.4448 -0.1041
  123MPD2    C4 1877   1.735   1.214   8.589  0.0821 -0.2487  0.0594
  123MPD2    C5 1878   1.627   1.283   8.626  0.3484 -0.1210 -0.5594
  123MPD2     H 1879   1.939   1.305   8.850 -1.4598  1.9605  1.6193
  123MPD2    H1 1880   1.741   1.163   8.493  0.4421 -1.8748  0.9660
  123MPD2    H2 1881   1.525   1.383   8.779  0.4747  0.3477  2.3431
  123MPD2    H3 1882   1.541   1.292   8.560  1.1235  1.3604 -1.3567
  123MPD2     N 1883   1.967   1.150   8.644 -0.3464  0.1000  0.3492
  123MPD2    H5 1884   2.036   1.155   8.718 -0.9592  4.0429  0.6668
  123MPD2    N1 1885   1.718   1.395   8.962  0.6923 -0.5801 -0.3702
  123MPD2    H7 1886   1.632   1.442   8.987 -0.4615 -1.5614 -2.5622
  124TCq2    C1 1887   2.010   1.079   8.534  0.3485  0.6131  0.1074
  124TCq2    O2 1888   1.953   1.060   8.424 -0.4164  0.7260 -0.3613
  124TCq2    C2 1889   2.141   1.025   8.555  0.2714  0.4214  0.0601
  124TCq2    C3 1890   2.213   1.004   8.445 -0.1918 -0.5646  0.4563
  124TCq2    C4 1891   2.326   0.932   8.441  0.0765  0.0843  0.6474
  124TCq2    C5 1892   2.378   0.876   8.554 -0.4315  0.0490 -0.3045
  124TCq2    C6 1893   2.294   0.876   8.664 -0.1642  0.2209 -0.1193
  124TCq2    C7 1894   2.176   0.950   8.665 -0.1841 -0.5647  0.1127
  124TCq2    C8 1895   2.358   0.851   8.798  0.7355  0.2760  0.4063
  124TCq2    O4 1896   2.289   0.867   8.901 -0.3546 -0.1530 -0.5743
  124TCq2    C9 1897   2.404   0.921   8.318 -0.1293  0.2942  0.2154
  124TCq2    O5 1898   2.521   0.876   8.322  0.2210 -0.1354  0.0598
  124TCq2    O6 1899   2.347   0.964   8.214 -0.6505 -0.5238 -1.4845
  124TCq2    H2 1900   2.204   1.062   8.353  0.3224  1.1394  1.4799
  124TCq2    H3 1901   2.470   0.819   8.544 -0.1808 -0.0788  2.7366
  124TCq2    H4 1902   2.114   0.962   8.753 -0.4971 -2.0159  0.0738
  125TMC2    C1 1903   1.908   3.389   9.531 -0.0139  0.6106 -0.1031
  125TMC2    C2 1904   1.950   3.514   9.550  0.0403  1.0566  0.0813
  125TMC2    C3 1905   2.086   3.528   9.530  1.0093  0.0857  0.8193
  125TMC2    C4 1906   1.993   3.287   9.493 -0.0571  0.0873  0.0299
  125TMC2    C5 1907   2.124   3.317   9.466  0.2033  0.4244 -0.4883
  125TMC2    C6 1908   2.172   3.439   9.486 -0.3504  0.2390  0.8062
  125TMC2     C 1909   1.765   3.362   9.531  0.0230 -0.6935 -0.1123
  125TMC2     O 1910   1.733   3.245   9.524  0.1596  0.3149  0.6159
  125TMC2     H 1911   1.883   3.597   9.569 -0.2787  1.1065 -1.2865
  125TMC2    H1 1912   1.959   3.187   9.467  1.0757 -0.4727  0.6802
  125TMC2    H2 1913   2.278   3.462   9.491  0.2757 -1.5302 -4.3260
  125TMC2    C7 1914   2.221   3.207   9.440  0.1029 -0.2104  0.1079
  125TMC2    C8 1915   2.141   3.662   9.540  0.2307 -0.0577 -0.3381
  125TMC2    O1 1916   2.176   3.092   9.447  0.0594 -0.3102  0.1738
  125TMC2    O2 1917   2.245   3.694   9.486  0.1011  0.0192 -0.2231
  125TMC2    O5 1918   2.085   3.728   9.639  0.8794 -0.2957  0.1276
  125TMC2    H5 1919   2.015   3.674   9.681  1.2210  0.6697  1.9152
  126MPD1     C 1920   1.267   3.465   9.588  0.4193 -0.6909 -0.1300
  126MPD1    C1 1921   1.326   3.585   9.553 -0.4627  0.0960 -0.6978
  126MPD1    C2 1922   1.462   3.578   9.539  0.0100  0.7771  0.8345
  126MPD1    C3 1923   1.538   3.467   9.571  0.4902  0.2489 -0.0976
  126MPD1    C4 1924   1.473   3.351   9.611 -0.9096  0.3393 -0.2158
  126MPD1    C5 1925   1.336   3.349   9.619  0.1212  0.0409 -0.4376
  126MPD1     H 1926   1.507   3.670   9.503 -0.3399  0.6117 -0.0278
  126MPD1    H1 1927   1.532   3.260   9.626  1.3281  1.5808 -1.5223
  126MPD1    H2 1928   1.160   3.454   9.593  0.4369 -0.4418  0.7062
  126MPD1    H3 1929   1.281   3.264   9.657 -0.1812  1.2751  1.8917
  126MPD1     N 1930   1.679   3.475   9.541 -0.5074 -0.5306  0.4262
  126MPD1    H5 1931   1.718   3.563   9.511  1.9646 -1.9383 -0.5672
  126MPD1    N1 1932   1.258   3.704   9.521  0.0904  0.1315  0.0758
  126MPD1    H6 1933   1.313   3.790   9.521 -0.5328  0.5207 -1.4087
  126MPD1    H7 1934   1.179   3.702   9.585  0.8438  3.5035  1.1222
  127MPD2     C 1935   4.172   2.826   8.994  0.7343 -0.8113 -0.5180
  127MPD2    C1 1936   4.144   2.818   9.130 -0.0131 -0.7285  0.7173
  127MPD2    C2 1937   4.158   2.933   9.207 -0.1813 -0.7502  0.6528
  127MPD2    C3 1938   4.188   3.048   9.143 -0.2909 -0.5390  0.0903
  127MPD2    C4 1939   4.218   3.061   9.006 -0.5690 -0.4210 -0.4310
  127MPD2    C5 1940   4.204   2.946   8.934  0.9595 -0.0059 -0.0316
  127MPD2     H 1941   4.121   2.940   9.309  1.2441 -2.8003  1.3094
  127MPD2    H1 1942   4.247   3.154   8.958 -2.3558  0.5996  0.4515
  127MPD2    H2 1943   4.159   2.735   8.937 -1.5367 -0.1016 -1.1461
  127MPD2    H3 1944   4.234   2.942   8.830 -0.9456  1.5914 -0.6217
  127MPD2     N 1945   4.179   3.166   9.220  0.4709  0.4454  0.1085
  127MPD2    H5 1946   4.187   3.154   9.321 -0.3164  1.3869  0.2710
  127MPD2    N1 1947   4.098   2.690   9.181  0.1689  0.3015  0.1395
  127MPD2    H7 1948   4.078   2.619   9.112  1.2643  1.7033 -1.6229
  128TCq2    C1 1949   4.073   2.666   9.317  0.3111 -0.4965 -0.2802
  128TCq2    O2 1950   4.096   2.740   9.412  0.1404  1.0915 -0.0239
  128TCq2    C2 1951   4.004   2.535   9.343  0.2808 -0.0621 -0.4297
  128TCq2    C3 1952   3.992   2.503   9.477  0.7023 -0.9972 -0.0240
  128TCq2    C4 1953   3.911   2.394   9.491  0.2653 -1.1483 -0.1561
  128TCq2    C5 1954   3.839   2.330   9.396  0.0006  0.2639  0.2913
  128TCq2    C6 1955   3.856   2.368   9.267  0.6026 -0.1766 -0.3201
  128TCq2    C7 1956   3.940   2.475   9.237 -0.5602  0.2090  0.0926
  128TCq2    C8 1957   3.769   2.316   9.160  0.8254 -0.9812 -0.2288
  128TCq2    O4 1958   3.770   2.373   9.051 -0.9069  0.3076  0.2688
  128TCq2    C9 1959   3.887   2.346   9.617  0.2291 -0.2421 -0.2525
  128TCq2    O5 1960   3.952   2.408   9.708 -0.2006 -0.1935  0.2520
  128TCq2    O6 1961   3.825   2.241   9.642  0.3807  0.5980 -0.6973
  128TCq2    H2 1962   4.060   2.547   9.549 -0.3688 -0.2326  0.5189
  128TCq2    H3 1963   3.758   2.263   9.423  1.6689 -0.8412  2.5278
  128TCq2    H4 1964   3.958   2.511   9.136  1.1034  0.5647  0.5223
  129MPD2     C 1965   2.363   3.751   1.707  0.4921 -0.4482 -0.5391
  129MPD2    C1 1966   2.270   3.784   1.611 -0.7077  0.1137  0.2031
  129MPD2    C2 1967   2.283   3.905   1.536 -0.3957 -0.1046 -0.3144
  129MPD2    C3 1968   2.391   3.993   1.560  0.0200 -0.2104  0.4070
  129MPD2    C4 1969   2.482   3.955   1.658 -0.0460 -0.0792  0.2711
  129MPD2    C5 1970   2.463   3.837   1.732 -0.7472 -0.2526 -0.4873
  129MPD2     H 1971   2.221   3.920   1.449 -2.7979 -1.7707  1.1166
  129MPD2    H1 1972   2.562   4.016   1.697 -3.3561  2.7550  2.6687
  129MPD2    H2 1973   2.372   3.650   1.745 -0.9245 -0.1303  0.6088
  129MPD2    H3 1974   2.537   3.803   1.803 -0.4479  1.2103 -0.1039
  129MPD2     N 1975   2.409   4.102   1.479  0.0661 -0.1617  0.5025
  129MPD2    H5 1976   2.332   4.128   1.418  1.0723  2.1836  0.2162
  129MPD2    N1 1977   2.148   3.710   1.585 -0.1285 -0.1775  0.3427
  129MPD2    H7 1978   2.074   3.751   1.529  0.4106 -0.0333 -0.2596
  130TCq2    C1 1979   2.114   3.596   1.649 -0.0999  0.3802 -1.0673
  130TCq2    O2 1980   2.174   3.533   1.735  0.1872 -0.1471  0.0002
  130TCq2    C2 1981   1.982   3.548   1.615 -0.8817  0.7079  0.1983
  130TCq2    C3 1982   1.923   3.584   1.495  0.2642  0.1286 -0.0837
  130TCq2    C4 1983   1.813   3.512   1.456 -0.2281 -0.3854 -0.1454
  130TCq2    C5 1984   1.767   3.413   1.540  0.2547 -0.1409  0.1577
  130TCq2    C6 1985   1.831   3.386   1.657 -0.3310  0.3657 -0.4560
  130TCq2    C7 1986   1.949   3.442   1.695  0.4693 -0.1875 -0.2746
  130TCq2    C8 1987   1.795   3.265   1.730 -0.4892  0.4980  0.2608
  130TCq2    O4 1988   1.672   3.244   1.745  0.2049 -0.5444  0.4915
  130TCq2    C9 1989   1.744   3.531   1.331  0.3392 -0.6782  0.2585
  130TCq2    O5 1990   1.639   3.466   1.308  0.9046  0.4150 -0.1583
  130TCq2    O6 1991   1.793   3.612   1.248 -0.4539 -0.3700  0.1627
  130TCq2    H2 1992   1.946   3.667   1.429  0.0567  0.2166 -0.0451
  130TCq2    H3 1993   1.681   3.360   1.500  0.2076 -0.2903  0.4612
  130TCq2    H4 1994   2.002   3.424   1.788  0.2408 -0.6667 -0.2408
  131MPD2     C 1995   1.678   2.240   9.456 -0.4149 -0.0265  0.1469
  131MPD2    C1 1996   1.794   2.197   9.507 -0.3885 -0.1929 -0.3412
  131MPD2    C2 1997   1.832   2.068   9.491  0.1324 -0.0812 -0.5466
  131MPD2    C3 1998   1.751   1.990   9.412  0.5917  0.0297 -0.1696
  131MPD2    C4 1999   1.638   2.034   9.346 -0.2535  0.2149 -0.5312
  131MPD2    C5 2000   1.600   2.159   9.374 -0.0918 -0.3137  0.2323
  131MPD2     H 2001   1.919   2.024   9.538  1.8897  1.2587 -2.5417
  131MPD2    H1 2002   1.566   1.970   9.297  1.1694  0.8444 -3.4376
  131MPD2    H2 2003   1.636   2.338   9.474 -3.9399 -1.5221  0.0029
  131MPD2    H3 2004   1.502   2.199   9.353  0.2015 -0.1385 -0.7907
  131MPD2     N 2005   1.787   1.851   9.390  0.3068  0.4004 -0.3724
  131MPD2    H5 2006   1.852   1.810   9.456  1.2033 -1.2792 -2.3239
  131MPD2    N1 2007   1.859   2.282   9.598 -0.2723  1.0577 -0.4521
  131MPD2    H7 2008   1.829   2.378   9.614 -2.3708  0.0989  1.4081
  132TCq2    C1 2009   2.328   2.481   9.889 -0.3233 -0.0422  0.3892
  132TCq2    O2 2010   2.387   2.381   9.864  0.4032  0.3311  0.0157
  132TCq2    C2 2011   2.193   2.486   9.855 -0.5696  0.6625 -0.2134
  132TCq2    C3 2012   2.108   2.584   9.891 -0.1133  0.2427 -0.0548
  132TCq2    C4 2013   1.979   2.584   9.843  0.1473  0.0396 -0.0682
  132TCq2    C5 2014   1.937   2.486   9.762 -0.3566 -0.2063 -0.1039
  132TCq2    C6 2015   2.031   2.387   9.718 -0.7910 -0.4060  0.4689
  132TCq2    C7 2016   2.158   2.385   9.765  0.1312 -0.2390  0.1824
  132TCq2    C8 2017   1.983   2.264   9.664  0.2711  1.0516  0.6619
  132TCq2    O4 2018   2.058   2.165   9.671 -0.0812 -0.0329 -0.1983
  132TCq2    C9 2019   1.881   2.688   9.883  0.2126  0.2607  0.0926
  132TCq2    O5 2020   1.770   2.644   9.918  0.7219 -0.3855 -0.1833
  132TCq2    O6 2021   1.922   2.795   9.925 -0.2094  0.0495 -0.1485
  132TCq2    H2 2022   2.124   2.638   9.983  2.3688  0.1571 -0.4473
  132TCq2    H3 2023   1.833   2.497   9.736  0.0037  0.1319 -1.4166
  132TCq2    H4 2024   2.226   2.307   9.735  1.8347  0.8395  1.1843
  133MPD2     C 2025   1.638   3.928   9.103 -0.3431 -0.0484  0.1946
  133MPD2    C1 2026   1.731   3.835   9.137  0.4305 -0.0109  0.5495
  133MPD2    C2 2027   1.678   3.707   9.167 -0.4240  0.5263 -0.2541
  133MPD2    C3 2028   1.541   3.680   9.166  0.4989  0.2827  0.0714
  133MPD2    C4 2029   1.455   3.779   9.150 -1.0129 -0.0631 -0.1320
  133MPD2    C5 2030   1.502   3.901   9.119 -0.4843  0.0279 -0.2103
  133MPD2     H 2031   1.748   3.631   9.197 -0.6644 -1.3179 -4.3089
  133MPD2    H1 2032   1.347   3.768   9.142 -1.2094  0.6325  1.5935
  133MPD2    H2 2033   1.659   4.027   9.063  1.3294 -0.2324  0.6338
  133MPD2    H3 2034   1.432   3.981   9.097 -1.4166 -1.2106 -1.7290
  133MPD2     N 2035   1.485   3.554   9.195 -0.2286  0.1112 -0.6827
  133MPD2    H5 2036   1.387   3.550   9.219 -0.1185  1.3835 -0.0400
  133MPD2    N1 2037   1.859   3.885   9.161  0.8385  0.0775 -0.7442
  133MPD2    H7 2038   1.875   3.985   9.149 -0.2559  0.5715  1.8393
  134TCq2    C1 2039   1.965   3.809   9.198 -0.1313  0.3328  0.1606
  134TCq2    O2 2040   1.968   3.688   9.204 -0.5319 -0.0831  0.9139
  134TCq2    C2 2041   2.068   3.901   9.251 -0.0866 -0.0954 -0.0991
  134TCq2    C3 2042   2.031   3.987   9.343 -0.2849 -0.3661  0.4209
  134TCq2    C4 2043   2.130   4.052   9.416  0.5087  0.8266  0.2754
  134TCq2    C5 2044   2.260   4.020   9.404 -0.3394  0.1718  1.1918
  134TCq2    C6 2045   2.289   3.927   9.307  0.5107  0.6786  0.1620
  134TCq2    C7 2046   2.198   3.870   9.221 -0.4720 -0.2996  0.4793
  134TCq2    C8 2047   2.416   3.870   9.312 -0.3538  0.8313 -0.3860
  134TCq2    O4 2048   2.462   3.818   9.210 -0.1217 -0.4155  0.1957
  134TCq2    C9 2049   2.079   4.144   9.517 -0.2730  0.1172  0.5573
  134TCq2    O5 2050   1.949   4.154   9.525  0.9623 -0.2388 -0.3298
  134TCq2    O6 2051   2.165   4.217   9.581  0.8298 -0.0389 -0.0276
  134TCq2    H2 2052   1.926   4.001   9.362  0.3208  0.2416  3.3280
  134TCq2    H3 2053   2.322   4.073   9.475  0.7680  0.0704  0.2938
  134TCq2    H4 2054   2.226   3.797   9.145 -1.4457 -0.0496 -0.1222
  135MPD2     C 2055   3.467   4.538   9.566  0.5181 -0.1411  0.0329
  135MPD2    C1 2056   3.368   4.444   9.570  0.3351  0.1300 -0.4392
  135MPD2    C2 2057   3.376   4.343   9.479  0.2066  0.2095 -0.5763
  135MPD2    C3 2058   3.488   4.329   9.404  0.6489  0.1315  0.2048
  135MPD2    C4 2059   3.592   4.414   9.421 -0.1386  0.1168 -0.0261
  135MPD2    C5 2060   3.575   4.535   9.486  0.5284 -0.5335  0.0982
  135MPD2     H 2061   3.285   4.285   9.470  0.9430 -0.8116 -1.4549
  135MPD2    H1 2062   3.686   4.409   9.368  0.3382  0.0052  0.8443
  135MPD2    H2 2063   3.457   4.624   9.631  0.5893 -0.0617 -0.0631
  135MPD2    H3 2064   3.643   4.620   9.492 -0.2377  0.1714 -1.2331
  135MPD2     N 2065   3.511   4.224   9.310 -0.1698  0.4978  0.0286
  135MPD2    H5 2066   3.590   4.222   9.246 -0.0074  1.4110  0.1961
  135MPD2    N1 2067   3.249   4.463   9.641 -0.0068 -0.0013 -0.2113
  135MPD2    H7 2068   3.187   4.383   9.647 -0.4684  0.4130  0.5252
  136TCq2    C1 2069   3.216   4.563   9.726  0.4572  0.0429 -0.4412
  136TCq2    O2 2070   3.287   4.647   9.781 -0.2217 -0.3423  0.2479
  136TCq2    C2 2071   3.083   4.548   9.777  0.2609  0.2356 -0.2433
  136TCq2    C3 2072   2.990   4.469   9.706  0.1287 -0.3222 -0.0418
  136TCq2    C4 2073   2.865   4.438   9.755 -0.3813 -0.5872 -0.4268
  136TCq2    C5 2074   2.829   4.477   9.885  0.1202  0.2037  0.0261
  136TCq2    C6 2075   2.932   4.537   9.952 -0.5020  0.1798  0.3516
  136TCq2    C7 2076   3.052   4.592   9.902 -0.7684  0.0041  0.1927
  136TCq2    C8 2077   2.931   4.546  10.099 -0.5757 -0.3109 -0.4867
  136TCq2    O4 2078   3.018   4.612  10.152 -0.7916 -0.3857  0.1091
  136TCq2    C9 2079   2.770   4.375   9.667  0.4662 -0.3001 -0.2581
  136TCq2    O5 2080   2.682   4.316   9.726  0.0776  0.0102  0.0831
  136TCq2    O6 2081   2.759   4.416   9.550  0.4316 -0.4586  0.6508
  136TCq2    H2 2082   3.016   4.448   9.603  0.3992  0.4015 -0.1183
  136TCq2    H3 2083   2.740   4.430   9.924  0.8985  0.7329  2.4149
  136TCq2    H4 2084   3.127   4.651   9.953 -0.1079  2.0151 -3.1177
  137MPD2     C 2085   3.194   2.630   9.984 -0.0835  0.4578  0.3018
  137MPD2    C1 2086   3.227   2.762   9.950  1.1378  0.3846 -0.2138
  137MPD2    C2 2087   3.184   2.861  10.042 -0.2013 -0.1128  0.4520
  137MPD2    C3 2088   3.125   2.833  10.163  0.0815 -0.7432  0.5024
  137MPD2    C4 2089   3.099   2.708  10.193  0.2933  0.7750 -0.3200
  137MPD2    C5 2090   3.132   2.607  10.102  1.4501 -0.3757  0.0459
  137MPD2     H 2091   3.210   2.964  10.023 -0.4403 -0.6948 -3.0186
  137MPD2    H1 2092   3.049   2.682  10.286 -0.0800 -1.4825 -1.1480
  137MPD2    H2 2093   3.213   2.551   9.912 -0.4981 -0.8657  1.6200
  137MPD2    H3 2094   3.094   2.509  10.131  0.3377 -0.8911 -3.1116
  137MPD2     N 2095   3.102   2.945  10.253  0.3884 -0.0019 -0.5802
  137MPD2    H5 2096   3.117   3.039  10.217 -1.5002  0.6703  0.3928
  137MPD2    N1 2097   3.301   2.789   9.823 -0.4377 -0.2683  0.1254
  137MPD2    H7 2098   3.332   2.707   9.772 -0.1537 -1.4715  2.2531
  138TCq2    C1 2099   3.357   2.910   9.785 -0.0518 -0.5567 -0.0544
  138TCq2    O2 2100   3.372   3.014   9.846  0.4024  0.6070  0.2703
  138TCq2    C2 2101   3.415   2.906   9.658  0.5901 -0.3724  0.4820
  138TCq2    C3 2102   3.344   2.835   9.560  0.1124 -0.5485  0.6668
  138TCq2    C4 2103   3.340   2.890   9.436 -0.0633  0.4509 -0.4050
  138TCq2    C5 2104   3.382   3.018   9.411  0.2336  0.8192  0.1653
  138TCq2    C6 2105   3.452   3.080   9.512  1.0624  0.1823 -0.3638
  138TCq2    C7 2106   3.474   3.019   9.628  0.1376 -0.5463 -0.2146
  138TCq2    C8 2107   3.430   3.220   9.523  0.4870  0.0102 -0.2084
  138TCq2    O4 2108   3.451   3.295   9.428  0.6502 -0.2669 -0.6390
  138TCq2    C9 2109   3.262   2.829   9.334  0.2232  0.8322 -0.8360
  138TCq2    O5 2110   3.182   2.746   9.379  0.8288  0.1314  0.0353
  138TCq2    O6 2111   3.240   2.912   9.234 -0.3527  0.3899  0.2368
  138TCq2    H2 2112   3.316   2.731   9.577 -0.3782 -0.3053  1.3537
  138TCq2    H3 2113   3.359   3.070   9.319  0.6059  1.1611  0.2692
  138TCq2    H4 2114   3.540   3.074   9.694 -0.4352  0.7356 -0.6935
  139TMC2    C1 2115   3.160   1.545  13.281 -0.1783 -0.1506  0.0989
  139TMC2    C2 2116   3.124   1.527  13.149  0.2738 -0.0107 -0.8859
  139TMC2    C3 2117   3.006   1.591  13.113  0.3219 -0.0194  0.1555
  139TMC2    C4 2118   3.099   1.626  13.372 -0.2418 -0.3551  0.4483
  139TMC2    C5 2119   2.982   1.689  13.329 -0.0422  0.4011 -0.4861
  139TMC2    C6 2120   2.935   1.668  13.198 -0.0708  0.1574  0.1338
  139TMC2     C 2121   3.259   1.443  13.311 -0.4511 -0.5196 -0.2436
  139TMC2     O 2122   3.333   1.397  13.225  0.0921 -0.0130 -0.3909
  139TMC2     H 2123   3.180   1.462  13.083 -0.1213 -1.1842 -0.0571
  139TMC2    H1 2124   3.146   1.648  13.467  1.1835  2.0200 -0.7880
  139TMC2    H2 2125   2.840   1.708  13.165 -0.1372 -0.0469  0.0800
  139TMC2    C7 2126   2.926   1.789  13.410  0.2344 -1.1830 -0.0829
  139TMC2    C8 2127   2.965   1.566  12.981 -0.5704  0.5845 -0.0585
  139TMC2    O1 2128   2.850   1.864  13.352 -0.3498  0.1370  0.4490
  139TMC2    O2 2129   2.983   1.456  12.929 -0.5822 -0.5615 -0.0603
  139TMC2    O5 2130   2.935   1.679  12.913 -0.2743 -0.2575 -0.1055
  139TMC2    H5 2131   2.928   1.763  12.964 -0.7804  1.2275 -2.5873
  140MPD2     C 2132   3.233   1.236  13.610 -0.4980  0.6688 -0.7597
  140MPD2    C1 2133   3.283   1.272  13.487  0.0912 -0.1637  0.3289
  140MPD2    C2 2134   3.354   1.179  13.415 -0.3087 -0.8931  0.2347
  140MPD2    C3 2135   3.389   1.054  13.466  0.2367 -0.1435 -0.3973
  140MPD2    C4 2136   3.349   1.030  13.592 -0.5050 -0.2643  0.5447
  140MPD2    C5 2137   3.265   1.110  13.655  0.5518  0.3540 -0.0491
  140MPD2     H 2138   3.392   1.194  13.315  0.3061  2.1787  0.9417
  140MPD2    H1 2139   3.357   0.934  13.642 -0.0290 -1.5375 -1.9620
  140MPD2    H2 2140   3.167   1.297  13.670 -2.0310 -0.7937 -0.9392
  140MPD2    H3 2141   3.214   1.082  13.746  0.8697 -1.4976 -0.4546
  140MPD2     N 2142   3.462   0.963  13.384 -0.0348 -0.2941  0.5600
  140MPD2    H5 2143   3.465   1.004  13.291 -1.2355 -0.7374  0.3266
  140MPD2    N1 2144   3.244   1.394  13.434 -0.0033  0.1298  0.3566
  140MPD2    H7 2145   3.185   1.448  13.497 -1.9320  0.6930 -1.9631
  141TCq2    C1 2146   3.913   2.648  13.820 -0.3278 -0.3769  0.3294
  141TCq2    O2 2147   3.930   2.767  13.806 -0.0631 -0.4521 -0.2010
  141TCq2    C2 2148   3.855   2.609  13.954  0.2302 -0.8247 -0.2270
  141TCq2    C3 2149   3.880   2.495  14.021 -0.5946 -0.3855 -0.3743
  141TCq2    C4 2150   3.832   2.488  14.146 -0.1758  0.0291 -0.2475
  141TCq2    C5 2151   3.769   2.594  14.208  0.3042  0.0166 -0.1816
  141TCq2    C6 2152   3.748   2.711  14.138 -1.6871  0.3971 -0.3721
  141TCq2    C7 2153   3.795   2.723  14.016  0.1252 -0.6734  0.0320
  141TCq2    C8 2154   3.753   2.837  14.213 -0.5297  0.4121 -0.2052
  141TCq2    O4 2155   3.674   2.863  14.304  0.1925  0.1116 -0.7912
  141TCq2    C9 2156   3.850   2.359  14.212  0.4456  0.5681  0.1499
  141TCq2    O5 2157   3.816   2.351  14.332 -0.2350  1.1463 -0.2098
  141TCq2    O6 2158   3.931   2.279  14.159  0.3088  0.7871 -0.7891
  141TCq2    H2 2159   3.933   2.413  13.974  0.6394 -0.1299  0.5705
  141TCq2    H3 2160   3.736   2.593  14.311 -3.5762 -0.4661 -1.4317
  141TCq2    H4 2161   3.752   2.807  13.962 -1.3680 -1.6257 -0.2644
  142MPD2     C 2162   2.288   0.703  10.272 -0.1677  0.3286  0.6899
  142MPD2    C1 2163   2.220   0.658  10.156 -0.5704  0.4782 -0.5680
  142MPD2    C2 2164   2.270   0.699  10.028  0.1099 -0.3581 -0.2037
  142MPD2    C3 2165   2.386   0.780  10.015  0.0943 -0.7339 -0.2395
  142MPD2    C4 2166   2.448   0.813  10.133  0.1853  0.1272 -0.0696
  142MPD2    C5 2167   2.400   0.782  10.258  0.0896  0.1771 -0.4715
  142MPD2     H 2168   2.218   0.688   9.933 -0.4611 -0.6378  0.1388
  142MPD2    H1 2169   2.531   0.883  10.138  0.8031 -0.7200  1.5510
  142MPD2    H2 2170   2.261   0.664  10.369 -2.7658 -0.3410 -0.3092
  142MPD2    H3 2171   2.456   0.818  10.344 -2.3151 -0.2572  1.2553
  142MPD2     N 2172   2.448   0.814   9.897  0.1364  1.1599 -0.4401
  142MPD2    H5 2173   2.528   0.876   9.905  0.4726  1.0770 -3.2307
  142MPD2    N1 2174   2.097   0.597  10.163 -0.3581 -0.3425  0.6486
  142MPD2    H7 2175   2.048   0.596  10.074  1.9967 -0.1059 -0.6390
  143TCq2    C1 2176   2.409   0.779   9.770  0.3437  0.2048 -0.0620
  143TCq2    O2 2177   2.311   0.717   9.737 -0.2724 -0.6492  0.1422
  143TCq2    C2 2178   2.494   0.839   9.670  0.3532 -0.4142 -0.5085
  143TCq2    C3 2179   2.604   0.911   9.714  0.6130 -0.4109  0.7829
  143TCq2    C4 2180   2.670   0.996   9.630  0.0957  0.7748 -0.1014
  143TCq2    C5 2181   2.644   0.986   9.495  0.7669  0.0257  0.5898
  143TCq2    C6 2182   2.536   0.910   9.451 -0.0621  0.0751 -0.3305
  143TCq2    C7 2183   2.460   0.835   9.541  0.2575 -0.0318  0.2228
  143TCq2    C8 2184   2.521   0.872   9.312  0.7339  0.0487 -0.6013
  143TCq2    O4 2185   2.402   0.850   9.279 -0.4977 -0.0232  0.2693
  143TCq2    C9 2186   2.788   1.071   9.678 -0.0789  0.0204 -0.1750
  143TCq2    O5 2187   2.837   1.153   9.595  0.0721  0.1704 -0.1048
  143TCq2    O6 2188   2.828   1.041   9.795 -0.2512  0.3749 -0.4225
  143TCq2    H2 2189   2.643   0.911   9.815 -0.9452  0.9874  1.3780
  143TCq2    H3 2190   2.706   1.039   9.424 -1.0295  1.4345  0.0629
  143TCq2    H4 2191   2.378   0.772   9.508 -0.1258  0.7686 -0.3281
  144MPD2     C 2192   4.167   0.663   1.387 -0.5780  0.0503  0.0815
  144MPD2    C1 2193   4.200   0.599   1.273 -0.2943 -0.7012  0.0336
  144MPD2    C2 2194   4.323   0.539   1.265 -0.2123  0.2858 -0.2978
  144MPD2    C3 2195   4.411   0.542   1.369 -0.1858  0.0974 -0.7096
  144MPD2    C4 2196   4.378   0.621   1.476 -0.7688  0.1322 -0.4834
  144MPD2    C5 2197   4.259   0.678   1.489  0.2201  0.4664 -0.5218
  144MPD2     H 2198   4.349   0.486   1.174 -1.5764 -0.5919 -0.1873
  144MPD2    H1 2199   4.437   0.630   1.567 -1.5048  0.6676 -0.0554
  144MPD2    H2 2200   4.070   0.708   1.400 -0.3634  0.5338 -0.0102
  144MPD2    H3 2201   4.234   0.740   1.574 -0.8018  1.3732 -1.4814
  144MPD2     N 2202   4.543   0.490   1.362 -0.0655 -0.0317  0.9407
  144MPD2    H5 2203   4.615   0.538   1.415  0.0741  2.3368 -1.3723
  144MPD2    N1 2204   4.115   0.593   1.162  0.3311 -0.1768  0.0352
  144MPD2    H7 2205   4.154   0.548   1.079 -0.9224 -0.5199 -0.3644
  145TCq2    C1 2206   4.575   0.389   1.272 -0.0159 -0.6077  0.1105
  145TCq2    O2 2207   4.513   0.333   1.183  0.1136  0.0904 -0.1242
  145TCq2    C2 2208   0.002   0.369   1.263 -0.9621 -0.0235 -0.1964
  145TCq2    C3 2209   0.044   0.278   1.164  0.7968  0.1327  0.1681
  145TCq2    C4 2210   0.175   0.285   1.111 -0.1146 -0.1939 -0.3508
  145TCq2    C5 2211   0.264   0.374   1.169  0.4023 -0.3635 -0.1937
  145TCq2    C6 2212   0.216   0.463   1.256 -0.7092 -0.3178 -0.3377
  145TCq2    C7 2213   0.088   0.461   1.307 -1.0932 -0.1074 -0.1621
  145TCq2    C8 2214   0.312   0.540   1.321 -0.3112  0.0931  0.1566
  145TCq2    O4 2215   0.422   0.486   1.320 -0.5686 -0.6884 -0.3607
  145TCq2    C9 2216   0.217   0.177   1.026 -0.1073 -0.1242  0.2699
  145TCq2    O5 2217   0.129   0.092   0.997 -0.5285  0.1229  0.4777
  145TCq2    O6 2218   0.335   0.181   0.984 -0.2065  0.3476 -0.5485
  145TCq2    H2 2219   4.694   0.201   1.130  2.3901 -1.7450  1.2366
  145TCq2    H3 2220   0.364   0.375   1.130  0.2237  2.9766 -0.5558
  145TCq2    H4 2221   0.062   0.528   1.389  0.2991  1.4546 -1.0227
  146TMC2    C1 2222   1.474   3.709  11.871 -0.4756 -0.0206 -0.1321
  146TMC2    C2 2223   1.450   3.731  11.735 -0.6905 -0.0321 -0.7583
  146TMC2    C3 2224   1.534   3.677  11.639  0.2633  0.6317  0.0267
  146TMC2    C4 2225   1.587   3.633  11.903 -0.2108  0.1720  0.4151
  146TMC2    C5 2226   1.666   3.577  11.804  0.3007  0.2308 -0.8265
  146TMC2    C6 2227   1.647   3.607  11.673  0.1370  0.6407  0.0628
  146TMC2     C 2228   1.411   3.803  11.966  0.3120  0.4868 -0.4919
  146TMC2     O 2229   1.353   3.894  11.909 -0.3072 -0.2399  0.6072
  146TMC2     H 2230   1.363   3.787  11.701 -0.1482  1.3088  0.0583
  146TMC2    H1 2231   1.614   3.602  12.004  1.2669  2.6131  0.7719
  146TMC2    H2 2232   1.721   3.566  11.606 -0.4040 -0.5380  0.1865
  146TMC2    C7 2233   1.780   3.493  11.830  1.0599  0.2806 -0.0309
  146TMC2    C8 2234   1.520   3.727  11.500  0.2845  0.5022  0.7311
  146TMC2    O1 2235   1.809   3.411  11.742  0.1672 -0.0283 -0.4829
  146TMC2    O2 2236   1.416   3.776  11.460 -0.2584 -0.0139 -0.3574
  146TMC2    O5 2237   1.642   3.749  11.445 -0.5528  0.0686  0.3041
  146TMC2    H5 2238   1.718   3.712  11.495  0.2597  1.9263  0.4485
  147MPD2     C 2239   2.158   3.357  12.147  0.6278  1.0253 -0.9697
  147MPD2    C1 2240   2.061   3.424  12.225 -0.1141  0.0785 -0.4709
  147MPD2    C2 2241   1.953   3.472  12.158  0.8226  0.1647 -0.9080
  147MPD2    C3 2242   1.936   3.450  12.021  0.4482 -0.0178 -0.1402
  147MPD2    C4 2243   2.022   3.378  11.956  0.2603  0.3974 -0.1728
  147MPD2    C5 2244   2.134   3.325  12.022 -0.2853  0.8518 -0.4423
  147MPD2     H 2245   1.892   3.537  12.219  0.6606 -1.6497  0.8485
  147MPD2    H1 2246   2.017   3.363  11.849 -0.4828  2.4563 -0.4283
  147MPD2    H2 2247   2.246   3.320  12.198  0.0849  0.0964 -0.7088
  147MPD2    H3 2248   2.208   3.271  11.963  2.0733  3.8005 -0.1834
  147MPD2     N 2249   1.824   3.512  11.961 -0.2344  0.1005 -0.6329
  147MPD2    H5 2250   1.788   3.583  12.024  0.3588 -1.3498  1.3525
  147MPD2    N1 2251   2.084   3.441  12.361 -0.6069  0.3366 -0.0586
  147MPD2    H7 2252   2.170   3.408  12.404 -0.1908  0.8782 -0.4741
  148MPD2     C 2253   1.528   3.110  10.298 -0.5099 -0.4416 -0.5164
  148MPD2    C1 2254   1.609   3.001  10.261  0.4027  0.5612 -0.7405
  148MPD2    C2 2255   1.551   2.871  10.253  0.8536  0.2726  0.4452
  148MPD2    C3 2256   1.413   2.849  10.268  0.6012  0.7237 -0.2837
  148MPD2    C4 2257   1.337   2.952  10.308 -0.3706  0.4256 -0.1216
  148MPD2    C5 2258   1.393   3.083  10.323  0.6139 -0.4780  0.1820
  148MPD2     H 2259   1.614   2.783  10.247 -0.7371 -0.8920  0.6062
  148MPD2    H1 2260   1.234   2.946  10.342 -0.1554  0.0707  0.4528
  148MPD2    H2 2261   1.561   3.212  10.316  0.1210 -0.9037  0.9945
  148MPD2    H3 2262   1.325   3.164  10.346 -0.1240 -0.6367 -1.4333
  148MPD2     N 2263   1.352   2.725  10.237 -0.0746  0.4582 -0.1662
  148MPD2    H5 2264   1.250   2.724  10.232 -0.0670 -0.8306  0.1016
  148MPD2    N1 2265   1.746   3.016  10.239 -0.5210 -0.8617  0.5964
  148MPD2    H7 2266   1.806   2.935  10.237  1.4011  0.6205 -1.1810
  149TCq2    C1 2267   1.816   3.130  10.228 -0.1772  0.4464  0.0819
  149TCq2    O2 2268   1.770   3.242  10.200  0.4239  0.6287 -0.3878
  149TCq2    C2 2269   1.965   3.107  10.239  0.1330 -0.2102 -0.0621
  149TCq2    C3 2270   2.046   3.207  10.205 -0.3545 -0.1371  0.4894
  149TCq2    C4 2271   2.179   3.180  10.218  0.4400  0.1036  0.0567
  149TCq2    C5 2272   2.234   3.068  10.276  0.5598  0.2222  0.2049
  149TCq2    C6 2273   2.140   2.969  10.297  0.2390 -0.1519 -0.5135
  149TCq2    C7 2274   2.005   2.987  10.292  0.4105 -0.3026  0.5298
  149TCq2    C8 2275   2.180   2.829  10.305 -0.1924 -0.4705  0.3315
  149TCq2    O4 2276   2.086   2.748  10.317 -0.1986 -0.7944  0.2894
  149TCq2    C9 2277   2.276   3.289  10.223  0.5449  0.2161  0.6296
  149TCq2    O5 2278   2.364   3.270  10.305 -0.1043 -0.3769 -0.3346
  149TCq2    O6 2279   2.230   3.406  10.201  0.2632 -0.5442 -0.1192
  149TCq2    H2 2280   2.011   3.301  10.164  0.1283  0.1289  0.6901
  149TCq2    H3 2281   2.341   3.054  10.285  0.6598  2.3206  2.2935
  149TCq2    H4 2282   1.931   2.914  10.323  1.9984 -1.6813  1.0711
  150MPD2     C 2283   2.669   1.961  11.761  0.2435  0.3120  0.5075
  150MPD2    C1 2284   2.735   1.961  11.636 -0.3622  0.1070  0.1404
  150MPD2    C2 2285   2.863   2.014  11.629 -0.1901  0.7466 -0.5845
  150MPD2    C3 2286   2.928   2.059  11.746 -0.6122 -0.8684  0.4031
  150MPD2    C4 2287   2.861   2.060  11.867 -0.3627  0.2606  0.0260
  150MPD2    C5 2288   2.735   2.006  11.880  0.0812  0.7612  0.1016
  150MPD2     H 2289   2.913   2.012  11.533 -0.0973 -0.4722 -0.5095
  150MPD2    H1 2290   2.907   2.101  11.956 -0.0112 -0.4370  0.1626
  150MPD2    H2 2291   2.569   1.921  11.763  0.3747  0.1039  3.5726
  150MPD2    H3 2292   2.683   2.001  11.975 -0.4479 -1.4730 -0.2976
  150MPD2     N 2293   3.064   2.092  11.721 -0.2651  0.1204 -0.2037
  150MPD2    H5 2294   3.092   2.110  11.625  1.6470  0.3754  0.4004
  150MPD2    N1 2295   2.661   1.903  11.525 -0.4363  0.4480 -0.5281
  150MPD2    H7 2296   2.571   1.858  11.540 -0.4017  1.2137  2.0118
  151TCq2    C1 2297   3.155   2.099  11.823  0.1606  0.1184  0.4836
  151TCq2    O2 2298   3.143   2.061  11.944  0.0490 -0.8776  0.9581
  151TCq2    C2 2299   3.285   2.147  11.780 -0.1386 -0.1374 -0.1413
  151TCq2    C3 2300   3.330   2.151  11.645  0.7239 -0.8586  0.0796
  151TCq2    C4 2301   3.464   2.142  11.618 -1.0283  0.2932  0.0294
  151TCq2    C5 2302   3.553   2.141  11.722 -0.2193  0.6165 -0.3203
  151TCq2    C6 2303   3.503   2.160  11.852  0.2168  0.4998 -0.4839
  151TCq2    C7 2304   3.375   2.166  11.880 -0.6533  0.3324 -0.4263
  151TCq2    C8 2305   3.593   2.196  11.961 -0.2016  0.5762 -0.5056
  151TCq2    O4 2306   3.534   2.264  12.045  0.3577 -0.2235 -0.0206
  151TCq2    C9 2307   3.515   2.099  11.490 -0.0269 -0.0645  0.0533
  151TCq2    O5 2308   3.640   2.090  11.478 -0.2500 -0.6246  0.7251
  151TCq2    O6 2309   3.435   2.114  11.391  0.6189 -0.4448 -0.0256
  151TCq2    H2 2310   3.267   2.145  11.557  2.7489 -1.1619 -1.3424
  151TCq2    H3 2311   3.659   2.137  11.704 -0.1090  3.0506 -0.2863
  151TCq2    H4 2312   3.338   2.172  11.982  1.3198 -0.2901  0.3207
  152MPD2     C 2313   2.770   1.183  12.637 -0.4057  0.5401  0.2842
  152MPD2    C1 2314   2.877   1.268  12.632  0.6157  0.2364  0.0938
  152MPD2    C2 2315   2.859   1.406  12.637  0.7497  0.2502  0.1049
  152MPD2    C3 2316   2.732   1.459  12.636  0.1152  0.3398 -0.1238
  152MPD2    C4 2317   2.622   1.375  12.629  0.0181 -0.3924  0.1528
  152MPD2    C5 2318   2.646   1.237  12.637  0.5572  0.4279  0.3162
  152MPD2     H 2319   2.946   1.470  12.643  0.4885  0.4355  1.8733
  152MPD2    H1 2320   2.525   1.408  12.593  0.9051 -0.4227 -2.3160
  152MPD2    H2 2321   2.774   1.075  12.638  0.9041  0.6213  2.3948
  152MPD2    H3 2322   2.560   1.171  12.627 -0.2990  1.5978  0.0434
  152MPD2     N 2323   2.718   1.602  12.630 -0.0332  0.1470  0.1907
  152MPD2    H5 2324   2.806   1.651  12.616  0.9012 -1.4256  0.5294
  152MPD2    N1 2325   3.004   1.206  12.613 -0.1818 -0.0468  0.3055
  152MPD2    H7 2326   3.005   1.104  12.615  1.3269  0.0132  2.4607
  153TCq2    C1 2327   3.126   1.271  12.592 -1.2127  0.5637 -0.0531
  153TCq2    O2 2328   3.153   1.389  12.568  0.4904  0.3697 -0.4116
  153TCq2    C2 2329   3.239   1.173  12.579 -0.8817  0.7016 -0.0722
  153TCq2    C3 2330   3.218   1.039  12.602  0.0861 -1.2978  0.2889
  153TCq2    C4 2331   3.306   0.943  12.566 -0.2803  0.5587 -0.5456
  153TCq2    C5 2332   3.415   0.981  12.494 -0.5739 -0.0458 -0.4488
  153TCq2    C6 2333   3.432   1.118  12.467 -0.1983 -0.4695  0.6562
  153TCq2    C7 2334   3.354   1.216  12.521 -0.5506 -1.0176  0.4590
  153TCq2    C8 2335   3.560   1.155  12.402  0.2292  0.2879 -0.0308
  153TCq2    O4 2336   3.624   1.061  12.352 -0.3847  0.3456 -0.1832
  153TCq2    C9 2337   3.288   0.807  12.607 -0.0398 -0.2222  0.3892
  153TCq2    O5 2338   3.184   0.775  12.678 -0.2512  0.0433 -0.1100
  153TCq2    O6 2339   3.365   0.724  12.554 -0.1868  0.0137  0.1275
  153TCq2    H2 2340   3.130   1.013  12.660 -0.4717  1.3260  0.6372
  153TCq2    H3 2341   3.485   0.904  12.464  0.2689  1.6209 -2.7049
  153TCq2    H4 2342   3.363   1.320  12.491 -0.2477 -1.7965 -2.0613
  154MPD2     C 2343   0.481   1.350   1.005 -0.0982  0.1166  0.0298
  154MPD2    C1 2344   0.437   1.415   1.117  0.0499 -0.3662  0.1026
  154MPD2    C2 2345   0.314   1.469   1.118 -0.4910  0.3398  0.4802
  154MPD2    C3 2346   0.230   1.474   1.008  0.7985  0.9434  0.2195
  154MPD2    C4 2347   0.280   1.410   0.891  0.0481  0.5605  0.2542
  154MPD2    C5 2348   0.399   1.347   0.899 -0.2946 -0.1320  0.6922
  154MPD2     H 2349   0.277   1.509   1.212 -0.5064 -0.6435  0.8868
  154MPD2    H1 2350   0.232   1.417   0.794 -0.9554  1.3943  0.8059
  154MPD2    H2 2351   0.581   1.309   0.998 -0.8592 -1.5592 -0.8512
  154MPD2    H3 2352   0.427   1.287   0.813 -2.1743 -0.9256  0.6283
  154MPD2     N 2353   0.106   1.530   1.014 -0.7948  0.2145  0.1043
  154MPD2    H5 2354   0.091   1.583   1.099 -2.4543  0.9771 -0.6411
  154MPD2    N1 2355   0.531   1.415   1.223 -0.1525 -0.2447  0.3239
  154MPD2    H7 2356   0.614   1.357   1.223 -1.3636 -2.0011 -0.4972
  155TCq2    C1 2357   0.523   1.489   1.340 -0.0847  0.0616 -0.8794
  155TCq2    O2 2358   0.428   1.548   1.385  0.0079 -0.5030  0.2531
  155TCq2    C2 2359   0.645   1.478   1.426 -0.0157 -0.3829 -0.3105
  155TCq2    C3 2360   0.650   1.550   1.542  0.3345 -0.4725 -0.0055
  155TCq2    C4 2361   0.763   1.532   1.619  0.6334 -0.4541 -0.6639
  155TCq2    C5 2362   0.866   1.456   1.583  0.2867 -0.1545 -0.2436
  155TCq2    C6 2363   0.849   1.367   1.475  0.7464 -0.0533  0.0343
  155TCq2    C7 2364   0.741   1.378   1.393 -0.8135  0.0713 -0.1055
  155TCq2    C8 2365   0.955   1.294   1.420  0.4491  0.0361 -0.2103
  155TCq2    O4 2366   0.966   1.288   1.296  0.0138  0.3235  0.3644
  155TCq2    C9 2367   0.771   1.611   1.738 -0.5422  0.4219  0.5190
  155TCq2    O5 2368   0.669   1.651   1.796 -0.1451  0.5624 -0.2800
  155TCq2    O6 2369   0.888   1.644   1.776 -0.1740 -0.5237  0.0702
  155TCq2    H2 2370   0.572   1.620   1.570 -0.7893 -0.5336 -2.8959
  155TCq2    H3 2371   0.958   1.460   1.641 -0.4121 -1.0444  0.9202
  155TCq2    H4 2372   0.732   1.295   1.324 -0.7106  1.1186 -1.3782
  156MPD2     C 2373   3.056   3.954  11.744 -0.0188 -0.1525 -0.2782
  156MPD2    C1 2374   3.189   3.982  11.734 -0.8792  0.4313  0.2252
  156MPD2    C2 2375   3.250   4.019  11.854 -0.2441  0.1694 -0.3135
  156MPD2    C3 2376   3.184   4.012  11.969  0.5798  0.6379 -0.3636
  156MPD2    C4 2377   3.055   3.965  11.981  0.2263  0.4453  0.4576
  156MPD2    C5 2378   2.990   3.945  11.864  0.5730  0.7332  0.7630
  156MPD2     H 2379   3.353   4.052  11.859 -1.2907  3.2960  0.3269
  156MPD2    H1 2380   3.007   3.950  12.077 -0.5824  0.0306 -0.0095
  156MPD2    H2 2381   2.989   3.925  11.664 -1.5627  2.0351  0.2204
  156MPD2    H3 2382   2.884   3.919  11.864  1.4150 -2.7595 -0.0420
  156MPD2     N 2383   3.261   4.053  12.080 -0.5412  0.2178  0.0062
  156MPD2    H5 2384   3.355   4.071  12.048 -0.0632  0.2275  1.4190
  156MPD2    N1 2385   3.245   3.989  11.604 -0.5807 -0.4571  0.1605
  156MPD2    H7 2386   3.182   3.967  11.527 -0.9868  1.7227 -0.1056
  157TCq2    C1 2387   3.379   3.999  11.574  0.0236 -0.2233 -0.0188
  157TCq2    O2 2388   3.471   4.021  11.649  0.0851  0.0255 -0.1707
  157TCq2    C2 2389   3.413   4.019  11.434  0.3099 -0.0721 -0.6881
  157TCq2    C3 2390   3.319   3.971  11.341  0.3512  0.1807 -0.5660
  157TCq2    C4 2391   3.286   4.053  11.238 -0.2259  0.1897  0.0251
  157TCq2    C5 2392   3.365   4.166  11.211  0.2709 -0.1526 -0.0046
  157TCq2    C6 2393   3.460   4.205  11.300 -0.7942 -0.2389 -0.2322
  157TCq2    C7 2394   3.487   4.135  11.415  0.3236 -0.8487 -0.5180
  157TCq2    C8 2395   3.526   4.331  11.278  0.1361  0.0209  0.8081
  157TCq2    O4 2396   3.478   4.409  11.194  0.3110 -0.1197 -0.3858
  157TCq2    C9 2397   3.199   4.007  11.137  0.5846 -0.3680 -0.5099
  157TCq2    O5 2398   3.191   4.069  11.027 -0.0431  0.1170 -0.0660
  157TCq2    O6 2399   3.126   3.909  11.166 -0.3899 -0.4508  0.4925
  157TCq2    H2 2400   3.259   3.882  11.358  1.4213 -0.7462 -1.6850
  157TCq2    H3 2401   3.364   4.201  11.109  0.9930 -0.8820 -0.2681
  157TCq2    H4 2402   3.537   4.178  11.501 -0.4201 -2.9731  0.9752
  158TMC2    C1 2403   3.529   2.853  13.734 -0.2883 -0.3478  0.2209
  158TMC2    C2 2404   3.629   2.907  13.664  0.4525  0.2232 -1.0304
  158TMC2    C3 2405   3.596   2.997  13.571 -0.1013  0.5359 -0.3319
  158TMC2    C4 2406   3.397   2.880  13.707 -0.2619  0.5600  0.2029
  158TMC2    C5 2407   3.372   2.984  13.626  0.1612  0.0950 -0.5645
  158TMC2    C6 2408   3.472   3.042  13.551  0.4759 -0.1440 -0.9432
  158TMC2     C 2409   3.559   2.717  13.782 -0.3033 -0.0887  1.0126
  158TMC2     O 2410   3.618   2.637  13.713 -0.2301  0.7062 -0.1547
  158TMC2     H 2411   3.727   2.875  13.698 -0.3127  1.9520  2.8133
  158TMC2    H1 2412   3.315   2.833  13.760 -0.7500  0.1580 -0.9114
  158TMC2    H2 2413   3.463   3.135  13.497  1.4548 -1.2661 -3.0280
  158TMC2    C7 2414   3.241   3.009  13.573  0.0627  0.1464 -0.1937
  158TMC2    C8 2415   3.697   3.069  13.509 -0.5154 -0.0005 -0.8343
  158TMC2    O1 2416   3.232   3.111  13.509  0.2352  0.1058  0.1923
  158TMC2    O2 2417   3.680   3.175  13.448  0.1150  0.3085 -0.0938
  158TMC2    O5 2418   3.770   2.980  13.449  0.3784  0.6786 -0.0748
  158TMC2    H5 2419   3.735   2.889  13.462  1.0830  0.6669  1.7048
  159MPD2     C 2420   3.448   2.328  14.090 -0.0912  0.1655 -0.3648
  159MPD2    C1 2421   3.391   2.445  14.142 -0.5963 -0.1807 -0.2563
  159MPD2    C2 2422   3.408   2.565  14.073 -0.4849 -0.0258  0.1224
  159MPD2    C3 2423   3.489   2.571  13.964 -0.3133 -1.1376 -0.3689
  159MPD2    C4 2424   3.555   2.459  13.922  1.6389 -0.1831 -0.6151
  159MPD2    C5 2425   3.535   2.343  13.986 -0.0527 -0.1228  0.2207
  159MPD2     H 2426   3.374   2.658  14.119  0.7205 -0.8533  2.6230
  159MPD2    H1 2427   3.620   2.451  13.835  0.2723  0.7746 -1.7165
  159MPD2    H2 2428   3.426   2.227  14.123  2.0859 -0.2650 -0.2256
  159MPD2    H3 2429   3.589   2.253  13.958 -2.3291 -1.4581  0.1902
  159MPD2     N 2430   3.492   2.691  13.897 -0.0220 -0.3011 -0.9222
  159MPD2    H5 2431   3.437   2.767  13.934  1.5322  0.6671 -0.5877
  159MPD2    N1 2432   3.301   2.424  14.246 -0.7276 -0.2945  0.2112
  159MPD2    H7 2433   3.275   2.329  14.273 -0.8552 -0.8855 -1.9353
  160TMC2    C1 2434   2.827   1.173   2.353  0.1024  0.3545  0.6067
  160TMC2    C2 2435   2.913   1.142   2.455 -0.3198  0.0282 -0.5149
  160TMC2    C3 2436   3.045   1.179   2.441 -0.1172 -0.2209  0.2359
  160TMC2    C4 2437   2.869   1.241   2.247  1.0083  0.6623 -0.2278
  160TMC2    C5 2438   3.003   1.259   2.229  0.2630 -0.4345  0.1300
  160TMC2    C6 2439   3.098   1.239   2.326  0.3322  0.2962 -0.7943
  160TMC2     C 2440   2.703   1.107   2.347 -0.4588 -0.3691  0.4898
  160TMC2     O 2441   2.689   1.013   2.425  0.0527 -0.1186 -0.1262
  160TMC2     H 2442   2.875   1.096   2.546  0.7043  1.5833  0.7223
  160TMC2    H1 2443   2.809   1.252   2.157 -0.0271 -0.9893  0.2668
  160TMC2    H2 2444   3.205   1.250   2.313 -0.2403  2.7106 -3.5555
  160TMC2    C7 2445   3.028   1.351   2.125 -0.5200  0.2290 -0.5256
  160TMC2    C8 2446   3.137   1.162   2.550 -0.1629  0.1163 -0.3853
  160TMC2    O1 2447   2.940   1.431   2.092  0.1065  0.0931  0.0956
  160TMC2    O2 2448   3.114   1.068   2.630 -0.0568  0.0295  0.5319
  160TMC2    O5 2449   3.189   1.283   2.576  0.2194 -1.0500 -0.0559
  160TMC2    H5 2450   3.205   1.338   2.496  1.8785  0.1841  1.1277
  161MPD2     C 2451   2.449   0.981   2.282 -0.2976 -0.1758 -0.4893
  161MPD2    C1 2452   2.481   1.103   2.242 -0.2164 -0.3828 -0.0657
  161MPD2    C2 2453   2.388   1.170   2.158 -0.0220  0.1076 -0.0771
  161MPD2    C3 2454   2.258   1.125   2.140  0.7018 -0.5334  0.3472
  161MPD2    C4 2455   2.224   1.002   2.188 -0.4651 -0.1395 -0.2906
  161MPD2    C5 2456   2.322   0.930   2.263  0.2929  0.5749 -0.3155
  161MPD2     H 2457   2.408   1.267   2.115  0.3307  0.9442  1.9857
  161MPD2    H1 2458   2.124   0.963   2.174 -0.3661 -0.9567  1.2079
  161MPD2    H2 2459   2.509   0.915   2.344 -1.2540  0.7059  1.3967
  161MPD2    H3 2460   2.293   0.832   2.297 -0.6613  0.5590 -1.1755
  161MPD2     N 2461   2.151   1.181   2.055  0.3770  0.3129  0.2828
  161MPD2    H5 2462   2.064   1.131   2.042  0.2873 -0.2849  3.2070
  161MPD2    N1 2463   2.611   1.165   2.263 -0.8184 -0.3005 -0.1929
  161MPD2    H7 2464   2.630   1.254   2.218  2.7448 -0.5577  0.8261
  162TMC2    C1 2465   0.767   3.014   1.310  0.2470  0.2611  0.1506
  162TMC2    C2 2466   0.705   3.116   1.251  0.0001  0.5506 -0.0295
  162TMC2    C3 2467   0.618   3.194   1.319 -0.9082  1.1110 -0.2584
  162TMC2    C4 2468   0.775   3.003   1.443 -0.5777 -0.2430  0.2982
  162TMC2    C5 2469   0.691   3.086   1.513 -0.1766 -0.0932  0.0497
  162TMC2    C6 2470   0.602   3.168   1.452  0.1287 -0.0347  0.1466
  162TMC2     C 2471   0.827   2.908   1.233 -0.1771 -0.2642 -0.2879
  162TMC2     O 2472   0.872   2.938   1.122  0.1861 -0.1350 -0.4982
  162TMC2     H 2473   0.733   3.141   1.150 -0.9390 -0.2913 -0.5010
  162TMC2    H1 2474   0.860   2.948   1.483 -0.0854  0.9579  0.8935
  162TMC2    H2 2475   0.523   3.225   1.499  0.4696  1.4544 -1.0734
  162TMC2    C7 2476   0.673   3.065   1.652  0.2728 -0.1362 -0.8292
  162TMC2    C8 2477   0.533   3.287   1.245  0.1595 -0.9695 -0.4634
  162TMC2    O1 2478   0.561   3.080   1.697 -0.0374 -0.0860  0.3874
  162TMC2    O2 2479   0.470   3.381   1.295 -0.6679 -0.0531  0.0455
  162TMC2    O5 2480   0.485   3.212   1.146  0.4209  0.6396  0.6415
  162TMC2    H5 2481   0.520   3.121   1.134 -0.4739  0.3928 -0.1145
  163MPD2     C 2482   1.013   2.434   1.190  0.1612  0.0548  0.8602
  163MPD2    C1 2483   1.032   2.545   1.112 -1.2695  0.2643  0.5565
  163MPD2    C2 2484   0.965   2.661   1.138  0.2925  0.7745  0.3296
  163MPD2    C3 2485   0.882   2.668   1.251  0.1373 -0.1732  0.1036
  163MPD2    C4 2486   0.859   2.553   1.325  0.0778 -0.2078  0.5489
  163MPD2    C5 2487   0.924   2.430   1.287 -0.5656  0.2573  0.0957
  163MPD2     H 2488   0.966   2.744   1.068  1.8000  2.1620  1.9996
  163MPD2    H1 2489   0.790   2.544   1.408 -1.0666 -1.0896 -0.4999
  163MPD2    H2 2490   1.058   2.338   1.169  2.3067  1.3151 -0.3359
  163MPD2    H3 2491   0.908   2.335   1.338 -1.1457  0.5603  0.4846
  163MPD2     N 2492   0.828   2.793   1.300  0.6133  0.4317 -0.4367
  163MPD2    H5 2493   0.765   2.799   1.380  0.5459  1.0697 -0.5376
  163MPD2    N1 2494   1.110   2.524   0.995  0.1963  0.0852  0.6040
  163MPD2    H7 2495   1.142   2.428   0.987  0.7518  0.3571 -0.4710
  164TCq2    C1 2496   1.748   2.768  11.209  0.7559 -0.1599 -0.2855
  164TCq2    O2 2497   1.714   2.834  11.111  0.0892  0.3444 -0.5885
  164TCq2    C2 2498   1.652   2.755  11.315 -0.2106  0.8093  0.4144
  164TCq2    C3 2499   1.685   2.700  11.434 -0.0117  0.0995 -0.0715
  164TCq2    C4 2500   1.597   2.709  11.544  0.5126 -0.6314  0.1230
  164TCq2    C5 2501   1.468   2.750  11.527 -0.7516  0.0198 -0.0314
  164TCq2    C6 2502   1.433   2.805  11.404 -1.1456  0.3295 -0.8139
  164TCq2    C7 2503   1.531   2.828  11.304 -0.2132 -0.4218  0.1736
  164TCq2    C8 2504   1.309   2.882  11.393 -0.1753 -0.1053 -0.0505
  164TCq2    O4 2505   1.294   2.961  11.300  0.3838 -0.0237  0.4303
  164TCq2    C9 2506   1.653   2.686  11.678 -0.7047  0.1621 -0.2993
  164TCq2    O5 2507   1.584   2.724  11.774 -0.1333 -0.0015  0.6270
  164TCq2    O6 2508   1.776   2.670  11.681 -0.3499  0.1044  0.6965
  164TCq2    H2 2509   1.779   2.647  11.446  0.3670  1.0905  1.4212
  164TCq2    H3 2510   1.401   2.756  11.611 -1.9663  2.9570 -1.2157
  164TCq2    H4 2511   1.520   2.887  11.214 -2.5728  0.0510  0.7559
  165MPD2     C 2512   1.987   0.719   1.799  0.0723 -0.3162  0.0519
  165MPD2    C1 2513   2.010   0.611   1.883 -0.1315 -0.0733  0.5296
  165MPD2    C2 2514   2.119   0.610   1.965 -0.0720 -0.2846  0.1208
  165MPD2    C3 2515   2.217   0.709   1.947  0.1100  0.1728  0.7535
  165MPD2    C4 2516   2.190   0.814   1.864  0.1732  0.0509 -0.3494
  165MPD2    C5 2517   2.077   0.817   1.787  0.5471 -0.2628 -0.0855
  165MPD2     H 2518   2.125   0.523   2.029 -1.1949  1.3149  2.4140
  165MPD2    H1 2519   2.260   0.893   1.842 -0.1570 -0.5011 -3.5280
  165MPD2    H2 2520   1.900   0.718   1.735 -0.6000  0.6166  0.9384
  165MPD2    H3 2521   2.056   0.895   1.715 -0.3017 -0.1018  0.3313
  165MPD2     N 2522   2.341   0.710   2.016  0.0816  0.6240  0.0730
  165MPD2    H5 2523   2.402   0.785   1.986  2.8770 -1.5462  0.3951
  165MPD2    N1 2524   1.913   0.508   1.875 -0.4883 -0.2662  0.6330
  165MPD2    H7 2525   1.837   0.524   1.809 -0.5434  2.2460  1.3083
  166TCq2    C1 2526   2.385   0.608   2.105  0.4369 -0.3348 -0.6750
  166TCq2    O2 2527   2.328   0.513   2.161 -0.7008  0.3235  0.0859
  166TCq2    C2 2528   2.525   0.623   2.148  0.0618  0.4635  0.3816
  166TCq2    C3 2529   2.547   0.593   2.275  0.0816  0.0007  0.0195
  166TCq2    C4 2530   2.654   0.634   2.340 -0.1122 -0.3653 -0.3988
  166TCq2    C5 2531   2.751   0.717   2.284 -0.0632 -0.7651  0.3907
  166TCq2    C6 2532   2.715   0.762   2.155 -0.2841  0.3927 -0.4173
  166TCq2    C7 2533   2.607   0.714   2.081 -0.5241 -0.4867 -0.3354
  166TCq2    C8 2534   2.811   0.861   2.094 -0.0779  0.2619  0.2874
  166TCq2    O4 2535   2.929   0.856   2.135 -0.0661 -0.3576 -0.3380
  166TCq2    C9 2536   2.673   0.589   2.470  0.5629  0.3422  0.2917
  166TCq2    O5 2537   2.590   0.508   2.517 -0.1038  0.2554 -0.2979
  166TCq2    O6 2538   2.776   0.633   2.531 -0.3070 -0.9833 -0.8099
  166TCq2    H2 2539   2.481   0.525   2.328  1.9668  0.3345  2.8141
  166TCq2    H3 2540   2.833   0.761   2.340 -2.8603  1.9047  2.4150
  166TCq2    H4 2541   2.609   0.723   1.973 -1.5951  1.2503 -0.2025
  167TMC2    C1 2542   1.169   2.521  12.668  0.1834  0.3145 -0.6933
  167TMC2    C2 2543   1.053   2.588  12.657  0.3825 -0.0803 -0.0578
  167TMC2    C3 2544   0.938   2.519  12.699  0.3025 -0.1644 -0.5115
  167TMC2    C4 2545   1.184   2.392  12.714  1.2558  0.5211  0.1805
  167TMC2    C5 2546   1.073   2.329  12.768  0.0999  0.0399 -0.5453
  167TMC2    C6 2547   0.947   2.396  12.755 -0.2383 -0.2599  0.0520
  167TMC2     C 2548   1.280   2.569  12.581  1.2923  0.3241  0.0187
  167TMC2     O 2549   1.378   2.498  12.556 -0.3640  0.4292 -0.2344
  167TMC2     H 2550   1.053   2.682  12.603  1.0697 -0.8805 -1.4473
  167TMC2    H1 2551   1.288   2.363  12.726  0.9288 -0.4396  0.7659
  167TMC2    H2 2552   0.854   2.344  12.776  0.2400 -1.3199 -0.4889
  167TMC2    C7 2553   1.072   2.188  12.770  0.3920  0.4456  0.6709
  167TMC2    C8 2554   0.817   2.583  12.734  0.6055 -0.0988 -0.3601
  167TMC2    O1 2555   0.993   2.130  12.843 -0.5422  0.7135  0.2279
  167TMC2    O2 2556   0.766   2.568  12.844  0.3620 -0.0379 -0.0711
  167TMC2    O5 2557   0.800   2.691  12.658 -0.4055  0.7654  0.6581
  167TMC2    H5 2558   0.842   2.680  12.570 -1.5447  1.4289  0.0276
  168MPD2     C 2559   1.351   2.900  12.415  0.5074 -0.3863 -0.1295
  168MPD2    C1 2560   1.347   2.757  12.434  0.1932  0.1096  0.2485
  168MPD2    C2 2561   1.396   2.677  12.331 -0.1652 -0.0105 -0.5068
  168MPD2    C3 2562   1.453   2.731  12.221 -0.1748 -0.4781  0.0852
  168MPD2    C4 2563   1.469   2.862  12.215  0.5056 -0.1657  0.1368
  168MPD2    C5 2564   1.425   2.948  12.315  0.0204  0.3764  0.4289
  168MPD2     H 2565   1.370   2.572  12.324 -1.9312  0.2897  1.7031
  168MPD2    H1 2566   1.517   2.911  12.130  0.4159 -1.9628 -0.9531
  168MPD2    H2 2567   1.305   2.954  12.497  0.7021  0.5503 -0.6412
  168MPD2    H3 2568   1.449   3.053  12.304  0.4657  0.1616 -0.6412
  168MPD2     N 2569   1.484   2.648  12.107  0.1601 -0.5233 -0.1821
  168MPD2    H5 2570   1.479   2.693  12.016 -1.6326  2.8251  1.5837
  168MPD2    N1 2571   1.271   2.701  12.538  0.0256 -0.0608  1.2457
  168MPD2    H7 2572   1.218   2.766  12.595 -0.5911 -0.1156  0.7327
  169MPD1     C 2573   3.495   2.627   8.596 -0.3034  0.0379  0.6557
  169MPD1    C1 2574   3.572   2.646   8.709  1.2111  0.8192  0.0911
  169MPD1    C2 2575   3.632   2.541   8.771 -0.3775  0.2724  0.1380
  169MPD1    C3 2576   3.633   2.415   8.710 -0.1763 -0.1571 -0.3879
  169MPD1    C4 2577   3.544   2.393   8.601 -0.7953 -0.4319  0.1145
  169MPD1    C5 2578   3.481   2.503   8.549 -0.1091  0.0309  0.4346
  169MPD1     H 2579   3.685   2.555   8.865 -2.1428  1.6714  0.9205
  169MPD1    H1 2580   3.523   2.296   8.556 -0.1146 -0.1792 -0.7579
  169MPD1    H2 2581   3.455   2.710   8.539  1.7362 -0.4357 -1.4521
  169MPD1    H3 2582   3.424   2.496   8.457  3.3545  0.7221 -1.7626
  169MPD1     N 2583   3.707   2.303   8.772 -0.7349  0.4968  0.3904
  169MPD1    H5 2584   3.739   2.310   8.868  0.1049  1.7138  0.0190
  169MPD1    N1 2585   3.572   2.772   8.773 -0.0123 -0.5081  0.7851
  169MPD1    H6 2586   3.663   2.786   8.816  0.0398 -1.4455  1.0013
  169MPD1    H7 2587   3.573   2.851   8.709 -0.0589  0.9022  2.5368
  170MPD1     C 2588   2.532   0.203  13.501  0.4925 -0.0483  0.4831
  170MPD1    C1 2589   2.446   0.158  13.599  0.4051  0.5783 -0.0989
  170MPD1    C2 2590   2.310   0.160  13.571  0.0367 -0.3078 -0.2825
  170MPD1    C3 2591   2.262   0.196  13.450 -0.1197 -0.0611  0.4870
  170MPD1    C4 2592   2.349   0.227  13.346  0.1451 -0.1937 -0.4012
  170MPD1    C5 2593   2.482   0.227  13.375 -0.9949  0.4199 -0.6318
  170MPD1     H 2594   2.247   0.121  13.650 -1.3124 -0.4467 -1.4259
  170MPD1    H1 2595   2.310   0.249  13.248  1.4384 -1.1259 -1.1307
  170MPD1    H2 2596   2.637   0.218  13.526  0.9976 -2.0113 -0.4436
  170MPD1    H3 2597   2.549   0.250  13.293 -0.3740  1.2862  0.1211
  170MPD1     N 2598   2.120   0.219  13.448  0.9067 -0.1096  0.3010
  170MPD1    H5 2599   2.071   0.216  13.537 -0.4444  1.6054 -0.3807
  170MPD1    N1 2600   2.497   0.128  13.727 -0.5844  0.2895  0.3054
  170MPD1    H6 2601   2.443   0.060  13.780  1.2209 -0.1242  1.6184
  170MPD1    H7 2602   2.596   0.102  13.725 -0.2043  1.6720  0.3923
  171MPD1     C 2603   0.602   1.119  15.178 -0.1479  0.0070 -0.0536
  171MPD1    C1 2604   0.596   1.165  15.305 -0.3477 -0.5008  0.2769
  171MPD1    C2 2605   0.549   1.079  15.408 -0.4801 -0.1332  0.9112
  171MPD1    C3 2606   0.498   0.953  15.375  0.0226  0.7130  0.5942
  171MPD1    C4 2607   0.502   0.923  15.244 -0.7122  0.6119 -0.1219
  171MPD1    C5 2608   0.558   0.995  15.148 -0.0866 -0.6132  0.2737
  171MPD1     H 2609   0.559   1.116  15.509  0.6028  2.0779  0.0080
  171MPD1    H1 2610   0.458   0.828  15.217 -0.6534  0.8146 -0.9131
  171MPD1    H2 2611   0.641   1.180  15.096 -1.0451 -1.2595 -1.4235
  171MPD1    H3 2612   0.576   0.960  15.047 -0.0853 -1.1449  0.4584
  171MPD1     N 2613   0.444   0.859  15.465  0.2706  0.3980  0.2221
  171MPD1    H5 2614   0.412   0.769  15.431 -2.5933  1.6651 -0.3823
  171MPD1    N1 2615   0.655   1.290  15.340 -0.0307  0.0302 -0.1595
  171MPD1    H6 2616   0.609   1.328  15.423 -0.6485  0.1432 -0.5583
  171MPD1    H7 2617   0.644   1.359  15.266  1.4910  1.1706  0.6788
  172MPD1     C 2618   4.344   0.736   0.927 -0.0928  0.4586  0.4368
  172MPD1    C1 2619   4.474   0.687   0.919  0.6951 -0.2459  0.4228
  172MPD1    C2 2620   4.541   0.716   0.801  0.0317 -0.0686  0.6710
  172MPD1    C3 2621   4.477   0.777   0.692 -0.2548  0.1180 -0.2162
  172MPD1    C4 2622   4.346   0.814   0.697 -0.4201  0.3176  0.2539
  172MPD1    C5 2623   4.284   0.793   0.812 -0.7388 -0.6414 -0.7399
  172MPD1     H 2624   4.648   0.695   0.798 -0.1470 -1.2191  2.7677
  172MPD1    H1 2625   4.296   0.870   0.620  1.1792 -0.1583 -1.1198
  172MPD1    H2 2626   4.286   0.724   1.018 -1.0440 -0.1959 -0.2612
  172MPD1    H3 2627   4.181   0.829   0.812 -1.2889 -2.2274 -0.8617
  172MPD1     N 2628   4.542   0.825   0.580 -0.1405 -0.0078 -0.5823
  172MPD1    H5 2629   4.491   0.888   0.518  0.9034  0.1984 -1.2246
  172MPD1    N1 2630   4.544   0.654   1.035 -0.5809 -0.1418 -0.6526
  172MPD1    H6 2631   4.621   0.591   1.014 -1.0460 -0.2924 -1.9127
  172MPD1    H7 2632   4.474   0.605   1.091  0.0405  0.1017  0.3366
  173MPD1     C 2633   0.903   0.989  14.239 -0.0429 -0.5457  0.2703
  173MPD1    C1 2634   0.928   0.882  14.153  0.3472  0.9937  0.3392
  173MPD1    C2 2635   0.891   0.759  14.205 -0.7143  0.4329  0.5146
  173MPD1    C3 2636   0.808   0.746  14.315 -0.5871  0.3062 -0.3776
  173MPD1    C4 2637   0.787   0.853  14.398 -0.1108 -0.1862  0.0961
  173MPD1    C5 2638   0.844   0.973  14.362 -0.2147  0.4254  0.2571
  173MPD1     H 2639   0.904   0.670  14.146  1.3835  0.7259  0.5229
  173MPD1    H1 2640   0.727   0.849  14.489 -1.0674  0.9036 -0.5005
  173MPD1    H2 2641   0.943   1.087  14.212 -1.3052 -0.6268 -1.8801
  173MPD1    H3 2642   0.827   1.059  14.426  0.1878  1.0451 -0.4679
  173MPD1     N 2643   0.759   0.613  14.336  0.1862 -0.1224 -0.3581
  173MPD1    H5 2644   0.796   0.541  14.275 -2.0719 -2.4208  0.9898
  173MPD1    N1 2645   1.029   0.884  14.052  0.6659  0.4370 -0.6206
  173MPD1    H6 2646   1.001   0.823  13.975 -0.7832 -1.1327  1.1481
  173MPD1    H7 2647   1.041   0.975  14.008 -0.2693  0.8180 -0.1014
  174MPD1     C 2648   1.270   4.657  14.294 -0.3629  0.5993  0.1567
  174MPD1    C1 2649   1.182   4.626  14.399  0.1133 -0.7160  0.3320
  174MPD1    C2 2650   1.055   4.688  14.407 -0.3965 -0.2256  0.2136
  174MPD1    C3 2651   1.019   0.068  14.312  0.0280  0.2202  0.3121
  174MPD1    C4 2652   1.106   0.092  14.205 -0.3246  0.1068 -0.2718
  174MPD1    C5 2653   1.228   0.024  14.191 -0.0358  0.5423 -1.1343
  174MPD1     H 2654   0.994   4.668  14.495 -0.5152  1.2997  0.4736
  174MPD1    H1 2655   1.079   0.158  14.123 -1.5365 -0.1689 -0.0889
  174MPD1    H2 2656   1.364   4.605  14.277 -1.2646 -0.4132 -1.6812
  174MPD1    H3 2657   1.296   0.048  14.110  0.6506 -0.5749 -0.9022
  174MPD1     N 2658   0.904   0.158  14.332  0.1446 -0.3440 -0.0949
  174MPD1    H5 2659   0.904   0.248  14.286  2.5566  1.0984  2.7100
  174MPD1    N1 2660   1.231   4.555  14.506 -0.3904 -0.6361 -0.4727
  174MPD1    H6 2661   1.169   4.496  14.561 -2.6078  0.5001 -1.7687
  174MPD1    H7 2662   1.316   4.503  14.484  1.7897  2.2339  1.2154
  175MPD1     C 2663   3.945   1.208  15.436 -0.6517  0.0823  0.0155
  175MPD1    C1 2664   4.056   1.246  15.513 -0.8678 -0.7282 -0.8643
  175MPD1    C2 2665   4.059   1.203  15.646 -0.5419 -0.0373 -0.6367
  175MPD1    C3 2666   3.973   1.111  15.702 -0.2751 -0.9060 -0.5432
  175MPD1    C4 2667   3.864   1.082  15.627 -0.3307  0.1347 -0.2464
  175MPD1    C5 2668   3.847   1.139  15.507  0.7985  0.1350  0.6374
  175MPD1     H 2669   4.137   1.238  15.713 -1.9224 -0.3048  1.1121
  175MPD1    H1 2670   3.783   1.016  15.657 -1.2020  1.7697  0.9437
  175MPD1    H2 2671   3.930   1.248  15.337  2.0155  0.6214 -0.1854
  175MPD1    H3 2672   3.758   1.122  15.448  2.1721  1.5159 -1.8495
  175MPD1     N 2673   3.972   1.056  15.828 -0.4331 -0.7392 -0.1351
  175MPD1    H5 2674   3.915   0.973  15.845 -0.2365 -1.2351 -1.8901
  175MPD1    N1 2675   4.152   1.331  15.461  0.5543  0.1426  0.3725
  175MPD1    H6 2676   4.244   1.311  15.498  0.2279  0.2086  1.2253
  175MPD1    H7 2677   4.143   1.344  15.361  0.1517  1.4577  0.5707
  176MPD1     C 2678   4.396   3.333  17.582 -0.1764 -0.4079 -0.0314
  176MPD1    C1 2679   4.433   3.239  17.501 -0.8539  0.1264 -0.3813
  176MPD1    C2 2680   4.521   3.141  17.539  0.2982 -0.2022 -0.0591
  176MPD1    C3 2681   4.587   3.149  17.657 -0.1049  0.6186 -0.3021
  176MPD1    C4 2682   4.562   3.250   0.064 -0.7594  0.3299  0.0493
  176MPD1    C5 2683   4.465   3.339   0.026  0.1313  0.8238 -0.1437
  176MPD1     H 2684   4.555   3.072  17.462  0.4906  0.1544 -0.2919
  176MPD1    H1 2685   4.617   3.261   0.158  2.0502 -0.3757 -1.5154
  176MPD1    H2 2686   4.315   3.403  17.562 -1.5181 -2.0846 -0.4015
  176MPD1    H3 2687   4.440   3.410   0.104 -0.9570  1.1439 -0.7778
  176MPD1     N 2688   4.683   3.049   0.001 -0.0367  0.6351  0.5979
  176MPD1    H5 2689   4.702   2.979  17.606  0.6867 -0.4159  1.8112
  176MPD1    N1 2690   4.364   3.227  17.378 -0.0957  0.0687 -0.2329
  176MPD1    H6 2691   4.423   3.179  17.310 -0.5280 -2.2073  1.0047
  176MPD1    H7 2692   4.337   3.317  17.341 -0.3553  1.0083  2.2387
  177MPD1     C 2693   4.427   3.270  10.022 -0.0792  0.6235  0.5063
  177MPD1    C1 2694   4.323   3.197   9.971 -0.0219 -0.6550  0.6756
  177MPD1    C2 2695   4.277   3.233   9.848  0.1530  0.4699 -0.3299
  177MPD1    C3 2696   4.318   3.352   9.782  0.3429  0.4524  0.1499
  177MPD1    C4 2697   4.418   3.426   9.845  0.5063 -0.0015 -0.5156
  177MPD1    C5 2698   4.463   3.392   9.970 -0.2016 -0.3394 -0.3070
  177MPD1     H 2699   4.198   3.166   9.816  1.1547 -0.5593 -0.6107
  177MPD1    H1 2700   4.469   3.517   9.817 -1.0040  0.5186 -1.5230
  177MPD1    H2 2701   4.471   3.230  10.112 -3.3393 -0.0027  1.7939
  177MPD1    H3 2702   4.544   3.446  10.017  0.8285 -0.1952 -2.2356
  177MPD1     N 2703   4.269   3.370   9.650 -0.0019  0.4981  0.0382
  177MPD1    H5 2704   4.202   3.300   9.620 -1.7534  1.2987  2.0705
  177MPD1    N1 2705   4.265   3.085  10.037  0.0837 -0.0615  0.8697
  177MPD1    H6 2706   4.220   3.031   9.962  2.8089 -1.0524 -0.0448
  177MPD1    H7 2707   4.337   3.024  10.076  1.1108  1.9035  2.0350
  178MPD1     C 2708   1.008   4.409  16.874  0.6516  0.3206 -0.4794
  178MPD1    C1 2709   0.914   4.323  16.833  0.4696 -0.1104 -0.0060
  178MPD1    C2 2710   0.945   4.188  16.840 -0.1766  0.3493  1.0940
  178MPD1    C3 2711   1.068   4.150  16.877 -0.5976 -0.0020  0.5569
  178MPD1    C4 2712   1.167   4.236  16.913 -0.5595  0.1877 -0.2055
  178MPD1    C5 2713   1.130   4.372  16.921  0.5070  0.5447  0.3359
  178MPD1     H 2714   0.870   4.118  16.806  0.1202  0.4905  0.1408
  178MPD1    H1 2715   1.268   4.210  16.941 -0.7449 -1.1526 -0.8113
  178MPD1    H2 2716   0.976   4.513  16.871 -0.6085 -0.0047  1.6906
  178MPD1    H3 2717   1.198   4.450  16.953 -0.1431  1.8554 -1.4526
  178MPD1     N 2718   1.109   4.012  16.889  0.1870  0.2658 -0.0524
  178MPD1    H5 2719   1.206   3.991  16.908 -0.2710  0.0825  2.0696
  178MPD1    N1 2720   0.793   4.361  16.774  0.2984 -0.0427 -0.8366
  178MPD1    H6 2721   0.716   4.298  16.794  0.1551  0.7457  1.1169
  178MPD1    H7 2722   0.770   4.455  16.805  0.7854 -0.1085 -0.2706
  179MPD1     C 2723   1.325   2.389  16.349 -0.3421  0.6626  0.5462
  179MPD1    C1 2724   1.319   2.296  16.451 -0.1383 -0.2146  0.0361
  179MPD1    C2 2725   1.314   2.160  16.417  0.8184 -0.4351 -0.5544
  179MPD1    C3 2726   1.290   2.121  16.292 -0.0744  0.9272  0.0178
  179MPD1    C4 2727   1.275   2.214  16.195  0.3342  0.1444 -0.4220
  179MPD1    C5 2728   1.309   2.346  16.222 -0.9154 -0.8445 -0.1385
  179MPD1     H 2729   1.327   2.084  16.493 -0.4534 -0.4581 -0.3602
  179MPD1    H1 2730   1.263   2.182  16.092  0.3907  0.2967 -0.4769
  179MPD1    H2 2731   1.342   2.495  16.364 -1.3571  0.8342  0.4497
  179MPD1    H3 2732   1.317   2.415  16.139  0.8370 -1.2299 -0.2819
  179MPD1     N 2733   1.284   1.981  16.252 -0.0364 -0.3622  0.0671
  179MPD1    H5 2734   1.251   1.968  16.157  0.0160  1.4117 -0.2012
  179MPD1    N1 2735   1.359   2.321  16.585  0.4545 -0.0047  0.1845
  179MPD1    H6 2736   1.338   2.417  16.612  0.2512  0.2618 -0.9045
  179MPD1    H7 2737   1.314   2.257  16.650  1.3301 -0.5565  0.2449
  180MPD1     C 2738   0.195   3.572  14.848  0.0131  0.0358 -0.0037
  180MPD1    C1 2739   0.161   3.537  14.717 -0.3543 -0.5876 -0.2255
  180MPD1    C2 2740   0.266   3.533  14.618 -0.1804  0.2503  0.0218
  180MPD1    C3 2741   0.396   3.568  14.643 -0.9839 -0.3508 -0.4699
  180MPD1    C4 2742   0.420   3.603  14.775  0.4078 -0.2252 -0.4146
  180MPD1    C5 2743   0.324   3.612  14.868 -0.2358 -0.0252 -0.3080
  180MPD1     H 2744   0.245   3.497  14.518  0.1261 -0.3014  0.1566
  180MPD1    H1 2745   0.520   3.626  14.809  0.1161  3.0650 -1.7571
  180MPD1    H2 2746   0.120   3.575  14.926  0.9441 -0.0206  0.8783
  180MPD1    H3 2747   0.357   3.647  14.965 -3.2162  2.4483 -0.1969
  180MPD1     N 2748   0.497   3.571  14.539  0.3350 -0.0806  0.8201
  180MPD1    H5 2749   0.468   3.543  14.445  2.0715  0.8430  0.0131
  180MPD1    N1 2750   0.041   3.477  14.684  0.0306 -0.1418  0.1056
  180MPD1    H6 2751   4.680   3.523  14.730 -1.9872 -3.1419 -0.3839
  180MPD1    H7 2752   0.025   3.480  14.584  0.1794 -0.1920  0.0801
  181MPD1     C 2753   3.339   0.200   9.371 -0.3801 -0.2021  0.7550
  181MPD1    C1 2754   3.400   0.321   9.351  0.7401  0.4990  0.7945
  181MPD1    C2 2755   3.448   0.394   9.458 -0.2105  0.5745 -0.0784
  181MPD1    C3 2756   3.435   0.347   9.591 -0.5242  0.0953 -0.2494
  181MPD1    C4 2757   3.368   0.221   9.607  0.2077 -0.2345 -0.4585
  181MPD1    C5 2758   3.310   0.153   9.500 -1.0817 -0.2413 -0.3398
  181MPD1     H 2759   3.499   0.486   9.434  1.4218 -0.8733 -2.1611
  181MPD1    H1 2760   3.350   0.186   9.709  1.2602 -3.2273 -1.2946
  181MPD1    H2 2761   3.304   0.141   9.288 -0.6005 -0.1654  0.8224
  181MPD1    H3 2762   3.271   0.054   9.522  3.7172 -1.8838  0.7640
  181MPD1     N 2763   3.487   0.415   9.700 -0.3430 -0.3224 -0.2251
  181MPD1    H5 2764   3.494   0.368   9.789  0.2606 -0.2919 -0.2537
  181MPD1    N1 2765   3.430   0.365   9.220  0.6005  0.0404  0.5441
  181MPD1    H6 2766   3.428   0.466   9.203  1.7093 -0.0233  0.0667
  181MPD1    H7 2767   3.378   0.314   9.149  0.2731  0.6849  0.3119
  182MPD1     C 2768   3.274   0.691   1.463  0.1109 -0.4024 -0.5028
  182MPD1    C1 2769   3.156   0.764   1.486  0.4356  1.3801 -0.3659
  182MPD1    C2 2770   3.039   0.726   1.420 -0.0718 -0.7145  0.8030
  182MPD1    C3 2771   3.035   0.603   1.352 -1.0322 -0.5294  0.1392
  182MPD1    C4 2772   3.151   0.524   1.350 -0.5275 -0.3682 -0.1288
  182MPD1    C5 2773   3.265   0.568   1.402 -0.3073  0.1458 -0.0222
  182MPD1     H 2774   2.963   0.804   1.416 -1.5387 -2.1132  1.2156
  182MPD1    H1 2775   3.149   0.434   1.289  0.8711  0.1166 -0.8753
  182MPD1    H2 2776   3.368   0.722   1.506  1.2733 -1.1826 -2.4918
  182MPD1    H3 2777   3.356   0.509   1.392  0.8747  2.1313 -0.9725
  182MPD1     N 2778   2.933   0.559   1.267 -0.0568  0.4611  0.7630
  182MPD1    H5 2779   2.955   0.478   1.209 -0.4523  0.4803  0.5832
  182MPD1    N1 2780   3.174   0.898   1.536 -0.8435 -0.2437  0.0938
  182MPD1    H6 2781   3.093   0.939   1.583 -0.9966  1.1100 -1.3405
  182MPD1    H7 2782   3.248   0.900   1.606 -1.6838 -0.1168  0.9812
  183MPD1     C 2783   4.018   0.612   9.140  0.6457  0.4774 -0.2072
  183MPD1    C1 2784   4.020   0.552   9.260  0.1308 -0.2514 -0.0502
  183MPD1    C2 2785   4.144   0.541   9.332  0.0019 -0.0131  0.2051
  183MPD1    C3 2786   4.259   0.588   9.274  0.8111 -0.0858 -0.8470
  183MPD1    C4 2787   4.248   0.664   9.163 -0.6514 -0.6160  0.2181
  183MPD1    C5 2788   4.131   0.679   9.100 -0.7483  0.9243 -0.1578
  183MPD1     H 2789   4.151   0.487   9.426  0.4816  2.4195  1.5842
  183MPD1    H1 2790   4.337   0.716   9.128  0.8034 -1.8276  2.1086
  183MPD1    H2 2791   3.932   0.615   9.074  1.6399  1.4356 -1.4489
  183MPD1    H3 2792   4.131   0.739   9.009 -3.0751  1.2481  0.0505
  183MPD1     N 2793   4.379   0.573   9.354 -0.3156  0.0465  0.3664
  183MPD1    H5 2794   4.366   0.512   9.434  0.6040 -1.0154 -0.2974
  183MPD1    N1 2795   3.914   0.472   9.304  0.2563  0.4614  0.0832
  183MPD1    H6 2796   3.826   0.485   9.256 -0.0110 -1.3593  0.0942
  183MPD1    H7 2797   3.895   0.485   9.403  0.0179 -0.1920  0.1226
  184MPD1     C 2798   3.405   2.275   9.397 -0.0027  0.3962 -0.6708
  184MPD1    C1 2799   3.489   2.327   9.490 -0.2331 -0.4014  0.2080
  184MPD1    C2 2800   3.544   2.455   9.463 -0.2300  0.2198  0.4844
  184MPD1    C3 2801   3.516   2.517   9.341 -0.2562  0.2858  0.8434
  184MPD1    C4 2802   3.428   2.456   9.251  0.6390 -0.3003 -0.1528
  184MPD1    C5 2803   3.367   2.338   9.283 -0.4644  0.2440 -0.1306
  184MPD1     H 2804   3.607   2.512   9.531 -0.2590  0.3213  0.4258
  184MPD1    H1 2805   3.404   2.499   9.155 -1.4017 -0.3422  0.3249
  184MPD1    H2 2806   3.354   2.182   9.422 -1.1152  0.8482 -1.2531
  184MPD1    H3 2807   3.293   2.299   9.213 -1.8614 -0.2051  1.6204
  184MPD1     N 2808   3.569   2.641   9.294 -0.1006  0.1602  0.8455
  184MPD1    H5 2809   3.533   2.675   9.206 -2.3194 -0.5383  1.4706
  184MPD1    N1 2810   3.498   2.260   9.617 -1.1217 -0.0266  0.0946
  184MPD1    H6 2811   3.594   2.267   9.648 -1.3243  1.1235  0.4562
  184MPD1    H7 2812   3.477   2.160   9.621  0.5530 -0.4122 -1.1894
  185MPD1     C 2813   3.875   3.035   8.464  0.7661 -0.4092 -0.0619
  185MPD1    C1 2814   3.839   3.145   8.535  0.4860 -0.5910 -0.2683
  185MPD1    C2 2815   3.820   3.138   8.673 -0.4545  0.0766  0.3919
  185MPD1    C3 2816   3.839   3.015   8.735 -0.4515  0.2031  0.9967
  185MPD1    C4 2817   3.882   2.908   8.657 -0.1199  0.2081  0.1717
  185MPD1    C5 2818   3.892   2.913   8.525 -0.1770  0.2226  0.3800
  185MPD1     H 2819   3.785   3.226   8.724 -0.0180 -1.2532  2.9536
  185MPD1    H1 2820   3.895   2.810   8.702 -0.7199 -0.5451 -1.3058
  185MPD1    H2 2821   3.878   3.038   8.356 -0.4996 -0.2250 -0.1030
  185MPD1    H3 2822   3.918   2.826   8.466  1.7019  2.1059 -1.5763
  185MPD1     N 2823   3.824   3.011   8.875  0.2032  0.0613  0.4956
  185MPD1    H5 2824   3.794   3.094   8.924  2.9363  0.5974  1.2627
  185MPD1    N1 2825   3.826   3.274   8.475  0.6335 -0.9688  0.0603
  185MPD1    H6 2826   3.799   3.345   8.543  2.9816  0.9851 -1.0649
  185MPD1    H7 2827   3.911   3.301   8.426  0.0906 -0.2323 -0.4838
  186MPD1     C 2828   1.483   1.549  15.978 -0.5293 -0.4374 -0.9766
  186MPD1    C1 2829   1.454   1.677  15.941  0.2252 -0.4969  0.1765
  186MPD1    C2 2830   1.507   1.790  15.996  0.6436  0.3722 -0.5569
  186MPD1    C3 2831   1.592   1.763  16.099  0.4921 -0.2745 -1.1816
  186MPD1    C4 2832   1.629   1.640  16.137  0.3623  0.2614  0.0653
  186MPD1    C5 2833   1.580   1.530  16.072  0.6742  0.1673 -0.2614
  186MPD1     H 2834   1.481   1.892  15.972 -0.8664  0.3556  1.0694
  186MPD1    H1 2835   1.698   1.629  16.220  0.5568 -2.8588 -0.4833
  186MPD1    H2 2836   1.443   1.464  15.925 -0.3582 -1.2173  0.1490
  186MPD1    H3 2837   1.601   1.427  16.095 -1.5846 -0.0935  0.6519
  186MPD1     N 2838   1.643   1.866  16.177  0.4678 -0.4266  0.4352
  186MPD1    H5 2839   1.684   1.836  16.264  0.1999  0.1207  0.7481
  186MPD1    N1 2840   1.388   1.689  15.824  0.1986 -0.1812  0.4476
  186MPD1    H6 2841   1.312   1.622  15.810  0.1561 -0.3303  1.3883
  186MPD1    H7 2842   1.361   1.783  15.796  0.7783  0.0668  0.7098
  187MPD1     C 2843   0.651   3.940   0.623  0.2434 -0.7397  0.4561
  187MPD1    C1 2844   0.538   3.858   0.590 -0.0350 -0.3340 -0.3800
  187MPD1    C2 2845   0.531   3.832   0.456  0.1309  0.7579  0.0346
  187MPD1    C3 2846   0.602   3.895   0.362  0.1201  0.9701  0.9139
  187MPD1    C4 2847   0.707   3.981   0.406  0.4440  0.5452  0.1875
  187MPD1    C5 2848   0.731   4.010   0.536  0.6103  0.4229 -0.2343
  187MPD1     H 2849   0.464   3.754   0.423 -2.1225  2.7986 -0.1612
  187MPD1    H1 2850   0.770   4.027   0.331  0.8012 -1.3710 -0.6728
  187MPD1    H2 2851   0.657   3.978   0.725  0.1079 -0.7999  0.4862
  187MPD1    H3 2852   0.805   4.082   0.570  0.9154 -1.0015  2.1221
  187MPD1     N 2853   0.597   3.874   0.224  0.0017  0.4822 -0.1514
  187MPD1    H5 2854   0.674   3.910   0.170  1.2116 -2.0692 -0.1305
  187MPD1    N1 2855   0.463   3.788   0.689 -0.6095  0.6573  0.8835
  187MPD1    H6 2856   0.453   3.842   0.774 -0.2467  2.9568 -0.5480
  187MPD1    H7 2857   0.376   3.760   0.644  0.8009  0.2448 -1.6045
  188MPD1     C 2858   1.858   4.484  10.095 -0.0943  0.0704 -0.3655
  188MPD1    C1 2859   1.777   4.424  10.185 -0.3844 -0.2218  0.6610
  188MPD1    C2 2860   1.738   4.291  10.160  0.4192 -0.7587  0.3634
  188MPD1    C3 2861   1.793   4.215  10.057 -0.6853 -0.0933  0.4987
  188MPD1    C4 2862   1.895   4.280   9.980  0.4012  0.5897  0.0198
  188MPD1    C5 2863   1.925   4.419  10.000 -0.4188  0.0301 -1.1704
  188MPD1     H 2864   1.664   4.247  10.226  0.7778  0.3862  1.5353
  188MPD1    H1 2865   1.927   4.225   9.892 -2.0199 -1.0489  0.1739
  188MPD1    H2 2866   1.882   4.589  10.106  1.0505 -0.1518 -0.7570
  188MPD1    H3 2867   2.000   4.472   9.942  0.6389  0.5953  0.6899
  188MPD1     N 2868   1.760   4.079  10.032  0.1987 -0.8431 -0.2087
  188MPD1    H5 2869   1.826   4.027   9.975 -0.2018 -1.0132 -0.5163
  188MPD1    N1 2870   1.721   4.499  10.293 -0.1588 -0.1288  0.6493
  188MPD1    H6 2871   1.624   4.519  10.267  1.1168  1.8060 -2.5321
  188MPD1    H7 2872   1.762   4.591  10.290 -0.3598 -0.0608 -0.0136
  189MPD1     C 2873   3.422   4.674  17.399  0.7401 -0.2331  0.5478
  189MPD1    C1 2874   3.348   0.066  17.412  0.1597 -0.4403  0.0804
  189MPD1    C2 2875   3.221   0.062  17.455  0.6236  0.3485  0.5689
  189MPD1    C3 2876   3.165   4.660  17.498 -0.0764 -0.0997 -0.4622
  189MPD1    C4 2877   3.241   4.548  17.491 -1.0199 -0.1009 -0.8436
  189MPD1    C5 2878   3.366   4.554  17.436  1.1062 -0.5056 -0.3856
  189MPD1     H 2879   3.172   0.158  17.462  1.2250  0.8134 -1.3644
  189MPD1    H1 2880   3.217   4.453  17.537  0.7606 -0.2540 -0.2501
  189MPD1    H2 2881   3.519   4.672  17.350  0.1058  1.5757 -0.7721
  189MPD1    H3 2882   3.417   4.458  17.427  2.6912  0.2163  0.7994
  189MPD1     N 2883   3.031   4.671  17.554 -0.2697 -0.2703 -0.6032
  189MPD1    H5 2884   2.995   0.047  17.561 -0.3915 -0.4809  1.7289
  189MPD1    N1 2885   3.398   0.187  17.361 -0.4110  0.2951  0.0314
  189MPD1    H6 2886   3.498   0.193  17.376 -0.2385 -2.2298 -0.0385
  189MPD1    H7 2887   3.355   0.269  17.403 -0.7707  0.1664 -0.0839
  190MPD1     C 2888   0.962   3.742  15.763 -0.0004 -0.0215  1.1809
  190MPD1    C1 2889   1.014   3.683  15.872  0.5782  0.0143 -0.6362
  190MPD1    C2 2890   1.096   3.570  15.856  0.2269  0.0103 -0.4831
  190MPD1    C3 2891   1.104   3.508  15.726  0.2887  0.2604 -0.0577
  190MPD1    C4 2892   1.042   3.567  15.617  0.1478  0.7479  0.1776
  190MPD1    C5 2893   0.982   3.687  15.637 -0.1288  0.1088 -0.3323
  190MPD1     H 2894   1.135   3.521  15.944  0.2387 -0.7399 -0.9107
  190MPD1    H1 2895   1.044   3.528  15.516 -2.7211  0.7771  0.1046
  190MPD1    H2 2896   0.903   3.833  15.764  0.6193  0.3821  1.0005
  190MPD1    H3 2897   0.932   3.739  15.557 -3.6037 -0.8577  1.2359
  190MPD1     N 2898   1.181   3.386  15.719  0.5630 -0.1624 -0.0625
  190MPD1    H5 2899   1.198   3.338  15.807  1.9142  0.5944  0.0904
  190MPD1    N1 2900   1.004   3.742  15.999  0.5738  0.1866 -0.2131
  190MPD1    H6 2901   1.001   3.675  16.076  0.7564  0.9136  0.4226
  190MPD1    H7 2902   0.923   3.803  15.995  1.2443  1.0314 -1.0217
  191MPD1     C 2903   0.762   0.189  12.655  0.6879  0.4045 -0.0929
  191MPD1    C1 2904   0.889   0.166  12.607 -0.3477  1.5843  0.4389
  191MPD1    C2 2905   0.949   0.261  12.519  0.1784  0.1853 -0.3126
  191MPD1    C3 2906   0.879   0.380  12.487 -0.1895 -0.4184  0.0325
  191MPD1    C4 2907   0.755   0.390  12.540  0.0239 -0.0367  0.1677
  191MPD1    C5 2908   0.697   0.299  12.622 -0.4911 -0.1160 -0.3701
  191MPD1     H 2909   1.052   0.246  12.489  0.2182  1.4913 -0.8095
  191MPD1    H1 2910   0.681   0.469  12.534 -0.6128 -0.5660  1.1010
  191MPD1    H2 2911   0.723   0.125  12.734  1.4498 -1.2704 -1.0635
  191MPD1    H3 2912   0.600   0.315  12.669  0.8004 -0.4278  2.4235
  191MPD1     N 2913   0.937   0.491  12.419  0.2926  0.6287 -0.0221
  191MPD1    H5 2914   1.025   0.468  12.374  0.8483  0.1836  1.3052
  191MPD1    N1 2915   0.978   0.069  12.654 -0.0498 -0.6058 -0.3649
  191MPD1    H6 2916   1.057   0.051  12.592 -0.6145  0.1393 -1.3176
  191MPD1    H7 2917   0.942   4.702  12.695 -0.2711 -1.3074 -2.0272
  192MPD1     C 2918   0.884   1.431  12.637  0.5450 -1.0178 -0.1843
  192MPD1    C1 2919   0.964   1.417  12.527 -1.0948 -0.2047 -0.0667
  192MPD1    C2 2920   0.939   1.311  12.436 -0.5964  0.1004 -0.5019
  192MPD1    C3 2921   0.846   1.212  12.458  0.3945  0.3221 -0.0182
  192MPD1    C4 2922   0.770   1.221  12.576  0.2239  0.1612 -0.1026
  192MPD1    C5 2923   0.786   1.329  12.659 -0.4702 -0.2706 -0.0821
  192MPD1     H 2924   0.995   1.318  12.344  0.7076 -1.6470  0.1783
  192MPD1    H1 2925   0.705   1.138  12.603 -1.3228  1.6183  0.6395
  192MPD1    H2 2926   0.896   1.507  12.713  1.6294 -1.4012  0.0289
  192MPD1    H3 2927   0.733   1.337  12.753 -0.0404  2.0797 -0.0416
  192MPD1     N 2928   0.837   1.100  12.377  0.1499  0.7712  0.1970
  192MPD1    H5 2929   0.794   1.019  12.420  0.2686 -0.6697 -2.4262
  192MPD1    N1 2930   1.074   1.498  12.509 -0.0535 -0.0587  0.3499
  192MPD1    H6 2931   1.110   1.494  12.414  0.9499  0.5744  0.7049
  192MPD1    H7 2932   1.148   1.469  12.572 -0.0990 -0.7165  0.1112
  193MPD1     C 2933   0.439   0.310  17.096 -0.4350 -0.4045 -0.3033
  193MPD1    C1 2934   0.559   0.337  17.157 -0.5778 -0.1600  0.0319
  193MPD1    C2 2935   0.647   0.425  17.094 -0.2409  0.9658  0.4105
  193MPD1    C3 2936   0.603   0.509  16.999  0.1401  0.5014 -0.1914
  193MPD1    C4 2937   0.470   0.497  16.957 -1.0688  0.2770  0.5081
  193MPD1    C5 2938   0.385   0.405  17.012  0.4746  0.6647 -0.6685
  193MPD1     H 2939   0.748   0.430  17.135 -0.5228 -0.1456  1.2567
  193MPD1    H1 2940   0.423   0.549  16.875 -0.6640 -2.6089 -1.5695
  193MPD1    H2 2941   0.380   0.227  17.134 -0.7750 -0.5182 -1.0912
  193MPD1    H3 2942   0.281   0.389  16.988  0.3510 -0.9825  1.0113
  193MPD1     N 2943   0.679   0.603  16.933  0.2075  0.1230  0.2992
  193MPD1    H5 2944   0.637   0.653  16.854 -1.6412 -1.1578  0.4813
  193MPD1    N1 2945   0.603   0.254  17.259  0.5158 -0.0446 -0.7569
  193MPD1    H6 2946   0.540   0.211  17.327  0.6844 -1.8808 -1.7620
  193MPD1    H7 2947   0.688   0.288  17.302  0.9673 -1.6331 -0.4122
  194MPD1     C 2948   3.002   1.910   0.375 -0.4664  0.3172 -0.3607
  194MPD1    C1 2949   2.966   1.925   0.246  0.2036  0.2633 -0.2857
  194MPD1    C2 2950   3.061   1.918   0.149  0.6150 -0.1971 -0.0355
  194MPD1    C3 2951   3.195   1.933   0.186  0.7868 -0.6716 -0.4948
  194MPD1    C4 2952   3.229   1.922   0.315 -0.9350 -0.2041 -0.0147
  194MPD1    C5 2953   3.133   1.897   0.416  0.0658 -0.1921 -0.7410
  194MPD1     H 2954   3.037   1.908   0.044  0.9567  2.0502 -0.3390
  194MPD1    H1 2955   3.332   1.908   0.344  0.1229  0.9473 -3.2557
  194MPD1    H2 2956   2.925   1.903   0.450  1.0691  0.5677  1.2547
  194MPD1    H3 2957   3.153   1.890   0.522  1.0406 -1.5746 -1.0303
  194MPD1     N 2958   3.304   1.952   0.095  0.1452  0.0624  0.5065
  194MPD1    H5 2959   3.391   1.930   0.142  0.7720 -2.4373 -1.8416
  194MPD1    N1 2960   2.829   1.912   0.221  0.6051 -0.3728 -0.6812
  194MPD1    H6 2961   2.817   1.967   0.136  1.1590  0.5130 -0.1895
  194MPD1    H7 2962   2.786   1.967   0.295  3.5651 -0.0852  0.7969
  195MPD1     C 2963   0.646   3.949   1.571  0.4415  0.6113  0.3512
  195MPD1    C1 2964   0.508   3.953   1.536 -0.5387  0.1713 -0.7383
  195MPD1    C2 2965   0.453   3.885   1.431  0.0807 -0.5692 -0.1194
  195MPD1    C3 2966   0.536   3.786   1.370  0.1515  0.4138 -0.4776
  195MPD1    C4 2967   0.664   3.771   1.410 -0.3188 -0.6244  0.4453
  195MPD1    C5 2968   0.721   3.854   1.505  0.3528 -0.5821 -0.3415
  195MPD1     H 2969   0.346   3.901   1.416  0.0214 -0.4230  0.4718
  195MPD1    H1 2970   0.735   3.707   1.359 -0.2212 -2.2519  2.5955
  195MPD1    H2 2971   0.683   4.017   1.647 -0.0726  0.8008  0.4389
  195MPD1    H3 2972   0.824   3.839   1.533  0.0638 -3.8600 -1.0206
  195MPD1     N 2973   0.485   3.700   1.267 -0.6997 -0.2046  0.4475
  195MPD1    H5 2974   0.546   3.627   1.230 -0.8769 -0.1310  0.0173
  195MPD1    N1 2975   0.442   4.046   1.612  0.2350 -0.2158  0.3047
  195MPD1    H6 2976   0.342   4.031   1.614  0.1590  0.6870  3.0839
  195MPD1    H7 2977   0.485   4.055   1.704 -2.4108  0.1455  1.5009
  196MPD1     C 2978   4.522   3.673   1.139  0.2886  0.3598 -0.2508
  196MPD1    C1 2979   4.618   3.730   1.214  0.4357 -0.2673 -0.0679
  196MPD1    C2 2980   4.609   3.867   1.251  0.7318  0.9452 -0.6538
  196MPD1    C3 2981   4.502   3.946   1.215 -0.0157 -0.4378  0.2073
  196MPD1    C4 2982   4.395   3.888   1.151  0.2561 -0.3672 -0.3025
  196MPD1    C5 2983   4.413   3.757   1.107 -0.2055 -0.6944 -0.1214
  196MPD1     H 2984   4.686   3.904   1.317  0.5053 -1.6289  1.0649
  196MPD1    H1 2985   4.302   3.941   1.133  0.2442 -0.0228  0.7343
  196MPD1    H2 2986   4.538   3.574   1.098  1.2772  1.0012 -1.3906
  196MPD1    H3 2987   4.345   3.711   1.036 -2.4839 -0.4359  1.9057
  196MPD1     N 2988   4.483   4.084   1.251 -0.3342 -0.8003  0.1932
  196MPD1    H5 2989   4.395   4.128   1.225 -1.1444 -1.2604  2.1493
  196MPD1    N1 2990   0.009   3.650   1.266 -0.0642 -0.4031  0.0504
  196MPD1    H6 2991   0.095   3.705   1.263 -0.1748 -0.3816 -2.5057
  196MPD1    H7 2992   0.019   3.567   1.209  1.2325  1.2302 -2.0950
  197MPD1     C 2993   4.601   1.962   0.250  1.4061  0.2486  0.2615
  197MPD1    C1 2994   4.616   1.847   0.182  0.7784  0.4007  0.3154
  197MPD1    C2 2995   4.551   1.833   0.064 -0.5806  0.0050 -0.1024
  197MPD1    C3 2996   4.452   1.908   0.019 -0.1695  0.5790 -0.1299
  197MPD1    C4 2997   4.425   2.023   0.099  0.4840 -0.3318  0.6715
  197MPD1    C5 2998   4.501   2.046   0.206 -0.2446 -0.1977  0.1991
  197MPD1     H 2999   4.569   1.739   0.012  3.3402  1.5494 -1.5748
  197MPD1    H1 3000   4.349   2.096   0.073 -0.0223 -1.4738 -1.1191
  197MPD1    H2 3001   4.657   1.974   0.343  0.5670 -1.3305  0.9707
  197MPD1    H3 3002   4.486   2.139   0.260  0.1040 -0.2603  0.4061
  197MPD1     N 3003   4.374   1.876  17.578 -0.3013  0.5939  0.4723
  197MPD1    H5 3004   4.297   1.935  17.551  0.5166  0.1050 -2.9236
  197MPD1    N1 3005   4.712   1.758   0.231 -0.5302 -0.1780  0.3459
  197MPD1    H6 3006   4.711   1.669   0.182  1.5504 -0.0920  0.1346
  197MPD1    H7 3007   4.689   1.732   0.326 -1.6387 -0.3862  0.0234
  198MPD1     C 3008   0.505   0.159  15.812 -0.4238  0.0401 -0.1417
  198MPD1    C1 3009   0.620   0.197  15.752  0.7698  0.4905  0.0982
  198MPD1    C2 3010   0.739   0.190  15.823 -0.4609  0.6065 -0.3943
  198MPD1    C3 3011   0.747   0.150  15.952 -0.1262  1.0031  0.5671
  198MPD1    C4 3012   0.632   0.111  16.018  0.0631  0.7990  0.5447
  198MPD1    C5 3013   0.513   0.114  15.945 -0.2726  0.0912  0.6944
  198MPD1     H 3014   0.824   0.220  15.761 -2.4892  0.7821 -3.0960
  198MPD1    H1 3015   0.638   0.080  16.121  0.0305 -1.5716 -0.1551
  198MPD1    H2 3016   0.408   0.151  15.765 -0.9427  1.8352  0.6205
  198MPD1    H3 3017   0.420   0.078  15.988  0.6729 -1.1890  1.6520
  198MPD1     N 3018   0.874   0.137  16.008  0.0732 -0.1975  0.0923
  198MPD1    H5 3019   0.957   0.162  15.955  0.7014 -0.6624  0.8426
  198MPD1    N1 3020   0.623   0.210  15.616 -0.1017  0.1558 -0.1405
  198MPD1    H6 3021   0.709   0.250  15.581  0.6863 -0.2191  1.3802
  198MPD1    H7 3022   0.537   0.243  15.573  0.5187  1.5454 -0.3158
  199MPD1     C 3023   4.386   0.708   9.738 -0.0466  0.0588 -0.7289
  199MPD1    C1 3024   4.271   0.641   9.745  0.4551 -0.5043  0.0021
  199MPD1    C2 3025   4.169   0.679   9.659  0.0226 -0.1888  0.6348
  199MPD1    C3 3026   4.169   0.795   9.584 -0.0654 -0.1769  0.0013
  199MPD1    C4 3027   4.287   0.866   9.583  0.9099  0.4154 -0.3527
  199MPD1    C5 3028   4.397   0.812   9.653 -0.4326 -0.0912 -0.6213
  199MPD1     H 3029   4.073   0.629   9.662 -0.0523 -0.2121 -1.9483
  199MPD1    H1 3030   4.296   0.963   9.536 -0.8239  0.1497 -1.2222
  199MPD1    H2 3031   4.472   0.674   9.795  0.6459  0.0698 -1.7694
  199MPD1    H3 3032   4.491   0.867   9.650 -0.1815 -0.4469  0.9753
  199MPD1     N 3033   4.067   0.848   9.505  0.3193  0.1302 -0.0554
  199MPD1    H5 3034   4.087   0.925   9.442  0.0540 -0.5147 -0.9250
  199MPD1    N1 3035   4.262   0.522   9.812  0.4704 -1.1838 -0.1421
  199MPD1    H6 3036   4.318   0.523   9.897 -0.7746  0.1303  0.6506
  199MPD1    H7 3037   4.164   0.497   9.823  0.5439 -1.1229  0.6653
  200MPD1     C 3038   1.963   0.706  15.399  0.2023 -0.1362  0.9661
  200MPD1    C1 3039   1.884   0.691  15.287  0.0167 -0.3214 -0.0827
  200MPD1    C2 3040   1.939   0.701  15.163  0.1027  0.0214 -0.3221
  200MPD1    C3 3041   2.073   0.738  15.149 -0.1653 -0.0849  0.0315
  200MPD1    C4 3042   2.155   0.747  15.258  0.8458 -0.2257 -0.6401
  200MPD1    C5 3043   2.094   0.738  15.381 -0.2678 -0.6951  0.0187
  200MPD1     H 3044   1.886   0.679  15.071 -0.9186  0.1485  0.2398
  200MPD1    H1 3045   2.263   0.754  15.253  0.9636 -0.9723  0.8267
  200MPD1    H2 3046   1.924   0.681  15.497  2.9402  0.1857  2.1606
  200MPD1    H3 3047   2.167   0.739  15.461  0.5605  0.5667 -0.7600
  200MPD1     N 3048   2.128   0.745  15.027  0.0890 -0.1278 -0.3457
  200MPD1    H5 3049   2.078   0.703  14.949  1.1889  0.9661 -1.6518
  200MPD1    N1 3050   1.751   0.651  15.304  0.0510 -0.1537 -0.0630
  200MPD1    H6 3051   1.688   0.663  15.225 -1.1640  0.6369  1.0348
  200MPD1    H7 3052   1.705   0.683  15.389 -2.8936 -1.6358 -1.0886
  201MPD1     C 3053   4.220   0.272  13.118  0.1077  0.4455 -0.1224
  201MPD1    C1 3054   4.339   0.286  13.056  0.4746 -0.1692  0.0851
  201MPD1    C2 3055   4.427   0.177  13.058 -0.4390 -0.0766 -0.2337
  201MPD1    C3 3056   4.381   0.052  13.116  0.0850  0.5946  0.1683
  201MPD1    C4 3057   4.256   0.047  13.170  1.4169 -0.0725 -0.0589
  201MPD1    C5 3058   4.176   0.157  13.170 -0.0200  0.9223 -0.7772
  201MPD1     H 3059   4.524   0.189  13.012 -1.0517  0.2309 -1.4228
  201MPD1    H1 3060   4.216   4.671  13.203  0.4361 -0.5674 -2.6846
  201MPD1    H2 3061   4.158   0.358  13.137 -1.3040 -0.9535  1.6095
  201MPD1    H3 3062   4.078   0.155  13.216  0.0632 -0.0085 -0.6424
  201MPD1     N 3063   4.469   4.665  13.131 -0.4695 -0.0762  0.2382
  201MPD1    H5 3064   4.551   4.674  13.071 -0.4880  2.0244  0.5226
  201MPD1    N1 3065   4.398   0.414  13.051 -0.2966 -0.0495  0.2793
  201MPD1    H6 3066   4.331   0.489  13.036  1.1075  0.9051 -1.2340
  201MPD1    H7 3067   4.479   0.413  12.990  1.7398 -0.9850  2.9846
  202MPD1     C 3068   4.667   3.948   9.124  0.0175 -0.4871 -0.2519
  202MPD1    C1 3069   4.642   4.066   9.174  0.3890 -0.1918  0.5015
  202MPD1    C2 3070   4.714   4.106   9.287 -0.2465  0.4668  0.2486
  202MPD1    C3 3071   0.097   4.023   9.341 -0.3119  1.1167  0.3793
  202MPD1    C4 3072   0.123   3.900   9.284 -0.4121  0.7425  0.1763
  202MPD1    C5 3073   0.046   3.864   9.176 -0.5533  0.2822  0.3600
  202MPD1     H 3074   4.677   4.197   9.332  0.6418 -0.3046  2.5769
  202MPD1    H1 3075   0.215   3.847   9.306 -1.7856 -1.5895  0.2504
  202MPD1    H2 3076   4.610   3.911   9.039 -0.0839 -0.9198 -0.0003
  202MPD1    H3 3077   0.074   3.769   9.131 -0.2089  0.1161  0.9208
  202MPD1     N 3078   0.170   4.065   9.449  0.3260  0.3674 -0.2322
  202MPD1    H5 3079   0.232   3.996   9.489  0.2698  1.3837  1.6489
  202MPD1    N1 3080   4.512   4.114   9.138 -0.3721 -0.6133 -0.1406
  202MPD1    H6 3081   4.509   4.215   9.150  0.6910 -0.8968  2.7096
  202MPD1    H7 3082   4.484   4.091   9.043  0.2474  1.2229 -0.7735
  203MPD1     C 3083   3.244   0.138  11.620  0.2610 -0.0333 -0.1064
  203MPD1    C1 3084   3.376   0.095  11.621 -0.5165 -0.9827 -0.3063
  203MPD1    C2 3085   3.453   0.109  11.734 -0.0450 -0.2887  0.0294
  203MPD1    C3 3086   3.399   0.155  11.851  0.4006  0.0141  0.0781
  203MPD1    C4 3087   3.264   0.192  11.852  0.1718  0.3250  0.1955
  203MPD1    C5 3088   3.191   0.183  11.737 -0.3245  0.1117 -0.7985
  203MPD1     H 3089   3.553   0.066  11.731  0.0843  0.0606 -0.6918
  203MPD1    H1 3090   3.214   0.209  11.947  2.0880  2.4722  0.8435
  203MPD1    H2 3091   3.176   0.125  11.536 -2.5220 -0.4334  2.2064
  203MPD1    H3 3092   3.085   0.203  11.736 -0.2212  0.6823  0.6685
  203MPD1     N 3093   3.482   0.143  11.967  0.0620 -0.4753  0.0791
  203MPD1    H5 3094   3.575   0.104  11.951  0.3430 -0.4802  1.7494
  203MPD1    N1 3095   3.434   0.066  11.496 -0.8125 -0.1278 -0.3294
  203MPD1    H6 3096   3.522   0.015  11.505  0.3256  1.5232 -2.2065
  203MPD1    H7 3097   3.369   0.016  11.435 -0.0118 -1.3293 -0.2003
  204MPD1     C 3098   1.941   0.875  16.748  0.5316 -0.4287 -0.6060
  204MPD1    C1 3099   2.056   0.943  16.715 -0.4014  0.6221  0.4464
  204MPD1    C2 3100   2.179   0.901  16.766  0.5145  0.5096  0.6650
  204MPD1    C3 3101   2.182   0.812  16.870 -0.0830  1.0267  0.0493
  204MPD1    C4 3102   2.061   0.752  16.910  0.1284 -0.5034  0.7586
  204MPD1    C5 3103   1.941   0.784  16.850 -0.1709  0.0358  0.6402
  204MPD1     H 3104   2.266   0.944  16.718  0.0491 -0.3174 -0.9170
  204MPD1    H1 3105   2.059   0.671  16.982 -0.1937  1.0264  2.4900
  204MPD1    H2 3106   1.847   0.918  16.714  2.6547  3.3614 -1.7271
  204MPD1    H3 3107   1.849   0.735  16.878 -0.2487 -2.6961 -4.3610
  204MPD1     N 3108   2.310   0.778  16.930  0.0705  0.6268 -0.0733
  204MPD1    H5 3109   2.393   0.823  16.891 -1.8364  3.0286 -1.3425
  204MPD1    N1 3110   2.063   1.038  16.612 -0.2113  0.8492 -0.6573
  204MPD1    H6 3111   2.141   1.101  16.633  0.2423 -0.5550  1.8612
  204MPD1    H7 3112   1.976   1.090  16.619 -0.5668  0.0898  0.5381
  205MPD1     C 3113   3.692   0.060  16.870 -0.5481  0.7889  0.3936
  205MPD1    C1 3114   3.620   4.689  16.802 -0.7540  0.1509  0.6350
  205MPD1    C2 3115   3.517   4.631  16.876  0.6055 -0.6414  0.2080
  205MPD1    C3 3116   3.484   4.669  17.004 -0.3554 -0.2001 -0.0163
  205MPD1    C4 3117   3.553   0.053  17.064 -0.1379  0.4900 -0.0928
  205MPD1    C5 3118   3.657   0.107  16.989 -0.1144 -0.6971 -0.0351
  205MPD1     H 3119   3.463   4.547  16.834  0.2440 -0.6623  0.7260
  205MPD1    H1 3120   3.535   0.092  17.163 -0.7391 -0.0693  0.0235
  205MPD1    H2 3121   3.775   0.108  16.818  1.3186 -1.2041  1.5483
  205MPD1    H3 3122   3.714   0.190  17.030  0.7366 -0.9066 -0.7851
  205MPD1     N 3123   3.379   4.610  17.080 -0.5291 -0.1708 -0.1279
  205MPD1    H5 3124   3.354   4.649  17.170  1.3777  0.2617  0.2253
  205MPD1    N1 3125   3.673   4.640  16.682 -0.1866  0.5814  0.7050
  205MPD1    H6 3126   3.596   4.593  16.633  0.3975  1.9272 -1.5101
  205MPD1    H7 3127   3.684   0.002  16.620 -1.2552  0.8661  0.8835
  206MPD1     C 3128   2.700   2.812  16.402 -0.3025  0.5596 -0.7190
  206MPD1    C1 3129   2.637   2.870  16.290 -0.3677  0.1511 -0.2157
  206MPD1    C2 3130   2.676   2.827  16.160  0.1557 -0.0547 -0.2642
  206MPD1    C3 3131   2.783   2.737  16.142 -0.3343 -0.1951  0.2595
  206MPD1    C4 3132   2.836   2.684  16.255  0.5001 -0.4479  0.2141
  206MPD1    C5 3133   2.790   2.714  16.383 -0.6448 -0.0336  0.2447
  206MPD1     H 3134   2.622   2.866  16.075 -0.0840 -0.7128 -0.4159
  206MPD1    H1 3135   2.921   2.618  16.245  3.1429  3.1458 -1.1849
  206MPD1    H2 3136   2.667   2.834  16.503  0.4676 -0.9212 -0.1513
  206MPD1    H3 3137   2.841   2.675  16.471 -0.5270  2.0364  1.0910
  206MPD1     N 3138   2.827   2.692  16.014 -0.6915 -0.5237 -0.2962
  206MPD1    H5 3139   2.895   2.617  16.012 -0.8325 -0.6398 -0.6675
  206MPD1    N1 3140   2.525   2.951  16.314  0.6803  0.5459 -0.0940
  206MPD1    H6 3141   2.505   2.999  16.227 -1.6611 -1.3717 -0.6170
  206MPD1    H7 3142   2.542   3.019  16.387  0.4143  0.2227  0.2700
  207MPD1     C 3143   1.556   1.004   9.695  0.1343 -0.1394 -0.1972
  207MPD1    C1 3144   1.460   0.925   9.760  0.5625 -0.8205  0.4553
  207MPD1    C2 3145   1.508   0.830   9.848  0.4629 -0.1973 -0.0556
  207MPD1    C3 3146   1.645   0.815   9.885  0.6803 -0.5827  0.7400
  207MPD1    C4 3147   1.732   0.894   9.817  0.3470  0.0987  0.7572
  207MPD1    C5 3148   1.684   0.996   9.732 -0.2825 -0.4537  0.3140
  207MPD1     H 3149   1.429   0.772   9.894 -1.1675 -0.3564 -3.0702
  207MPD1    H1 3150   1.836   0.903   9.846  0.7454  1.6742 -1.2083
  207MPD1    H2 3151   1.532   1.065   9.609 -0.5161 -0.7027 -0.4077
  207MPD1    H3 3152   1.760   1.061   9.689  0.8920 -0.6537  2.0966
  207MPD1     N 3153   1.684   0.719   9.976  0.2769  0.1327 -0.0174
  207MPD1    H5 3154   1.785   0.716   9.989 -0.0361 -3.0497  1.5582
  207MPD1    N1 3155   1.332   0.919   9.708 -0.4479  0.4657 -0.1963
  207MPD1    H6 3156   1.290   1.008   9.681 -1.7168 -0.6341 -1.8277
  207MPD1    H7 3157   1.273   0.875   9.778 -0.3825  2.3021  1.0076
  208MPD1     C 3158   3.932   4.534   0.584  0.3285  0.3262 -0.2933
  208MPD1    C1 3159   3.881   4.454   0.482  0.0048 -0.9322 -0.8613
  208MPD1    C2 3160   3.748   4.434   0.475 -0.4667  0.3838  0.1713
  208MPD1    C3 3161   3.659   4.502   0.557 -0.1543 -0.0460  0.3004
  208MPD1    C4 3162   3.706   4.595   0.652 -0.3342 -0.2712  0.7524
  208MPD1    C5 3163   3.845   4.601   0.664  0.0868 -0.2144 -0.3174
  208MPD1     H 3164   3.714   4.368   0.397 -1.3054  1.9235 -0.7603
  208MPD1    H1 3165   3.640   4.649   0.718  0.1248  0.1146  0.8992
  208MPD1    H2 3166   4.036   4.556   0.606 -0.1909  0.6424  1.8379
  208MPD1    H3 3167   3.883   4.663   0.744 -1.0711  1.1249 -0.8040
  208MPD1     N 3168   3.519   4.478   0.544 -0.0768 -0.0381  0.6859
  208MPD1    H5 3169   3.484   4.412   0.476 -1.5176  1.1764  0.2512
  208MPD1    N1 3170   3.965   4.367   0.405  0.3483 -0.2459  0.1152
  208MPD1    H6 3171   3.926   4.322   0.323 -0.1284  2.2574 -1.0044
  208MPD1    H7 3172   4.060   4.398   0.385  0.2352 -0.5785 -0.9179
  209MPD1     C 3173   1.742   3.836  10.578  0.4018  0.2227 -0.0222
  209MPD1    C1 3174   1.665   3.934  10.518  0.8192  0.3827 -0.5229
  209MPD1    C2 3175   1.651   4.052  10.593  0.0087 -0.6544 -0.2269
  209MPD1    C3 3176   1.717   4.071  10.714 -0.0275  0.3524  0.0471
  209MPD1    C4 3177   1.788   3.973  10.768  0.3854  0.5393 -0.6601
  209MPD1    C5 3178   1.795   3.849  10.705  0.1852  0.0149 -0.9173
  209MPD1     H 3179   1.593   4.137  10.557  0.6414  0.5645  1.6160
  209MPD1    H1 3180   1.831   3.973  10.867  1.8074 -3.1072 -1.2454
  209MPD1    H2 3181   1.743   3.738  10.532 -1.0014  0.1138  0.1975
  209MPD1    H3 3182   1.849   3.762  10.742  0.3105  0.1003 -0.8987
  209MPD1     N 3183   1.714   4.195  10.776 -0.2924 -0.5988 -0.6177
  209MPD1    H5 3184   1.669   4.271  10.726 -1.2745 -0.3361  0.6759
  209MPD1    N1 3185   1.594   3.908  10.404  0.0291 -0.0630  0.1072
  209MPD1    H6 3186   1.631   3.849  10.330 -2.0806 -0.7640 -0.4125
  209MPD1    H7 3187   1.563   3.993  10.356 -0.8009 -1.6085 -2.0870
  210MPD1     C 3188   2.026   0.191  11.558  1.1419 -0.0415 -0.3972
  210MPD1    C1 3189   1.977   0.062  11.580  0.0962  0.0987  0.4012
  210MPD1    C2 3190   1.937   4.707  11.474 -0.2480  0.3397  0.0487
  210MPD1    C3 3191   1.926   0.044  11.343 -0.4555  0.3049  0.0874
  210MPD1    C4 3192   1.976   0.175  11.324  0.0122  1.0403 -0.1545
  210MPD1    C5 3193   2.031   0.241  11.427 -0.6051  0.2367  0.6975
  210MPD1     H 3194   1.912   4.605  11.502 -0.0511  0.4253  0.5408
  210MPD1    H1 3195   1.980   0.227  11.229  1.0776  0.0006 -0.6683
  210MPD1    H2 3196   2.063   0.257  11.636 -2.3406 -0.1152  1.2963
  210MPD1    H3 3197   2.060   0.345  11.419  0.2403 -0.1056 -0.6593
  210MPD1     N 3198   1.882   4.697  11.224 -0.2294 -0.0870 -0.3270
  210MPD1    H5 3199   1.903   0.026  11.136 -1.5286 -0.8672 -1.0505
  210MPD1    N1 3200   2.005   0.011  11.702 -0.2447  0.4566 -0.1700
  210MPD1    H6 3201   1.951   4.646  11.726  3.0033 -1.9827 -1.3586
  210MPD1    H7 3202   1.981   0.082  11.770  2.2197 -0.2704  1.4714
  211MPD1     C 3203   3.582   3.966  15.818 -0.3222 -0.1335 -0.2212
  211MPD1    C1 3204   3.473   3.895  15.843  0.7667 -0.1640 -0.1934
  211MPD1    C2 3205   3.383   3.946  15.937 -0.4227 -0.0691 -0.0508
  211MPD1    C3 3206   3.409   4.065  16.001  0.6258 -0.2376 -0.7374
  211MPD1    C4 3207   3.517   4.146  15.967  0.1797  1.0048 -0.4418
  211MPD1    C5 3208   3.605   4.092  15.873 -0.2048  0.7926  0.4894
  211MPD1     H 3209   3.291   3.896  15.964  1.8680 -3.1303  2.0066
  211MPD1    H1 3210   3.537   4.242  16.013  0.3049  0.9667 -0.4193
  211MPD1    H2 3211   3.651   3.930  15.743  0.1037 -0.3075  0.2528
  211MPD1    H3 3212   3.679   4.163  15.838 -0.8761  0.7781 -0.9487
  211MPD1     N 3213   3.309   4.109  16.095 -0.1879 -0.1384  0.8244
  211MPD1    H5 3214   3.228   4.049  16.110 -0.6080  0.5476  1.3171
  211MPD1    N1 3215   3.451   3.767  15.788  0.2140 -0.1356  0.4123
  211MPD1    H6 3216   3.512   3.742  15.711  1.6722  2.7665  0.6408
  211MPD1    H7 3217   3.358   3.725  15.781 -0.2811  0.6910  2.0015
  212MPD1     C 3218   2.137   3.325  16.426 -0.5134 -0.3856  0.3355
  212MPD1    C1 3219   2.251   3.248  16.451 -1.0049  0.8350 -0.1250
  212MPD1    C2 3220   2.232   3.142  16.545  0.5029 -0.0994  0.4544
  212MPD1    C3 3221   2.109   3.121  16.606  0.0910  0.1901  0.1251
  212MPD1    C4 3222   2.000   3.207  16.590 -0.1012 -0.7573 -0.2131
  212MPD1    C5 3223   2.022   3.303  16.500  0.4459  0.3601  0.2625
  212MPD1     H 3224   2.310   3.068  16.555  1.4023  0.7301 -0.3262
  212MPD1    H1 3225   1.909   3.189  16.646 -1.6028  2.4397 -1.6180
  212MPD1    H2 3226   2.138   3.389  16.338  1.0363 -1.7824 -0.6627
  212MPD1    H3 3227   1.931   3.358  16.480  0.4554 -0.2473 -1.4610
  212MPD1     N 3228   2.074   3.000  16.679  0.5846  0.1307  0.1640
  212MPD1    H5 3229   1.982   3.001  16.722  0.7698 -1.7438  0.6120
  212MPD1    N1 3230   2.362   3.261  16.371 -0.1346 -0.1375  0.0102
  212MPD1    H6 3231   2.378   3.356  16.339 -1.8759 -0.1497 -0.8878
  212MPD1    H7 3232   2.448   3.239  16.421 -1.1634 -1.9623  0.9612
  213MPD1     C 3233   0.725   4.051  16.208 -0.8251 -0.5285  0.1464
  213MPD1    C1 3234   0.683   3.923  16.202  0.6127  0.2096 -0.9710
  213MPD1    C2 3235   0.631   3.890  16.077  0.0894  0.7084  0.4016
  213MPD1    C3 3236   0.662   3.962  15.961  0.5744  0.6108 -0.0673
  213MPD1    C4 3237   0.742   4.079  15.972 -1.0960 -0.2890 -0.2654
  213MPD1    C5 3238   0.786   4.109  16.098 -0.1238 -0.5674 -0.4029
  213MPD1     H 3239   0.576   3.798  16.061  0.4888  0.5175  0.1106
  213MPD1    H1 3240   0.780   4.135  15.888  0.9940 -3.2400 -1.2990
  213MPD1    H2 3241   0.747   4.099  16.302 -2.4352 -0.3366  0.4118
  213MPD1    H3 3242   0.853   4.194  16.104  0.2070 -1.0724  3.0197
  213MPD1     N 3243   0.621   3.913  15.838 -0.2613 -0.6251  0.0342
  213MPD1    H5 3244   0.542   3.849  15.838 -0.2522 -0.6349 -0.3010
  213MPD1    N1 3245   0.618   3.874  16.320 -1.1458  0.0317 -0.2188
  213MPD1    H6 3246   0.661   3.896  16.409  0.5521  2.2645 -1.6079
  213MPD1    H7 3247   0.603   3.773  16.325 -1.3723  0.0804  0.1230
  214MPD1     C 3248   0.227   3.237  15.883 -0.1019 -0.0311  0.0458
  214MPD1    C1 3249   0.267   3.216  15.756  0.1151  0.1956  0.8363
  214MPD1    C2 3250   0.320   3.326  15.694 -0.3991 -0.0355  0.0579
  214MPD1    C3 3251   0.310   3.454  15.753  0.2110  0.4645 -0.4518
  214MPD1    C4 3252   0.258   3.470  15.874 -0.1926 -0.1787  0.0984
  214MPD1    C5 3253   0.214   3.360  15.937 -0.9359 -0.2960 -0.4410
  214MPD1     H 3254   0.370   3.296  15.603 -0.4085 -0.1883  0.1028
  214MPD1    H1 3255   0.252   3.569  15.919 -1.9753  0.3804 -1.3403
  214MPD1    H2 3256   0.200   3.160  15.954 -3.7565  0.6086 -0.6667
  214MPD1    H3 3257   0.170   3.375  16.035 -0.5817  2.4113 -0.7002
  214MPD1     N 3258   0.355   3.576  15.693  0.2200  0.0577  0.0090
  214MPD1    H5 3259   0.354   3.660  15.750  1.0622 -0.6865  1.0993
  214MPD1    N1 3260   0.290   3.082  15.720  0.4669 -0.2611  0.0640
  214MPD1    H6 3261   0.277   3.079  15.619  0.9806 -0.2826 -0.0029
  214MPD1    H7 3262   0.213   3.028  15.755 -0.0257  0.9462  0.8472
  215MPD1     C 3263   0.725   0.252  10.690 -0.3658  0.3653  0.2262
  215MPD1    C1 3264   0.745   0.221  10.824  0.4209 -0.6616 -0.5327
  215MPD1    C2 3265   0.873   0.260  10.865  0.3337  0.0412 -0.1052
  215MPD1    C3 3266   0.978   0.292  10.779 -0.8501  0.1416 -0.7430
  215MPD1    C4 3267   0.949   0.302  10.644 -0.2925  0.1436 -0.5526
  215MPD1    C5 3268   0.821   0.288  10.597  0.2068  0.6080  0.0764
  215MPD1     H 3269   0.899   0.258  10.970  0.2481 -1.7661 -0.1044
  215MPD1    H1 3270   1.031   0.319  10.574  0.4675 -1.4054 -0.0440
  215MPD1    H2 3271   0.627   0.246  10.646  0.0633 -0.9487 -0.5459
  215MPD1    H3 3272   0.804   0.312  10.493  2.7105 -0.2559 -0.5272
  215MPD1     N 3273   1.110   0.321  10.832 -0.0223 -0.2381  0.2335
  215MPD1    H5 3274   1.128   0.309  10.931  0.0159  2.6454  0.5825
  215MPD1    N1 3275   0.637   0.205  10.915 -0.0950  0.1058  0.2982
  215MPD1    H6 3276   0.555   0.157  10.877 -0.8818  1.6998  0.0177
  215MPD1    H7 3277   0.671   0.151  10.995 -0.2747 -3.0339 -1.7393
  216MPD1     C 3278   2.073   1.274   0.526  0.2570  1.1220  0.1782
  216MPD1    C1 3279   2.120   1.259   0.396 -0.6870  0.0588  1.2928
  216MPD1    C2 3280   2.244   1.308   0.373 -0.6325 -0.4189 -0.1192
  216MPD1    C3 3281   2.320   1.358   0.479  0.1868  0.8257  0.3508
  216MPD1    C4 3282   2.278   1.367   0.611 -0.0978  0.2687 -0.4824
  216MPD1    C5 3283   2.148   1.325   0.626  0.4899  0.2063  0.1123
  216MPD1     H 3284   2.292   1.299   0.276  1.4036  0.0699  0.8249
  216MPD1    H1 3285   2.348   1.380   0.692 -0.5439  0.8088 -0.1838
  216MPD1    H2 3286   1.971   1.247   0.550  0.0772  2.1635  0.5803
  216MPD1    H3 3287   2.107   1.328   0.726  3.2051  0.2917  1.2232
  216MPD1     N 3288   2.441   1.400   0.432  0.2833 -0.3039  0.1117
  216MPD1    H5 3289   2.466   1.389   0.335 -0.1678  1.2185 -0.1821
  216MPD1    N1 3290   2.027   1.234   0.289  0.0347 -1.0632 -0.3592
  216MPD1    H6 3291   1.958   1.164   0.313 -1.9549  1.3639  0.9616
  216MPD1    H7 3292   2.069   1.210   0.200  1.4256 -3.1562  0.8449
  217MPD1     C 3293   2.831   3.662   8.873  0.2775 -0.6637 -0.0143
  217MPD1    C1 3294   2.951   3.592   8.851  0.4447 -0.1899  0.3923
  217MPD1    C2 3295   3.068   3.653   8.863 -0.3363 -0.1405  0.2546
  217MPD1    C3 3296   3.080   3.782   8.909  0.3252  0.2840 -0.9047
  217MPD1    C4 3297   2.963   3.852   8.935  0.5760  0.4510 -0.2181
  217MPD1    C5 3298   2.836   3.798   8.916  0.2115 -0.1823 -0.3970
  217MPD1     H 3299   3.155   3.587   8.863 -1.7319 -1.9760  0.2672
  217MPD1    H1 3300   2.964   3.947   8.986 -0.0993  0.2285  0.2026
  217MPD1    H2 3301   2.733   3.620   8.856 -0.0583  0.2058 -0.2383
  217MPD1    H3 3302   2.748   3.849   8.953 -0.3471 -1.6893  0.3587
  217MPD1     N 3303   3.199   3.846   8.957 -0.5627 -0.0207 -0.0873
  217MPD1    H5 3304   3.191   3.937   9.001  1.4382  0.1792 -0.1142
  217MPD1    N1 3305   2.947   3.465   8.793  0.2336  0.1586 -0.0283
  217MPD1    H6 3306   2.867   3.414   8.829  1.4437  0.1360  2.6164
  217MPD1    H7 3307   3.036   3.415   8.800 -0.1291 -0.5189 -0.2951
  218MPD1     C 3308   0.153   4.502  12.224  0.6413  0.6173 -0.2162
  218MPD1    C1 3309   0.264   4.422  12.216 -0.5726  0.7473  0.3957
  218MPD1    C2 3310   0.390   4.478  12.232  0.8655 -0.4206 -0.1015
  218MPD1    C3 3311   0.400   4.614  12.269 -0.4770  0.0084  0.5463
  218MPD1    C4 3312   0.283   4.681  12.292 -0.0660  0.2548  0.7737
  218MPD1    C5 3313   0.160   4.630  12.275 -0.4931 -0.0072 -0.1597
  218MPD1     H 3314   0.485   4.428  12.221 -0.2294 -2.6783  0.8743
  218MPD1    H1 3315   0.284   0.066  12.326 -0.4763  1.0976 -1.7393
  218MPD1    H2 3316   0.057   4.461  12.195  1.4669 -0.3799 -1.5240
  218MPD1    H3 3317   0.066   4.683  12.290 -0.7126 -0.0603 -1.3577
  218MPD1     N 3318   0.534   4.672  12.281  0.1575  0.2439 -0.2277
  218MPD1    H5 3319   0.620   4.619  12.269 -0.6632 -0.9031 -1.1178
  218MPD1    N1 3320   0.260   4.296  12.144  0.2991 -0.0443 -0.6896
  218MPD1    H6 3321   0.175   4.241  12.152  1.0165 -0.7819  1.6660
  218MPD1    H7 3322   0.341   4.236  12.156  0.6614  0.5146 -0.3465
  219MPD1     C 3323   0.838   0.434  11.570 -0.5383  1.0871 -0.3183
  219MPD1    C1 3324   0.897   0.504  11.678 -0.1332 -0.2491  0.0013
  219MPD1    C2 3325   0.895   0.445  11.801  0.4359  0.9895 -0.4314
  219MPD1    C3 3326   0.842   0.316  11.823 -1.1951 -0.1640  0.9420
  219MPD1    C4 3327   0.785   0.252  11.717  0.2328 -0.0607  0.1168
  219MPD1    C5 3328   0.784   0.308  11.593 -0.9264  0.0083 -0.1803
  219MPD1     H 3329   0.940   0.492  11.887  0.1454 -0.4356  0.5045
  219MPD1    H1 3330   0.747   0.151  11.712 -1.5465  0.5963  0.4834
  219MPD1    H2 3331   0.846   0.488  11.476  0.2983 -1.3095 -1.6209
  219MPD1    H3 3332   0.739   0.240  11.522  0.3033 -1.6489  0.6432
  219MPD1     N 3333   0.844   0.244  11.943  0.5902  0.0025 -0.6436
  219MPD1    H5 3334   0.784   0.162  11.948  1.1539 -0.4288 -0.9358
  219MPD1    N1 3335   0.933   0.636  11.670  0.2272 -0.2918 -0.2111
  219MPD1    H6 3336   0.964   0.661  11.577  2.7475  1.2244  1.0525
  219MPD1    H7 3337   0.994   0.670  11.744 -3.1528  0.8317  2.0548
  220MPD1     C 3338   1.672   1.770   9.755  0.8406  0.2954 -0.3726
  220MPD1    C1 3339   1.718   1.754   9.882 -0.0968  0.1855 -0.1747
  220MPD1    C2 3340   1.661   1.651   9.955 -0.0145 -0.6054 -0.2289
  220MPD1    C3 3341   1.577   1.562   9.897  0.0951  0.3612 -0.5000
  220MPD1    C4 3342   1.532   1.573   9.771 -0.3129  0.2843  0.2766
  220MPD1    C5 3343   1.579   1.680   9.696 -0.0547  0.3737  0.2563
  220MPD1     H 3344   1.683   1.645  10.061  1.1727 -1.2780 -0.5116
  220MPD1    H1 3345   1.448   1.524   9.723 -1.3781 -1.4786  3.9277
  220MPD1    H2 3346   1.716   1.836   9.682 -1.7104  0.2403 -1.9710
  220MPD1    H3 3347   1.543   1.702   9.596 -0.7467 -0.0748  0.4078
  220MPD1     N 3348   1.546   1.445   9.972 -0.3538  0.1782  0.2828
  220MPD1    H5 3349   1.601   1.445  10.058 -0.6122  1.7956  0.4627
  220MPD1    N1 3350   1.797   1.849   9.943  0.1444  0.6486  0.2537
  220MPD1    H6 3351   1.870   1.875   9.877 -0.5290  0.5400 -0.5394
  220MPD1    H7 3352   1.843   1.798  10.018 -2.0605  0.6401  1.5958
  221MPD1     C 3353   3.100   3.157  16.847  0.0680  0.2707  0.3549
  221MPD1    C1 3354   3.150   3.178  16.715  0.7482 -0.2639  0.2535
  221MPD1    C2 3355   3.091   3.275  16.636 -0.6415  0.6436 -0.0008
  221MPD1    C3 3356   3.002   3.363  16.692  0.3077 -0.5911 -0.6214
  221MPD1    C4 3357   2.961   3.347  16.820  0.4066 -0.3128 -0.6752
  221MPD1    C5 3358   3.014   3.250  16.902 -0.2635 -0.0730 -0.0727
  221MPD1     H 3359   3.118   3.277  16.531  0.2256  0.6513  0.2189
  221MPD1    H1 3360   2.887   3.410  16.867 -0.5264 -1.3630 -0.7329
  221MPD1    H2 3361   3.123   3.065  16.899  2.0162  1.1677  1.0920
  221MPD1    H3 3362   2.980   3.242  17.005  0.7488 -2.6086  0.0789
  221MPD1     N 3363   2.930   3.463  16.615 -0.1067 -0.3109 -0.8220
  221MPD1    H5 3364   2.863   3.515  16.671  1.3936  1.3651 -0.5607
  221MPD1    N1 3365   3.221   3.079  16.649  0.1233 -0.2636 -0.2190
  221MPD1    H6 3366   3.292   3.123  16.590  1.1735  1.5381  2.3653
  221MPD1    H7 3367   3.277   3.030  16.719  0.3310 -0.1811 -0.3285
  222MPD1     C 3368   2.797   3.530   1.818  0.1912 -0.4256 -0.1506
  222MPD1    C1 3369   2.698   3.438   1.820  0.0350 -0.0661  0.6433
  222MPD1    C2 3370   2.612   3.437   1.717 -0.3780 -0.3389  0.0143
  222MPD1    C3 3371   2.611   3.532   1.607  0.2624  0.4256  0.1400
  222MPD1    C4 3372   2.700   3.639   1.626 -0.6669  0.1848  0.1263
  222MPD1    C5 3373   2.794   3.637   1.729 -0.3353 -0.6686 -0.7341
  222MPD1     H 3374   2.536   3.360   1.720  0.4757 -1.1079  1.7082
  222MPD1    H1 3375   2.685   3.716   1.552 -2.2159 -0.5703 -0.3531
  222MPD1    H2 3376   2.866   3.530   1.902  0.6321 -1.1002 -0.5103
  222MPD1    H3 3377   2.874   3.710   1.737 -0.2173 -0.9541  0.7997
  222MPD1     N 3378   2.529   3.531   1.498  0.4272  0.2336  0.0321
  222MPD1    H5 3379   2.545   3.608   1.433 -1.4327 -0.7458 -1.6125
  222MPD1    N1 3380   2.698   3.335   1.927 -0.1101 -0.2163  0.9772
  222MPD1    H6 3381   2.721   3.382   2.014  0.9606  1.6410 -0.3011
  222MPD1    H7 3382   2.611   3.284   1.937  0.0725 -0.2952  2.1854
  223MPD1     C 3383   1.765   2.910   1.331 -0.1033  0.2060 -0.2996
  223MPD1    C1 3384   1.866   2.913   1.424  0.1953  0.3409 -0.1358
  223MPD1    C2 3385   1.947   3.019   1.427  0.1157  0.5230 -0.5195
  223MPD1    C3 3386   1.925   3.134   1.348  0.9052  0.2447  0.0492
  223MPD1    C4 3387   1.815   3.135   1.263  0.7859  0.6027 -0.4290
  223MPD1    C5 3388   1.739   3.019   1.252  0.2998  0.0013  0.1752
  223MPD1     H 3389   2.040   3.010   1.482 -1.0350  0.8188  1.4815
  223MPD1    H1 3390   1.800   3.214   1.191  0.9076  0.4992 -0.5690
  223MPD1    H2 3391   1.712   2.817   1.312 -1.4695  1.1825 -1.2725
  223MPD1    H3 3392   1.655   3.028   1.184  0.1563 -1.9371  0.0973
  223MPD1     N 3393   2.026   3.234   1.344  0.6170  0.6164  0.0786
  223MPD1    H5 3394   2.113   3.223   1.394 -0.5304  1.2794  2.2047
  223MPD1    N1 3395   1.907   2.796   1.490 -0.1272  0.4094  0.0748
  223MPD1    H6 3396   1.831   2.729   1.504 -0.9758  1.4465  0.4465
  223MPD1    H7 3397   1.951   2.812   1.580 -1.6389 -0.5727  0.9961
  224MPD1     C 3398   4.694   0.329   9.103  0.4444  0.7339 -0.8745
  224MPD1    C1 3399   0.059   0.242   9.170 -0.0810  0.4246 -0.0283
  224MPD1    C2 3400   0.004   0.174   9.277  0.1245  0.3089  0.0147
  224MPD1    C3 3401   4.589   0.179   9.309 -0.3802 -0.3097  0.0442
  224MPD1    C4 3402   4.506   0.254   9.230 -0.2121  0.0080  0.2850
  224MPD1    C5 3403   4.564   0.333   9.135 -0.9153  0.6637  0.4591
  224MPD1     H 3404   0.066   0.114   9.342 -0.2328  1.6213  1.5618
  224MPD1    H1 3405   4.399   0.242   9.240  0.0391 -2.2620  0.2407
  224MPD1    H2 3406   0.009   0.393   9.022  0.0942  0.0613 -1.5520
  224MPD1    H3 3407   4.500   0.403   9.081 -2.3375 -2.3130 -1.6702
  224MPD1     N 3408   4.534   0.085   9.397  0.4358 -0.2668  0.0498
  224MPD1    H5 3409   4.435   0.091   9.417 -0.2890 -0.5026 -3.4079
  224MPD1    N1 3410   0.198   0.254   9.161 -0.1886 -0.1488  0.4531
  224MPD1    H6 3411   0.234   0.166   9.197  0.2104 -0.1278  0.1100
  224MPD1    H7 3412   0.235   0.260   9.066  1.9080 -0.1636  1.2584
  225MPD1     C 3413   0.428   1.522  12.817  0.2924  0.3823 -0.6877
  225MPD1    C1 3414   0.374   1.510  12.688  0.6437  0.1675 -0.4472
  225MPD1    C2 3415   0.446   1.562  12.579 -0.4368 -0.5513  0.0528
  225MPD1    C3 3416   0.559   1.633  12.605 -0.5431  0.4757  0.1249
  225MPD1    C4 3417   0.616   1.640  12.729 -0.3293  0.5516 -0.7689
  225MPD1    C5 3418   0.548   1.588  12.832  0.0188 -0.3646 -0.1829
  225MPD1     H 3419   0.404   1.550  12.480  1.2936  1.0649 -0.8773
  225MPD1    H1 3420   0.707   1.697  12.746 -0.8873  1.3820 -0.5886
  225MPD1    H2 3421   0.383   1.477  12.904 -1.4228 -0.3183 -1.9567
  225MPD1    H3 3422   0.593   1.596  12.930  2.3611 -1.6698 -1.1389
  225MPD1     N 3423   0.633   1.699  12.498 -0.6259  0.0531 -0.4606
  225MPD1    H5 3424   0.730   1.726  12.515 -0.6738  0.5893 -1.0204
  225MPD1    N1 3425   0.285   1.403  12.677 -0.4576 -0.2180  0.1830
  225MPD1    H6 3426   0.226   1.392  12.759 -1.6831  0.5392 -0.6168
  225MPD1    H7 3427   0.224   1.403  12.596  2.8835 -0.5897 -2.3666
  226MPD1     C 3428   0.496   2.210   9.666 -0.0630  0.0790  0.3500
  226MPD1    C1 3429   0.374   2.186   9.719 -0.6014 -0.1681 -0.3523
  226MPD1    C2 3430   0.343   2.081   9.800 -0.7744  0.6010 -0.4090
  226MPD1    C3 3431   0.441   1.998   9.839 -0.1518 -0.7851 -1.0171
  226MPD1    C4 3432   0.570   2.024   9.795 -0.3650  0.6100  0.5531
  226MPD1    C5 3433   0.597   2.127   9.714 -0.4575  0.0411  0.1695
  226MPD1     H 3434   0.238   2.063   9.816 -0.1704  0.1381  3.0552
  226MPD1    H1 3435   0.656   1.972   9.836 -0.2319  0.5689  0.2158
  226MPD1    H2 3436   0.521   2.304   9.619 -2.3166  1.1944  1.3895
  226MPD1    H3 3437   0.702   2.138   9.689 -0.7241 -0.4601 -1.1578
  226MPD1     N 3438   0.399   1.881   9.911 -0.4566 -0.0336 -0.4786
  226MPD1    H5 3439   0.302   1.885   9.943 -0.7212  1.1905 -1.4066
  226MPD1    N1 3440   0.263   2.271   9.677  0.3307  0.1060  0.1652
  226MPD1    H6 3441   0.296   2.362   9.646 -0.8131  0.0548 -1.2257
  226MPD1    H7 3442   0.181   2.279   9.738  0.3990  0.4295  0.2146
  227MPD1     C 3443   4.273   1.582   9.971  0.4708  0.2297  0.0163
  227MPD1    C1 3444   4.340   1.522   9.868 -0.0326  0.1627  0.1593
  227MPD1    C2 3445   4.478   1.510   9.881  0.5516  0.3351 -0.1449
  227MPD1    C3 3446   4.542   1.550   9.993  0.0456  0.0645  0.4827
  227MPD1    C4 3447   4.470   1.609  10.087 -0.1115 -0.3110 -0.1327
  227MPD1    C5 3448   4.337   1.639  10.077 -0.2342 -0.2582 -0.1607
  227MPD1     H 3449   4.534   1.491   9.790  0.8338 -1.5262  0.4155
  227MPD1    H1 3450   4.517   1.646  10.178 -2.3183 -1.4254  1.4578
  227MPD1    H2 3451   4.165   1.588   9.958  0.2933  0.2953  1.4883
  227MPD1    H3 3452   4.278   1.693  10.150  0.0386 -1.5639  1.0123
  227MPD1     N 3453   4.681   1.535   9.995 -0.5280  0.0955  0.4203
  227MPD1    H5 3454   4.718   1.485   9.916 -0.5333  1.1385 -0.2474
  227MPD1    N1 3455   4.271   1.504   9.746 -0.6287 -0.2120  0.2561
  227MPD1    H6 3456   4.315   1.436   9.684  1.1210  0.6647  0.5273
  227MPD1    H7 3457   4.171   1.486   9.751 -0.3603 -1.9269 -0.6659
  228MPD1     C 3458   2.716   3.869  12.674 -0.3902 -0.4461 -0.2349
  228MPD1    C1 3459   2.648   3.843  12.558 -0.0374  0.1478  0.0600
  228MPD1    C2 3460   2.530   3.772  12.572  0.4891 -0.5871  0.2464
  228MPD1    C3 3461   2.490   3.706  12.687  0.5924  0.1018  0.1071
  228MPD1    C4 3462   2.560   3.737  12.804 -0.2397 -0.2481 -0.0704
  228MPD1    C5 3463   2.673   3.820  12.791 -0.8265  0.0654  0.2186
  228MPD1     H 3464   2.471   3.757  12.482  0.2931  0.7054  0.1675
  228MPD1    H1 3465   2.532   3.699  12.901  2.8260  0.0496  0.9295
  228MPD1    H2 3466   2.804   3.932  12.672  0.0128 -1.0173 -0.3979
  228MPD1    H3 3467   2.730   3.849  12.879 -0.2381  3.1532 -1.1898
  228MPD1     N 3468   2.367   3.641  12.686  0.1656 -0.0059  0.0051
  228MPD1    H5 3469   2.317   3.635  12.598  1.9795  0.4297 -1.0445
  228MPD1    N1 3470   2.696   3.893  12.433  0.0430  0.5537 -0.0035
  228MPD1    H6 3471   2.742   3.984  12.429  2.1645 -0.4725  1.0222
  228MPD1    H7 3472   2.630   3.882  12.357  1.4774  1.6038 -1.3959
  229MPD1     C 3473   0.914   1.933  14.906 -0.1234  0.3585  0.6170
  229MPD1    C1 3474   1.046   1.971  14.887 -0.1409  0.4946  0.0630
  229MPD1    C2 3475   1.152   1.891  14.932 -0.5373 -0.3182 -0.0862
  229MPD1    C3 3476   1.123   1.768  14.985  0.3236  0.0528 -0.0523
  229MPD1    C4 3477   0.993   1.740  15.016 -0.9617 -0.5202 -0.3862
  229MPD1    C5 3478   0.896   1.827  14.986  0.2471  0.2638 -0.6839
  229MPD1     H 3479   1.255   1.923  14.928 -0.6223 -0.2834 -2.2350
  229MPD1    H1 3480   0.968   1.644  15.059  0.7971 -0.6329  0.3845
  229MPD1    H2 3481   0.825   1.989  14.882  1.0173  1.7393 -0.3929
  229MPD1    H3 3482   0.791   1.803  14.998 -0.0046  0.9324 -1.5517
  229MPD1     N 3483   1.215   1.668  15.018  0.2364 -0.6355  0.5683
  229MPD1    H5 3484   1.187   1.580  15.060  0.6537 -1.7002 -1.3813
  229MPD1    N1 3485   1.076   2.099  14.835  0.1886 -0.2095  0.2948
  229MPD1    H6 3486   1.168   2.102  14.790 -0.3421  2.9162 -0.5237
  229MPD1    H7 3487   1.005   2.142  14.775  0.3152 -0.1722  0.1703
  230MPD1     C 3488   1.432   0.790  15.449 -0.4559 -0.6797 -0.5727
  230MPD1    C1 3489   1.546   0.860  15.476  0.3230  0.5134  0.5893
  230MPD1    C2 3490   1.560   0.990  15.430  0.1921  0.6161 -0.2897
  230MPD1    C3 3491   1.456   1.048  15.359  0.0338 -0.4709 -0.2496
  230MPD1    C4 3492   1.346   0.975  15.319  0.0831 -0.9366 -0.6086
  230MPD1    C5 3493   1.330   0.850  15.377  0.0568  0.2300  0.6071
  230MPD1     H 3494   1.651   1.043  15.456  0.8515  0.0343 -1.3974
  230MPD1    H1 3495   1.272   1.016  15.251 -0.5759 -1.4844 -0.2137
  230MPD1    H2 3496   1.422   0.694  15.497 -2.3048 -0.2635 -0.1219
  230MPD1    H3 3497   1.252   0.778  15.355  0.2919 -0.6323  2.5872
  230MPD1     N 3498   1.481   1.185  15.307 -0.4046  0.1340 -1.0125
  230MPD1    H5 3499   1.569   1.230  15.331 -0.8232  0.0824  0.5949
  230MPD1    N1 3500   1.650   0.796  15.542  0.6669 -0.2227 -0.0741
  230MPD1    H6 3501   1.616   0.728  15.610 -2.5567  0.1570 -1.3146
  230MPD1    H7 3502   1.719   0.860  15.581  1.7573 -1.0569 -0.6560
  231MPD1     C 3503   4.458   3.611  15.178 -0.0361  0.0103  0.1345
  231MPD1    C1 3504   4.438   3.670  15.053 -0.7153 -0.6959 -0.0881
  231MPD1    C2 3505   4.544   3.730  14.991  0.2293  0.3227 -0.0832
  231MPD1    C3 3506   4.661   3.755  15.062  0.4559 -0.4069 -0.1738
  231MPD1    C4 3507   4.683   3.706  15.187  0.1707  0.0552 -0.0506
  231MPD1    C5 3508   4.577   3.631  15.232  0.5065  0.1120 -0.0808
  231MPD1     H 3509   4.519   3.779  14.898  1.6403 -1.5292 -1.4382
  231MPD1    H1 3510   0.055   3.720  15.244 -0.7867 -0.9134  1.6746
  231MPD1    H2 3511   4.385   3.544  15.223 -1.1979  1.1636 -0.0153
  231MPD1    H3 3512   4.587   3.572  15.323  1.1557 -2.2823 -1.6917
  231MPD1     N 3513   0.046   3.829  14.997  0.3186 -0.3007  0.5027
  231MPD1    H5 3514   0.029   3.852  14.900  1.5936  0.5293  0.4812
  231MPD1    N1 3515   4.327   3.637  14.983  1.0878 -0.0819  0.6812
  231MPD1    H6 3516   4.302   3.711  14.918 -0.6525 -0.1840  1.2290
  231MPD1    H7 3517   4.257   3.635  15.057 -0.0257 -0.8398 -0.3783
  232MPD1     C 3518   2.101   1.041  17.554  0.2241 -0.6045 -0.7826
  232MPD1    C1 3519   2.071   0.996   0.006 -0.0304  0.4474  0.5751
  232MPD1    C2 3520   1.955   1.030   0.066 -0.0618 -0.2794  0.3913
  232MPD1    C3 3521   1.852   1.100   0.006 -0.2857  0.3124  0.0139
  232MPD1    C4 3522   1.880   1.144  17.548  0.5952  0.4602 -0.1751
  232MPD1    C5 3523   1.999   1.107  17.483  0.0253  0.1610  0.1413
  232MPD1     H 3524   1.933   0.998   0.167 -1.6731 -0.0115  0.1121
  232MPD1    H1 3525   1.803   1.194  17.491 -3.2560 -3.9116  1.1941
  232MPD1    H2 3526   2.195   1.018  17.505  1.8927  0.7449  1.7600
  232MPD1    H3 3527   2.016   1.123  17.377  0.6833  0.5423  0.2981
  232MPD1     N 3528   1.739   1.135   0.080  0.2713  1.1535 -0.2582
  232MPD1    H5 3529   1.744   1.113   0.179  0.2316  1.3962 -0.2018
  232MPD1    N1 3530   2.174   0.932   0.077  0.3239 -0.0573  0.5447
  232MPD1    H6 3531   2.155   0.870   0.156 -0.3888  1.1299  1.3131
  232MPD1    H7 3532   2.235   0.882   0.013 -1.1085  0.4817 -1.2165
  233MPD1     C 3533   2.102   4.133   1.765  0.4588  0.2984  0.1396
  233MPD1    C1 3534   2.153   4.143   1.889 -0.5246  0.0811  0.9848
  233MPD1    C2 3535   2.170   4.267   1.943 -0.2092  1.1675 -0.1357
  233MPD1    C3 3536   2.126   4.376   1.869 -0.3900 -0.3330  0.7712
  233MPD1    C4 3537   2.046   4.359   1.755  0.0434 -0.1971 -0.0524
  233MPD1    C5 3538   2.044   4.236   1.695 -0.5244  0.2971 -0.3996
  233MPD1     H 3539   2.228   4.280   2.034 -1.3201 -1.0430  0.9018
  233MPD1    H1 3540   1.995   4.439   1.703 -0.1172  0.0651  0.5066
  233MPD1    H2 3541   2.107   4.037   1.716  1.1968  0.9192 -0.9899
  233MPD1    H3 3542   2.001   4.216   1.598 -1.4146  3.6449 -0.7203
  233MPD1     N 3543   2.154   4.518   1.899 -1.0526 -0.2461  0.2351
  233MPD1    H5 3544   2.121   4.586   1.831  1.6130  0.0286 -0.7827
  233MPD1    N1 3545   2.216   4.033   1.951  0.2587 -0.1867  0.1213
  233MPD1    H6 3546   2.171   3.943   1.934  1.8589 -0.9074 -0.2758
  233MPD1    H7 3547   2.229   4.045   2.052  1.7024 -1.3339  0.0763
  234MPD1     C 3548   4.627   2.847   9.314  0.6524 -0.0870 -0.0000
  234MPD1    C1 3549   4.699   2.931   9.398  0.2871  0.2587 -0.2054
  234MPD1    C2 3550   4.677   3.069   9.395  1.1420  0.1691 -0.0965
  234MPD1    C3 3551   4.600   3.126   9.289  0.5046 -0.6155 -0.1792
  234MPD1    C4 3552   4.526   3.044   9.214 -0.4097  0.4113  0.1427
  234MPD1    C5 3553   4.538   2.907   9.230  0.1803  0.4567 -0.2343
  234MPD1     H 3554   0.006   3.133   9.469  3.2608  1.5293 -2.6489
  234MPD1    H1 3555   4.464   3.075   9.130 -3.9878 -0.4589  2.4422
  234MPD1    H2 3556   4.622   2.739   9.299 -0.6802  0.1304 -1.0421
  234MPD1    H3 3557   4.483   2.845   9.160  1.3535 -2.1955  1.1696
  234MPD1     N 3558   4.594   3.272   9.280 -0.4211 -0.7273  0.5632
  234MPD1    H5 3559   4.617   3.324   9.364  0.2639  0.2340 -0.2272
  234MPD1    N1 3560   0.060   2.874   9.508  0.0873 -0.0126 -0.6514
  234MPD1    H6 3561   0.133   2.933   9.548  0.5224  0.9335 -2.8166
  234MPD1    H7 3562   0.105   2.787   9.483 -0.8429 -0.2029 -1.6376
  235MPD1     C 3563   1.976   1.299  10.030 -0.1561  0.2269 -0.2459
  235MPD1    C1 3564   2.024   1.415   9.991  0.7700 -0.0519  0.8578
  235MPD1    C2 3565   2.003   1.466   9.859  0.4731  0.0516  0.3246
  235MPD1    C3 3566   1.915   1.404   9.780 -0.6587  0.5436 -0.9036
  235MPD1    C4 3567   1.864   1.286   9.826 -0.2592  0.2512  0.4049
  235MPD1    C5 3568   1.898   1.227   9.942  0.0433  0.0031  1.2669
  235MPD1     H 3569   2.053   1.557   9.830 -1.5404  1.2551  0.5840
  235MPD1    H1 3570   1.783   1.241   9.770  0.6326  0.2391 -0.8827
  235MPD1    H2 3571   1.999   1.258  10.128 -0.1382  0.4037 -0.1771
  235MPD1    H3 3572   1.845   1.140   9.977 -2.5462  1.1969  0.3007
  235MPD1     N 3573   1.888   1.447   9.648 -0.5497  0.7962  0.3626
  235MPD1    H5 3574   1.918   1.539   9.619  0.1605  0.3794 -0.2497
  235MPD1    N1 3575   2.097   1.491  10.083  0.2408  0.1653  0.0954
  235MPD1    H6 3576   2.096   1.590  10.060  1.3972 -0.2482 -1.7704
  235MPD1    H7 3577   2.082   1.472  10.181 -0.5242  0.0073 -0.0509
  236MPD1     C 3578   0.808   2.326   9.485 -0.6054 -0.5845 -0.0699
  236MPD1    C1 3579   0.800   2.432   9.577 -0.5211 -0.4540 -0.6788
  236MPD1    C2 3580   0.902   2.455   9.668  0.0277 -0.8143 -0.0564
  236MPD1    C3 3581   1.008   2.367   9.674  0.1459 -0.4635 -0.0656
  236MPD1    C4 3582   1.007   2.258   9.591 -0.4374 -0.5112  0.0312
  236MPD1    C5 3583   0.921   2.248   9.490  0.7705  0.0272 -0.2029
  236MPD1     H 3584   0.893   2.535   9.742  0.9306  0.5275 -1.4093
  236MPD1    H1 3585   1.092   2.192   9.602  0.1197  0.1389 -0.3956
  236MPD1    H2 3586   0.738   2.302   9.406 -0.5360  1.4915 -0.7479
  236MPD1    H3 3587   0.923   2.156   9.434  1.6984 -0.4781  0.6477
  236MPD1     N 3588   1.104   2.375   9.776 -0.5756 -0.0127 -0.1729
  236MPD1    H5 3589   1.164   2.293   9.785 -0.6201  0.1161  1.3447
  236MPD1    N1 3590   0.714   2.541   9.556  0.6119 -0.0534 -0.5084
  236MPD1    H6 3591   0.633   2.506   9.506 -1.6860  0.9001  2.5418
  236MPD1    H7 3592   0.682   2.576   9.646  0.5584 -0.5510 -0.3371
  237MPD1     C 3593   0.039   4.396  15.767 -0.5117 -0.1913  0.1499
  237MPD1    C1 3594   0.046   4.420  15.629  0.2555  0.7926 -0.0880
  237MPD1    C2 3595   4.700   4.530  15.583 -0.5646 -0.9619  0.2662
  237MPD1    C3 3596   4.628   4.605  15.671  0.4726 -0.3408 -0.5014
  237MPD1    C4 3597   4.622   4.584  15.811  0.3195  0.0338 -0.0287
  237MPD1    C5 3598   4.695   4.476  15.856  0.0316  0.1409  0.5636
  237MPD1     H 3599   4.710   4.559  15.479  2.2398 -1.6057  0.3521
  237MPD1    H1 3600   4.571   4.648  15.883  0.6789  2.9515 -2.3578
  237MPD1    H2 3601   0.092   4.310  15.807  1.0354 -0.0880 -1.6919
  237MPD1    H3 3602   4.699   4.445  15.960  1.0595 -2.1952 -0.1795
  237MPD1     N 3603   4.549   4.715  15.624  0.0688 -0.2597  0.3203
  237MPD1    H5 3604   4.485   0.043  15.688 -0.1303 -2.0514  1.3992
  237MPD1    N1 3605   0.129   4.335  15.546  0.2431 -0.2040  0.0292
  237MPD1    H6 3606   0.107   4.336  15.446 -1.2740  2.3236  0.3894
  237MPD1    H7 3607   0.142   4.239  15.577 -1.1210  0.5476  2.9074
  238MPD1     C 3608   2.313   3.705  14.836 -0.1726 -0.1089 -0.0690
  238MPD1    C1 3609   2.230   3.714  14.953  0.0258 -0.2631  0.2012
  238MPD1    C2 3610   2.104   3.763  14.937 -0.4466  0.1073 -0.4315
  238MPD1    C3 3611   2.058   3.812  14.815  0.4844 -0.3425 -0.3588
  238MPD1    C4 3612   2.139   3.812  14.707  0.0667 -0.1153 -0.0404
  238MPD1    C5 3613   2.266   3.760  14.719 -0.4325 -0.2027 -0.5961
  238MPD1     H 3614   2.050   3.777  15.030 -2.5068  0.7777 -1.7309
  238MPD1    H1 3615   2.101   3.838  14.609  0.5324  0.9869  0.0768
  238MPD1    H2 3616   2.415   3.667  14.836  0.5383  1.8667  2.5919
  238MPD1    H3 3617   2.333   3.757  14.634  0.1286  2.8704 -0.2386
  238MPD1     N 3618   1.930   3.869  14.793  0.3838  0.4852 -0.1920
  238MPD1    H5 3619   1.889   3.867  14.700 -0.1975 -0.7002  0.0980
  238MPD1    N1 3620   2.265   3.647  15.070 -0.3483 -0.0557 -0.5526
  238MPD1    H6 3621   2.365   3.656  15.089 -0.3293 -1.0933 -0.2041
  238MPD1    H7 3622   2.209   3.670  15.152  0.9012 -0.1531  0.3200
  239MPD1     C 3623   2.101   4.710  15.007 -0.6574 -0.1480 -0.3605
  239MPD1    C1 3624   1.964   0.001  15.012 -0.4695 -0.1391  0.3893
  239MPD1    C2 3625   1.899   0.080  14.919  0.3859 -0.6171  0.1121
  239MPD1    C3 3626   1.976   0.130  14.807  0.3484 -0.7734 -0.1422
  239MPD1    C4 3627   2.112   0.117  14.803 -0.3152 -0.2256  1.0193
  239MPD1    C5 3628   2.170   0.050  14.909  0.4436  0.2147 -0.2125
  239MPD1     H 3629   1.793   0.100  14.928  0.8611  2.5628 -1.4586
  239MPD1    H1 3630   2.178   0.162  14.730  0.0001 -1.6195  0.4381
  239MPD1    H2 3631   2.155   4.670  15.092 -1.0372 -0.2515 -0.1661
  239MPD1    H3 3632   2.277   0.045  14.895  0.6422  1.4464  0.8345
  239MPD1     N 3633   1.921   0.200  14.700 -0.1831  0.2914  0.1527
  239MPD1    H5 3634   1.980   0.254  14.637 -1.9345  0.5368 -1.2607
  239MPD1    N1 3635   1.889   4.677  15.127 -0.0166  0.0338 -0.1660
  239MPD1    H6 3636   1.792   4.664  15.099 -0.4250  4.0755 -0.6704
  239MPD1    H7 3637   1.921   4.586  15.158 -1.2445 -0.0121  0.9550
  240MPD1     C 3638   1.446   4.441  14.027 -0.5238  0.1256 -0.3146
  240MPD1    C1 3639   1.314   4.403  14.014  0.0470 -0.4446  0.2886
  240MPD1    C2 3640   1.273   4.319  14.114  0.2617  0.1166  0.0129
  240MPD1    C3 3641   1.333   4.321  14.240 -0.3742  0.1861  0.5445
  240MPD1    C4 3642   1.456   4.380  14.258  0.5507  0.0044 -0.4002
  240MPD1    C5 3643   1.513   4.436  14.147  1.0113 -0.2782 -0.9214
  240MPD1     H 3644   1.184   4.258  14.099 -1.4657  2.4297  0.7913
  240MPD1    H1 3645   1.515   4.384  14.348  1.3819  0.9079 -0.9905
  240MPD1    H2 3646   1.499   4.488  13.945  1.4331 -0.3703  0.6773
  240MPD1    H3 3647   1.614   4.469  14.165  1.8294 -1.9190 -2.4666
  240MPD1     N 3648   1.262   4.249  14.339  0.6457 -0.0522  0.4044
  240MPD1    H5 3649   1.176   4.202  14.315  1.1334 -1.1705  0.8595
  240MPD1    N1 3650   1.251   4.411  13.886  0.1278  0.3114  0.0937
  240MPD1    H6 3651   1.267   4.501  13.842  0.2768 -0.6603 -1.8510
  240MPD1    H7 3652   1.153   4.387  13.896 -0.2166  1.1563 -1.2159
  241MPD1     C 3653   0.997   4.175  15.399 -0.1341 -0.2141 -0.0083
  241MPD1    C1 3654   1.059   4.270  15.317  0.1821  0.5160 -0.0866
  241MPD1    C2 3655   1.066   4.241  15.183 -0.1230  0.3150 -0.1388
  241MPD1    C3 3656   1.015   4.129  15.122  0.3125 -0.5556  0.0847
  241MPD1    C4 3657   0.955   4.041  15.205 -0.0267 -0.8148  0.0891
  241MPD1    C5 3658   0.949   4.060  15.342  0.0403 -0.0503  0.2918
  241MPD1     H 3659   1.087   4.324  15.116 -0.3714 -0.7076 -1.4840
  241MPD1    H1 3660   0.909   3.947  15.177 -1.6533 -0.9635  3.2190
  241MPD1    H2 3661   0.998   4.191  15.506 -0.3625  1.8491 -0.3012
  241MPD1    H3 3662   0.909   3.981  15.404  0.6098  0.8964  1.8630
  241MPD1     N 3663   1.017   4.107  14.977  0.0818 -0.2465  0.6556
  241MPD1    H5 3664   0.967   4.027  14.939  2.6235 -1.0837 -0.9517
  241MPD1    N1 3665   1.093   4.401  15.366  0.2858  0.1494  0.6859
  241MPD1    H6 3666   1.163   4.451  15.313 -0.5043  0.8053  0.2523
  241MPD1    H7 3667   1.113   4.404  15.466  3.3396 -1.2012  0.1093
  242MPD1     C 3668   0.588   2.678  15.966  0.1088  0.1196 -0.5962
  242MPD1    C1 3669   0.532   2.764  15.869 -0.0826  0.1728  0.3291
  242MPD1    C2 3670   0.594   2.763  15.748 -0.1891 -0.1208 -0.0342
  242MPD1    C3 3671   0.697   2.669  15.719  0.4278  0.1905  0.6892
  242MPD1    C4 3672   0.740   2.574  15.812  0.0853 -0.5133 -0.1397
  242MPD1    C5 3673   0.679   2.575  15.939 -0.5268 -0.1660  0.0289
  242MPD1     H 3674   0.557   2.839  15.680  1.1233  1.9222  1.5220
  242MPD1    H1 3675   0.820   2.502  15.795  2.1537  2.0023 -1.0262
  242MPD1    H2 3676   0.551   2.691  16.067  0.9542  0.2035 -0.2962
  242MPD1    H3 3677   0.716   2.499  16.007 -4.7783 -0.1804  2.2778
  242MPD1     N 3678   0.766   2.664  15.592  0.2334  0.2861 -0.4165
  242MPD1    H5 3679   0.835   2.591  15.581 -0.7832 -0.4986 -1.5743
  242MPD1    N1 3680   0.441   2.864  15.900  0.6095  0.0056 -0.0365
  242MPD1    H6 3681   0.390   2.907  15.823  1.8029  1.3070 -0.0969
  242MPD1    H7 3682   0.379   2.839  15.977 -0.1062  0.9746 -0.3008
  243MPD1     C 3683   3.098   1.201   0.302 -0.5695  0.4569 -0.6732
  243MPD1    C1 3684   2.968   1.155   0.284 -0.4775 -1.1092 -0.3531
  243MPD1    C2 3685   2.919   1.158   0.151  0.6767 -0.0833 -0.5372
  243MPD1    C3 3686   2.985   1.212   0.045 -0.3852  0.3761  0.1327
  243MPD1    C4 3687   3.116   1.253   0.070  0.2041  0.2564  0.2141
  243MPD1    C5 3688   3.171   1.247   0.193  0.0953  0.4847  0.1473
  243MPD1     H 3689   2.828   1.110   0.120 -0.4071  0.6780  1.4593
  243MPD1    H1 3690   3.177   1.267  17.658  2.3678 -1.1431  1.4781
  243MPD1    H2 3691   3.144   1.176   0.397  2.6848  1.0654 -2.0747
  243MPD1    H3 3692   3.276   1.271   0.193  0.7649 -2.3988  4.1906
  243MPD1     N 3693   2.918   1.219  17.591 -0.0289  0.1208 -0.2441
  243MPD1    H5 3694   2.824   1.182  17.596  0.5914 -1.3423  0.8509
  243MPD1    N1 3695   2.917   1.079   0.383  0.3354 -0.0678  0.4859
  243MPD1    H6 3696   2.819   1.052   0.369  0.1238  0.9502  0.0115
  243MPD1    H7 3697   2.928   1.119   0.476  0.8864  1.9111 -0.4345
  244MPD1     C 3698   2.255   0.781  17.388  0.0139  0.1580 -0.2628
  244MPD1    C1 3699   2.343   0.797  17.489 -0.3293  0.1748 -1.1240
  244MPD1    C2 3700   2.437   0.893  17.471  0.2584 -0.9959 -0.4538
  244MPD1    C3 3701   2.450   0.972  17.359  0.0492 -0.6055  0.6858
  244MPD1    C4 3702   2.353   0.953  17.259 -0.3750 -0.0015  0.0520
  244MPD1    C5 3703   2.254   0.861  17.278  0.5871 -0.3207 -0.6105
  244MPD1     H 3704   2.503   0.911  17.556 -0.3128 -0.9683 -0.0167
  244MPD1    H1 3705   2.336   1.019  17.174  0.3451 -0.0427 -0.1209
  244MPD1    H2 3706   2.170   0.714  17.393 -1.6778  2.2402 -1.0357
  244MPD1    H3 3707   2.183   0.851  17.196  0.3344 -0.0326 -0.4280
  244MPD1     N 3708   2.559   1.060  17.342  0.0293 -0.0527  0.4938
  244MPD1    H5 3709   2.620   1.072  17.423  2.8840 -0.7958 -1.5739
  244MPD1    N1 3710   2.324   0.741  17.615 -0.0192  0.2294  0.1347
  244MPD1    H6 3711   2.280   0.649  17.617 -0.1769  0.2431 -2.4006
  244MPD1    H7 3712   2.413   0.733  17.664 -0.4649  1.5319  1.1479
  245MPD1     C 3713   4.427   1.838  12.868  0.2623 -0.4163 -0.2968
  245MPD1    C1 3714   4.417   1.911  12.985  0.2209  0.5824 -0.0204
  245MPD1    C2 3715   4.520   1.992  13.023 -0.5184 -0.4076 -0.7458
  245MPD1    C3 3716   4.612   2.036  12.927  0.6355 -0.2246 -0.8707
  245MPD1    C4 3717   4.603   1.980  12.802  0.3156 -0.0034 -0.1779
  245MPD1    C5 3718   4.518   1.880  12.772  0.0013  0.4252 -0.3432
  245MPD1     H 3719   4.516   2.022  13.127 -1.7837 -0.8292 -0.6780
  245MPD1    H1 3720   4.675   2.005  12.725  0.4891  0.1379  0.0294
  245MPD1    H2 3721   4.360   1.757  12.842 -0.7581  0.1809  0.5007
  245MPD1    H3 3722   4.531   1.831  12.676  0.7765  0.5357 -0.2950
  245MPD1     N 3723   0.001   2.124  12.973 -0.2060 -0.1646 -0.2534
  245MPD1    H5 3724   4.712   2.149  13.071  1.3911  1.8061 -0.6434
  245MPD1    N1 3725   4.311   1.874  13.078  0.4711  0.0958 -0.0735
  245MPD1    H6 3726   4.227   1.842  13.032  0.4751 -0.0649  0.0291
  245MPD1    H7 3727   4.285   1.962  13.122 -0.0349  0.5856 -1.3430
  246MPD1     C 3728   2.858   3.758   9.526 -0.3296  0.4700  0.5538
  246MPD1    C1 3729   2.793   3.843   9.604 -0.2894  0.3422  0.1278
  246MPD1    C2 3730   2.662   3.884   9.581 -0.8251 -0.7322 -0.0634
  246MPD1    C3 3731   2.607   3.850   9.462  0.2364  0.5464 -0.1081
  246MPD1    C4 3732   2.686   3.773   9.371  0.2444 -0.0667 -0.4797
  246MPD1    C5 3733   2.799   3.716   9.410 -0.6162 -0.7427 -0.0669
  246MPD1     H 3734   2.609   3.944   9.654 -0.3306 -1.2263  0.7029
  246MPD1    H1 3735   2.654   3.744   9.272  1.4205 -2.0711 -0.2677
  246MPD1    H2 3736   2.960   3.725   9.546 -0.9549 -1.8165 -0.0222
  246MPD1    H3 3737   2.862   3.663   9.339 -1.0513 -0.2807 -0.7921
  246MPD1     N 3738   2.476   3.891   9.436 -0.6514 -0.1735  0.0081
  246MPD1    H5 3739   2.427   3.940   9.511  1.6705  0.7623  0.9308
  246MPD1    N1 3740   2.854   3.882   9.722  0.8520  0.1541  0.3460
  246MPD1    H6 3741   2.956   3.870   9.727  1.1296  2.0823 -0.7951
  246MPD1    H7 3742   2.823   3.972   9.756  0.1216  1.3009 -3.4188
  247MPD1     C 3743   4.413   0.773  14.398  0.1039  0.1070  0.2019
  247MPD1    C1 3744   4.357   0.655  14.443  0.3942  0.0912  0.1677
  247MPD1    C2 3745   4.315   0.653  14.569 -0.7119  0.5835 -0.3950
  247MPD1    C3 3746   4.306   0.766  14.649 -0.0481  0.2585  0.2092
  247MPD1    C4 3747   4.343   0.881  14.591  0.2198 -0.2777  0.2055
  247MPD1    C5 3748   4.400   0.884  14.470 -0.0849  0.7346  0.3024
  247MPD1     H 3749   4.300   0.551  14.600  1.3768 -0.1521 -1.8081
  247MPD1    H1 3750   4.343   0.972  14.650  0.1436  0.3021 -0.6980
  247MPD1    H2 3751   4.468   0.777  14.304  0.4833 -2.5640  0.3154
  247MPD1    H3 3752   4.430   0.977  14.423 -0.6548  0.0666 -1.3989
  247MPD1     N 3753   4.259   0.769  14.782 -0.3751 -0.4220  0.5264
  247MPD1    H5 3754   4.264   0.861  14.825  0.4059  0.7243 -2.0181
  247MPD1    N1 3755   4.367   0.540  14.372 -0.3929 -0.3100 -0.4141
  247MPD1    H6 3756   4.376   0.565  14.274 -0.6603  0.3914 -0.2545
  247MPD1    H7 3757   4.286   0.479  14.377  1.0852 -2.1394  1.3867
  248MPD1     C 3758   1.381   1.016   1.498  0.7594 -0.2096 -0.5666
  248MPD1    C1 3759   1.309   1.025   1.606 -0.5419  0.0406 -0.0070
  248MPD1    C2 3760   1.210   1.119   1.618 -0.3341  0.0196 -0.2523
  248MPD1    C3 3761   1.164   1.184   1.511  0.3934  0.6472  0.2843
  248MPD1    C4 3762   1.233   1.183   1.393 -0.6792  1.2650 -0.1434
  248MPD1    C5 3763   1.339   1.090   1.385  0.2691 -0.2848 -0.2767
  248MPD1     H 3764   1.166   1.123   1.717  0.3910 -1.7809  0.1483
  248MPD1    H1 3765   1.207   1.234   1.301 -2.7396  1.1209  0.3452
  248MPD1    H2 3766   1.469   0.953   1.495 -1.4360 -3.1942 -1.2048
  248MPD1    H3 3767   1.387   1.080   1.288  0.2398 -0.9596 -0.2254
  248MPD1     N 3768   1.041   1.253   1.521  0.1318 -0.0758 -0.2832
  248MPD1    H5 3769   1.011   1.277   1.615  1.6500  1.8621 -0.2899
  248MPD1    N1 3770   1.380   0.990   1.723 -0.1854 -0.3273  0.1176
  248MPD1    H6 3771   1.427   0.902   1.702 -1.5178 -1.1029  0.3109
  248MPD1    H7 3772   1.322   0.986   1.807  0.4227  2.1066  0.6442
  249MPD1     C 3773   1.874   0.049  10.417  0.3138  0.1947  0.2198
  249MPD1    C1 3774   1.829   0.112  10.305 -0.1451  0.2646  0.7250
  249MPD1    C2 3775   1.932   0.156  10.225  0.2143 -0.4350  0.4315
  249MPD1    C3 3776   2.058   0.189  10.275 -0.6031 -0.3109 -0.3459
  249MPD1    C4 3777   2.088   0.150  10.404 -0.6344 -0.4611 -0.0124
  249MPD1    C5 3778   1.994   0.078  10.470 -0.4392  0.4755 -0.1865
  249MPD1     H 3779   1.916   0.179  10.120 -0.7741 -2.0639  0.2135
  249MPD1    H1 3780   2.177   0.171  10.462 -0.2905 -2.4006  0.1331
  249MPD1    H2 3781   1.802   4.708  10.473 -0.3104 -1.0159 -1.8531
  249MPD1    H3 3782   2.012   0.041  10.570  1.0068  0.6925 -0.3678
  249MPD1     N 3783   2.145   0.246  10.185  0.2273  0.4870  0.6269
  249MPD1    H5 3784   2.110   0.279  10.095  0.1742 -1.1735  0.0317
  249MPD1    N1 3785   1.703   0.080  10.250  0.1578 -0.3116 -0.3836
  249MPD1    H6 3786   1.673   0.150  10.183  2.0248  0.8985  0.0320
  249MPD1    H7 3787   1.625   0.067  10.313  0.4751 -0.7162 -0.0712
  250MPD2     C 3788   2.394   0.634  13.146 -0.2516  0.0347  0.0357
  250MPD2    C1 3789   2.454   0.686  13.034 -0.0770  0.1608 -0.0526
  250MPD2    C2 3790   2.489   0.606  12.925 -0.7261 -0.0956 -0.7589
  250MPD2    C3 3791   2.460   0.468  12.926 -0.3971 -0.7680  0.4210
  250MPD2    C4 3792   2.402   0.413  13.038  0.4625  0.0606 -0.1531
  250MPD2    C5 3793   2.368   0.496  13.146  0.0960 -0.5680 -0.1009
  250MPD2     H 3794   2.535   0.646  12.835 -1.6815  2.3210 -0.1525
  250MPD2    H1 3795   2.398   0.306  13.026 -0.5549 -0.0399  1.0491
  250MPD2    H2 3796   2.374   0.704  13.227  0.8710  0.5006 -0.0818
  250MPD2    H3 3797   2.314   0.446  13.226 -0.7888 -0.8606 -0.8785
  250MPD2     N 3798   2.488   0.372  12.828  0.1176  0.2445 -0.6212
  250MPD2    H5 3799   2.477   0.272  12.843 -0.5083  0.5973  1.3026
  250MPD2    N1 3800   2.483   0.825  13.030 -0.3368  0.0942 -0.1815
  250MPD2    H7 3801   2.456   0.879  13.112 -0.0483  1.8332 -1.2434
  251TMC3    C1 3802   2.625   0.995  12.968  0.0593 -0.6305  0.2763
  251TMC3    C2 3803   2.577   1.085  13.059 -0.3246  0.1859 -0.2170
  251TMC3    C3 3804   2.666   1.187  13.087  0.0172  0.0927 -0.9745
  251TMC3    C4 3805   2.751   0.995  12.916  0.9100  0.1252  0.4269
  251TMC3    C5 3806   2.831   1.106  12.948  0.1631  0.1126 -0.1807
  251TMC3    C6 3807   2.783   1.205  13.022 -0.7647 -0.3115  0.4148
  251TMC3     C 3808   2.538   0.888  12.918 -0.5510 -0.7097 -0.1492
  251TMC3     O 3809   2.567   0.851  12.804 -0.3179 -0.1325 -0.0223
  251TMC3     H 3810   2.474   1.087  13.095 -0.2357 -1.1462  0.0933
  251TMC3    H1 3811   2.782   0.914  12.852 -1.1260 -1.2956  1.2411
  251TMC3    H2 3812   2.849   1.281  13.061 -0.9826 -0.3870  0.9234
  251TMC3    C7 3813   2.973   1.087  12.934 -0.5079 -0.1174 -0.0989
  251TMC3    C8 3814   2.612   1.302  13.148  0.0338  0.2660 -1.0435
  251TMC3    O1 3815   3.004   0.969  12.922 -0.2451 -0.3208 -0.4542
  251TMC3    O2 3816   2.555   1.297  13.257  0.1671  0.5726  0.1986
  252TMC3    C1 3817   3.791   2.081   8.785  0.0617  0.0561  0.2023
  252TMC3    C2 3818   3.874   2.131   8.881 -0.2889 -0.5077  0.4207
  252TMC3    C3 3819   3.934   2.041   8.968  0.7334 -0.1491  0.2144
  252TMC3    C4 3820   3.765   1.949   8.776  0.1871  0.0238  0.0373
  252TMC3    C5 3821   3.817   1.865   8.871  0.2373 -0.0763  0.3715
  252TMC3    C6 3822   3.903   1.906   8.967 -1.0718 -0.0887  0.0313
  252TMC3     C 3823   3.729   2.182   8.704  0.4326  0.5926  0.2708
  252TMC3     O 3824   3.719   2.153   8.586  0.2399  0.7637 -0.7009
  252TMC3     H 3825   3.896   2.236   8.898  0.8931 -0.5308 -1.0127
  252TMC3    H1 3826   3.696   1.907   8.703 -0.7757 -1.2084  1.6377
  252TMC3    H2 3827   3.964   1.837   9.024  1.4613  1.5443 -0.6553
  252TMC3    C7 3828   3.808   1.722   8.843 -0.0651  0.3109  0.1887
  252TMC3    C8 3829   4.024   2.088   9.069  1.1316 -0.2616  0.6283
  252TMC3    O1 3830   3.761   1.699   8.736  0.1164 -0.0431  0.0335
  252TMC3    O2 3831   4.008   2.038   9.182 -0.2779 -0.3796 -0.1663
  253MPD2     C 3832   4.354   0.723  15.804  0.6661 -0.2928  0.2687
  253MPD2    C1 3833   4.218   0.713  15.805 -0.6874  0.0170 -0.0547
  253MPD2    C2 3834   4.179   0.639  15.914  1.1049  0.4166 -0.2197
  253MPD2    C3 3835   4.261   0.595  16.015  0.0463  0.4478  0.3246
  253MPD2    C4 3836   4.391   0.616  16.006  0.3429 -0.2260  0.4318
  253MPD2    C5 3837   4.442   0.673  15.896  0.2016 -0.7645  0.2311
  253MPD2     H 3838   4.073   0.615  15.906  1.3436 -0.2613 -1.2904
  253MPD2    H1 3839   4.454   0.576  16.085  2.9079 -0.9522 -1.9811
  253MPD2    H2 3840   4.410   0.762  15.720 -1.4720  2.3388  0.0839
  253MPD2    H3 3841   4.549   0.684  15.877 -0.4640  1.7181 -2.0631
  253MPD2     N 3842   4.212   0.526  16.127 -0.2323  0.5569  0.2546
  253MPD2    H5 3843   4.280   0.521  16.203  1.8178  3.0180 -1.3798
  253MPD2    N1 3844   4.124   0.745  15.708 -0.3079  0.0592  0.1394
  253MPD2    H7 3845   4.025   0.729  15.724  0.3605  0.1670  4.3783
  254TMC3    C1 3846   4.045   0.495  16.299  0.2692  0.6590 -0.2421
  254TMC3    C2 3847   3.918   0.533  16.338 -0.0669  0.1140 -0.8836
  254TMC3    C3 3848   3.888   0.517  16.470 -0.5676  0.0570  0.2203
  254TMC3    C4 3849   4.135   0.444  16.382  0.3552 -0.1134 -0.8349
  254TMC3    C5 3850   4.090   0.417  16.511 -0.3963 -0.1481  0.0366
  254TMC3    C6 3851   3.973   0.463  16.557  0.2420 -0.2622  0.1904
  254TMC3     C 3852   4.074   0.507  16.158  0.3144  0.9156  0.4671
  254TMC3     O 3853   3.978   0.531  16.083 -0.0970 -0.6072  0.1342
  254TMC3     H 3854   3.842   0.571  16.271 -1.3582 -0.7729  0.0580
  254TMC3    H1 3855   4.230   0.407  16.344  0.3657 -1.8406  0.8932
  254TMC3    H2 3856   3.932   0.449  16.656 -2.7083 -2.4177 -1.3249
  254TMC3    C7 3857   4.166   0.357  16.618 -1.0345 -0.0781 -0.5790
  254TMC3    C8 3858   3.812   0.623  16.528  0.3548  0.2634  0.6594
  254TMC3    O1 3859   4.190   0.431  16.711 -0.2761  0.3166 -0.5590
  254TMC3    O2 3860   3.852   0.668  16.637 -0.0609  0.3844  0.1371
  255MPD2     C 3861   2.446   3.457  10.883 -0.3687 -0.2007  0.3618
  255MPD2    C1 3862   2.529   3.556  10.839  0.8405  0.7223  0.3825
  255MPD2    C2 3863   2.657   3.525  10.793 -0.2618 -0.4975 -0.1860
  255MPD2    C3 3864   2.699   3.393  10.784 -0.9615  0.1607  0.3833
  255MPD2    C4 3865   2.613   3.298  10.825 -0.1082 -0.2381 -0.4718
  255MPD2    C5 3866   2.486   3.326  10.875  0.0252 -0.3465 -0.5082
  255MPD2     H 3867   2.735   3.593  10.761 -0.3776 -2.1936 -4.0860
  255MPD2    H1 3868   2.627   3.190  10.822  0.6981 -0.1426 -0.2297
  255MPD2    H2 3869   2.348   3.474  10.925 -0.2957 -1.1290  0.9223
  255MPD2    H3 3870   2.422   3.244  10.906  1.1015 -0.8319  0.4264
  255MPD2     N 3871   2.821   3.368  10.714 -1.0035 -0.3519 -0.5767
  255MPD2    H5 3872   2.874   3.449  10.682 -2.9302  1.1164 -0.0977
  255MPD2    N1 3873   2.480   3.686  10.856  0.3869 -0.3431  0.5816
  255MPD2    H7 3874   2.382   3.703  10.875 -0.1707 -0.9430 -1.8446
  256TMC3    C1 3875   2.473   3.898  10.772 -0.2330 -0.0952 -0.1344
  256TMC3    C2 3876   2.530   4.017  10.780 -0.1919  0.1987  0.4125
  256TMC3    C3 3877   2.495   4.098  10.674 -0.6182 -0.5184  1.1820
  256TMC3    C4 3878   2.390   3.851  10.668 -0.6757 -0.4648 -0.6525
  256TMC3    C5 3879   2.369   3.931  10.556 -1.1604  0.0974  0.0650
  256TMC3    C6 3880   2.406   4.059  10.567  0.0978  0.1011  0.0056
  256TMC3     C 3881   2.559   3.796  10.832  0.3797 -0.3248 -0.0172
  256TMC3     O 3882   2.678   3.811  10.838 -0.1626  0.6562 -0.5911
  256TMC3     H 3883   2.597   4.036  10.864  0.1483  0.7032  0.0214
  256TMC3    H1 3884   2.357   3.749  10.652 -1.0102 -0.5977  0.8576
  256TMC3    H2 3885   2.386   4.133  10.490 -0.7591 -2.6516 -2.3904
  256TMC3    C7 3886   2.359   3.871  10.426 -0.0214 -0.2180  0.1681
  256TMC3    C8 3887   2.588   4.204  10.656 -1.0809  0.4500  0.2687
  256TMC3    O1 3888   2.344   3.748  10.422 -0.7886  0.7540 -0.6306
  256TMC3    O2 3889   2.641   4.232  10.762 -0.3579  0.2126 -0.0282
  257MPD2     C 3890   1.675   0.770  12.781  0.0991  0.4363  0.3740
  257MPD2    C1 3891   1.737   0.649  12.747 -0.5670 -0.0974  0.3147
  257MPD2    C2 3892   1.744   0.553  12.847 -0.0815  0.5117 -0.1238
  257MPD2    C3 3893   1.717   0.594  12.979 -0.4184  0.3851  0.4176
  257MPD2    C4 3894   1.665   0.719  13.007  0.3663 -0.4196 -0.2061
  257MPD2    C5 3895   1.643   0.807  12.908 -0.3655  0.5988 -0.1075
  257MPD2     H 3896   1.784   0.456  12.823 -2.7408  0.0165 -2.6434
  257MPD2    H1 3897   1.618   0.748  13.100 -1.1998 -1.6289 -0.6124
  257MPD2    H2 3898   1.665   0.843  12.702 -1.5567 -0.4042 -0.1728
  257MPD2    H3 3899   1.591   0.900  12.929 -2.3803 -0.0567 -2.1625
  257MPD2     N 3900   1.734   0.500  13.083  0.9012 -0.7948 -0.1129
  257MPD2    H5 3901   1.744   0.403  13.057  0.7379 -0.5417 -1.1088
  257MPD2    N1 3902   1.783   0.631  12.611 -0.0719 -0.0585 -0.5994
  257MPD2    H7 3903   1.781   0.706  12.543 -1.2106 -0.3402 -0.8781
  258TMC3    C1 3904   1.736   0.413  13.305  1.2313 -0.1233  0.5449
  258TMC3    C2 3905   1.841   0.335  13.269 -0.4680 -0.3034 -0.5070
  258TMC3    C3 3906   1.904   0.261  13.361 -0.0109  0.2826 -0.1795
  258TMC3    C4 3907   1.685   0.411  13.429 -0.4442 -0.4395  0.3885
  258TMC3    C5 3908   1.758   0.338  13.524 -0.2061 -0.4506  0.5944
  258TMC3    C6 3909   1.870   0.274  13.493 -0.2856  0.3520 -0.1443
  258TMC3     C 3910   1.701   0.525  13.218  0.2477  0.3683  0.2675
  258TMC3     O 3911   1.680   0.630  13.276 -0.3031 -0.2918  0.2703
  258TMC3     H 3912   1.891   0.361  13.176 -0.4082  1.5160  0.0330
  258TMC3    H1 3913   1.593   0.464  13.452 -0.0966 -0.3152  1.4896
  258TMC3    H2 3914   1.899   0.194  13.561 -3.3230 -0.2460  0.4786
  258TMC3    C7 3915   1.684   0.301  13.651  0.6527 -0.4128 -0.5531
  258TMC3    C8 3916   2.045   0.239  13.331  0.5266  0.1750 -0.0865
  258TMC3    O1 3917   1.576   0.360  13.661  0.0883 -0.0137  0.2848
  258TMC3    O2 3918   2.085   0.235  13.214 -0.4407 -0.3908 -0.2162
  259MPD2     C 3919   0.368   2.162   1.191 -0.2501 -0.3926  0.0978
  259MPD2    C1 3920   0.457   2.065   1.226 -0.2333  0.1254  0.0493
  259MPD2    C2 3921   0.535   2.007   1.123  0.5946 -0.1011  0.0398
  259MPD2    C3 3922   0.525   2.049   0.986 -0.5082 -0.2317  0.1674
  259MPD2    C4 3923   0.430   2.150   0.962 -0.1234 -0.4731  0.6922
  259MPD2    C5 3924   0.352   2.198   1.062 -1.2299  0.2453 -0.2031
  259MPD2     H 3925   0.603   1.925   1.142 -2.3551 -2.4300  0.5926
  259MPD2    H1 3926   0.406   2.188   0.863  1.8799  0.9874  0.7706
  259MPD2    H2 3927   0.299   2.194   1.267 -0.0068  0.1899  0.0676
  259MPD2    H3 3928   0.273   2.267   1.031 -0.0484  0.7761 -2.0170
  259MPD2     N 3929   0.601   1.988   0.883  0.0133  0.2408  0.5016
  259MPD2    H5 3930   0.668   1.916   0.908 -0.4768  0.5063  2.6166
  259MPD2    N1 3931   0.482   2.047   1.365  0.4088 -0.5767 -0.4850
  259MPD2    H7 3932   0.422   2.097   1.430  1.5019 -0.4655  0.4287
  260TMC3    C1 3933   0.729   1.991   0.698  0.3126  0.1586 -0.3653
  260TMC3    C2 3934   0.821   2.076   0.648 -0.2098  0.1097 -0.0360
  260TMC3    C3 3935   0.954   2.034   0.640 -0.0194  0.3897 -0.5383
  260TMC3    C4 3936   0.758   1.868   0.735  0.2688  0.1073 -0.7248
  260TMC3    C5 3937   0.890   1.825   0.734 -0.1060  0.6916  0.1400
  260TMC3    C6 3938   0.987   1.908   0.690 -0.4661 -1.3416 -0.1676
  260TMC3     C 3939   0.613   2.049   0.759 -0.1492 -0.0912 -0.4776
  260TMC3     O 3940   0.595   2.163   0.719 -0.4033  0.7036  0.4728
  260TMC3     H 3941   0.798   2.175   0.611  2.4017  0.4739 -0.6846
  260TMC3    H1 3942   0.680   1.795   0.754  0.0572  0.5374  0.0931
  260TMC3    H2 3943   1.093   1.885   0.694 -0.1258 -0.3541 -3.8672
  260TMC3    C7 3944   0.914   1.691   0.684  0.1972  0.6454 -0.6038
  260TMC3    C8 3945   1.013   2.057   0.510 -1.0805  0.4467  0.9503
  260TMC3    O1 3946   1.019   1.684   0.616  0.2353 -0.2131  0.2661
  260TMC3    O2 3947   0.980   2.148   0.440 -0.1388 -0.3925 -0.4824
  261MPD2     C 3948   2.719   0.286  11.988  0.7532  0.1332 -0.4036
  261MPD2    C1 3949   2.682   0.373  12.094 -0.9962  0.6305 -0.0065
  261MPD2    C2 3950   2.714   0.506  12.086  0.6607  0.0034  0.2250
  261MPD2    C3 3951   2.777   0.563  11.976 -0.2041  0.4317 -0.0050
  261MPD2    C4 3952   2.793   0.482  11.869 -1.0563  0.6772  0.7357
  261MPD2    C5 3953   2.774   0.343  11.875  0.3840 -0.1235 -0.0012
  261MPD2     H 3954   2.686   0.570  12.168 -0.4742  1.6024 -1.3933
  261MPD2    H1 3955   2.830   0.516  11.772 -0.2011 -0.5252  0.6478
  261MPD2    H2 3956   2.725   0.179  12.000  2.7562  0.2253 -0.6598
  261MPD2    H3 3957   2.808   0.276  11.797  1.9934  0.1957  0.4372
  261MPD2     N 3958   2.807   0.703  11.977 -0.8674  0.4272 -0.2276
  261MPD2    H5 3959   2.781   0.769  12.049  0.4684 -2.3038  2.7541
  261MPD2    N1 3960   2.616   0.337  12.213  0.0023  0.4918  0.3024
  261MPD2    H7 3961   2.630   0.407  12.285  1.0708  0.7503 -0.1517
  262TMC3    C1 3962   2.921   0.896  11.918  0.3976  0.8141  0.0540
  262TMC3    C2 3963   2.812   0.980  11.927  0.6488  0.3506  0.1850
  262TMC3    C3 3964   2.821   1.117  11.912  0.0557  1.0314 -0.4683
  262TMC3    C4 3965   3.045   0.951  11.887 -0.6798  0.0994 -0.3526
  262TMC3    C5 3966   3.057   1.081  11.888 -0.0857  0.5622 -0.3322
  262TMC3    C6 3967   2.950   1.165  11.915 -0.2413  0.3609  0.0750
  262TMC3     C 3968   2.910   0.748  11.898 -0.9682  0.0342  0.1644
  262TMC3     O 3969   2.987   0.686  11.829  0.4205  0.5050 -0.4904
  262TMC3     H 3970   2.709   0.947  11.939  0.3047  1.7854  1.0999
  262TMC3    H1 3971   3.130   0.887  11.868 -0.9140 -0.6590  1.1588
  262TMC3    H2 3972   2.969   1.272  11.919 -0.8363  0.3425  3.3977
  262TMC3    C7 3973   3.150   1.136  11.792  0.1592  0.3966 -0.2769
  262TMC3    C8 3974   2.742   1.195  11.820 -0.4835 -0.4393 -0.2804
  262TMC3    O1 3975   3.235   1.052  11.766 -0.5013  0.3280 -0.3061
  262TMC3    O2 3976   2.792   1.300  11.790 -0.3437 -0.0567 -0.1238
  263MPD2     C 3977   4.039   0.259  11.221  0.3433 -0.0000  0.9503
  263MPD2    C1 3978   4.140   0.355  11.207 -0.1601 -0.1982 -0.2375
  263MPD2    C2 3979   4.174   0.419  11.093 -0.6926  0.3172 -0.3209
  263MPD2    C3 3980   4.100   0.394  10.982 -0.2351  0.1399 -0.9578
  263MPD2    C4 3981   4.000   0.301  10.993  0.0285 -0.5160  0.3104
  263MPD2    C5 3982   3.966   0.245  11.110 -0.1109 -0.4525 -0.0793
  263MPD2     H 3983   4.239   0.506  11.094  0.7372 -0.7669  1.1369
  263MPD2    H1 3984   3.935   0.286  10.908  1.8513 -4.8070 -0.3541
  263MPD2    H2 3985   4.021   0.196  11.307 -1.3168  0.4747  0.9353
  263MPD2    H3 3986   3.887   0.170  11.108 -1.3112  0.7969 -0.1173
  263MPD2     N 3987   4.127   0.466  10.864  0.2606  0.0888 -0.4418
  263MPD2    H5 3988   4.200   0.536  10.856  0.2612  0.3512  1.8162
  263MPD2    N1 3989   4.217   0.368  11.327 -0.4598 -0.5404  0.1343
  263MPD2    H7 3990   4.179   0.317  11.406  0.9960 -2.0529 -0.1355
  264TMC3    C1 3991   4.118   0.534  10.649  0.0401 -0.0032  0.9614
  264TMC3    C2 3992   4.028   0.636  10.663 -0.1838 -0.4085 -1.0133
  264TMC3    C3 3993   4.065   0.765  10.629 -0.5756 -0.0043 -0.4076
  264TMC3    C4 3994   4.241   0.553  10.606 -0.7385  0.0855  0.6310
  264TMC3    C5 3995   4.280   0.682  10.576 -0.4626 -0.1772 -0.9670
  264TMC3    C6 3996   4.194   0.789  10.600  0.6962  0.4479 -0.0326
  264TMC3     C 3997   4.092   0.427  10.742 -0.8852 -0.5630 -0.4652
  264TMC3     O 3998   4.002   0.350  10.714  0.8016 -0.5849  0.2252
  264TMC3     H 3999   3.942   0.611  10.724  1.6847  0.6748  2.0719
  264TMC3    H1 4000   4.310   0.470  10.602 -1.2001 -0.2963  0.6961
  264TMC3    H2 4001   4.220   0.889  10.570  0.9008 -0.1163 -1.7388
  264TMC3    C7 4002   4.423   0.701  10.550 -0.0752  1.1527 -0.7136
  264TMC3    C8 4003   4.004   0.866  10.714  0.1792  0.5389 -0.5164
  264TMC3    O1 4004   4.489   0.613  10.495 -0.1001  0.1576 -0.1826
  264TMC3    O2 4005   3.884   0.880  10.727 -0.1787 -0.1525  0.0325
  265MPD2     C 4006   0.250   0.170  15.479  0.2003  0.2658 -0.6905
  265MPD2    C1 4007   0.327   0.274  15.438 -0.4587  0.1872  0.2781
  265MPD2    C2 4008   0.424   0.251  15.340  0.1118  0.5786  0.0234
  265MPD2    C3 4009   0.443   0.126  15.289 -0.1601  0.8681  0.2398
  265MPD2    C4 4010   0.366   0.024  15.332  0.3964  0.3722  0.3191
  265MPD2    C5 4011   0.272   0.048  15.431  0.5808 -1.0662  0.9948
  265MPD2     H 4012   0.489   0.333  15.312 -0.8448  0.5866 -2.1827
  265MPD2    H1 4013   0.376   4.643  15.290  2.3609  1.4445 -1.7150
  265MPD2    H2 4014   0.157   0.170  15.534  1.5566 -1.4325  1.6007
  265MPD2    H3 4015   0.207   4.686  15.465  0.2334 -0.6844  1.2335
  265MPD2     N 4016   0.546   0.089  15.192 -0.1248  0.1421 -0.5855
  265MPD2    H5 4017   0.548   4.709  15.168  1.1466  0.4627 -1.7825
  265MPD2    N1 4018   0.316   0.404  15.506 -0.1517  0.6614 -0.0675
  265MPD2    H7 4019   0.381   0.477  15.477  0.6602  0.4626  1.2634
  266TMC3    C1 4020   0.268   0.557  15.672 -0.0266  0.2131  0.6739
  266TMC3    C2 4021   0.184   0.594  15.774 -0.4358 -0.7850  0.7923
  266TMC3    C3 4022   0.199   0.716  15.832 -0.0119  0.5737 -0.1585
  266TMC3    C4 4023   0.342   0.643  15.603 -0.2982  0.6638  0.5295
  266TMC3    C5 4024   0.349   0.769  15.666 -0.1703  0.8178  0.1771
  266TMC3    C6 4025   0.280   0.809  15.771 -0.1541 -0.0208 -0.0811
  266TMC3     C 4026   0.235   0.430  15.610  0.1450 -0.8170 -0.2717
  266TMC3     O 4027   0.146   0.361  15.662  0.1531  0.1483  0.2855
  266TMC3     H 4028   0.129   0.517  15.826  0.0964 -2.0955 -0.5846
  266TMC3    H1 4029   0.431   0.613  15.549  0.8810  2.6067  1.3987
  266TMC3    H2 4030   0.306   0.905  15.814 -2.3535  0.2817  0.5912
  266TMC3    C7 4031   0.423   0.878  15.597 -0.2727 -0.4388 -0.3747
  266TMC3    C8 4032   0.126   0.745  15.953  0.3611  0.4775 -0.2118
  266TMC3    O1 4033   0.455   0.977  15.661 -0.6425  0.2351 -0.2414
  266TMC3    O2 4034   0.041   0.660  15.992 -0.0856 -0.6275  0.3966
  267MPD2     C 4035   3.272   1.240   0.902  0.9821 -0.3230  0.3860
  267MPD2    C1 4036   3.319   1.309   0.795  0.3081 -0.3215 -0.4023
  267MPD2    C2 4037   3.229   1.362   0.701 -0.5303  0.3363  0.2375
  267MPD2    C3 4038   3.093   1.343   0.711  0.8518  0.2594  0.3253
  267MPD2    C4 4039   3.050   1.264   0.816  0.5837 -0.4260  0.4332
  267MPD2    C5 4040   3.136   1.212   0.909 -0.2141  0.5766  0.3277
  267MPD2     H 4041   3.266   1.404   0.608 -0.9089  1.5288  0.6358
  267MPD2    H1 4042   2.947   1.234   0.835  0.1362  0.1741 -1.0168
  267MPD2    H2 4043   3.340   1.218   0.984 -0.9191 -1.4912  1.6381
  267MPD2    H3 4044   3.104   1.151   0.992 -1.0402  0.0126 -0.4017
  267MPD2     N 4045   2.996   1.380   0.615 -0.1753  1.0046 -0.5380
  267MPD2    H5 4046   2.898   1.359   0.630  0.2182  0.5172  1.4033
  267MPD2    N1 4047   3.457   1.318   0.784 -0.0729 -0.3756 -0.4068
  267MPD2    H7 4048   3.511   1.264   0.852  0.6390 -1.4839 -1.8664
  268TMC3    C1 4049   3.674   1.397   0.702  0.2031  0.5240  0.0357
  268TMC3    C2 4050   3.736   1.437   0.587 -0.5110  0.6035  0.4374
  268TMC3    C3 4051   3.867   1.465   0.613 -0.8039 -0.3300 -0.4206
  268TMC3    C4 4052   3.732   1.373   0.822  0.3995 -0.1238  0.2487
  268TMC3    C5 4053   3.863   1.403   0.838 -0.5612 -0.4420  0.7392
  268TMC3    C6 4054   3.932   1.447   0.734  0.1927 -0.3260 -0.3576
  268TMC3     C 4055   3.527   1.397   0.692  0.7089 -0.9155  0.1946
  268TMC3     O 4056   3.492   1.446   0.586 -0.7974 -0.0534 -0.7039
  268TMC3     H 4057   3.683   1.463   0.496  0.1117 -0.5901 -0.2702
  268TMC3    H1 4058   3.673   1.341   0.907 -0.1485 -3.4678 -1.3540
  268TMC3    H2 4059   4.028   1.497   0.741 -0.3466  0.9010 -1.5354
  268TMC3    C7 4060   3.901   1.417   0.975  0.6236  0.9611  0.0797
  268TMC3    C8 4061   3.940   1.505   0.500 -0.0490 -0.4159 -0.5894
  268TMC3    O1 4062   3.817   1.476   1.045 -0.5253  0.5005 -0.0865
  268TMC3    O2 4063   4.046   1.448   0.490  0.2761 -0.3461 -0.1810
  269MPD2     C 4064   3.237   0.656  15.768 -0.2241  0.5616 -0.1459
  269MPD2    C1 4065   3.104   0.692  15.765 -0.8479 -0.9253 -0.0609
  269MPD2    C2 4066   3.073   0.821  15.742  0.0381 -0.0672 -0.0751
  269MPD2    C3 4067   3.174   0.913  15.727  0.9321 -0.1952  0.0420
  269MPD2    C4 4068   3.309   0.874  15.721 -0.3433  0.2631  0.7282
  269MPD2    C5 4069   3.337   0.748  15.748  0.0450 -0.9115 -0.1496
  269MPD2     H 4070   2.973   0.861  15.732  0.1128  0.3788  0.8989
  269MPD2    H1 4071   3.391   0.944  15.711  0.7147 -1.4800 -2.6476
  269MPD2    H2 4072   3.267   0.553  15.783 -0.0002  0.6914  0.2900
  269MPD2    H3 4073   3.441   0.717  15.746  0.5818  0.9638 -0.4693
  269MPD2     N 4074   3.139   1.049  15.707  0.9318  0.4079 -0.7785
  269MPD2    H5 4075   3.041   1.070  15.727  0.4194 -3.6370  1.0040
  269MPD2    N1 4076   3.013   0.586  15.780 -0.0891 -0.1382 -0.2961
  269MPD2    H7 4077   3.060   0.497  15.791 -0.4819 -0.5403 -1.8458
  270TMC3    C1 4078   2.822   0.460  15.756  0.6685 -0.9086 -0.0046
  270TMC3    C2 4079   2.698   0.450  15.685 -0.1078  0.4538  0.0579
  270TMC3    C3 4080   2.647   0.324  15.665  0.2546 -0.2767  0.3101
  270TMC3    C4 4081   2.878   0.353  15.821  0.0362 -0.3946  0.0900
  270TMC3    C5 4082   2.812   0.229  15.803  0.0136 -0.2737 -0.4135
  270TMC3    C6 4083   2.705   0.214  15.718  0.3553 -0.1954 -0.2890
  270TMC3     C 4084   2.875   0.593  15.755 -0.2334  0.0608  0.8466
  270TMC3     O 4085   2.803   0.692  15.743  0.2012 -0.5461  0.2709
  270TMC3     H 4086   2.651   0.534  15.636 -0.6943 -0.0552 -0.2551
  270TMC3    H1 4087   2.963   0.366  15.887 -0.3452  0.2756  0.4485
  270TMC3    H2 4088   2.672   0.115  15.689 -2.9876  1.4340 -2.1167
  270TMC3    C7 4089   2.890   0.118  15.846  0.0893  0.0442 -0.2544
  270TMC3    C8 4090   2.622   0.309  15.521 -0.4592 -0.4383 -0.7058
  270TMC3    O1 4091   3.011   0.128  15.852 -0.1763  0.2485  0.0849
  270TMC3    O2 4092   2.638   0.402  15.444  0.3580 -0.5465 -0.1435
  271MPD2     C 4093   2.123   0.837  14.059  0.1254  0.3109  0.0481
  271MPD2    C1 4094   2.055   0.740  14.125  0.0353 -0.1922  0.1098
  271MPD2    C2 4095   1.914   0.736  14.109  0.5939  0.3663 -0.6476
  271MPD2    C3 4096   1.849   0.826  14.020 -1.1984 -0.3317 -0.4737
  271MPD2    C4 4097   1.926   0.920  13.954  0.0530  0.1927 -1.0016
  271MPD2    C5 4098   2.067   0.925  13.977 -0.0813 -0.2885  0.3555
  271MPD2     H 4099   1.854   0.662  14.160  0.6724  0.7625  0.0152
  271MPD2    H1 4100   1.886   0.999  13.891 -1.8165 -0.1644 -0.2439
  271MPD2    H2 4101   2.229   0.852  14.080  0.0123  1.9777 -0.5808
  271MPD2    H3 4102   2.128   1.001  13.930 -0.2397 -0.2863  0.1519
  271MPD2     N 4103   1.704   0.835  13.998  0.2247 -0.2983  0.2647
  271MPD2    H5 4104   1.671   0.913  13.943  1.9750 -1.4484 -2.4495
  271MPD2    N1 4105   2.113   0.637  14.200  0.3351 -0.4245 -0.3889
  271MPD2    H7 4106   2.051   0.575  14.251  2.1031 -0.9616  1.0855
  272TMC3    C1 4107   2.290   0.481  14.272  0.3347  0.1914  0.2680
  272TMC3    C2 4108   2.422   0.448  14.250 -0.2769  0.1925 -0.0354
  272TMC3    C3 4109   2.505   0.400  14.352  0.6151  0.4882  0.5061
  272TMC3    C4 4110   2.234   0.460  14.398 -0.1265  0.4261  0.2657
  272TMC3    C5 4111   2.314   0.407  14.489 -0.4865 -0.1557 -0.2149
  272TMC3    C6 4112   2.449   0.378  14.474 -0.3736  0.0999  0.1382
  272TMC3     C 4113   2.241   0.595  14.184  0.1657 -0.6587 -0.1261
  272TMC3     O 4114   2.331   0.651  14.122 -0.1240 -0.0933  0.0574
  272TMC3     H 4115   2.471   0.443  14.154  1.0897 -2.1647  0.7771
  272TMC3    H1 4116   2.129   0.483  14.416 -0.3753 -2.1499  1.9342
  272TMC3    H2 4117   2.513   0.336  14.550 -0.2636 -2.0970 -1.1696
  272TMC3    C7 4118   2.270   0.424  14.623  0.4187 -0.4775  0.8107
  272TMC3    C8 4119   2.647   0.391  14.331 -0.1944 -1.3590  0.4333
  272TMC3    O1 4120   2.154   0.389  14.648  0.2203 -0.0741 -0.3812
  272TMC3    O2 4121   2.697   0.455  14.242 -0.0877  0.0899  0.4415
  273MPD2     C 4122   4.156   3.888  11.497  0.2569  0.7843 -0.3990
  273MPD2    C1 4123   4.250   3.956  11.569  0.2161 -0.2072  0.0513
  273MPD2    C2 4124   4.353   4.019  11.503  0.2751  0.1456  0.4850
  273MPD2    C3 4125   4.369   3.998  11.363  0.3138  0.5285  0.0184
  273MPD2    C4 4126   4.263   3.937  11.292  0.3961 -1.0873 -0.3671
  273MPD2    C5 4127   4.156   3.881  11.359  0.5226 -0.3093  0.0689
  273MPD2     H 4128   4.426   4.084  11.550 -0.5650  1.4695 -0.0492
  273MPD2    H1 4129   4.276   3.921  11.185  1.1135 -1.7653 -0.1776
  273MPD2    H2 4130   4.079   3.832  11.549 -0.1899 -0.3376 -2.2654
  273MPD2    H3 4131   4.081   3.822  11.307  0.4613 -2.0805  2.1488
  273MPD2     N 4132   4.481   4.036  11.291 -0.3203  0.0118 -0.1830
  273MPD2    H5 4133   4.470   4.019  11.191  0.2957 -0.5325 -0.1574
  273MPD2    N1 4134   4.239   3.949  11.708 -0.1953  0.0757 -0.0510
  273MPD2    H7 4135   4.161   3.893  11.741 -0.0292 -1.2302 -1.8079
  274TMC3    C1 4136   4.696   4.084  11.242 -0.0073 -0.0191 -0.2167
  274TMC3    C2 4137   4.676   4.016  11.130  0.0681 -0.0960  0.2737
  274TMC3    C3 4138   4.693   4.069  11.007 -0.4498  0.1324  1.5039
  274TMC3    C4 4139   0.043   4.196  11.239 -0.1756 -0.8023 -0.5676
  274TMC3    C5 4140   0.062   4.252  11.113 -0.0863  0.5713 -0.0024
  274TMC3    C6 4141   0.042   4.189  10.993  0.4427  0.0416 -0.6190
  274TMC3     C 4142   4.601   4.074  11.346 -0.3797  0.1678  0.3295
  274TMC3     O 4143   4.645   4.091  11.460  0.5563 -0.1062  0.0221
  274TMC3     H 4144   4.624   3.921  11.131 -0.2048  0.0722  2.1338
  274TMC3    H1 4145   0.034   4.254  11.331 -0.5096 -0.7021 -0.6618
  274TMC3    H2 4146   0.046   4.244  10.899 -0.6291 -0.3712 -0.9141
  274TMC3    C7 4147   0.138   4.372  11.103 -0.5085  0.2895  0.5069
  274TMC3    C8 4148   4.576   4.036  10.916  0.1729  0.0675  0.0396
  274TMC3    O1 4149   0.222   4.370  11.013  0.8256  0.5659  0.4581
  274TMC3    O2 4150   4.477   4.019  10.987 -0.1564  0.1602 -0.1223
  275MPD2     C 4151   3.599   1.542  14.145 -0.2796  0.2018 -0.1988
  275MPD2    C1 4152   3.600   1.456  14.254 -0.0690 -0.5044 -0.1539
  275MPD2    C2 4153   3.489   1.423  14.324  0.5920 -0.2351  0.4703
  275MPD2    C3 4154   3.365   1.463  14.274  0.2274  0.0720  0.9133
  275MPD2    C4 4155   3.357   1.533  14.159  0.3168 -0.3034 -0.1938
  275MPD2    C5 4156   3.474   1.587  14.110  0.2244 -0.5317 -0.1536
  275MPD2     H 4157   3.512   1.368  14.414  1.0862  1.6928  1.5122
  275MPD2    H1 4158   3.267   1.571  14.113  0.1730  1.5563  1.6371
  275MPD2    H2 4159   3.685   1.574  14.087 -0.9054 -0.2699 -1.3920
  275MPD2    H3 4160   3.471   1.668  14.038  0.0419  0.3512  0.8439
  275MPD2     N 4161   3.246   1.442  14.339 -0.2081  0.6622 -0.0062
  275MPD2    H5 4162   3.163   1.470  14.288  0.9883  1.9217 -1.2387
  275MPD2    N1 4163   3.721   1.401  14.298  0.2284 -0.5486 -0.0393
  275MPD2    H7 4164   3.721   1.335  14.376 -2.9835 -4.3363 -3.2452
  276TMC3    C1 4165   3.946   1.333  14.331  0.1204  0.6726  0.2572
  276TMC3    C2 4166   3.902   1.212  14.374  0.2653 -0.4892  0.7382
  276TMC3    C3 4167   3.984   1.136  14.454  0.0653  0.1113 -0.0510
  276TMC3    C4 4168   4.064   1.383  14.368 -0.0015 -0.6066 -0.2591
  276TMC3    C5 4169   4.142   1.301  14.445  0.2385 -0.0440 -0.2616
  276TMC3    C6 4170   4.101   1.179  14.496  0.0423 -0.3576  0.0261
  276TMC3     C 4171   3.849   1.425  14.267 -0.0670  0.0904 -0.1036
  276TMC3     O 4172   3.891   1.505  14.189 -0.1520  0.1899  0.1780
  276TMC3     H 4173   3.810   1.177  14.328 -0.0231  0.3214  0.7114
  276TMC3    H1 4174   4.090   1.485  14.343 -0.4837 -1.0322 -2.4654
  276TMC3    H2 4175   4.167   1.121  14.561  0.8405  0.6513  0.1124
  276TMC3    C7 4176   4.262   1.364  14.499 -0.3938 -0.2985 -0.6630
  276TMC3    C8 4177   3.916   1.021  14.520 -0.4974 -0.2828  0.3273
  276TMC3    O1 4178   4.301   1.310  14.603  0.4955 -0.7976  0.4361
  276TMC3    O2 4179   3.818   0.975  14.456  0.3492 -0.2449 -0.0540
  277MPD2     C 4180   1.060   0.148  13.169  0.5407 -0.0376  0.2062
  277MPD2    C1 4181   0.955   0.236  13.188 -0.0133 -0.3487  0.0124
  277MPD2    C2 4182   0.902   0.241  13.319 -0.9787  0.1361  0.1079
  277MPD2    C3 4183   0.934   0.145  13.414  0.1372 -0.1646 -0.2758
  277MPD2    C4 4184   1.033   0.054  13.386 -0.3102  0.1559  0.9430
  277MPD2    C5 4185   1.107   0.067  13.272  0.0396  0.5102  0.4157
  277MPD2     H 4186   0.823   0.311  13.341  0.3012  1.2649  1.1071
  277MPD2    H1 4187   1.060   4.688  13.448 -2.3690  0.0487  1.6921
  277MPD2    H2 4188   1.121   0.159  13.080  0.7382 -2.0116  0.1026
  277MPD2    H3 4189   1.188   0.001  13.245 -1.6441 -1.5170  0.3520
  277MPD2     N 4190   0.865   0.145  13.540  0.1266 -0.1066 -0.3656
  277MPD2    H5 4191   0.886   0.076  13.612 -3.3641 -0.4830  0.3109
  277MPD2    N1 4192   0.914   0.313  13.076  0.0638 -0.4908 -0.4252
  277MPD2    H7 4193   0.975   0.312  12.994  0.9273 -0.0727  0.2138
  278TMC3    C1 4194   0.687   0.204  13.681 -1.1645  0.3441 -0.2419
  278TMC3    C2 4195   0.675   0.073  13.711 -0.6902  0.1699 -0.7086
  278TMC3    C3 4196   0.556   0.029  13.764 -0.4999 -0.8477  0.6201
  278TMC3    C4 4197   0.576   0.284  13.696  0.1759  0.2768 -0.4162
  278TMC3    C5 4198   0.463   0.241  13.761  0.0866  0.2725  0.2940
  278TMC3    C6 4199   0.448   0.110  13.794 -0.3595  0.0090  0.0322
  278TMC3     C 4200   0.788   0.248  13.578  0.3290  0.6187  0.1379
  278TMC3     O 4201   0.799   0.366  13.551  0.0356 -0.6370  0.3389
  278TMC3     H 4202   0.760   0.006  13.701  1.6702  2.8845  1.2247
  278TMC3    H1 4203   0.574   0.385  13.656 -0.2460  0.0983 -0.8393
  278TMC3    H2 4204   0.364   0.073  13.853 -1.3253  0.9807 -0.7391
  278TMC3    C7 4205   0.373   0.345  13.806 -0.0938 -0.2331  1.3298
  278TMC3    C8 4206   0.538   4.609  13.762  0.7541 -0.1390 -0.3727
  278TMC3    O1 4207   0.402   0.463  13.792 -0.2791 -0.2022 -0.0651
  278TMC3    O2 4208   0.645   4.542  13.771  0.0952  0.2181 -0.0060
  279MPD2     C 4209   0.425   0.438   0.181 -0.1323 -0.5659  0.2692
  279MPD2    C1 4210   0.403   0.571   0.141  0.0099  0.6524  0.4733
  279MPD2    C2 4211   0.483   0.625   0.046  0.0709 -0.1723 -0.4538
  279MPD2    C3 4212   0.559   0.543  17.640 -1.6588 -0.0460  0.5552
  279MPD2    C4 4213   0.573   0.407  17.673  0.1780 -0.5107 -0.4522
  279MPD2    C5 4214   0.501   0.357   0.100 -0.1264  0.1846 -0.0184
  279MPD2     H 4215   0.472   0.729   0.017  2.9081  0.6016  1.2470
  279MPD2    H1 4216   0.638   0.344  17.614  0.7379  2.7177 -3.2897
  279MPD2    H2 4217   0.363   0.390   0.256 -1.0923  1.9551  1.0791
  279MPD2    H3 4218   0.494   0.250   0.114 -0.4976  0.1565 -0.4247
  279MPD2     N 4219   0.614   0.585  17.523 -0.4413 -0.6511  0.5839
  279MPD2    H5 4220   0.666   0.517  17.468 -0.1575 -0.2931  0.4063
  279MPD2    N1 4221   0.316   0.647   0.215 -0.3879 -0.7486  0.1386
  279MPD2    H7 4222   0.274   0.604   0.298  2.1101  0.2780  1.9406
  280TMC3    C1 4223   0.184   0.838   0.260  0.1224 -0.5628 -0.4722
  280TMC3    C2 4224   0.104   0.763   0.348 -0.3349 -0.7096  0.2088
  280TMC3    C3 4225   4.715   0.830   0.406  0.2875 -0.2502  0.4809
  280TMC3    C4 4226   0.152   0.960   0.213 -0.1417 -0.3186  0.1468
  280TMC3    C5 4227   0.031   1.008   0.258 -0.2830 -0.2456  0.5203
  280TMC3    C6 4228   4.677   0.954   0.362  0.0689  0.1926  0.3175
  280TMC3     C 4229   0.296   0.784   0.200  0.1688  0.4796  0.4420
  280TMC3     O 4230   0.369   0.879   0.156  0.1356 -0.5145 -0.1670
  280TMC3     H 4231   0.134   0.664   0.381 -0.3857 -0.2542  1.6194
  280TMC3    H1 4232   0.200   0.995   0.123 -2.0095 -2.4181 -1.6793
  280TMC3    H2 4233   4.600   1.017   0.405  0.2917  1.3184 -0.9220
  280TMC3    C7 4234   4.693   1.119   0.186  0.0078 -0.5935  0.3938
  280TMC3    C8 4235   4.656   0.768   0.528 -1.1920  0.5786  0.0987
  280TMC3    O1 4236   0.046   1.201   0.130  0.1218  0.6596 -0.0194
  280TMC3    O2 4237   4.710   0.667   0.574  0.3910  0.2142 -0.2275
  281TMC3    C1 4238   3.534   0.745  13.318 -0.6192 -0.4856  0.5240
  281TMC3    C2 4239   3.565   0.805  13.198 -0.3573 -0.1727  0.0753
  281TMC3    C3 4240   3.523   0.744  13.085  0.0179 -0.3525 -0.0078
  281TMC3    C4 4241   3.465   0.630  13.323 -0.1033 -0.0776  0.5908
  281TMC3    C5 4242   3.415   0.571  13.212  0.4708  0.0966 -0.2237
  281TMC3    C6 4243   3.444   0.630  13.093  0.7186  1.3977 -0.4192
  281TMC3     C 4244   3.499   0.836  13.428 -0.5205  0.2356  0.7591
  281TMC3     O 4245   3.490   0.789  13.544 -0.4524 -0.4059 -0.5207
  281TMC3     H 4246   3.635   0.887  13.188 -2.5759  1.4660 -2.0689
  281TMC3    H1 4247   3.445   0.585  13.420 -0.1203  1.6881  1.3983
  281TMC3    H2 4248   3.410   0.577  13.005  1.6365 -0.7429  0.5239
  281TMC3    C7 4249   3.298   0.480  13.212 -0.3723  0.3676 -0.0818
  281TMC3    C8 4250   3.433   0.834  13.007  0.1390 -0.0183 -0.4067
  281TMC3    O1 4251   3.273   0.418  13.107  0.3124 -0.6627  0.4001
  281TMC3    O2 4252   3.323   0.790  12.979 -0.1992  0.4476  0.2287
  282MPD2     C 4253   0.757   2.345  15.154  0.1414  0.0792  0.0067
  282MPD2    C1 4254   0.630   2.397  15.156 -0.1293 -0.1191  0.1066
  282MPD2    C2 4255   0.564   2.417  15.038  0.1003 -0.5804 -0.5795
  282MPD2    C3 4256   0.616   2.372  14.911  0.2750 -0.3863 -0.9572
  282MPD2    C4 4257   0.739   2.311  14.912 -0.2598 -0.0471  1.1426
  282MPD2    C5 4258   0.804   2.304  15.034  0.0391 -0.2345 -0.0438
  282MPD2     H 4259   0.470   2.471  15.046 -0.0496 -0.6629 -1.8199
  282MPD2    H1 4260   0.792   2.294  14.818 -2.0907  1.6803 -0.2169
  282MPD2    H2 4261   0.821   2.313  15.235  1.1057 -0.6869 -1.0643
  282MPD2    H3 4262   0.892   2.240  15.033  1.2533  1.4465  0.5364
  282MPD2     N 4263   0.537   2.402  14.793 -0.0054 -0.3351 -0.1660
  282MPD2    H5 4264   0.457   2.464  14.796 -0.4016 -0.8588 -0.1000
  282MPD2    N1 4265   0.565   2.438  15.277 -0.8164  0.0041  0.4106
  282MPD2    H7 4266   0.472   2.475  15.263 -1.0961 -0.0876  2.0942
  283TMC3    C1 4267   0.498   2.449  15.495 -0.3896 -0.6094 -0.8707
  283TMC3    C2 4268   0.449   2.576  15.472  0.2144  0.0162  1.1305
  283TMC3    C3 4269   0.366   2.626  15.569  1.1065  0.0328 -0.2511
  283TMC3    C4 4270   0.469   2.380  15.613 -0.2447  0.2557 -0.1322
  283TMC3    C5 4271   0.377   2.426  15.705 -0.5279  0.3186 -0.7164
  283TMC3    C6 4272   0.329   2.551  15.677 -0.3767 -0.1822 -0.0706
  283TMC3     C 4273   0.606   2.407  15.407 -0.0695  0.1426  0.0373
  283TMC3     O 4274   0.700   2.339  15.444  0.6334 -0.4130 -0.0365
  283TMC3     H 4275   0.491   2.636  15.393  0.3626  0.6739  1.7072
  283TMC3    H1 4276   0.506   2.280  15.632  1.2243  1.2257  2.1344
  283TMC3    H2 4277   0.252   2.598  15.737 -1.5636  0.6067 -2.1908
  283TMC3    C7 4278   0.293   2.343  15.793 -0.3918  0.1003  0.3223
  283TMC3    C8 4279   0.305   2.754  15.547  0.6260 -0.2156 -0.4591
  283TMC3    O1 4280   0.259   2.414  15.887 -0.3171  0.3348  0.0866
  283TMC3    O2 4281   0.209   2.783  15.618  0.5900 -0.8409  0.7371
  284MPD2     C 4282   3.859   1.932  11.629 -0.4498  0.4595  0.5995
  284MPD2    C1 4283   3.979   1.894  11.578 -0.4698  0.4810  0.0903
  284MPD2    C2 4284   4.006   1.760  11.567  0.5997  0.1378  0.0346
  284MPD2    C3 4285   3.915   1.664  11.604 -0.8925 -0.2471  0.0150
  284MPD2    C4 4286   3.794   1.704  11.654 -0.1065 -0.4215 -0.0854
  284MPD2    C5 4287   3.769   1.835  11.671 -0.0953 -0.0126 -0.0907
  284MPD2     H 4288   4.107   1.729  11.544  0.9203  0.6136  0.7890
  284MPD2    H1 4289   3.720   1.630  11.682  0.0145 -0.2464  0.6788
  284MPD2    H2 4290   3.830   2.037  11.626 -3.8956 -0.5673 -1.1784
  284MPD2    H3 4291   3.668   1.862  11.701  0.4403 -0.0912  1.7507
  284MPD2     N 4292   3.932   1.519  11.575 -0.2806  0.1131  0.7369
  284MPD2    H5 4293   3.858   1.456  11.605 -1.4232 -0.0624 -2.4705
  284MPD2    N1 4294   4.078   1.985  11.534 -0.9145 -0.6649 -0.3244
  284MPD2    H7 4295   4.169   1.951  11.504 -1.0569  1.8363 -3.5380
  285TMC3    C1 4296   4.177   2.184  11.482  0.9284 -0.3542  0.4743
  285TMC3    C2 4297   4.290   2.113  11.508  0.1835 -0.4681 -0.7972
  285TMC3    C3 4298   4.412   2.144  11.442 -0.1591 -0.9026 -0.1202
  285TMC3    C4 4299   4.185   2.298  11.405 -0.1368  0.4455  0.3188
  285TMC3    C5 4300   4.305   2.328  11.352  0.1755 -0.2198 -0.5861
  285TMC3    C6 4301   4.417   2.256  11.360  0.4604  0.1136 -0.5558
  285TMC3     C 4302   4.057   2.117  11.511 -0.2079 -0.4304  0.1266
  285TMC3     O 4303   3.951   2.178  11.487  0.3483 -0.0272 -0.1849
  285TMC3     H 4304   4.292   2.041  11.589  0.6041 -0.4933 -0.8274
  285TMC3    H1 4305   4.099   2.364  11.400  0.5314  1.3071  0.1180
  285TMC3    H2 4306   4.513   2.278  11.316  0.7972 -1.8944 -0.8273
  285TMC3    C7 4307   4.316   2.464  11.302  0.4058  0.0809  0.3548
  285TMC3    C8 4308   4.508   2.039  11.436  0.2048  0.1103 -0.5472
  285TMC3    O1 4309   4.428   2.508  11.302  0.4580  0.2158 -0.2973
  285TMC3    O2 4310   4.473   1.923  11.462 -0.3047 -0.4454 -0.1612
  286MPD2     C 4311   3.861   0.984   2.049  0.0338  0.0256 -0.6589
  286MPD2    C1 4312   3.812   0.928   1.932 -0.0635 -0.4653  0.4712
  286MPD2    C2 4313   3.868   0.812   1.884  0.0044 -0.2846  0.9199
  286MPD2    C3 4314   3.978   0.755   1.949  0.0908  0.0250  0.3909
  286MPD2    C4 4315   4.001   0.804   2.075 -0.0806 -0.8786  0.1693
  286MPD2    C5 4316   3.947   0.916   2.123 -0.0392  0.1139  0.1457
  286MPD2     H 4317   3.835   0.785   1.785 -0.7016  0.8961  0.8375
  286MPD2    H1 4318   4.077   0.760   2.139  1.0466  0.2968 -0.3789
  286MPD2    H2 4319   3.825   1.076   2.092 -2.0271 -0.9008 -0.4347
  286MPD2    H3 4320   3.970   0.937   2.227 -1.7715  1.3703  0.2779
  286MPD2     N 4321   4.055   0.650   1.901 -0.2721  0.0502 -0.0988
  286MPD2    H5 4322   4.132   0.618   1.958  1.1359 -0.0681 -2.0977
  286MPD2    N1 4323   3.715   0.996   1.858  0.2632  0.1063 -0.8122
  286MPD2    H7 4324   3.706   0.951   1.768 -0.4450 -1.7169  0.1779
  287TMC3    C1 4325   4.119   0.468   1.779 -0.2633  0.1642 -0.7770
  287TMC3    C2 4326   4.095   0.368   1.688 -1.1399  0.0697 -0.4911
  287TMC3    C3 4327   4.184   0.266   1.658 -0.4520  0.1627 -0.1429
  287TMC3    C4 4328   4.240   0.467   1.849 -0.1917 -0.2763 -0.2266
  287TMC3    C5 4329   4.327   0.359   1.824  0.0566 -0.0089 -0.2967
  287TMC3    C6 4330   4.300   0.256   1.735  0.1913 -0.2216  0.2466
  287TMC3     C 4331   4.021   0.571   1.796  0.4611  0.4645  0.0619
  287TMC3     O 4332   3.932   0.575   1.717 -0.1430 -0.4700 -0.3526
  287TMC3     H 4333   4.001   0.371   1.633 -0.8235  1.2496 -0.9666
  287TMC3    H1 4334   4.268   0.542   1.922 -1.4635 -0.8487  0.8388
  287TMC3    H2 4335   4.369   0.174   1.721  0.1668 -0.2949  0.5690
  287TMC3    C7 4336   4.438   0.356   1.913 -0.3980  0.5116 -0.4885
  287TMC3    C8 4337   4.165   0.194   1.537 -0.1245  0.1067  0.6421
  287TMC3    O1 4338   4.424   0.417   2.018 -0.1536 -0.3704 -0.1312
  287TMC3    O2 4339   4.048   0.196   1.500 -0.2010 -0.1663  0.6908
  288TMC3    C1 4340   0.695   0.226  14.420 -0.2120 -0.0859  0.7024
  288TMC3    C2 4341   0.581   0.176  14.469 -0.5754 -0.2693 -0.5051
  288TMC3    C3 4342   0.486   0.263  14.512 -1.5206  0.1661 -0.2957
  288TMC3    C4 4343   0.729   0.357  14.406 -1.0324  0.4325 -0.0332
  288TMC3    C5 4344   0.629   0.445  14.446  0.1091  0.1896 -0.4250
  288TMC3    C6 4345   0.509   0.400  14.494  0.2097  0.9838  0.5042
  288TMC3     C 4346   0.808   0.134  14.431  0.1735 -0.6924  0.8462
  288TMC3     O 4347   0.785   0.033  14.491  0.3427  0.4627  0.1659
  288TMC3     H 4348   0.568   0.068  14.478 -0.7059 -0.0718  1.5778
  288TMC3    H1 4349   0.834   0.384  14.403 -0.7301 -0.4543  2.4379
  288TMC3    H2 4350   0.440   0.475  14.531 -0.8562 -0.2866  1.0605
  288TMC3    C7 4351   0.653   0.585  14.425 -0.2581  0.3758  0.4514
  288TMC3    C8 4352   0.440   0.231  14.648 -0.0965 -0.4372  0.0359
  288TMC3    O1 4353   0.586   0.666  14.489  0.2603 -0.0905  0.1410
  288TMC3    O2 4354   0.432   0.316  14.737  0.3319 -0.3697 -0.4224
  289MPD2     C 4355   0.931   3.730  14.210  0.3435 -0.1747  0.5616
  289MPD2    C1 4356   0.900   3.839  14.284  0.0691  0.5131 -0.0983
  289MPD2    C2 4357   0.795   3.919  14.246 -0.4272  0.7583  0.3616
  289MPD2    C3 4358   0.723   3.885  14.132 -0.1460  0.1314  0.0767
  289MPD2    C4 4359   0.758   3.779  14.046  0.1271  0.1907 -0.2946
  289MPD2    C5 4360   0.866   3.707  14.085 -0.4645 -0.1836 -0.1251
  289MPD2     H 4361   0.767   3.996  14.317 -1.6294  1.3339 -0.7474
  289MPD2    H1 4362   0.719   3.763  13.947  1.8756 -0.5564 -0.8584
  289MPD2    H2 4363   1.003   3.650  14.225 -0.8491 -1.6456 -1.5002
  289MPD2    H3 4364   0.901   3.624  14.024  3.5539  0.9330  0.6577
  289MPD2     N 4365   0.608   3.947  14.083  0.0881 -0.4054 -0.7342
  289MPD2    H5 4366   0.561   3.906  14.002  1.2611  0.3865 -1.8032
  289MPD2    N1 4367   0.975   3.861  14.398  0.2145 -0.0195 -0.2976
  289MPD2    H7 4368   1.063   3.810  14.409 -0.2836 -0.8515 -0.1451
  290TMC3    C1 4369   0.423   4.086  14.074  0.0718 -0.0520  0.4986
  290TMC3    C2 4370   0.386   4.218  14.078 -0.2054 -0.1139 -0.0050
  290TMC3    C3 4371   0.277   4.252  14.009 -0.0565 -0.2068  0.5347
  290TMC3    C4 4372   0.349   3.987  14.021 -0.5601 -0.1048 -0.7990
  290TMC3    C5 4373   0.238   4.029  13.956 -0.1830  0.5239  0.0590
  290TMC3    C6 4374   0.203   4.155  13.948  0.3945  0.7976  0.2035
  290TMC3     C 4375   0.551   4.060  14.128 -0.6768 -0.0803  0.1946
  290TMC3     O 4376   0.599   4.148  14.198  0.3753  0.0394  0.9530
  290TMC3     H 4377   0.434   4.286  14.147  2.0137 -1.7308  0.0476
  290TMC3    H1 4378   0.377   3.883  14.033  1.8319  0.4565 -1.5583
  290TMC3    H2 4379   0.115   4.188  13.893 -1.1976  1.0341  2.8961
  290TMC3    C7 4380   0.134   3.930  13.920 -0.0322  0.3068 -0.2453
  290TMC3    C8 4381   0.219   4.380  14.031  0.2489  0.6906  0.3861
  290TMC3    O1 4382   0.027   3.980  13.886  0.3944  0.0271  0.1818
  290TMC3    O2 4383   0.095   4.378  14.019  0.3775 -0.0379  0.0751
  291MPD2     C 4384   4.292   3.684   0.713 -0.6892 -0.3182 -0.3066
  291MPD2    C1 4385   4.346   3.558   0.735  0.5391 -0.1795  0.0523
  291MPD2    C2 4386   4.479   3.546   0.779  0.7725 -0.0290  0.3037
  291MPD2    C3 4387   4.565   3.660   0.795  0.1111 -0.5847  0.2876
  291MPD2    C4 4388   4.512   3.784   0.757  0.4801  0.0432  0.4655
  291MPD2    C5 4389   4.378   3.790   0.731  0.4289 -0.5121 -0.1455
  291MPD2     H 4390   4.508   3.445   0.803  1.1551  0.1165  0.4593
  291MPD2    H1 4391   4.572   3.874   0.764  1.1206 -0.3258 -0.3061
  291MPD2    H2 4392   4.195   3.703   0.668 -1.3066  0.5033  1.3687
  291MPD2    H3 4393   4.338   3.888   0.709 -0.5468 -0.6131  1.1514
  291MPD2     N 4394   4.697   3.662   0.851 -0.1064  0.3827 -0.1750
  291MPD2    H5 4395   0.019   3.752   0.874  0.1833  0.2153 -0.0381
  291MPD2    N1 4396   4.269   3.443   0.712  0.1615  0.0845  0.0456
  291MPD2    H7 4397   4.315   3.353   0.727 -0.0718 -0.3560 -1.8929
  292TMC3    C1 4398   4.094   3.298   0.666  0.3754  0.8691  0.1227
  292TMC3    C2 4399   3.971   3.276   0.712  0.2472 -0.0955  0.0051
  292TMC3    C3 4400   3.928   3.142   0.702  0.7079  0.0408 -0.5587
  292TMC3    C4 4401   4.178   3.201   0.612 -0.1864 -0.2237  0.3242
  292TMC3    C5 4402   4.126   3.081   0.590 -0.2895  0.1415 -0.0982
  292TMC3    C6 4403   4.003   3.045   0.636  0.4967  0.9978 -0.4074
  292TMC3     C 4404   4.138   3.431   0.683  0.2455 -1.0728  0.0497
  292TMC3     O 4405   4.049   3.515   0.701 -0.1367 -0.0837 -0.4457
  292TMC3     H 4406   3.906   3.357   0.745 -0.4649 -0.8688  0.5094
  292TMC3    H1 4407   4.275   3.229   0.572 -2.0375  2.5813 -2.1533
  292TMC3    H2 4408   3.964   2.944   0.637  0.2997  1.0751 -0.0546
  292TMC3    C7 4409   4.183   2.994   0.487 -1.0983 -0.3139 -0.0421
  292TMC3    C8 4410   3.807   3.111   0.777  0.5025 -0.1878 -0.3513
  292TMC3    O1 4411   4.300   3.004   0.448 -0.1052  0.0567  0.3175
  292TMC3    O2 4412   3.767   3.205   0.841 -0.5682 -0.1036 -0.2518
  293MPD2     C 4413   2.212   0.647  12.724 -0.0460  0.0274  0.4822
  293MPD2    C1 4414   2.127   0.557  12.772  0.2673  0.3197  0.2517
  293MPD2    C2 4415   2.057   0.589  12.886 -0.0960 -0.6123  0.2817
  293MPD2    C3 4416   2.075   0.702  12.959 -0.9761  0.1340  0.8313
  293MPD2    C4 4417   2.161   0.796  12.909  0.1525 -0.5160 -0.2725
  293MPD2    C5 4418   2.218   0.764  12.785 -0.5360 -1.0402 -1.0520
  293MPD2     H 4419   1.979   0.524  12.925 -1.0606 -0.3220 -1.1735
  293MPD2    H1 4420   2.198   0.891  12.945 -0.8667 -0.0885 -0.3902
  293MPD2    H2 4421   2.274   0.625  12.638  0.8660  0.7360  0.9639
  293MPD2    H3 4422   2.296   0.828  12.746  0.6702 -0.6319  2.0749
  293MPD2     N 4423   2.003   0.728  13.078  1.5074 -0.0019 -0.2511
  293MPD2    H5 4424   1.923   0.670  13.101  1.3519  0.0298 -0.7056
  293MPD2    N1 4425   2.113   0.437  12.693  0.1401  0.0285  0.5067
  293MPD2    H7 4426   2.163   0.439  12.605 -0.8531  1.0404 -0.0229
  294TMC3    C1 4427   2.051   0.215  12.630 -0.3460 -0.8953 -0.4729
  294TMC3    C2 4428   1.959   0.113  12.648  0.0616 -0.3580 -0.0946
  294TMC3    C3 4429   1.952   0.015  12.556  0.6165  0.3667  0.4390
  294TMC3    C4 4430   2.149   0.202  12.542 -0.0501 -0.7524 -0.2234
  294TMC3    C5 4431   2.145   0.104  12.452  0.5279 -0.4882 -0.8651
  294TMC3    C6 4432   2.048   0.003  12.460  0.2121  0.9177 -0.4156
  294TMC3     C 4433   2.045   0.321  12.726  0.1672  0.2969 -0.1470
  294TMC3     O 4434   1.983   0.293  12.828 -0.1802  0.2337  0.0559
  294TMC3     H 4435   1.872   0.144  12.705  1.0449  0.6514  0.8455
  294TMC3    H1 4436   2.242   0.258  12.548  0.1087 -1.2935  2.0616
  294TMC3    H2 4437   2.051   4.637  12.391  0.8809  2.4665 -2.2588
  294TMC3    C7 4438   2.164   0.154  12.316  0.7338 -0.0123  0.0256
  294TMC3    C8 4439   1.824   4.683  12.527  1.1068  0.4166 -0.1607
  294TMC3    O1 4440   2.255   0.236  12.302  0.1370 -0.4320  0.6912
  294TMC3    O2 4441   1.729   0.029  12.576  0.8734  0.8175  0.2718
  295MPD2     C 4442   3.047   4.248   0.775  0.4837  0.7694 -0.6133
  295MPD2    C1 4443   2.909   4.233   0.754 -0.3925  0.4117 -0.6509
  295MPD2    C2 4444   2.814   4.275   0.847 -0.6733  0.0191 -0.2346
  295MPD2    C3 4445   2.859   4.321   0.972 -0.2056 -0.2335  1.2904
  295MPD2    C4 4446   2.999   4.325   0.991 -0.3717  0.0012 -0.1864
  295MPD2    C5 4447   3.087   4.291   0.897 -0.4726  0.3001  0.2997
  295MPD2     H 4448   2.710   4.271   0.814 -1.4674 -0.4299  2.3578
  295MPD2    H1 4449   3.048   4.354   1.083  2.1385 -1.4296 -1.0581
  295MPD2    H2 4450   3.121   4.217   0.702  1.1918 -0.7577  0.7329
  295MPD2    H3 4451   3.195   4.290   0.912 -0.3281 -2.0068 -0.8519
  295MPD2     N 4452   2.778   4.372   1.077 -0.6265 -0.2229 -0.4168
  295MPD2    H5 4453   2.823   4.390   1.166 -0.4221 -0.7661 -0.4122
  295MPD2    N1 4454   2.861   4.181   0.631  0.2852 -0.2171  0.1602
  295MPD2    H7 4455   2.760   4.194   0.625  0.4309  1.1658  0.6827
  296TMC3    C1 4456   2.566   4.394   1.189 -0.0527  0.5530 -0.2513
  296TMC3    C2 4457   2.441   4.443   1.170  0.7251  0.4525  0.5016
  296TMC3    C3 4458   2.348   4.425   1.268  0.0984 -0.4262 -0.0649
  296TMC3    C4 4459   2.597   4.305   1.291 -0.5519 -0.4930 -0.0918
  296TMC3    C5 4460   2.502   4.292   1.389  0.0380  0.5912  0.6907
  296TMC3    C6 4461   2.374   4.346   1.381 -0.0717  0.4902  0.8802
  296TMC3     C 4462   2.643   4.382   1.064 -0.3789 -0.8003 -0.1955
  296TMC3     O 4463   2.573   4.383   0.962  0.1939 -0.0715 -0.0173
  296TMC3     H 4464   2.417   4.506   1.084  1.7445 -1.4382 -1.1762
  296TMC3    H1 4465   2.695   4.261   1.309  0.0103  0.9121  0.3130
  296TMC3    H2 4466   2.290   4.318   1.444  0.5501 -0.6279  1.2167
  296TMC3    C7 4467   2.517   4.184   1.482 -0.1890 -0.4861 -1.0233
  296TMC3    C8 4468   2.213   4.453   1.231 -0.3004 -0.0513 -0.2404
  296TMC3    O1 4469   2.632   4.164   1.526  0.0670  0.1209  0.1529
  296TMC3    O2 4470   2.183   4.465   1.114 -0.1312 -0.3673 -0.3652
  297MPD2     C 4471   4.382   1.022  16.550 -0.4340  0.4621 -0.1089
  297MPD2    C1 4472   4.380   1.077  16.424  0.0214  0.2192 -0.4255
  297MPD2    C2 4473   4.427   1.206  16.415  0.9461 -0.2452  1.0703
  297MPD2    C3 4474   4.487   1.270  16.517 -0.2223  0.2734 -0.7485
  297MPD2    C4 4475   4.495   1.213  16.641  0.0937  1.0112  0.2066
  297MPD2    C5 4476   4.441   1.087  16.650  0.2138  0.4245 -0.4627
  297MPD2     H 4477   4.424   1.256  16.319  1.0587 -1.6844  0.3099
  297MPD2    H1 4478   4.546   1.264  16.721 -1.2183 -2.0985  3.0653
  297MPD2    H2 4479   4.349   0.920  16.566 -1.7575  1.0092  0.5501
  297MPD2    H3 4480   4.446   1.034  16.745 -0.2129  0.3438 -0.4842
  297MPD2     N 4481   4.549   1.392  16.486  0.4772  0.2547 -0.0688
  297MPD2    H5 4482   4.575   1.404  16.389  1.2433 -1.4409 -0.0622
  297MPD2    N1 4483   4.310   1.022  16.312  0.1718 -0.7500 -0.8362
  297MPD2    H7 4484   4.287   1.090  16.241 -0.5648 -1.6831 -1.4988
  298TMC3    C1 4485   4.165   0.882  16.208  0.2571  0.1819  0.2901
  298TMC3    C2 4486   4.173   0.955  16.097 -0.1799 -0.1294  0.1599
  298TMC3    C3 4487   4.059   0.987  16.036 -0.2913 -0.4816  0.4423
  298TMC3    C4 4488   4.048   0.844  16.262 -0.0838 -0.0247  0.0712
  298TMC3    C5 4489   3.928   0.891  16.202  0.1017 -0.0082  0.4194
  298TMC3    C6 4490   3.934   0.957  16.085 -0.0573  0.0838  0.3776
  298TMC3     C 4491   4.265   0.894  16.306 -0.0345 -0.5011  0.3043
  298TMC3     O 4492   4.270   0.805  16.392  0.3692  0.4235  0.0415
  298TMC3     H 4493   4.265   0.990  16.051  1.0622 -0.7999  2.1685
  298TMC3    H1 4494   4.044   0.785  16.353 -1.9832  0.6543  0.4303
  298TMC3    H2 4495   3.847   1.002  16.038  1.6197  1.4120 -1.4505
  298TMC3    C7 4496   3.855   0.970  16.299  0.2981 -0.5610  0.0257
  298TMC3    C8 4497   4.066   1.081  15.930 -0.2210 -0.4109 -0.5790
  298TMC3    O1 4498   3.936   1.009  16.382  0.0960  0.3574  0.8606
  298TMC3    O2 4499   4.154   1.165  15.939 -0.4860  0.2925  0.1386
  299MPD2     C 4500   1.429   1.513  10.367 -0.0368 -0.4051 -0.0552
  299MPD2    C1 4501   1.393   1.423  10.468 -0.0463 -0.7206  0.1638
  299MPD2    C2 4502   1.284   1.339  10.446 -0.1521  0.3977 -0.0278
  299MPD2    C3 4503   1.231   1.333  10.321 -0.5473 -0.1901  0.1573
  299MPD2    C4 4504   1.276   1.412  10.220  0.1764 -0.0269  0.7321
  299MPD2    C5 4505   1.369   1.508  10.246  0.4781  0.2429 -0.1889
  299MPD2     H 4506   1.239   1.277  10.522  0.2592 -2.4632 -2.1356
  299MPD2    H1 4507   1.227   1.421  10.124 -2.1496  1.5452  2.0444
  299MPD2    H2 4508   1.508   1.585  10.389 -0.9899 -0.1086  2.4031
  299MPD2    H3 4509   1.394   1.573  10.163  0.0502 -1.5237 -1.7128
  299MPD2     N 4510   1.115   1.261  10.291 -0.4531  0.2827  0.6501
  299MPD2    H5 4511   1.079   1.278  10.198 -1.3953 -3.1324  0.3971
  299MPD2    N1 4512   1.443   1.441  10.596 -0.0579  0.3205 -0.0037
  299MPD2    H7 4513   1.499   1.525  10.601  0.7343 -0.1897 -0.3271
  300TMC3    C1 4514   0.928   1.114  10.328  0.4905 -0.3282 -0.0358
  300TMC3    C2 4515   0.852   1.208  10.261  0.5839  0.2916  0.0935
  300TMC3    C3 4516   0.729   1.235  10.314  0.4843  0.2906  0.2745
  300TMC3    C4 4517   0.868   1.026  10.422 -0.2978  0.0003  0.4300
  300TMC3    C5 4518   0.749   1.065  10.467 -0.2060  0.2428 -0.5283
  300TMC3    C6 4519   0.675   1.171  10.423  0.9996  0.5927 -0.0054
  300TMC3     C 4520   1.063   1.154  10.362  0.0575 -0.1772 -0.3199
  300TMC3     O 4521   1.115   1.107  10.463 -0.3905 -0.1590 -0.3149
  300TMC3     H 4522   0.886   1.270  10.180 -0.0814 -1.0392 -1.2095
  300TMC3    H1 4523   0.934   0.961  10.478 -0.0162  1.2690  1.5881
  300TMC3    H2 4524   0.580   1.196  10.469  1.4009  0.5630  0.8308
  300TMC3    C7 4525   0.704   0.989  10.583 -0.7891 -0.0363  0.0110
  300TMC3    C8 4526   0.683   1.369  10.286  0.5602  0.2790 -0.1688
  300TMC3    O1 4527   0.761   0.883  10.621 -0.1606 -0.0325 -0.0808
  300TMC3    O2 4528   0.773   1.448  10.260  0.1384 -0.2454  0.2770
  301MPD2     C 4529   1.819   2.124   1.819  0.3048 -0.9278 -0.4591
  301MPD2    C1 4530   1.724   2.036   1.767 -0.7180  0.6668 -0.4172
  301MPD2    C2 4531   1.755   1.901   1.770  0.4335 -0.5023  0.3430
  301MPD2    C3 4532   1.878   1.851   1.814  0.1180  0.2538 -0.1045
  301MPD2    C4 4533   1.962   1.944   1.871  0.4640 -0.2318 -0.2619
  301MPD2    C5 4534   1.934   2.080   1.875  0.0505 -0.1419  0.4463
  301MPD2     H 4535   1.683   1.830   1.729  0.2513  0.1676 -0.4887
  301MPD2    H1 4536   2.062   1.917   1.902  0.2087  0.7602  1.4233
  301MPD2    H2 4537   1.810   2.231   1.831  0.0547 -0.9012 -0.8947
  301MPD2    H3 4538   2.010   2.151   1.907  1.1403  0.6445 -3.7601
  301MPD2     N 4539   1.909   1.714   1.814  0.2251  0.1773  0.2064
  301MPD2    H5 4540   2.002   1.689   1.845 -0.1300 -0.2655  0.9250
  301MPD2    N1 4541   1.598   2.080   1.724 -0.3375 -0.0374 -0.0190
  301MPD2    H7 4542   1.537   2.014   1.676 -0.0145  0.2774 -0.8699
  302TMC3    C1 4543   1.884   1.474   1.808 -0.1007 -0.4442 -0.1367
  302TMC3    C2 4544   1.989   1.456   1.897  0.3617  0.3544  1.2455
  302TMC3    C3 4545   2.047   1.330   1.899 -0.0723 -0.0010 -0.1277
  302TMC3    C4 4546   1.837   1.371   1.729 -0.1885  0.7699  0.4445
  302TMC3    C5 4547   1.889   1.245   1.743 -0.2405  1.0972  1.3468
  302TMC3    C6 4548   2.002   1.224   1.823  0.2703 -0.4346  0.6412
  302TMC3     C 4549   1.820   1.607   1.798  0.1686 -0.2144 -0.3738
  302TMC3     O 4550   1.701   1.609   1.766  0.0061 -0.4906  0.3248
  302TMC3     H 4551   2.028   1.530   1.966  2.4456 -1.0910  1.6195
  302TMC3    H1 4552   1.757   1.394   1.659 -0.0611 -0.7964 -0.2184
  302TMC3    H2 4553   2.069   1.139   1.812  0.2800 -0.4127  0.5251
  302TMC3    C7 4554   1.888   1.159   1.624 -0.2155  1.1814  0.1813
  302TMC3    C8 4555   2.163   1.302   1.987  0.4289  0.1066  0.1336
  302TMC3    O1 4556   2.000   1.106   1.605  0.4238  0.1254 -0.1651
  302TMC3    O2 4557   2.245   1.392   2.001 -0.1024 -0.5215 -0.2044
  303MPD2     C 4558   3.373   0.657  10.287 -0.4282  0.1134  0.2162
  303MPD2    C1 4559   3.306   0.541  10.327  0.1736 -0.3105 -0.3136
  303MPD2    C2 4560   3.269   0.449  10.227 -0.1098  0.1061  0.1000
  303MPD2    C3 4561   3.289   0.488  10.095  0.3113 -0.3248  0.0078
  303MPD2    C4 4562   3.354   0.597  10.056 -0.6569 -0.4405 -0.3183
  303MPD2    C5 4563   3.409   0.679  10.156 -0.2051  0.1505  0.2935
  303MPD2     H 4564   3.226   0.354  10.257  0.5057  0.1478  1.1006
  303MPD2    H1 4565   3.382   0.607   9.952 -0.9318  0.9597 -0.2477
  303MPD2    H2 4566   3.413   0.722  10.364 -0.0171  0.6591 -0.4549
  303MPD2    H3 4567   3.489   0.750  10.137 -1.1055  1.3631  1.0838
  303MPD2     N 4568   3.219   0.431   9.995 -0.3407  0.8647 -0.1494
  303MPD2    H5 4569   3.213   0.494   9.916  2.9708  2.3309  0.7527
  303MPD2    N1 4570   3.259   0.536  10.461 -0.1503 -0.1354  0.8331
  303MPD2    H7 4571   3.274   0.611  10.527 -2.2117  1.2655 -0.2705
  304TMC3    C1 4572   3.187   0.415  10.659 -0.3520 -0.3590  0.8633
  304TMC3    C2 4573   3.105   0.514  10.705  0.2101 -0.2110  0.1117
  304TMC3    C3 4574   3.069   0.514  10.838  0.7721  0.4766  0.2015
  304TMC3    C4 4575   3.224   0.315  10.740  0.0084  0.5365  0.0688
  304TMC3    C5 4576   3.194   0.326  10.874  0.1233  0.1543  0.3361
  304TMC3    C6 4577   3.127   0.439  10.931 -0.4853  0.3265 -0.1588
  304TMC3     C 4578   3.232   0.414  10.521 -0.1885 -0.0274 -0.3559
  304TMC3     O 4579   3.275   0.303  10.489 -0.1446 -0.1089 -0.1207
  304TMC3     H 4580   3.062   0.585  10.636 -3.5717 -1.1327  1.4884
  304TMC3    H1 4581   3.268   0.225  10.700 -3.1730 -1.9475  2.0812
  304TMC3    H2 4582   3.090   0.431  11.033 -1.3905 -0.8210 -0.5765
  304TMC3    C7 4583   3.164   0.200  10.938  0.1543 -0.6755  0.1296
  304TMC3    C8 4584   2.924   0.509  10.839  0.1376 -0.2894  0.0322
  304TMC3    O1 4585   3.195   0.190  11.053  0.7933  0.7157 -0.0681
  304TMC3    O2 4586   2.883   0.481  10.723  0.2082 -0.0518  0.1281
  305MPD2     C 4587   0.774   2.856  13.809  0.2056 -0.6164  0.1619
  305MPD2    C1 4588   0.737   2.721  13.801 -0.2878  0.1444 -0.0190
  305MPD2    C2 4589   0.719   2.660  13.680  0.5523 -0.6373 -0.3987
  305MPD2    C3 4590   0.734   2.731  13.565 -0.6452 -0.3823  0.3290
  305MPD2    C4 4591   0.782   2.861  13.576 -0.0501 -0.3451 -0.5600
  305MPD2    C5 4592   0.800   2.922  13.694  0.0038  0.1550  0.2862
  305MPD2     H 4593   0.679   2.559  13.681  2.2544 -1.3190  0.4293
  305MPD2    H1 4594   0.797   2.935  13.498  1.1991  0.1033  0.1052
  305MPD2    H2 4595   0.773   2.913  13.901  2.0019  0.3239 -0.4047
  305MPD2    H3 4596   0.827   3.026  13.710 -0.8750  0.3124  0.7243
  305MPD2     N 4597   0.724   2.681  13.436 -0.2662  0.0652 -0.2176
  305MPD2    H5 4598   0.751   2.732  13.353 -1.9200  3.4856  1.3330
  305MPD2    N1 4599   0.709   2.657  13.925  0.1335 -0.1446 -0.4170
  305MPD2    H7 4600   0.715   2.718  14.006 -1.1306 -0.8005  0.1814
  306TMC3    C1 4601   0.653   2.496  14.072 -0.4750  0.5373  0.8118
  306TMC3    C2 4602   0.721   2.383  14.117  0.4080  0.0422  0.4508
  306TMC3    C3 4603   0.773   2.371  14.246  0.0302  0.3778  0.3723
  306TMC3    C4 4604   0.634   2.600  14.157  0.1014 -0.0966  0.3912
  306TMC3    C5 4605   0.664   2.580  14.289  0.2028 -0.4951  0.4561
  306TMC3    C6 4606   0.746   2.471  14.329 -0.2144  0.2882 -0.3818
  306TMC3     C 4607   0.685   2.522  13.937  0.0250 -0.1214  0.6401
  306TMC3     O 4608   0.675   2.428  13.859 -0.2464  0.3225 -0.3216
  306TMC3     H 4609   0.750   2.305  14.047 -2.6454 -0.9933  0.3347
  306TMC3    H1 4610   0.582   2.689  14.126  3.2784  1.8930  0.7558
  306TMC3    H2 4611   0.749   2.445  14.434  0.3370 -0.1203 -0.5003
  306TMC3    C7 4612   0.602   2.663  14.389 -0.2221  1.0350 -0.5189
  306TMC3    C8 4613   0.802   2.241  14.300 -0.3112  1.0554  0.9153
  306TMC3    O1 4614   0.509   2.729  14.344  0.2568 -0.3788  0.4455
  306TMC3    O2 4615   0.891   2.226  14.383  0.6047  0.4278 -0.6639
  307MPD2     C 4616   4.039   0.162   0.802 -0.7148 -0.3597  0.1654
  307MPD2    C1 4617   3.960   0.193   0.692 -0.0706 -0.3576 -0.4156
  307MPD2    C2 4618   3.824   0.209   0.715  0.0351  0.1971 -0.0309
  307MPD2    C3 4619   3.768   0.230   0.842  0.5406 -0.2846 -0.1558
  307MPD2    C4 4620   3.856   0.226   0.950  0.8918  0.2456 -0.0257
  307MPD2    C5 4621   3.987   0.178   0.930  0.1229 -0.1405 -0.1882
  307MPD2     H 4622   3.761   0.222   0.628 -1.5110 -2.3222  0.7074
  307MPD2    H1 4623   3.807   0.240   1.046  0.6527  1.6909 -0.3581
  307MPD2    H2 4624   4.146   0.148   0.791 -0.2010  1.7171  2.4324
  307MPD2    H3 4625   4.044   0.162   1.021 -0.2666 -1.9144 -0.2583
  307MPD2     N 4626   3.631   0.239   0.880 -0.6802  0.0879  1.0053
  307MPD2    H5 4627   3.613   0.249   0.979  0.5059  1.6853  1.0546
  307MPD2    N1 4628   4.007   0.193   0.560  0.8746 -0.0703 -0.7501
  307MPD2    H7 4629   3.939   0.223   0.491  0.2253 -1.0243 -0.5210
  308TMC3    C1 4630   3.173   0.184   0.779  0.1882  0.2787  0.3091
  308TMC3    C2 4631   3.132   0.284   0.861  0.7235  0.1078 -0.0738
  308TMC3    C3 4632   3.220   0.360   0.927 -0.1978 -0.0543 -0.9985
  308TMC3    C4 4633   3.309   0.149   0.776 -0.3597 -0.4618  0.3283
  308TMC3    C5 4634   3.394   0.231   0.844 -0.3183 -0.1404 -0.0328
  308TMC3    C6 4635   3.359   0.337   0.926 -0.4389 -0.2374  0.6303
  308TMC3     C 4636   3.110   0.180   0.650 -0.0682  0.4512 -0.2389
  308TMC3     O 4637   3.182   0.152   0.556 -0.0750  0.0745  0.2788
  308TMC3     H 4638   3.028   0.312   0.862  0.8841  0.6224  1.3072
  308TMC3    H1 4639   3.344   0.084   0.697 -0.0169  1.2821 -0.9721
  308TMC3    H2 4640   3.439   0.399   0.962  0.4006 -0.5994 -0.6011
  308TMC3    C7 4641   3.528   0.228   0.784 -0.0506 -0.5971 -0.0373
  308TMC3    C8 4642   3.170   0.499   0.930  0.2464  0.0993 -0.2577
  308TMC3    O1 4643   3.532   0.213   0.662  0.1654 -0.2226 -0.8406
  308TMC3    O2 4644   3.061   0.516   0.977 -0.1028  0.3558  0.2757
  309MPD2     C 4645   1.903   0.171  17.121 -0.3328 -0.1120  0.3521
  309MPD2    C1 4646   2.000   0.265  17.139  0.0303 -0.5606  0.5258
  309MPD2    C2 4647   1.963   0.389  17.195  0.1745  0.8257 -1.4303
  309MPD2    C3 4648   1.838   0.417  17.244  0.2390  0.8845 -0.1355
  309MPD2    C4 4649   1.744   0.315  17.231 -0.4665  0.2062  0.0240
  309MPD2    C5 4650   1.775   0.200  17.164 -0.2955  0.2019  0.0664
  309MPD2     H 4651   2.040   0.465  17.185 -1.5984  2.7058 -0.7936
  309MPD2    H1 4652   1.639   0.330  17.255 -0.5311  0.0261 -0.1435
  309MPD2    H2 4653   1.919   0.077  17.068 -1.6498 -0.4375  0.5219
  309MPD2    H3 4654   1.695   0.130  17.142  0.4739 -0.8073  0.4620
  309MPD2     N 4655   1.794   0.543  17.281 -0.2885  0.2857 -0.4588
  309MPD2    H5 4656   1.702   0.555  17.323 -0.5498  0.1052 -0.9771
  309MPD2    N1 4657   2.127   0.259  17.079 -0.2428  0.2558  0.5236
  309MPD2    H7 4658   2.177   0.347  17.079  2.2880 -1.1843 -0.6572
  310TMC3    C1 4659   2.322   0.183  16.968  0.8165 -0.7211  0.2214
  310TMC3    C2 4660   2.343   0.309  16.935 -0.2593  0.1401  0.2340
  310TMC3    C3 4661   2.474   0.332  16.892 -0.0964  0.4514 -0.4864
  310TMC3    C4 4662   2.413   0.078  16.958  0.0768 -0.0273 -0.1385
  310TMC3    C5 4663   2.539   0.111  16.922 -0.3632 -0.7407  0.1674
  310TMC3    C6 4664   2.571   0.237  16.882  0.0778 -0.6833 -0.6284
  310TMC3     C 4665   2.194   0.150  17.027  0.3248 -1.3188 -0.2416
  310TMC3     O 4666   2.162   0.032  17.027  0.6340 -0.4689  0.0910
  310TMC3     H 4667   2.267   0.385  16.923 -0.7683 -0.2863  0.7992
  310TMC3    H1 4668   2.382   4.698  16.992  0.2243 -0.1221 -0.2729
  310TMC3    H2 4669   2.667   0.254  16.834  0.4363 -1.8618 -0.3250
  310TMC3    C7 4670   2.631   0.004  16.898  0.0179  0.3987 -0.2036
  310TMC3    C8 4671   2.493   0.431  16.786 -0.3107  0.1135 -0.3214
  310TMC3    O1 4672   2.593   4.614  16.855  0.6143 -0.2534  0.3611
  310TMC3    O2 4673   2.395   0.484  16.738 -0.1238  0.0017 -0.4673
  311MPD2     C 4674   4.649   2.254  12.330 -0.1654  0.4591 -0.2126
  311MPD2    C1 4675   4.670   2.247  12.467  0.2154 -0.2121 -0.1539
  311MPD2    C2 4676   4.571   2.177  12.533 -0.8185 -0.6055 -0.3265
  311MPD2    C3 4677   4.462   2.121  12.476  0.0915  0.1867 -0.4182
  311MPD2    C4 4678   4.457   2.128  12.337  0.0486 -0.1964  0.3072
  311MPD2    C5 4679   4.552   2.191  12.269  0.9813 -0.5753  0.0644
  311MPD2     H 4680   4.582   2.178  12.641  1.1755  0.7549 -0.5543
  311MPD2    H1 4681   4.382   2.070  12.284  0.9510 -0.0823 -1.0959
  311MPD2    H2 4682   0.007   2.300  12.269  1.3700 -3.2547 -1.0659
  311MPD2    H3 4683   4.554   2.202  12.162 -1.4586 -1.7667 -0.1009
  311MPD2     N 4684   4.369   2.054  12.562 -0.5709 -0.7883 -0.3433
  311MPD2    H5 4685   4.397   2.042  12.659  0.2047 -1.4645 -0.6585
  311MPD2    N1 4686   0.068   2.301  12.531 -0.2580  0.0730  0.1329
  311MPD2    H7 4687   0.095   2.288  12.628  0.9043  0.6968 -0.0970
  312TMC3    C1 4688   4.179   1.918  12.620 -0.3034  0.1845 -0.0846
  312TMC3    C2 4689   4.099   1.815  12.570  0.5482 -0.3977 -0.4975
  312TMC3    C3 4690   3.986   1.781  12.633  0.2784  0.6166 -0.4775
  312TMC3    C4 4691   4.145   1.992  12.728  0.5772  0.0540 -0.3686
  312TMC3    C5 4692   4.041   1.934  12.807 -0.2900  0.7629  0.0997
  312TMC3    C6 4693   3.959   1.831  12.756  0.3191  0.0013 -0.1899
  312TMC3     C 4694   4.260   1.981  12.514  0.3486  0.1008  0.7943
  312TMC3     O 4695   4.239   1.944  12.399 -0.4699 -0.1343 -0.1564
  312TMC3     H 4696   4.125   1.765  12.478  0.0137 -1.0179 -0.3081
  312TMC3    H1 4697   4.199   2.080  12.761  0.1548  0.1173  0.1609
  312TMC3    H2 4698   3.883   1.785  12.817 -0.5791 -0.3735 -1.5914
  312TMC3    C7 4699   4.006   1.989  12.932 -0.1073 -0.8897 -0.7093
  312TMC3    C8 4700   3.912   1.665  12.595  0.3989  0.2225  0.7164
  312TMC3    O1 4701   4.085   2.074  12.973 -0.4601 -0.0363 -0.0058
  312TMC3    O2 4702   3.851   1.600  12.680  0.2797  0.5720  0.2272
  313MPD2     C 4703   4.602   1.428  10.687  0.3777  0.1365 -0.8025
  313MPD2    C1 4704   4.480   1.362  10.643  0.3569 -1.1576  0.1565
  313MPD2    C2 4705   4.493   1.283  10.529 -0.0028  0.3454  0.3596
  313MPD2    C3 4706   4.609   1.284  10.447  0.0418  0.2926  0.0849
  313MPD2    C4 4707   0.004   1.356  10.492  0.7497  0.2094  0.0166
  313MPD2    C5 4708   4.715   1.424  10.609 -0.4173  0.3447 -0.0282
  313MPD2     H 4709   4.408   1.233  10.484  0.1061  0.0864  0.4408
  313MPD2    H1 4710   0.101   1.346  10.445  0.7269 -0.6197  0.1505
  313MPD2    H2 4711   4.604   1.473  10.785 -0.9326  0.4853 -0.9314
  313MPD2    H3 4712   0.089   1.461  10.652 -1.1269  1.0545  0.8715
  313MPD2     N 4713   4.605   1.197  10.332  0.4242 -0.4075 -0.0337
  313MPD2    H5 4714   4.529   1.131  10.322 -0.2818  0.0413  2.4330
  313MPD2    N1 4715   4.348   1.394  10.687  0.2245  0.2008 -0.0832
  313MPD2    H7 4716   4.277   1.338  10.640  0.8963 -0.6133 -0.1449
  314TMC3    C1 4717   4.183   1.548  10.743  0.5323  1.0183 -1.0935
  314TMC3    C2 4718   4.163   1.660  10.824 -0.5092  0.4214  0.6912
  314TMC3    C3 4719   4.122   1.777  10.770  0.3942  0.0046  0.1228
  314TMC3    C4 4720   4.139   1.549  10.614  0.2852  0.3243 -0.2081
  314TMC3    C5 4721   4.086   1.669  10.561 -0.3249  0.1311  0.0313
  314TMC3    C6 4722   4.080   1.783  10.637 -0.1484  0.7988 -0.0922
  314TMC3     C 4723   4.320   1.500  10.763  0.2433 -0.0937 -0.1072
  314TMC3     O 4724   4.396   1.578  10.821  0.2042  0.5947  0.6824
  314TMC3     H 4725   4.196   1.654  10.927 -0.6978  1.0976  0.7874
  314TMC3    H1 4726   4.139   1.455  10.559  0.2862 -0.6152  1.4184
  314TMC3    H2 4727   4.053   1.881  10.600 -2.3906  1.2025  2.6245
  314TMC3    C7 4728   4.059   1.672  10.422 -0.2691  0.0736 -0.7688
  314TMC3    C8 4729   4.189   1.895  10.810 -0.4395  0.0983  0.0309
  314TMC3    O1 4730   4.036   1.564  10.372  0.0148  0.0826 -0.0688
  314TMC3    O2 4731   4.132   2.002  10.793  0.2574  0.2883 -0.4426
  315MPD2     C 4732   3.447   0.891   0.726  0.3542 -0.6354 -0.5240
  315MPD2    C1 4733   3.576   0.869   0.697  0.2459 -0.4997 -0.1576
  315MPD2    C2 4734   3.630   0.956   0.599  0.7274 -0.1823 -0.3257
  315MPD2    C3 4735   3.565   1.053   0.537 -0.0111  0.3657  0.7021
  315MPD2    C4 4736   3.432   1.067   0.560 -0.2442  0.1426  0.9475
  315MPD2    C5 4737   3.380   0.994   0.662  0.5893  0.6348 -0.7850
  315MPD2     H 4738   3.735   0.938   0.584  0.7696  0.2713 -0.5785
  315MPD2    H1 4739   3.370   1.139   0.508  1.7671  1.3366  0.2125
  315MPD2    H2 4740   3.399   0.840   0.809 -0.5939  1.5408  0.2613
  315MPD2    H3 4741   3.281   1.016   0.700  0.3163 -2.3603  0.1660
  315MPD2     N 4742   3.647   1.134   0.448 -0.4398 -0.1724 -0.2959
  315MPD2    H5 4743   3.747   1.116   0.452 -0.4860 -0.5635 -1.0459
  315MPD2    N1 4744   3.657   0.774   0.759  0.1112 -0.0770 -0.3590
  315MPD2    H7 4745   3.753   0.759   0.728  1.4068 -0.9172  4.0334
  316TMC3    C1 4746   3.693   1.266   0.259 -0.5546 -0.1365  0.4467
  316TMC3    C2 4747   3.821   1.218   0.259 -0.5556 -0.2959 -0.2386
  316TMC3    C3 4748   3.901   1.259   0.155  0.4819  0.2161  0.7255
  316TMC3    C4 4749   3.651   1.367   0.176 -1.0373 -0.0487 -0.1453
  316TMC3    C5 4750   3.733   1.399   0.075 -0.2460 -0.5875  0.0543
  316TMC3    C6 4751   3.862   1.358   0.062  0.3206 -0.0643 -0.6593
  316TMC3     C 4752   3.591   1.205   0.343 -0.2340  0.7466  0.3259
  316TMC3     O 4753   3.473   1.219   0.312 -0.7804  0.0736  0.2425
  316TMC3     H 4754   3.856   1.149   0.335  1.5189 -0.8897 -1.7356
  316TMC3    H1 4755   3.551   1.405   0.189 -2.0327 -2.9902  0.7676
  316TMC3    H2 4756   3.925   1.405  17.664 -0.3297  0.8786 -0.6178
  316TMC3    C7 4757   3.682   1.507  17.672  0.5066 -0.8498 -0.1080
  316TMC3    C8 4758   4.042   1.225   0.163  0.1115 -0.0135 -0.3097
  316TMC3    O1 4759   3.590   1.564   0.047  0.6314 -0.5445 -0.2073
  316TMC3    O2 4760   4.078   1.188   0.272 -0.3615  0.5456  0.2180
  317MPD2     C 4761   1.404   4.022  12.171  0.1598  0.2437 -0.7099
  317MPD2    C1 4762   1.448   3.894  12.190 -0.2552  0.9072 -0.2991
  317MPD2    C2 4763   1.490   3.854  12.314  0.1654  0.7460 -0.4689
  317MPD2    C3 4764   1.482   3.935  12.423 -0.0804 -0.0827  0.0096
  317MPD2    C4 4765   1.434   4.063  12.413  0.3286  0.2889 -0.0477
  317MPD2    C5 4766   1.403   4.102  12.283  0.3167  0.2460  0.0704
  317MPD2     H 4767   1.512   3.749  12.324 -1.3152  0.1302 -3.5790
  317MPD2    H1 4768   1.442   4.130  12.497 -1.6969  0.7896 -0.2553
  317MPD2    H2 4769   1.398   4.075  12.076  0.8442  0.5419 -0.5845
  317MPD2    H3 4770   1.373   4.205  12.274 -2.4818 -0.8794 -3.1287
  317MPD2     N 4771   1.501   3.868  12.549 -0.3315 -0.6513  0.1151
  317MPD2    H5 4772   1.522   3.769  12.543 -2.9851 -1.3451  2.2053
  317MPD2    N1 4773   1.470   3.801  12.091  0.2037 -0.1500 -0.1695
  317MPD2    H7 4774   1.519   3.715  12.111 -1.3153 -1.2216 -1.0016
  318TMC3    C1 4775   1.542   3.818  12.768  0.8990  0.1935  0.0889
  318TMC3    C2 4776   1.489   3.691  12.758 -0.9185 -0.3247  0.5953
  318TMC3    C3 4777   1.496   3.610  12.867 -0.0753 -0.4297  0.4985
  318TMC3    C4 4778   1.620   3.858  12.875 -0.1529  0.2498 -0.2424
  318TMC3    C5 4779   1.621   3.772  12.978  0.5465 -0.3249  0.8003
  318TMC3    C6 4780   1.568   3.646  12.977 -0.4520  0.1955  0.3164
  318TMC3     C 4781   1.508   3.917  12.674 -0.5104  0.4138 -0.9214
  318TMC3     O 4782   1.503   4.033  12.713 -0.3362  0.3216 -0.6408
  318TMC3     H 4783   1.422   3.657  12.680 -1.0278 -0.5534  0.7876
  318TMC3    H1 4784   1.665   3.957  12.881 -2.4437  1.4333 -2.4422
  318TMC3    H2 4785   1.588   3.579  13.060  1.9517 -0.2207 -0.6103
  318TMC3    C7 4786   1.684   3.809  13.099 -0.3880  0.2038  0.0320
  318TMC3    C8 4787   1.390   3.520  12.897 -0.1406  0.4125 -0.3919
  318TMC3    O1 4788   1.671   3.929  13.134 -0.4380  0.2084  0.0724
  318TMC3    O2 4789   1.418   3.446  12.989 -0.2066  0.4304 -0.3747
  319MPD2     C 4790   1.070   0.301  16.783  0.3006 -0.2007 -0.4142
  319MPD2    C1 4791   0.984   0.264  16.890 -0.1078 -0.4779 -0.3704
  319MPD2    C2 4792   0.848   0.264  16.873  0.8175 -0.6695  0.0351
  319MPD2    C3 4793   0.796   0.277  16.741  0.1322 -0.4386 -0.7694
  319MPD2    C4 4794   0.882   0.314  16.635  0.3688  0.5237 -0.0751
  319MPD2    C5 4795   1.015   0.331  16.660 -0.4023 -0.6620 -0.6141
  319MPD2     H 4796   0.788   0.240  16.960 -0.0257  0.5040 -0.2221
  319MPD2    H1 4797   0.843   0.321  16.534  0.5972 -3.0385 -0.3869
  319MPD2    H2 4798   1.176   0.309  16.806  0.2809 -0.0350 -0.3755
  319MPD2    H3 4799   1.081   0.360  16.580  0.1922  0.4819  0.2763
  319MPD2     N 4800   0.659   0.263  16.697  0.5409  0.3474  0.1850
  319MPD2    H5 4801   0.627   0.287  16.604  0.3986 -2.4620 -0.4767
  319MPD2    N1 4802   1.030   0.244  17.019 -0.4898 -0.1558 -0.2650
  319MPD2    H7 4803   0.967   0.185  17.072 -1.3397  0.1672 -0.9047
  320TMC3    C1 4804   0.432   0.233  16.719  0.2935  0.4203  0.1225
  320TMC3    C2 4805   0.412   0.357  16.657 -0.3639  0.7566  0.1396
  320TMC3    C3 4806   0.303   0.365  16.575  0.4353  0.4220  0.0144
  320TMC3    C4 4807   0.342   0.134  16.713 -0.1380  0.0052 -0.0862
  320TMC3    C5 4808   0.234   0.150  16.634  0.1378 -0.2706 -0.8756
  320TMC3    C6 4809   0.203   0.269  16.565 -0.0761  0.1774  0.3604
  320TMC3     C 4810   0.560   0.207  16.776  0.0105 -0.2274  0.4914
  320TMC3     O 4811   0.565   0.124  16.864  0.4213 -0.0112  0.0673
  320TMC3     H 4812   0.484   0.437  16.665  1.6841 -0.9181 -1.5974
  320TMC3    H1 4813   0.358   0.042  16.768 -1.6487 -0.4171 -0.3563
  320TMC3    H2 4814   0.109   0.283  16.514 -0.3221 -2.1729  0.1550
  320TMC3    C7 4815   0.196   0.045  16.552 -0.5319 -0.0101  0.2613
  320TMC3    C8 4816   0.328   0.454  16.467  0.5475 -0.2401 -0.3264
  320TMC3    O1 4817   0.154   0.078  16.439  0.3915  0.6703 -0.6207
  320TMC3    O2 4818   0.390   0.561  16.490 -0.2416  0.1117 -1.2052
  321TMC3    C1 4819   1.157   0.231  17.192 -0.2419 -0.2431  0.8128
  321TMC3    C2 4820   1.178   0.096  17.176 -0.0213 -0.6928 -0.3951
  321TMC3    C3 4821   1.223   0.031  17.291  0.2164 -0.3406 -0.0069
  321TMC3    C4 4822   1.174   0.300  17.309 -1.0054 -0.2840 -0.4897
  321TMC3    C5 4823   1.207   0.229  17.418 -0.1800 -0.2385  0.8242
  321TMC3    C6 4824   1.222   0.091  17.417 -0.7078 -0.9805  0.4870
  321TMC3     C 4825   1.139   0.301  17.075 -1.1725  1.3656 -0.1463
  321TMC3     O 4826   1.201   0.400  17.039  0.0388  0.0219 -0.7023
  321TMC3     H 4827   1.163   0.038  17.085 -0.7473 -0.2484 -0.5648
  321TMC3    H1 4828   1.147   0.406  17.310 -0.3818 -0.1155 -1.7182
  321TMC3    H2 4829   1.255   0.031  17.501 -0.7900 -2.6559 -0.6709
  321TMC3    C7 4830   1.306   0.302  17.497 -0.2695  0.7843 -0.5825
  321TMC3    C8 4831   1.341   4.660  17.279 -0.4061 -0.0538  0.2877
  321TMC3    O1 4832   1.298   0.426  17.511 -0.7135  0.3719 -0.4506
  321TMC3    O2 4833   1.416   4.660  17.375  0.0947  0.7492 -0.0009
  322MPD2     C 4834   0.957   1.719  13.055  0.4974 -0.0689 -0.2651
  322MPD2    C1 4835   0.849   1.716  13.145  0.4169  0.5705 -0.0023
  322MPD2    C2 4836   0.769   1.603  13.142 -0.1772  0.2434  0.1468
  322MPD2    C3 4837   0.806   1.493  13.068 -0.5564 -0.0523  0.1746
  322MPD2    C4 4838   0.917   1.494  12.988  0.4629 -0.2877 -0.7430
  322MPD2    C5 4839   0.992   1.608  12.979 -0.1129 -0.3637  0.0976
  322MPD2     H 4840   0.673   1.608  13.191 -2.2283 -0.6491 -3.7994
  322MPD2    H1 4841   0.947   1.406  12.932  4.2516  1.5461 -1.5750
  322MPD2    H2 4842   1.038   1.790  13.059  0.4849 -0.0894  0.3621
  322MPD2    H3 4843   1.078   1.592  12.914  0.6039 -0.0350  0.9606
  322MPD2     N 4844   0.725   1.375  13.075  0.4186 -0.0731  0.2624
  322MPD2    H5 4845   0.641   1.382  13.132  0.6929 -0.2376  0.6882
  322MPD2    N1 4846   0.828   1.832  13.226 -0.0476 -0.7255 -0.4415
  322MPD2    H7 4847   0.883   1.913  13.200  0.8790 -1.1190  0.3131
  323TMC3    C1 4848   0.739   1.972  13.395  0.0630 -0.5927 -0.0769
  323TMC3    C2 4849   0.839   2.069  13.379 -0.3493 -0.3152  0.1694
  323TMC3    C3 4850   0.829   2.186  13.450  0.6556  0.1184 -0.3575
  323TMC3    C4 4851   0.643   1.990  13.493  0.1362 -0.3539  0.0763
  323TMC3    C5 4852   0.648   2.104  13.573 -0.8799 -0.3438  0.0281
  323TMC3    C6 4853   0.741   2.200  13.548 -0.1957 -0.7164 -0.0708
  323TMC3     C 4854   0.729   1.848  13.317 -0.3059 -0.2780 -0.2686
  323TMC3     O 4855   0.647   1.766  13.351  0.2324  1.1914 -0.0026
  323TMC3     H 4856   0.925   2.052  13.314 -1.4675 -0.9567 -1.1335
  323TMC3    H1 4857   0.584   1.909  13.532 -1.2476  0.4977 -0.2373
  323TMC3    H2 4858   0.732   2.297  13.596  0.6468 -1.4990  1.6749
  323TMC3    C7 4859   0.656   2.076  13.718 -0.4813  0.2337  0.0164
  323TMC3    C8 4860   0.957   2.243  13.495  0.3606  0.4529 -0.1037
  323TMC3    O1 4861   0.591   1.980  13.759  0.1813  0.0296  0.7533
  323TMC3    O2 4862   0.951   2.301  13.601  0.5473 -0.1162  0.0768
  324MPD2     C 4863   2.434   2.839  14.699 -0.7578  0.6266 -0.1080
  324MPD2    C1 4864   2.454   2.932  14.597 -0.6376  0.6260  0.6661
  324MPD2    C2 4865   2.343   2.997  14.541 -0.5541  0.3994  0.6428
  324MPD2    C3 4866   2.216   2.951  14.563 -0.2602  0.1331  0.5272
  324MPD2    C4 4867   2.203   2.848  14.654  0.5056  0.3785  0.1127
  324MPD2    C5 4868   2.309   2.799  14.727 -0.6939 -0.2275 -0.0928
  324MPD2     H 4869   2.354   3.079  14.470 -0.1924  1.0466  1.4479
  324MPD2    H1 4870   2.109   2.802  14.681  0.0053  1.2370 -0.1692
  324MPD2    H2 4871   2.517   2.796  14.754 -0.5362  2.6249  1.1186
  324MPD2    H3 4872   2.289   2.721  14.800  1.4520 -0.4303  0.2751
  324MPD2     N 4873   2.100   3.006  14.508  0.2225  0.5488 -1.1255
  324MPD2    H5 4874   2.012   2.961  14.529  0.3445 -0.1356 -2.0670
  324MPD2    N1 4875   2.584   2.982  14.558 -0.5508 -0.2884  0.2264
  324MPD2    H7 4876   2.592   3.046  14.480 -2.8099 -0.8301 -0.4581
  325TMC3    C1 4877   1.964   3.116  14.355  0.1937 -0.5753 -0.3590
  325TMC3    C2 4878   1.928   3.136  14.226 -0.0043  0.5086  0.0112
  325TMC3    C3 4879   1.795   3.139  14.191 -0.2652  0.0296 -0.1596
  325TMC3    C4 4880   1.870   3.122  14.450 -0.1424 -0.2963  0.1581
  325TMC3    C5 4881   1.735   3.145  14.419  0.4853 -0.0618 -0.0185
  325TMC3    C6 4882   1.690   3.148  14.281 -0.1374 -0.4138  0.0037
  325TMC3     C 4883   2.098   3.094  14.399 -0.5384  0.0409  0.3360
  325TMC3     O 4884   2.185   3.127  14.316  0.1491  0.5002  0.0278
  325TMC3     H 4885   2.007   3.124  14.152  0.1518  1.0370  0.0939
  325TMC3    H1 4886   1.904   3.138  14.552  1.2509  0.4237 -0.4209
  325TMC3    H2 4887   1.588   3.167  14.251  1.0390  2.1015 -2.4734
  325TMC3    C7 4888   1.644   3.169  14.526 -0.3997 -0.2333  0.2247
  325TMC3    C8 4889   1.768   3.101  14.055 -0.6803  0.0518  0.5646
  325TMC3    O1 4890   1.682   3.173  14.641  0.3009  0.3320 -0.2677
  325TMC3    O2 4891   1.859   3.122  13.981  0.4217  0.3832  0.0060
  326MPD2     C 4892   3.981   4.491  11.119 -0.9829  1.0107 -0.3122
  326MPD2    C1 4893   3.980   4.477  10.985 -0.0147 -0.4146  0.1109
  326MPD2    C2 4894   4.067   4.558  10.911 -0.3114  0.5154 -0.4466
  326MPD2    C3 4895   4.146   4.661  10.968  0.0665 -0.7496  0.3489
  326MPD2    C4 4896   4.120   4.685  11.100 -0.2990  0.1990 -0.6729
  326MPD2    C5 4897   4.048   4.594  11.180  0.4397  0.1461  0.2216
  326MPD2     H 4898   4.075   4.529  10.807  1.4108  0.1747 -0.2252
  326MPD2    H1 4899   4.171   0.046  11.154  1.7307 -2.6440  1.5972
  326MPD2    H2 4900   3.927   4.419  11.179  0.9451 -0.9729 -0.9459
  326MPD2    H3 4901   4.051   4.609  11.287 -2.1902 -0.6586  0.3906
  326MPD2     N 4902   4.248   0.023  10.900 -0.4268  0.1865 -0.4975
  326MPD2    H5 4903   4.290   0.098  10.953  2.5617 -2.5735  1.0952
  326MPD2    N1 4904   3.920   4.378  10.907 -0.6098  0.0153  0.0843
  326MPD2    H7 4905   3.934   4.377  10.806  0.2311 -1.5424  0.2226
  327TMC3    C1 4906   3.809   4.187  10.858 -0.2000 -0.1548  0.7160
  327TMC3    C2 4907   3.694   4.198  10.789  0.2646 -0.5176  0.0267
  327TMC3    C3 4908   3.683   4.179  10.650 -0.3596 -0.4174 -0.1473
  327TMC3    C4 4909   3.919   4.151  10.789 -0.6247 -0.0993  0.0025
  327TMC3    C5 4910   3.914   4.127  10.652 -0.1163  0.0568  0.4091
  327TMC3    C6 4911   3.799   4.147  10.583 -0.3558 -0.1851 -0.2256
  327TMC3     C 4912   3.834   4.286  10.957 -0.7422 -0.7255 -0.0879
  327TMC3     O 4913   3.778   4.270  11.063 -0.9981  0.2365  0.1408
  327TMC3     H 4914   3.616   4.246  10.846 -1.7052 -3.4867 -0.1296
  327TMC3    H1 4915   4.001   4.117  10.852 -0.9297 -1.3493 -0.2722
  327TMC3    H2 4916   3.808   4.137  10.475 -2.0485  0.2512 -0.4040
  327TMC3    C7 4917   4.032   4.109  10.570 -0.3128 -0.0855 -0.1345
  327TMC3    C8 4918   3.580   4.257  10.583 -0.5462  0.2148 -0.2473
  327TMC3    O1 4919   4.027   4.104  10.443 -0.4708  0.1740 -0.2765
  327TMC3    O2 4920   3.600   4.295  10.468 -0.0778  0.4512  0.1648
  328MPD2     C 4921   0.694   3.055  17.364 -0.0291  0.0019 -0.3290
  328MPD2    C1 4922   0.551   3.053  17.373 -0.3740 -0.2162  0.0524
  328MPD2    C2 4923   0.476   3.111  17.276 -0.1307  0.4468 -0.4497
  328MPD2    C3 4924   0.546   3.201  17.187  0.2721  0.4926  0.0656
  328MPD2    C4 4925   0.681   3.205  17.182 -0.6501 -0.1736  0.2720
  328MPD2    C5 4926   0.756   3.135  17.273  0.0675  1.4113  0.4173
  328MPD2     H 4927   0.368   3.101  17.277  0.0217 -1.2201 -1.6284
  328MPD2    H1 4928   0.724   3.286  17.124 -1.6461 -0.0145 -0.2477
  328MPD2    H2 4929   0.752   3.008  17.442 -1.2030  1.4848  1.4395
  328MPD2    H3 4930   0.865   3.136  17.269  0.1617 -1.5828  2.1539
  328MPD2     N 4931   0.478   3.289  17.110  0.2731 -0.4101  0.4766
  328MPD2    H5 4932   0.536   3.359  17.065  1.7683 -2.2581 -0.5074
  328MPD2    N1 4933   0.489   2.975  17.482 -0.1806 -0.4379 -0.3273
  328MPD2    H7 4934   0.541   2.916  17.546  0.7972  1.5714  0.7226
  329TMC3    C1 4935   0.323   2.903  17.634 -0.0964 -0.1193 -0.3374
  329TMC3    C2 4936   0.416   2.906   0.062 -0.5398 -0.2156  0.2543
  329TMC3    C3 4937   0.366   2.925   0.185  0.3332 -0.4756  0.0658
  329TMC3    C4 4938   0.194   2.919  17.656 -0.9489 -0.1443  0.1142
  329TMC3    C5 4939   0.148   2.952   0.108 -0.3507 -0.1029  0.0780
  329TMC3    C6 4940   0.233   2.948   0.209 -1.1567  0.1976 -0.0751
  329TMC3     C 4941   0.358   2.989  17.520  0.2782 -0.0645 -0.3033
  329TMC3     O 4942   0.273   3.072  17.491  0.2766 -0.7930  0.1563
  329TMC3     H 4943   0.520   2.877   0.056 -0.5230  0.0791 -0.8730
  329TMC3    H1 4944   0.133   2.906  17.567 -1.8858 -1.6393  0.9711
  329TMC3    H2 4945   0.204   2.968   0.311  4.5407 -0.0677  1.5936
  329TMC3    C7 4946   0.029   3.029   0.125 -0.0533  0.0752  0.3797
  329TMC3    C8 4947   0.469   2.934   0.292  0.0470  0.5425  1.0952
  329TMC3    O1 4948   0.012   3.085   0.234  0.2521 -0.3823 -0.0644
  329TMC3    O2 4949   0.567   2.868   0.293 -0.1165 -0.1549 -0.2803
  330TMC3    C1 4950   4.083   3.617   9.318  1.2512  0.8917 -0.1626
  330TMC3    C2 4951   4.072   3.510   9.230 -0.2283 -0.1615  0.6073
  330TMC3    C3 4952   4.135   3.395   9.261  0.5703  0.8153  0.5060
  330TMC3    C4 4953   4.161   3.604   9.431 -0.8887  0.4181  0.8241
  330TMC3    C5 4954   4.216   3.485   9.461 -1.1062 -0.6749  0.0660
  330TMC3    C6 4955   4.208   3.380   9.382  0.2689 -0.6202  0.3560
  330TMC3     C 4956   3.966   3.697   9.336 -0.1484 -0.3523  0.0977
  330TMC3     O 4957   3.987   3.791   9.408 -0.4357  0.3354  0.5114
  330TMC3     H 4958   4.014   3.516   9.139  0.4847  0.7241  0.2044
  330TMC3    H1 4959   4.141   3.671   9.514 -2.7570  0.2891  0.4733
  330TMC3    H2 4960   4.248   3.286   9.416  0.5706 -0.5540  0.1794
  330TMC3    C7 4961   4.298   3.477   9.573 -0.2578 -0.1999  0.6448
  330TMC3    C8 4962   4.132   3.287   9.170  0.4903 -0.7126 -0.3806
  330TMC3    O1 4963   4.358   3.585   9.595 -0.0521  0.2606  0.5396
  330TMC3    O2 4964   4.103   3.316   9.058  0.5202 -0.6042 -0.0342
  331MPD2     C 4965   3.033   2.542  12.834 -0.5174 -0.1302  0.2857
  331MPD2    C1 4966   3.044   2.524  12.696  0.5728 -0.1172 -0.0949
  331MPD2    C2 4967   2.997   2.409  12.637 -0.3599 -0.1407  0.2904
  331MPD2    C3 4968   2.939   2.310  12.715 -0.8920 -0.5462  0.1774
  331MPD2    C4 4969   2.954   2.310  12.854  0.5833 -0.5098 -0.0760
  331MPD2    C5 4970   2.995   2.430  12.911 -0.1283  0.8095  0.5049
  331MPD2     H 4971   2.991   2.410  12.529 -0.8715 -3.2539  0.3138
  331MPD2    H1 4972   2.936   2.225  12.918  0.1545  1.1144  1.9537
  331MPD2    H2 4973   3.068   2.635  12.877 -0.8925 -0.8657  2.1494
  331MPD2    H3 4974   2.991   2.440  13.019 -1.2145  2.8841  0.2789
  331MPD2     N 4975   2.883   2.200  12.645  0.2785 -0.1979  0.0059
  331MPD2    H5 4976   2.882   2.199  12.543 -0.0628 -0.5026  0.0128
  331MPD2    N1 4977   3.087   2.641  12.628 -0.4086 -0.0984  0.3237
  331MPD2    H7 4978   3.096   2.728  12.680  1.5408  1.3977 -2.5644
  332TMC3    C1 4979   2.759   2.011  12.600  0.2804  0.2762  0.7279
  332TMC3    C2 4980   2.676   2.075  12.510  0.1711  0.3304  0.3962
  332TMC3    C3 4981   2.575   1.995  12.463  0.5145  0.2254  0.2216
  332TMC3    C4 4982   2.741   1.880  12.645 -0.4298 -0.3012  0.2970
  332TMC3    C5 4983   2.631   1.817  12.596  0.2478  0.5391  0.8843
  332TMC3    C6 4984   2.547   1.870  12.506  0.3167  0.1937  0.7294
  332TMC3     C 4985   2.819   2.092  12.703  0.5065 -0.5418 -0.0565
  332TMC3     O 4986   2.810   2.061  12.821  0.5583  0.3050 -0.2410
  332TMC3     H 4987   2.690   2.178  12.479  1.1065 -0.2256 -1.0021
  332TMC3    H1 4988   2.794   1.846  12.733  0.4712  0.5224  0.0720
  332TMC3    H2 4989   2.468   1.806  12.466 -0.0912  0.6046  0.8818
  332TMC3    C7 4990   2.606   1.674  12.626  0.1176  0.3940  0.3169
  332TMC3    C8 4991   2.480   2.045  12.366 -0.1258  0.0959  0.0951
  332TMC3    O1 4992   2.489   1.634  12.610 -0.1468  0.1028  0.3456
  332TMC3    O2 4993   2.370   1.991  12.367 -0.0221  0.3265 -0.2297
  333MPD2     C 4994   2.376   2.127  11.251 -0.8530 -0.2492  0.1496
  333MPD2    C1 4995   2.329   2.119  11.118  0.0174 -0.3875 -0.6793
  333MPD2    C2 4996   2.255   2.005  11.082 -0.1575 -0.6441 -0.1503
  333MPD2    C3 4997   2.212   1.910  11.165 -0.3917 -0.4368  0.2466
  333MPD2    C4 4998   2.255   1.917  11.299 -1.0365 -0.2590  0.0447
  333MPD2    C5 4999   2.335   2.026  11.341 -0.5740  0.7486 -0.1885
  333MPD2     H 5000   2.235   1.980  10.978 -2.2679  1.0938 -0.1711
  333MPD2    H1 5001   2.235   1.847  11.379 -0.5518  0.4681  0.8058
  333MPD2    H2 5002   2.435   2.206  11.295 -0.4895 -0.7833  0.6269
  333MPD2    H3 5003   2.365   2.040  11.443  1.5674  1.0515 -0.8689
  333MPD2     N 5004   2.131   1.805  11.118 -0.2959  0.6124 -0.1354
  333MPD2    H5 5005   2.114   1.805  11.018  1.5097 -0.0017 -0.4489
  333MPD2    N1 5006   2.375   2.221  11.032  0.5762  0.2615  0.3389
  333MPD2    H7 5007   2.403   2.305  11.081  0.0815  0.5452  0.1465
  334TMC3    C1 5008   2.435   2.319  10.835 -0.1688 -0.0297 -0.2483
  334TMC3    C2 5009   2.495   2.283  10.715 -0.3588 -0.5230  0.6909
  334TMC3    C3 5010   2.593   2.368  10.669  0.0654 -0.4130 -1.1127
  334TMC3    C4 5011   2.459   2.439  10.898 -0.1979  0.4605 -0.2504
  334TMC3    C5 5012   2.538   2.523  10.831 -0.6948  0.1002  0.0543
  334TMC3    C6 5013   2.610   2.492  10.718  0.0435  0.1102  0.3960
  334TMC3     C 5014   2.356   2.221  10.896 -0.5069 -0.5875  0.0326
  334TMC3     O 5015   2.310   2.135  10.819 -0.1317 -0.2794  0.3047
  334TMC3     H 5016   2.479   2.188  10.666  0.2584 -0.3184  0.0982
  334TMC3    H1 5017   2.418   2.463  10.995 -1.7522 -0.3989 -0.6922
  334TMC3    H2 5018   2.665   2.573  10.672 -1.0164  0.7186  0.2058
  334TMC3    C7 5019   2.547   2.663  10.879 -0.3934  0.4771 -0.7063
  334TMC3    C8 5020   2.685   2.325  10.565 -0.2160  0.0734  0.6254
  334TMC3    O1 5021   2.636   2.740  10.844  0.4346  0.2220 -0.0391
  334TMC3    O2 5022   2.644   2.234  10.494  0.1041 -0.0558 -0.0020
  335TMC3    C1 5023   1.107   3.780  16.869  0.8783 -0.0999  0.0176
  335TMC3    C2 5024   1.030   3.664  16.860 -0.3967 -0.0559 -0.8139
  335TMC3    C3 5025   1.092   3.543  16.870 -0.0595  0.3434  0.1337
  335TMC3    C4 5026   1.242   3.777  16.888 -0.0023 -0.2666 -0.8378
  335TMC3    C5 5027   1.299   3.653  16.889 -0.2654 -0.5360  0.5118
  335TMC3    C6 5028   1.229   3.535  16.871 -1.0002 -0.0668  0.3295
  335TMC3     C 5029   1.025   3.904  16.875 -1.0000  1.1045  0.3247
  335TMC3     O 5030   0.905   3.900  16.892 -0.6176 -0.5822 -0.0979
  335TMC3     H 5031   0.923   3.676  16.848 -0.5719  0.5690  1.3836
  335TMC3    H1 5032   1.300   3.869  16.890  0.4688 -0.5967  0.7844
  335TMC3    H2 5033   1.283   3.441  16.874 -0.8006  0.0797  1.5959
  335TMC3    C7 5034   1.438   3.649  16.898 -0.4734 -0.4504 -0.1927
  335TMC3    C8 5035   1.014   3.434  16.902  0.1468 -0.1657  0.1621
  335TMC3    O1 5036   1.498   3.559  16.844 -0.7340 -0.0183  0.0287
  335TMC3    O2 5037   0.893   3.450  16.883 -0.5571  0.0431 -0.1922
  336MPD2     C 5038   1.508   1.124  16.295  0.3496  0.3355 -0.2045
  336MPD2    C1 5039   1.438   1.179  16.188 -0.4544  0.6243 -0.6226
  336MPD2    C2 5040   1.415   1.100  16.071 -0.1454 -0.3210 -0.7275
  336MPD2    C3 5041   1.465   0.969  16.074  0.5357  0.0262  0.1783
  336MPD2    C4 5042   1.538   0.924  16.178  0.4356  0.1376 -0.0195
  336MPD2    C5 5043   1.562   1.001  16.291  0.2269 -0.3532  0.3405
  336MPD2     H 5044   1.359   1.132  15.984  0.6503 -0.5074 -1.3132
  336MPD2    H1 5045   1.580   0.824  16.191 -2.9096 -1.2428  0.0646
  336MPD2    H2 5046   1.522   1.177  16.388 -2.3801  0.1352  0.3196
  336MPD2    H3 5047   1.610   0.954  16.377  0.2453 -0.8718  0.0509
  336MPD2     N 5048   1.431   0.894  15.963  0.1826  0.0249  0.4919
  336MPD2    H5 5049   1.364   0.941  15.904 -0.9508  0.2688  1.9639
  336MPD2    N1 5050   1.380   1.305  16.186 -0.1007 -0.0373 -0.4784
  336MPD2    H7 5051   1.324   1.334  16.106 -1.5433 -1.4964  0.0106
  337TMC3    C1 5052   1.306   1.507  16.265 -0.7243  0.1617 -0.2071
  337TMC3    C2 5053   1.209   1.500  16.172 -0.1515 -0.0716 -0.0607
  337TMC3    C3 5054   1.138   1.611  16.140 -0.2175 -0.0703 -0.2674
  337TMC3    C4 5055   1.331   1.629  16.322  0.2459  0.2619 -0.0894
  337TMC3    C5 5056   1.267   1.743  16.278 -0.5469 -0.0707 -0.8222
  337TMC3    C6 5057   1.165   1.741  16.187  0.0106  0.1412  0.0867
  337TMC3     C 5058   1.396   1.396  16.290  0.2269  0.0704  0.0762
  337TMC3     O 5059   1.434   1.383  16.407  0.3153 -0.2579  0.3773
  337TMC3     H 5060   1.178   1.400  16.147  1.1750 -1.0212  2.0784
  337TMC3    H1 5061   1.419   1.641  16.384 -0.8890  1.0404  1.3770
  337TMC3    H2 5062   1.112   1.832  16.163 -0.8708 -0.0749  1.2240
  337TMC3    C7 5063   1.302   1.873  16.337 -0.3545 -0.0587  0.6697
  337TMC3    C8 5064   1.025   1.601  16.054  0.2043  0.5594  0.5050
  337TMC3    O1 5065   1.368   1.872  16.443 -0.4213  0.2934  0.2334
  337TMC3    O2 5066   0.965   1.496  16.048 -0.3514 -0.0619  0.4182
  338MPD2     C 5067   2.120   0.627   1.104  0.5594  0.0416 -0.3380
  338MPD2    C1 5068   2.036   0.629   0.989  0.2534  0.5835  0.4172
  338MPD2    C2 5069   1.903   0.647   1.014  1.0772 -0.9840  0.8585
  338MPD2    C3 5070   1.855   0.663   1.145 -0.5092  0.0823 -0.6209
  338MPD2    C4 5071   1.942   0.681   1.252 -0.2451 -0.1803  0.6180
  338MPD2    C5 5072   2.068   0.649   1.230  0.1285  0.1411  0.0513
  338MPD2     H 5073   1.831   0.638   0.934  1.5563  1.2217  0.1822
  338MPD2    H1 5074   1.902   0.707   1.349 -0.0388  2.4459 -0.0209
  338MPD2    H2 5075   2.226   0.605   1.090  1.3649  1.9689  2.7743
  338MPD2    H3 5076   2.122   0.628   1.322  0.6494 -2.0915 -0.7614
  338MPD2     N 5077   1.718   0.683   1.148 -0.0682 -0.7123  0.3891
  338MPD2    H5 5078   1.667   0.683   1.060  2.7563 -0.6012 -1.2328
  338MPD2    N1 5079   2.078   0.591   0.861 -0.1645 -0.0496 -0.7253
  338MPD2    H7 5080   2.009   0.583   0.787 -1.2848  1.4961  0.1693
  339TMC3    C1 5081   1.500   0.734   1.218 -0.6111  0.4250  0.4462
  339TMC3    C2 5082   1.405   0.729   1.316  0.1216 -0.0418  0.4696
  339TMC3    C3 5083   1.279   0.780   1.277  0.4097  0.2461  0.3843
  339TMC3    C4 5084   1.489   0.791   1.091 -0.3995  0.1454 -0.4504
  339TMC3    C5 5085   1.368   0.852   1.067 -0.2831  0.3423  0.0095
  339TMC3    C6 5086   1.262   0.843   1.153 -0.4447 -0.2665 -0.2897
  339TMC3     C 5087   1.634   0.685   1.258 -1.0259  0.4321  0.5392
  339TMC3     O 5088   1.654   0.661   1.377 -0.0253 -0.0137  0.2356
  339TMC3     H 5089   1.426   0.671   1.405  1.7572 -2.2509 -1.3855
  339TMC3    H1 5090   1.562   0.822   1.016  0.6860  0.3539  0.6821
  339TMC3    H2 5091   1.163   0.868   1.117 -0.3133 -0.5454 -0.8501
  339TMC3    C7 5092   1.363   0.930   0.949 -0.9380  0.6885  0.2464
  339TMC3    C8 5093   1.163   0.781   1.365  0.3406 -0.2812 -0.0627
  339TMC3    O1 5094   1.451   0.926   0.862 -0.4722  0.5094 -0.3286
  339TMC3    O2 5095   1.059   0.809   1.313  0.7205  0.6611 -0.5123
  340MPD2     C 5096   2.569   3.838   9.970 -0.4949 -0.1486 -0.5587
  340MPD2    C1 5097   2.552   3.738  10.064  0.9751  0.1346  0.2968
  340MPD2    C2 5098   2.501   3.780  10.185  0.2813 -0.6970 -0.6860
  340MPD2    C3 5099   2.447   3.905  10.208  0.2994  0.3371  0.2720
  340MPD2    C4 5100   2.461   4.002  10.106 -0.6991 -0.5375  1.0988
  340MPD2    C5 5101   2.528   3.967   9.993 -0.6018  0.0098  0.0529
  340MPD2     H 5102   2.503   3.712  10.269 -1.1176 -0.7229 -0.6697
  340MPD2    H1 5103   2.439   4.107  10.124 -0.1874 -0.5195  1.6155
  340MPD2    H2 5104   2.616   3.814   9.876 -1.0442 -0.0101 -0.8702
  340MPD2    H3 5105   2.551   4.040   9.917  0.5775 -1.0312 -0.5902
  340MPD2     N 5106   2.388   3.954  10.326 -0.7154 -0.1661  0.1246
  340MPD2    H5 5107   2.381   4.055  10.335 -0.5702 -0.3106  1.8246
  340MPD2    N1 5108   2.598   3.607  10.040  0.1147 -0.0893  0.2741
  340MPD2    H7 5109   2.621   3.582   9.944 -0.8639  0.1370 -0.0155
  341TMC3    C1 5110   2.671   3.389  10.080 -0.0495  0.5341  0.2336
  341TMC3    C2 5111   2.631   3.263  10.117  0.0962 -0.3787 -0.8454
  341TMC3    C3 5112   2.717   3.154  10.121  0.2670  0.6751  0.2186
  341TMC3    C4 5113   2.802   3.406  10.056 -0.9586 -0.0586  0.0851
  341TMC3    C5 5114   2.891   3.305  10.067  0.2305  0.1858 -0.0409
  341TMC3    C6 5115   2.848   3.175  10.094  0.4029  0.4405 -0.4032
  341TMC3     C 5116   2.603   3.506  10.127 -0.2133 -0.2355 -0.2859
  341TMC3     O 5117   2.550   3.498  10.235  0.2791  0.0105 -0.1123
  341TMC3     H 5118   2.529   3.258  10.153  0.3987 -0.6799 -0.0319
  341TMC3    H1 5119   2.829   3.503  10.017 -1.9868  0.8498  1.6188
  341TMC3    H2 5120   2.910   3.088  10.078 -0.7049 -0.2981 -0.6736
  341TMC3    C7 5121   3.012   3.314   9.992 -0.9887 -0.3518  0.7217
  341TMC3    C8 5122   2.649   3.028  10.106  0.3405  0.4158 -1.1426
  341TMC3    O1 5123   3.100   3.234  10.025  0.1297 -0.2523 -0.1167
  341TMC3    O2 5124   2.536   3.018  10.138  0.0527 -0.2370 -0.0823
  342MPD2     C 5125   4.497   1.902  17.147  0.1266  0.1726  0.6459
  342MPD2    C1 5126   4.605   1.888  17.230 -0.2322 -0.5804 -0.9533
  342MPD2    C2 5127   4.619   1.982  17.336 -0.1904 -0.5004 -0.4153
  342MPD2    C3 5128   4.528   2.085  17.347  0.1641  0.4717 -1.0350
  342MPD2    C4 5129   4.428   2.098  17.254 -0.1646 -1.0390  0.0021
  342MPD2    C5 5130   4.415   2.014  17.152  0.4013 -0.4625 -0.7570
  342MPD2     H 5131   4.701   1.972  17.407 -0.3151 -1.8182 -0.4617
  342MPD2    H1 5132   4.365   2.186  17.259  0.2482 -0.8000  0.9905
  342MPD2    H2 5133   4.476   1.834  17.065  1.7686  2.7978 -1.9556
  342MPD2    H3 5134   4.343   2.032  17.073 -1.4406 -0.4894  0.9158
  342MPD2     N 5135   4.539   2.176  17.450  0.4851  0.4317 -0.8202
  342MPD2    H5 5136   4.476   2.256  17.445  1.3245  1.2386  1.4159
  342MPD2    N1 5137   4.694   1.774  17.229 -0.0993  0.0995  0.4557
  342MPD2    H7 5138   0.047   1.766  17.300 -1.6463 -2.4763  1.7333
  343TMC3    C1 5139   0.058   1.564  17.161 -0.1987 -0.5102  0.5786
  343TMC3    C2 5140   0.191   1.600  17.184 -0.4733 -0.2710 -0.2877
  343TMC3    C3 5141   0.282   1.501  17.209  0.1417 -0.4122 -0.4015
  343TMC3    C4 5142   0.024   1.429  17.169 -0.6956  0.5048  0.0223
  343TMC3    C5 5143   0.119   1.335  17.206 -0.1184  1.0758  0.3302
  343TMC3    C6 5144   0.249   1.371  17.230 -0.1681  0.2920  0.3591
  343TMC3     C 5145   4.666   1.661  17.151 -1.2512  0.7820 -0.0979
  343TMC3     O 5146   4.555   1.623  17.107 -0.2058  0.0980  0.2682
  343TMC3     H 5147   0.218   1.703  17.163 -0.0410 -0.2940  0.1439
  343TMC3    H1 5148   4.637   1.407  17.170 -0.9275  1.6681  2.6540
  343TMC3    H2 5149   0.328   1.300  17.254 -2.4014 -2.3559 -0.1377
  343TMC3    C7 5150   0.062   1.210  17.270 -0.0147 -0.5118 -0.3859
  343TMC3    C8 5151   0.420   1.535  17.169 -0.3309  0.5043 -0.6584
  343TMC3    O1 5152   4.662   1.183  17.242  0.0472  0.1340  0.0933
  343TMC3    O2 5153   0.460   1.645  17.195  0.2076 -0.1619 -0.0374
  344MPD2     C 5154   1.851   1.957  10.903  0.1035  0.3988 -0.0114
  344MPD2    C1 5155   1.778   1.899  10.806  0.7394  0.2410  0.6349
  344MPD2    C2 5156   1.809   1.935  10.685  0.2303 -0.5471 -0.2069
  344MPD2    C3 5157   1.918   2.013  10.653  1.2697  0.2543  0.2771
  344MPD2    C4 5158   1.994   2.072  10.753  0.0735  0.9075 -0.1396
  344MPD2    C5 5159   1.950   2.047  10.879  0.4269 -0.2764 -0.2948
  344MPD2     H 5160   1.766   1.879  10.602  0.3911 -2.0274  0.6970
  344MPD2    H1 5161   2.070   2.147  10.739  0.9607 -0.1601 -1.0742
  344MPD2    H2 5162   1.818   1.942  11.005  1.1930 -1.5110  0.0558
  344MPD2    H3 5163   1.985   2.105  10.964  1.0860  0.6706 -1.2109
  344MPD2     N 5164   1.965   2.034  10.521 -0.2010  0.5072  0.3251
  344MPD2    H5 5165   2.050   2.088  10.514  0.9728 -1.4856 -0.8180
  344MPD2    N1 5166   1.676   1.802  10.824  0.8970 -0.2993  0.1827
  344MPD2    H7 5167   1.641   1.763  10.737  0.1810 -0.5217  0.5706
  345TMC3    C1 5168   1.960   2.048  10.284 -0.0544 -0.2608  0.0158
  345TMC3    C2 5169   2.086   2.107  10.295 -0.2702  0.5634 -0.4108
  345TMC3    C3 5170   2.123   2.194  10.203 -0.3220 -0.1942  0.1727
  345TMC3    C4 5171   1.873   2.068  10.177  0.2061  0.3272 -0.2204
  345TMC3    C5 5172   1.919   2.156  10.083 -0.5272 -0.6358  0.3594
  345TMC3    C6 5173   2.038   2.222  10.101  0.0889  0.6092  0.3582
  345TMC3     C 5174   1.904   2.001  10.407 -0.0203  0.3090  0.0337
  345TMC3     O 5175   1.799   1.942  10.392  0.4624  0.8565  0.0270
  345TMC3     H 5176   2.147   2.088  10.382 -1.8181 -0.1966  0.5164
  345TMC3    H1 5177   1.777   2.018  10.169  1.3904 -1.8821 -0.8147
  345TMC3    H2 5178   2.071   2.302  10.036  2.8570 -2.9039 -2.5227
  345TMC3    C7 5179   1.815   2.244  10.030  0.1843  0.2905  0.5004
  345TMC3    C8 5180   2.175   2.316  10.261  0.3357 -0.8193  0.3849
  345TMC3    O1 5181   1.846   2.362  10.023 -0.3005  0.4946 -0.8119
  345TMC3    O2 5182   2.090   2.390  10.309 -0.1643 -0.2570  0.2828
  346MPD2     C 5183   0.699   3.260  13.611 -0.5033 -0.0660  0.5106
  346MPD2    C1 5184   0.824   3.281  13.661 -0.3620  0.2555  0.9044
  346MPD2    C2 5185   0.840   3.318  13.795  0.2699 -0.4703  0.1449
  346MPD2    C3 5186   0.729   3.341  13.875  0.9481 -0.2149  0.5166
  346MPD2    C4 5187   0.604   3.327  13.828  0.4857  1.0335 -0.1286
  346MPD2    C5 5188   0.598   3.286  13.694 -0.6694  0.1828  0.0048
  346MPD2     H 5189   0.937   3.338  13.839 -0.3698 -0.7822  1.7143
  346MPD2    H1 5190   0.514   3.360  13.878 -0.2757 -0.3717 -0.5844
  346MPD2    H2 5191   0.674   3.228  13.510  0.6909 -0.9161  0.4819
  346MPD2    H3 5192   0.496   3.276  13.661 -0.1985 -0.9203 -1.1401
  346MPD2     N 5193   0.751   3.391  14.010 -0.6877  0.4813  0.6691
  346MPD2    H5 5194   0.844   3.399  14.048 -0.6962 -0.4680  0.8863
  346MPD2    N1 5195   0.944   3.258  13.582 -0.5669  0.3467  0.2581
  346MPD2    H7 5196   1.032   3.288  13.623  0.1391 -0.9314 -0.3209
  347TMC3    C1 5197   0.714   3.450  14.233  0.1117  0.4797  1.1891
  347TMC3    C2 5198   0.837   3.385  14.271 -0.0608  0.0195 -0.0629
  347TMC3    C3 5199   0.891   3.416  14.391  0.2467 -0.4094 -0.3659
  347TMC3    C4 5200   0.650   3.529  14.326  0.5826  0.4790  0.1587
  347TMC3    C5 5201   0.714   3.562  14.444 -0.0299 -0.4332  0.2557
  347TMC3    C6 5202   0.831   3.503  14.482  0.3415  0.3230 -0.6639
  347TMC3     C 5203   0.654   3.430  14.099  0.5152  0.2575  0.4173
  347TMC3     O 5204   0.536   3.457  14.073  0.2894 -0.1585 -0.1183
  347TMC3     H 5205   0.889   3.316  14.205  0.0404  1.8683 -1.9406
  347TMC3    H1 5206   0.551   3.570  14.307 -0.0440 -1.8531 -1.5680
  347TMC3    H2 5207   0.882   3.534  14.572  1.1705 -0.7399 -0.7731
  347TMC3    C7 5208   0.629   3.628  14.546  0.8440 -0.4901 -0.2902
  347TMC3    C8 5209   1.029   3.369  14.414 -0.4005 -0.5092  0.6220
  347TMC3    O1 5210   0.691   3.670  14.644 -0.0082  0.4546 -0.4908
  347TMC3    O2 5211   1.106   3.379  14.321  0.4893 -0.0943 -0.5350
  348MPD2     C 5212   4.148   2.624  11.598  0.4262  0.7209 -0.6980
  348MPD2    C1 5213   4.258   2.699  11.592 -0.1066 -0.1240 -0.2195
  348MPD2    C2 5214   4.246   2.829  11.549  0.7406  0.6160 -0.1825
  348MPD2    C3 5215   4.128   2.888  11.507 -0.7125 -0.4067 -0.4762
  348MPD2    C4 5216   4.018   2.802  11.508 -0.0311  0.4102  0.0846
  348MPD2    C5 5217   4.029   2.678  11.557 -0.3606  0.0299 -0.3195
  348MPD2     H 5218   4.342   2.880  11.558  1.8347 -1.0484 -2.3151
  348MPD2    H1 5219   3.919   2.833  11.477  0.2810 -0.3597 -1.6463
  348MPD2    H2 5220   4.159   2.521  11.629 -2.0835  1.1039  1.5212
  348MPD2    H3 5221   3.946   2.609  11.570 -1.1294  0.6088 -2.2421
  348MPD2     N 5222   4.119   3.027  11.467 -0.3542  0.0120 -0.3776
  348MPD2    H5 5223   4.025   3.060  11.451  0.1251  1.6314  0.1675
  348MPD2    N1 5224   4.385   2.649  11.632 -0.5169  0.2195 -0.0458
  348MPD2    H7 5225   4.468   2.707  11.626  0.5967 -1.3460  0.3815
  349TMC3    C1 5226   4.546   2.531  11.746 -0.3904 -0.1581  0.0152
  349TMC3    C2 5227   4.617   2.415  11.755 -0.0097 -0.7275 -0.0970
  349TMC3    C3 5228   0.037   2.420  11.777 -0.7247 -0.0379  0.1506
  349TMC3    C4 5229   4.601   2.652  11.783 -0.7918  0.7920 -0.3247
  349TMC3    C5 5230   0.018   2.652  11.797 -0.6024 -0.4808 -0.9028
  349TMC3    C6 5231   0.096   2.542  11.796 -0.1163 -0.2349  1.0401
  349TMC3     C 5232   4.413   2.528  11.689  0.0110  0.8821  0.1892
  349TMC3     O 5233   4.347   2.431  11.690  0.4998 -0.1196 -0.0028
  349TMC3     H 5234   4.568   2.325  11.720 -0.4881 -0.0854 -1.0839
  349TMC3    H1 5235   4.548   2.746  11.774  1.9548  2.6997  3.6784
  349TMC3    H2 5236   0.203   2.553  11.807 -0.0744  1.1747 -0.8079
  349TMC3    C7 5237   0.089   2.762  11.749  0.1934  0.3925  0.2399
  349TMC3    C8 5238   0.081   2.318  11.872  0.5267  0.3573 -0.8458
  349TMC3    O1 5239   0.150   2.737  11.647  0.2231  0.2630  0.4072
  349TMC3    O2 5240   4.708   2.299  11.951 -0.4870  0.2414 -0.5535
  350MPD2     C 5241   3.997   1.105   9.808  0.2420 -0.2503 -0.3468
  350MPD2    C1 5242   4.027   0.997   9.874  0.1627  0.0611  0.0454
  350MPD2    C2 5243   4.158   0.979   9.921  0.1256 -0.5506 -0.5868
  350MPD2    C3 5244   4.265   1.062   9.881  0.4397  0.8172  0.3706
  350MPD2    C4 5245   4.231   1.163   9.801  0.2742  0.1693  0.0968
  350MPD2    C5 5246   4.095   1.187   9.772 -0.2144 -0.0124  0.7383
  350MPD2     H 5247   4.180   0.889   9.976  1.2619  0.8039  1.1872
  350MPD2    H1 5248   4.305   1.229   9.757  2.0170 -0.8589  1.5217
  350MPD2    H2 5249   3.895   1.141   9.798  0.5495  1.0662  1.2858
  350MPD2    H3 5250   4.065   1.278   9.720 -1.1347 -0.9771 -0.4126
  350MPD2     N 5251   4.392   1.027   9.928  0.1410 -0.2899  0.4065
  350MPD2    H5 5252   4.392   0.950   9.995 -1.7279 -1.6821 -1.2049
  350MPD2    N1 5253   3.937   0.892   9.899  0.6587 -0.0811 -0.0190
  350MPD2    H7 5254   3.966   0.806   9.945 -0.0419 -1.6351 -2.5015
  351TMC3    C1 5255   3.763   0.753   9.866 -0.3737 -0.2962 -0.5674
  351TMC3    C2 5256   3.847   0.653   9.905  0.2264 -0.1788  0.3689
  351TMC3    C3 5257   3.807   0.528   9.914 -0.0308 -0.1804 -0.4831
  351TMC3    C4 5258   3.642   0.720   9.811 -0.0026  0.0996 -0.4815
  351TMC3    C5 5259   3.606   0.585   9.817  0.0444 -1.1770  0.3926
  351TMC3    C6 5260   3.678   0.488   9.875 -0.3560  0.0748  0.2571
  351TMC3     C 5261   3.810   0.889   9.868  0.3154  0.3127  0.6260
  351TMC3     O 5262   3.738   0.970   9.813  0.0916 -0.2574 -0.2026
  351TMC3     H 5263   3.942   0.668   9.955  0.4242 -0.3711  0.0513
  351TMC3    H1 5264   3.582   0.789   9.754  0.1479 -0.0668 -0.8419
  351TMC3    H2 5265   3.668   0.381   9.856  1.2915  0.3373 -2.0452
  351TMC3    C7 5266   3.542   0.538   9.692  0.0745 -0.4669  0.6570
  351TMC3    C8 5267   3.907   0.420   9.919 -0.0693  0.1787  0.6821
  351TMC3    O1 5268   3.542   0.621   9.602 -0.4094  0.0695 -0.2655
  351TMC3    O2 5269   4.005   0.440   9.850  0.2644  0.4137 -0.3827
  352MPD2     C 5270   1.409   2.724   1.031 -0.4305 -0.0726 -0.8508
  352MPD2    C1 5271   1.345   2.773   1.143  0.5657  0.4272  0.3129
  352MPD2    C2 5272   1.324   2.696   1.252  0.0356 -0.0251 -0.3085
  352MPD2    C3 5273   1.368   2.563   1.251  0.6672 -0.2580  0.5705
  352MPD2    C4 5274   1.442   2.517   1.143  0.1546 -0.1150  0.4671
  352MPD2    C5 5275   1.461   2.597   1.035 -0.0315  0.0258  0.5067
  352MPD2     H 5276   1.256   2.741   1.324 -2.7901 -0.8627 -2.4757
  352MPD2    H1 5277   1.485   2.417   1.140  1.1202  0.3804 -2.4501
  352MPD2    H2 5278   1.423   2.788   0.945 -1.0401  0.6952 -0.3788
  352MPD2    H3 5279   1.531   2.555   0.964  0.3001  1.2780  0.0929
  352MPD2     N 5280   1.329   2.473   1.350 -0.2489 -0.4440  0.0042
  352MPD2    H5 5281   1.356   2.377   1.328 -1.9398 -0.6587 -1.1252
  352MPD2    N1 5282   1.302   2.909   1.138 -0.0428 -0.5855 -0.1984
  352MPD2    H7 5283   1.313   2.963   1.053 -3.0060  0.0299 -0.1745
  353TMC3    C1 5284   1.297   2.383   1.554 -0.0415 -1.0841  0.1698
  353TMC3    C2 5285   1.393   2.364   1.646  0.0794 -0.4133 -0.5580
  353TMC3    C3 5286   1.419   2.227   1.691 -0.3556 -0.2911 -0.2614
  353TMC3    C4 5287   1.211   2.280   1.516 -0.6484  0.1852  0.2366
  353TMC3    C5 5288   1.240   2.154   1.560  0.2570 -0.4559  0.3656
  353TMC3    C6 5289   1.344   2.122   1.651  0.2478 -0.3234 -0.3038
  353TMC3     C 5290   1.303   2.511   1.477  0.2596  0.3365 -0.1961
  353TMC3     O 5291   1.337   2.618   1.526  0.4670 -0.2987 -0.0589
  353TMC3     H 5292   1.454   2.446   1.682 -0.9406 -1.2625  3.1957
  353TMC3    H1 5293   1.137   2.308   1.442 -1.5952 -0.9522  0.7542
  353TMC3    H2 5294   1.365   2.017   1.671 -0.3194 -0.4340 -0.2748
  353TMC3    C7 5295   1.149   2.055   1.507 -0.2748  0.1989  0.2614
  353TMC3    C8 5296   1.545   2.208   1.754  0.0660  0.7074  0.4684
  353TMC3    O1 5297   1.037   2.093   1.486 -0.1796  0.2333  0.2773
  353TMC3    O2 5298   1.601   2.307   1.798 -0.4634 -0.4348 -0.0718
  354TMC3    C1 5299   3.485   4.392  13.183 -0.3263 -0.1135  0.0534
  354TMC3    C2 5300   3.544   4.503  13.128  0.4239  0.6445 -0.2161
  354TMC3    C3 5301   3.498   4.558  13.008  0.9611  0.1915 -0.1133
  354TMC3    C4 5302   3.391   4.323  13.111 -0.4911 -0.5417 -1.0371
  354TMC3    C5 5303   3.353   4.367  12.983 -0.4399 -0.2118 -0.7067
  354TMC3    C6 5304   3.402   4.488  12.933 -0.5049 -0.2399  0.1377
  354TMC3     C 5305   3.467   4.367  13.330  0.1731  0.4707 -0.3086
  354TMC3     O 5306   3.416   4.259  13.359  0.0326  0.2550  0.0099
  354TMC3     H 5307   3.619   4.553  13.189  0.8859  0.0989 -0.3356
  354TMC3    H1 5308   3.357   4.226  13.145 -1.3622 -0.4300 -1.5882
  354TMC3    H2 5309   3.373   4.523  12.835  1.1837  1.2047  0.1533
  354TMC3    C7 5310   3.362   4.265  12.883 -0.4875 -0.2696  0.5030
  354TMC3    C8 5311   3.600   4.616  12.922  0.0289  0.4015 -0.1448
  354TMC3    O1 5312   3.303   4.157  12.891  0.2164 -0.2249 -0.4401
  354TMC3    O2 5313   3.605   4.568  12.808  0.7400 -0.2507  0.1423
  355MPD2     C 5314   4.274   0.620  11.963 -0.2020 -0.1284 -0.0715
  355MPD2    C1 5315   4.333   0.655  11.842 -0.3949  0.2385 -0.1479
  355MPD2    C2 5316   4.471   0.629  11.830  0.4340 -0.4011  0.8181
  355MPD2    C3 5317   4.548   0.610  11.942 -0.5902 -0.6709  0.4308
  355MPD2    C4 5318   4.488   0.588  12.063 -0.4305  0.3670  0.9944
  355MPD2    C5 5319   4.352   0.581  12.065  0.8244  0.4724  0.6207
  355MPD2     H 5320   4.518   0.642  11.733  1.5032  1.1230  1.5330
  355MPD2    H1 5321   4.549   0.569  12.151  1.6878  2.7289  0.0382
  355MPD2    H2 5322   4.168   0.618  11.983  0.0338  0.0067  1.1717
  355MPD2    H3 5323   4.316   0.577  12.167  1.2497 -0.1905  0.7463
  355MPD2     N 5324   4.688   0.607  11.939  0.0501  0.2786  0.1485
  355MPD2    H5 5325   0.021   0.586  12.024  1.5405  1.2572 -0.5163
  355MPD2    N1 5326   4.246   0.686  11.739  0.2962  0.5781 -0.0561
  355MPD2    H7 5327   4.151   0.653  11.750 -0.1617  1.9890  0.2081
  356TMC3    C1 5328   0.184   0.689  11.850  0.2523  0.5220 -0.1559
  356TMC3    C2 5329   0.242   0.733  11.730 -0.8166  0.8723 -0.3462
  356TMC3    C3 5330   0.321   0.839  11.734 -0.0306 -0.0706 -0.0716
  356TMC3    C4 5331   0.217   0.738  11.972 -0.4752  0.6044 -0.1043
  356TMC3    C5 5332   0.307   0.839  11.970 -0.2380  0.4109  0.3385
  356TMC3    C6 5333   0.352   0.900  11.852  0.8111 -0.1026 -0.3653
  356TMC3     C 5334   0.050   0.624  11.825  0.4899 -0.1309 -0.4563
  356TMC3     O 5335   0.014   0.616  11.710 -0.3457 -0.4859  0.4960
  356TMC3     H 5336   0.238   0.682  11.634 -1.4671 -0.4497  0.3915
  356TMC3    H1 5337   0.163   0.712  12.062  0.2737  0.1706  0.2234
  356TMC3    H2 5338   0.432   0.972  11.860  1.8349 -1.2549 -0.1244
  356TMC3    C7 5339   0.324   0.907  12.100 -0.7485 -0.1492  0.2865
  356TMC3    C8 5340   0.385   0.878  11.609  0.2387 -0.1859  0.7426
  356TMC3    O1 5341   0.254   0.861  12.190 -0.6002 -0.0337  0.5587
  356TMC3    O2 5342   0.429   0.786  11.543  0.3066 -0.1925  0.1046
  357MPD2     C 5343   2.082   0.268   1.266  1.0338  1.3061 -0.2811
  357MPD2    C1 5344   2.200   0.300   1.326 -0.3009 -0.6650 -0.0327
  357MPD2    C2 5345   2.215   0.291   1.462 -1.1057 -0.8643 -0.3264
  357MPD2    C3 5346   2.114   0.231   1.538 -0.3341 -1.3008  0.0884
  357MPD2    C4 5347   2.001   0.179   1.468 -0.1521 -0.2032 -0.0857
  357MPD2    C5 5348   1.984   0.204   1.333  0.2517  0.1752 -0.0407
  357MPD2     H 5349   2.310   0.317   1.507 -0.4983  1.0199 -2.6759
  357MPD2    H1 5350   1.936   0.122   1.532  0.4364 -0.4648  0.2763
  357MPD2    H2 5351   2.058   0.276   1.161  0.0363 -0.1955 -0.1650
  357MPD2    H3 5352   1.899   0.159   1.282 -0.2659  1.4451 -0.2902
  357MPD2     N 5353   2.130   0.208   1.671  1.1705  0.1881  0.4144
  357MPD2    H5 5354   2.062   0.146   1.713  1.7849 -0.5501  0.3187
  357MPD2    N1 5355   2.303   0.355   1.240 -0.0452  0.4769 -0.7274
  357MPD2    H7 5356   2.290   0.346   1.140 -1.1222  1.3237 -0.6609
  358TMC3    C1 5357   2.507   0.456   1.185  0.4906  0.4273 -0.6425
  358TMC3    C2 5358   2.550   0.349   1.116 -0.6696  0.0288 -0.0137
  358TMC3    C3 5359   2.679   0.329   1.079  0.5370 -0.1776  0.0330
  358TMC3    C4 5360   2.593   0.553   1.221  0.1475  0.3295 -0.2175
  358TMC3    C5 5361   2.724   0.541   1.173  0.4348 -0.1332 -0.0200
  358TMC3    C6 5362   2.770   0.430   1.113  0.3702 -0.3524 -0.2662
  358TMC3     C 5363   2.408   0.432   1.289 -0.4419 -0.2817 -0.1959
  358TMC3     O 5364   2.426   0.490   1.395  0.1279  0.6567  0.2595
  358TMC3     H 5365   2.481   0.267   1.099  1.3450 -1.5364 -0.6387
  358TMC3    H1 5366   2.559   0.641   1.275  0.2916 -0.0308  0.4452
  358TMC3    H2 5367   2.857   0.442   1.049  0.1867  0.6968 -0.3280
  358TMC3    C7 5368   2.818   0.627   1.239  0.3986  0.5091  0.3227
  358TMC3    C8 5369   2.708   0.236   0.964 -0.4060  0.3742 -0.2811
  358TMC3    O1 5370   2.781   0.733   1.280  0.1259 -0.5226  0.2916
  358TMC3    O2 5371   2.826   0.206   0.945 -0.1633  0.3123  1.0490
  359MPD2     C 5372   3.831   3.564  12.137 -0.1797 -0.5955  0.9556
  359MPD2    C1 5373   3.963   3.521  12.132 -0.3600  0.2038  0.2008
  359MPD2    C2 5374   3.993   3.383  12.177 -0.1241  0.0148 -0.3471
  359MPD2    C3 5375   3.892   3.302  12.222  0.6233 -0.5359 -0.7793
  359MPD2    C4 5376   3.760   3.343  12.216  0.3580 -0.3313 -0.0062
  359MPD2    C5 5377   3.732   3.474  12.168  0.5776  0.1614  0.3112
  359MPD2     H 5378   4.094   3.345  12.165 -0.0242 -0.0038  0.5255
  359MPD2    H1 5379   3.679   3.282  12.256  0.0599  0.3156  0.3857
  359MPD2    H2 5380   3.804   3.667  12.113  0.0195 -1.3050 -2.3326
  359MPD2    H3 5381   3.629   3.507  12.167  0.6275  0.2947 -1.0529
  359MPD2     N 5382   3.924   3.177  12.275 -0.4893 -0.3806  0.1174
  359MPD2    H5 5383   3.845   3.120  12.303  0.2959 -0.5408  1.9879
  359MPD2    N1 5384   4.066   3.615  12.119  0.1335  0.2429 -0.7673
  359MPD2    H7 5385   4.162   3.582  12.124 -0.1225 -0.4039 -0.1372
  360TMC3    C1 5386   4.166   3.820  12.048 -0.4899 -0.1484  0.0909
  360TMC3    C2 5387   4.282   3.782  12.113  0.6310 -0.1436  0.2461
  360TMC3    C3 5388   4.396   3.855  12.095  0.3245  0.6031  0.4417
  360TMC3    C4 5389   4.160   3.923  11.957  0.7710  0.0741  0.4908
  360TMC3    C5 5390   4.280   3.996  11.941  0.4881  0.6806  0.3692
  360TMC3    C6 5391   4.392   3.959  12.012  0.0786  0.4674  0.3645
  360TMC3     C 5392   4.046   3.745  12.078 -0.0366 -0.3658 -0.2153
  360TMC3     O 5393   3.947   3.811  12.061  0.2659 -0.1444  0.2024
  360TMC3     H 5394   4.272   3.712  12.195  0.7475 -0.2083  0.2046
  360TMC3    H1 5395   4.067   3.954  11.911  1.3386  0.4974 -0.3615
  360TMC3    H2 5396   4.480   4.022  12.009 -1.2766  2.4406  1.9329
  360TMC3    C7 5397   4.328   4.009  11.802  0.1110 -0.4205 -0.0625
  360TMC3    C8 5398   4.529   3.795  12.102 -0.1418  0.0902  0.2766
  360TMC3    O1 5399   4.434   4.061  11.776  0.1973 -0.3607 -0.5329
  360TMC3    O2 5400   4.611   3.849  12.027 -0.0332  0.7555  0.0553
  361MPD2     C 5401   0.780   2.280  16.885  0.3912  0.2555 -1.2368
  361MPD2    C1 5402   0.822   2.350  16.993  0.4360 -0.7011  0.5637
  361MPD2    C2 5403   0.917   2.289  17.078  0.1957 -0.9180  0.0252
  361MPD2    C3 5404   0.968   2.167  17.046 -0.3523 -0.1368 -0.5098
  361MPD2    C4 5405   0.929   2.102  16.935 -0.3078  0.8863 -0.5383
  361MPD2    C5 5406   0.841   2.163  16.854  1.1508 -0.3206 -0.1373
  361MPD2     H 5407   0.940   2.340  17.172 -1.3069  0.0632 -0.1384
  361MPD2    H1 5408   0.970   2.009  16.897  0.6727  0.3624  1.8208
  361MPD2    H2 5409   0.701   2.306  16.816  0.9484  1.9299 -1.2526
  361MPD2    H3 5410   0.797   2.106  16.773  0.5508 -0.3719  0.2268
  361MPD2     N 5411   1.059   2.096  17.128 -0.1000  0.4347  0.3093
  361MPD2    H5 5412   1.085   2.007  17.087 -0.8168 -0.2380  1.3104
  361MPD2    N1 5413   0.758   2.472  17.031  0.1298  0.4657  0.4372
  361MPD2    H7 5414   0.680   2.495  16.970  0.4684  0.9776  0.1877
  362TMC3    C1 5415   0.650   2.641  17.144 -1.0250  0.0692 -0.2856
  362TMC3    C2 5416   0.550   2.647  17.233  0.7264 -0.2252  0.1981
  362TMC3    C3 5417   0.453   2.743  17.218  0.7160 -0.1352 -0.5417
  362TMC3    C4 5418   0.660   2.723  17.039 -0.3960  0.6473  0.4837
  362TMC3    C5 5419   0.558   2.814  17.013  0.4196  0.3235  0.0285
  362TMC3    C6 5420   0.460   2.831  17.110  0.6096 -0.5757 -0.0438
  362TMC3     C 5421   0.761   2.545  17.149 -0.1393  0.2478 -0.1022
  362TMC3     O 5422   0.810   2.520  17.258 -0.1236  0.2960  0.0498
  362TMC3     H 5423   0.563   2.591  17.325  1.5030  0.0296  0.2425
  362TMC3    H1 5424   0.752   2.717  16.982  0.9043  2.1441  2.4550
  362TMC3    H2 5425   0.370   2.889  17.091  0.6557 -0.4091  0.2621
  362TMC3    C7 5426   0.512   2.842  16.876 -0.5549  0.1937 -0.5958
  362TMC3    C8 5427   0.315   2.711  17.255  0.3553  0.5643  0.6813
  362TMC3    O1 5428   0.398   2.880  16.856 -0.3790  0.1702  0.4171
  362TMC3    O2 5429   0.237   2.805  17.263  0.4308 -0.1089  0.4816
  363TMC3    C1 5430   4.598   0.624   9.443  0.8042 -0.5147 -0.4187
  363TMC3    C2 5431   4.609   0.500   9.494  0.3513 -0.4537 -0.5319
  363TMC3    C3 5432   4.703   0.477   9.593  0.0834  0.2243 -0.3126
  363TMC3    C4 5433   4.668   0.730   9.489  0.5598 -0.3010  0.0186
  363TMC3    C5 5434   0.042   0.698   9.583 -0.5689 -0.2048 -0.7842
  363TMC3    C6 5435   0.063   0.575   9.635 -0.2194  0.0445 -0.4363
  363TMC3     C 5436   4.498   0.644   9.334  0.3749 -0.0757 -0.8011
  363TMC3     O 5437   4.509   0.741   9.264  0.3641 -0.4929  0.0582
  363TMC3     H 5438   4.550   0.417   9.457  1.6299 -1.3030 -0.6322
  363TMC3    H1 5439   4.658   0.830   9.448  1.1754 -0.9379 -1.6857
  363TMC3    H2 5440   0.096   0.564   9.738 -1.7303  0.0621  0.0512
  363TMC3    C7 5441   0.098   0.815   9.657  0.3052 -0.2177 -0.4224
  363TMC3    C8 5442   4.664   0.385   9.693  0.2851  0.0929 -0.0263
  363TMC3    O1 5443   0.046   0.926   9.641 -0.0118  0.1994 -0.3198
  363TMC3    O2 5444   4.587   0.431   9.782  0.2802  0.6059 -0.1282
  364MPD2     C 5445   3.204   4.605  10.609 -0.3170  0.0476  0.1064
  364MPD2    C1 5446   3.289   4.564  10.504 -0.5814 -0.0480  0.4638
  364MPD2    C2 5447   3.380   4.463  10.517  0.3245 -0.0209  0.1064
  364MPD2    C3 5448   3.382   4.392  10.635 -0.6168  0.1421 -0.9484
  364MPD2    C4 5449   3.301   4.435  10.736  0.2135 -0.7120  0.7342
  364MPD2    C5 5450   3.218   4.545  10.728  0.3602 -0.0945  0.3888
  364MPD2     H 5451   3.452   4.457  10.436 -0.1803  2.1129 -0.4863
  364MPD2    H1 5452   3.315   4.405  10.839 -1.0192  1.3835  1.5177
  364MPD2    H2 5453   3.130   4.683  10.598 -1.6228 -1.0350  1.3190
  364MPD2    H3 5454   3.155   4.582  10.809  0.1425  0.7804 -0.1831
  364MPD2     N 5455   3.479   4.299  10.666  0.2691  0.1060 -0.8764
  364MPD2    H5 5456   3.467   4.248  10.753 -0.9980  0.7352 -0.6939
  364MPD2    N1 5457   3.290   4.650  10.388 -0.0257  0.3398  0.0122
  364MPD2    H7 5458   3.223   0.008  10.386 -0.6604 -0.1800  1.5408
  365TMC3    C1 5459   3.388   0.046  10.213 -0.9037 -0.4618 -0.2507
  365TMC3    C2 5460   3.424   0.025  10.084  0.3280  0.2840  0.3689
  365TMC3    C3 5461   3.501   0.118  10.026  0.7115  0.4019  0.7990
  365TMC3    C4 5462   3.440   0.144  10.288 -0.8885 -0.3242 -0.3074
  365TMC3    C5 5463   3.523   0.230  10.229  0.0088  0.4787 -0.8536
  365TMC3    C6 5464   3.564   0.214  10.098 -1.0541  0.3733  0.0167
  365TMC3     C 5465   3.377   4.641  10.287 -0.5729 -0.6092 -0.0005
  365TMC3     O 5466   3.438   4.548  10.241 -0.1851 -0.4268  0.0189
  365TMC3     H 5467   3.364   4.670  10.032 -0.4562  1.3188 -0.1897
  365TMC3    H1 5468   3.414   0.154  10.393  2.4674 -3.2211  0.8077
  365TMC3    H2 5469   3.641   0.271  10.048 -0.7962 -0.9601 -1.0888
  365TMC3    C7 5470   3.589   0.346  10.294  0.1831  0.1845  0.5861
  365TMC3    C8 5471   3.596   0.068   9.934  0.3203 -0.2422  0.2071
  365TMC3    O1 5472   3.670   0.411  10.230  0.3479 -0.2078 -0.0764
  365TMC3    O2 5473   3.657   0.148   9.866  0.3701 -0.9676  0.1032
  366MPD2     C 5474   1.027   0.916  15.670 -0.6902 -0.9094  0.8587
  366MPD2    C1 5475   1.080   0.986  15.561  0.9982 -0.8868  0.6605
  366MPD2    C2 5476   1.029   0.959  15.435  0.2744  0.2667  0.5042
  366MPD2    C3 5477   0.926   0.875  15.416 -0.3411  0.2377 -0.1523
  366MPD2    C4 5478   0.868   0.821  15.528  0.3025  0.2455 -0.3384
  366MPD2    C5 5479   0.909   0.843  15.657  0.8412  0.5148 -0.6326
  366MPD2     H 5480   1.069   0.992  15.340 -0.9949  1.4383  0.3746
  366MPD2    H1 5481   0.773   0.769  15.520  0.0968  0.4556  0.7197
  366MPD2    H2 5482   1.060   0.936  15.772  3.7650  0.0144 -0.7756
  366MPD2    H3 5483   0.853   0.801  15.740  1.7339  0.0999 -0.2459
  366MPD2     N 5484   0.885   0.839  15.285 -0.2602 -0.1048 -0.9031
  366MPD2    H5 5485   0.938   0.886  15.212  1.4882  0.8923  1.0044
  366MPD2    N1 5486   1.186   1.073  15.571 -0.0785  0.1019 -0.4987
  366MPD2    H7 5487   1.208   1.129  15.489 -1.5596 -1.3667 -1.9123
  367TMC3    C1 5488   1.354   1.198  15.667  0.1787  0.1395 -0.9762
  367TMC3    C2 5489   1.472   1.188  15.722 -0.7767 -0.0907 -0.1546
  367TMC3    C3 5490   1.567   1.279  15.686 -0.2914  0.0657 -0.1737
  367TMC3    C4 5491   1.314   1.295  15.575 -0.0218  0.2906 -0.4838
  367TMC3    C5 5492   1.408   1.397  15.547  0.3987 -0.2503  1.3878
  367TMC3    C6 5493   1.539   1.382  15.600  1.0636  0.0468 -0.2372
  367TMC3     C 5494   1.261   1.091  15.682 -0.4187 -0.0017  1.0875
  367TMC3     O 5495   1.267   1.037  15.793  0.5705  0.0405 -0.2713
  367TMC3     H 5496   1.489   1.119  15.804  1.3907  2.8451  1.8602
  367TMC3    H1 5497   1.211   1.297  15.541 -0.2303 -1.3998  0.0361
  367TMC3    H2 5498   1.617   1.446  15.559  1.3989 -0.9899 -1.2048
  367TMC3    C7 5499   1.348   1.517  15.487 -0.7031  0.3361  0.4133
  367TMC3    C8 5500   1.680   1.283  15.780 -0.8145 -0.5535 -0.1138
  367TMC3    O1 5501   1.232   1.502  15.444 -0.3878  0.4439  0.3116
  367TMC3    O2 5502   1.685   1.191  15.857 -0.5623 -1.2525 -0.4104
  368MPD2     C 5503   3.255   2.531  13.568 -0.7673 -0.5069 -0.1695
  368MPD2    C1 5504   3.255   2.544  13.429  0.3996  0.7342 -0.3339
  368MPD2    C2 5505   3.358   2.476  13.361 -0.2897 -0.3673 -0.1994
  368MPD2    C3 5506   3.456   2.409  13.431  0.5204  0.5855 -0.1802
  368MPD2    C4 5507   3.460   2.401  13.565  0.2692  0.1410 -0.6238
  368MPD2    C5 5508   3.359   2.467  13.629 -0.1284  0.0161  0.2467
  368MPD2     H 5509   3.369   2.480  13.254  2.1720  0.5872  0.0914
  368MPD2    H1 5510   3.544   2.350  13.611  0.0690  1.0205  0.7270
  368MPD2    H2 5511   3.175   2.579  13.623 -2.4339  0.6153 -3.5790
  368MPD2    H3 5512   3.363   2.473  13.737  0.3716  0.5952  0.1993
  368MPD2     N 5513   3.558   2.335  13.370 -0.2943 -0.2927  0.0141
  368MPD2    H5 5514   3.638   2.313  13.428  0.6462 -0.6998 -1.4391
  368MPD2    N1 5515   3.148   2.613  13.366 -0.1238  0.4513 -0.6556
  368MPD2    H7 5516   3.074   2.647  13.427 -0.2588  0.5581 -0.8813
  369TMC3    C1 5517   3.024   2.721  13.202 -0.1478 -0.3381 -0.1568
  369TMC3    C2 5518   3.048   2.826  13.119  0.6068 -0.7368  0.4884
  369TMC3    C3 5519   2.947   2.873  13.036  0.1033  0.2053  1.1469
  369TMC3    C4 5520   2.902   2.654  13.207 -0.2619  0.3480 -0.2799
  369TMC3    C5 5521   2.812   2.693  13.112  0.1395 -0.0274 -0.9372
  369TMC3    C6 5522   2.831   2.806  13.035 -0.2541 -0.5658 -0.7321
  369TMC3     C 5523   3.147   2.654  13.234  0.0108 -0.3967 -0.4490
  369TMC3     O 5524   3.239   2.655  13.150 -0.0630 -0.1210 -0.4264
  369TMC3     H 5525   3.149   2.862  13.105  1.5194 -2.8276  1.7267
  369TMC3    H1 5526   2.892   2.559  13.258 -0.0206  1.5841  2.0530
  369TMC3    H2 5527   2.749   2.838  12.972  0.6152  0.3633 -1.3824
  369TMC3    C7 5528   2.688   2.619  13.120  0.1963  0.5109  0.0667
  369TMC3    C8 5529   2.950   2.998  12.959 -0.0922 -0.0480  0.0836
  369TMC3    O1 5530   2.673   2.523  13.197 -0.0752  0.3189 -0.2908
  369TMC3    O2 5531   2.844   3.029  12.901  0.8593 -0.2389  0.2296
  370TMC3    C1 5532   1.545   3.084  16.194 -0.4987  0.0258 -1.0445
  370TMC3    C2 5533   1.527   3.014  16.313 -0.5537 -0.7689 -0.4696
  370TMC3    C3 5534   1.543   2.879  16.315 -0.2584 -0.5262 -0.2041
  370TMC3    C4 5535   1.597   3.021  16.082 -0.8116 -0.1409 -0.0394
  370TMC3    C5 5536   1.631   2.885  16.107  0.4119 -0.4255 -0.0344
  370TMC3    C6 5537   1.596   2.805  16.217 -0.1095  0.0303 -0.2736
  370TMC3     C 5538   1.488   3.217  16.189  0.5439  0.2760 -0.5449
  370TMC3     O 5539   1.375   3.239  16.239 -0.2184 -0.1154  0.0256
  370TMC3     H 5540   1.491   3.076  16.395  0.0035  1.6866 -2.0916
  370TMC3    H1 5541   1.632   3.072  15.993  1.2180  0.3151  1.0001
  370TMC3    H2 5542   1.608   2.698  16.229  0.6222  0.1804  0.3258
  370TMC3    C7 5543   1.677   2.814  15.994 -0.3957 -0.7105 -0.4632
  370TMC3    C8 5544   1.482   2.798  16.425  0.7662  0.3099  0.1480
  370TMC3    O1 5545   1.663   2.867  15.885 -0.0025  0.3188  0.4109
  370TMC3    O2 5546   1.456   2.679  16.429 -0.6315  0.0651  0.8182
  371TMC3    C1 5547   3.159   1.280  15.683 -0.2256  0.0009 -0.7171
  371TMC3    C2 5548   3.042   1.295  15.749 -0.6443  0.3878  0.1402
  371TMC3    C3 5549   2.985   1.418  15.753 -0.4174  0.2888  0.1946
  371TMC3    C4 5550   3.226   1.391  15.626 -0.7391  0.1514 -0.3065
  371TMC3    C5 5551   3.161   1.511  15.627 -0.7230  0.3480  0.5787
  371TMC3    C6 5552   3.042   1.530  15.695 -0.3526 -0.1900 -0.7161
  371TMC3     C 5553   3.223   1.154  15.676 -0.3733  0.3069  0.1075
  371TMC3     O 5554   3.339   1.153  15.644  0.2990 -0.7659 -0.3615
  371TMC3     H 5555   2.991   1.211  15.794 -1.2191 -0.0818 -1.3842
  371TMC3    H1 5556   3.331   1.372  15.609 -0.8594 -1.9926  1.3693
  371TMC3    H2 5557   2.990   1.625  15.687  0.8038  0.4861 -0.1831
  371TMC3    C7 5558   3.211   1.617  15.547  0.0358  0.7695  0.6428
  371TMC3    C8 5559   2.834   1.421  15.749  0.5145 -0.2645  0.0443
  371TMC3    O1 5560   3.175   1.730  15.571 -0.6523  0.0688 -0.4226
  371TMC3    O2 5561   2.782   1.315  15.702  0.0452 -0.2642 -0.3259
  372MPD2     C 5562   2.969   2.999  13.457 -0.2329  0.1117  0.1598
  372MPD2    C1 5563   3.011   2.910  13.553  0.4965 -0.3264  0.7884
  372MPD2    C2 5564   2.924   2.807  13.585 -0.4268 -0.1725  0.1131
  372MPD2    C3 5565   2.800   2.794  13.524  0.0276  0.1804 -0.0285
  372MPD2    C4 5566   2.759   2.888  13.429 -0.7177 -0.4647 -0.4680
  372MPD2    C5 5567   2.854   2.986  13.389 -0.1324  0.0874 -0.3979
  372MPD2     H 5568   2.953   2.734  13.659  0.3319  0.2251  0.2040
  372MPD2    H1 5569   2.660   2.895  13.387 -1.0673  0.7816  0.5892
  372MPD2    H2 5570   3.030   3.083  13.425 -0.0143  0.3264  1.1628
  372MPD2    H3 5571   2.840   3.071  13.323  0.2486  0.4611  0.0087
  372MPD2     N 5572   2.708   2.698  13.571 -0.3157 -0.5938 -0.2333
  372MPD2    H5 5573   2.745   2.639  13.645  0.3528  0.7570  0.5051
  372MPD2    N1 5574   3.137   2.923  13.616 -0.0088  0.2699  0.4227
  372MPD2    H7 5575   3.163   2.854  13.686 -1.1372 -0.1695  0.4102
  373TMC3    C1 5576   2.549   2.552  13.580  0.4535  0.4428 -0.1801
  373TMC3    C2 5577   2.522   2.568  13.713 -0.0917  0.3578 -0.5715
  373TMC3    C3 5578   2.486   2.453  13.778  0.5957 -0.5087  0.6083
  373TMC3    C4 5579   2.568   2.428  13.519  0.3847 -0.0457 -0.1565
  373TMC3    C5 5580   2.545   2.316  13.594  0.0116  0.5162  0.1785
  373TMC3    C6 5581   2.497   2.332  13.722  0.7348  0.4107 -0.5359
  373TMC3     C 5582   2.592   2.667  13.510  0.7069 -0.1136 -0.7500
  373TMC3     O 5583   2.526   2.706  13.412  0.3676  0.6941 -0.1895
  373TMC3     H 5584   2.509   2.663  13.763  1.1074  0.0232  0.3959
  373TMC3    H1 5585   2.613   2.417  13.421 -1.4481 -0.7897 -0.9111
  373TMC3    H2 5586   2.474   2.242  13.779 -0.6390  1.7754  1.0792
  373TMC3    C7 5587   2.646   2.220  13.581 -0.0608 -0.3402  1.0363
  373TMC3    C8 5588   2.517   2.442  13.916  0.0624  0.9723 -0.5839
  373TMC3    O1 5589   2.683   2.201  13.467 -0.1984 -0.1051 -0.4541
  373TMC3    O2 5590   2.592   2.348  13.944  0.4687  0.0839  0.5527
  374TMC3    C1 5591   3.704   2.832   9.283 -0.3602  0.9667  0.7405
  374TMC3    C2 5592   3.744   2.942   9.347  0.1447 -0.4483  0.2125
  374TMC3    C3 5593   3.809   3.041   9.281 -0.2486  0.7031  0.2600
  374TMC3    C4 5594   3.730   2.817   9.152  0.2591  0.3502 -0.1983
  374TMC3    C5 5595   3.791   2.917   9.088 -0.3720 -0.6182 -0.1015
  374TMC3    C6 5596   3.828   3.036   9.147 -0.0094 -0.5615  0.2085
  374TMC3     C 5597   3.661   2.720   9.357 -0.5775 -0.2595 -0.4519
  374TMC3     O 5598   3.697   2.715   9.473  0.5797  0.2093  0.0602
  374TMC3     H 5599   3.727   2.953   9.453 -3.2198  2.9843 -0.6930
  374TMC3    H1 5600   3.709   2.721   9.107  2.4395 -0.6515  0.9501
  374TMC3    H2 5601   3.896   3.106   9.100 -0.9588 -0.3378 -0.8398
  374TMC3    C7 5602   3.823   2.891   8.949  0.3708  0.2529  0.1096
  374TMC3    C8 5603   3.829   3.173   9.345  0.0231 -0.0414  0.0299
  374TMC3    O1 5604   3.815   2.773   8.911 -0.2314  0.1180 -0.0761
  374TMC3    O2 5605   3.830   3.270   9.271  0.6524 -0.0118  0.1744
  375MPD2     C 5606   2.629   3.164  16.735  0.6123  0.8037 -0.7619
  375MPD2    C1 5607   2.610   3.262  16.647  0.0053 -0.1387 -0.1245
  375MPD2    C2 5608   2.679   3.260  16.527 -0.1658 -0.7147 -0.7258
  375MPD2    C3 5609   2.763   3.160  16.494 -0.2702  0.2036  0.1721
  375MPD2    C4 5610   2.801   3.067  16.593  0.5737 -0.3753  0.0776
  375MPD2    C5 5611   2.729   3.071  16.709  1.3802 -0.1748 -0.1528
  375MPD2     H 5612   2.674   3.342  16.457  0.2605  1.7113  2.1039
  375MPD2    H1 5613   2.869   2.983  16.583  0.6966 -0.2927  0.2364
  375MPD2    H2 5614   2.569   3.148  16.824 -0.0240  0.8941 -1.1717
  375MPD2    H3 5615   2.740   2.990  16.780 -3.0569 -1.1607 -0.5968
  375MPD2     N 5616   2.825   3.136  16.377  0.3586  0.4041  0.2702
  375MPD2    H5 5617   2.908   3.076  16.380  0.0184  0.0340  2.2680
  375MPD2    N1 5618   2.531   3.378  16.666  0.0398  0.5974  0.0056
  375MPD2    H7 5619   2.519   3.439  16.586  2.2880  0.4699 -0.4166
  376TMC3    C1 5620   2.871   3.183  16.148  0.7899  0.0341 -0.0650
  376TMC3    C2 5621   3.004   3.166  16.173 -0.2065  0.0525  0.1253
  376TMC3    C3 5622   3.082   3.131  16.068  0.4712  0.4317  0.4014
  376TMC3    C4 5623   2.812   3.176  16.030  0.0726  0.2169  0.2332
  376TMC3    C5 5624   2.901   3.145  15.927 -0.4024 -0.2204  0.1345
  376TMC3    C6 5625   3.033   3.126  15.941  0.3904 -0.2211 -0.3222
  376TMC3     C 5626   2.780   3.205  16.262 -0.1607 -0.9275 -0.0253
  376TMC3     O 5627   2.670   3.248  16.239  0.3236  0.7100  0.4110
  376TMC3     H 5628   3.050   3.184  16.270 -1.6390 -0.8757  0.9815
  376TMC3    H1 5629   2.704   3.182  16.018 -0.0551  0.4025  1.5084
  376TMC3    H2 5630   3.101   3.106  15.858  0.2079  1.0299 -0.7754
  376TMC3    C7 5631   2.847   3.172  15.794 -0.0268 -0.0631  0.5997
  376TMC3    C8 5632   3.226   3.108  16.094 -0.2474 -0.3408  0.6361
  376TMC3    O1 5633   2.919   3.227  15.711  0.2800  0.2789  0.0925
  376TMC3    O2 5634   3.297   3.116  15.994  0.4440 -0.1549  0.6234
  377MPD2     C 5635   1.858   3.092  12.152 -0.2551  0.0943  0.2833
  377MPD2    C1 5636   1.906   3.089  12.282 -0.3556  0.1550  0.1850
  377MPD2    C2 5637   1.827   3.143  12.384 -0.5868  0.0504 -0.7446
  377MPD2    C3 5638   1.706   3.204  12.354  0.8183  0.5291 -0.0080
  377MPD2    C4 5639   1.674   3.232  12.222 -0.1197  0.2836 -0.3158
  377MPD2    C5 5640   1.744   3.167  12.120 -0.0944  0.2562 -0.3740
  377MPD2     H 5641   1.861   3.121  12.485  0.5677 -0.6411 -1.2925
  377MPD2    H1 5642   1.587   3.284  12.184 -0.0573  0.0149 -0.8217
  377MPD2    H2 5643   1.923   3.051  12.076  2.5019  0.0390  2.6499
  377MPD2    H3 5644   1.723   3.172  12.014 -0.2149  1.9745 -0.2668
  377MPD2     N 5645   1.617   3.245  12.458 -0.5641 -0.0332  0.1001
  377MPD2    H5 5646   1.544   3.309  12.427 -1.2716 -1.5940 -1.4027
  377MPD2    N1 5647   2.027   3.021  12.301 -0.4105  0.5424  0.7247
  377MPD2    H7 5648   2.065   2.968  12.223 -1.1665  0.2551  0.5524
  378TMC3    C1 5649   2.335   2.941  12.161  0.0432  0.1243 -0.0902
  378TMC3    C2 5650   2.249   2.921  12.259  0.6332  0.2853 -0.5695
  378TMC3    C3 5651   2.247   2.992  12.376  0.4287  0.2304  0.8404
  378TMC3    C4 5652   2.435   3.034  12.181  0.6930 -0.4445 -0.4208
  378TMC3    C5 5653   2.439   3.107  12.305  0.0784 -0.0064  0.0848
  378TMC3    C6 5654   2.344   3.090  12.396  0.4001 -0.4846  1.0062
  378TMC3     C 5655   2.247   2.960  12.046 -0.0378  0.2678  0.4385
  378TMC3     O 5656   2.134   2.911  12.059  0.4703 -0.1502 -0.1645
  378TMC3     H 5657   2.190   2.830  12.252  1.5430 -0.2894 -0.8621
  378TMC3    H1 5658   2.517   3.038  12.111 -1.4686 -0.3970 -2.9462
  378TMC3    H2 5659   2.340   3.152  12.485 -2.1385 -0.0110  0.5791
  378TMC3    C7 5660   2.570   3.159  12.346 -0.2823 -0.0818  0.8924
  378TMC3    C8 5661   2.115   3.036  12.411  0.8570  0.2985  0.3657
  378TMC3    O1 5662   2.589   3.144  12.466  0.3530 -0.1222 -0.1278
  378TMC3    O2 5663   2.088   3.095  12.515 -0.2728  0.1465  0.1010
  379MPD2     C 5664   2.728   0.824  16.557 -0.7308 -0.0453 -0.3889
  379MPD2    C1 5665   2.607   0.769  16.537 -0.2902 -0.3510 -0.1349
  379MPD2    C2 5666   2.581   0.653  16.599 -0.0224 -0.1109 -0.7949
  379MPD2    C3 5667   2.654   0.589  16.697  0.5833  0.4867  0.3030
  379MPD2    C4 5668   2.780   0.641  16.720 -0.1326  0.0559  0.1474
  379MPD2    C5 5669   2.810   0.761  16.654  0.1743  0.6721 -0.1775
  379MPD2     H 5670   2.483   0.615  16.571 -0.2793 -0.5103  0.6402
  379MPD2    H1 5671   2.848   0.590  16.788  1.4096  2.1089  0.1429
  379MPD2    H2 5672   2.751   0.921  16.514  0.8408  1.1612  3.2136
  379MPD2    H3 5673   2.900   0.818  16.676  0.6255 -0.4802  0.9354
  379MPD2     N 5674   2.622   0.478  16.781 -0.2346 -0.0212 -0.0203
  379MPD2    H5 5675   2.690   0.442  16.847  0.9013  1.5116 -0.3577
  379MPD2    N1 5676   2.509   0.816  16.443  0.2108  0.4901  0.1762
  379MPD2    H7 5677   2.424   0.764  16.428 -0.0734  0.4403  1.8807
  380TMC3    C1 5678   2.432   0.965  16.277  0.0415 -0.6004  0.3962
  380TMC3    C2 5679   2.410   0.861  16.192  0.3810 -0.1013 -0.3418
  380TMC3    C3 5680   2.354   0.890  16.070 -0.0391 -0.2046 -0.1707
  380TMC3    C4 5681   2.384   1.090  16.251 -0.6333 -0.2056 -0.4245
  380TMC3    C5 5682   2.309   1.107  16.135  0.0313  1.1048 -0.1422
  380TMC3    C6 5683   2.297   1.015  16.040  0.5600  0.3655 -0.7712
  380TMC3     C 5684   2.508   0.945  16.396 -0.9043 -0.4567  0.6165
  380TMC3     O 5685   2.572   1.037  16.444 -0.0492 -0.2091 -0.5391
  380TMC3     H 5686   2.433   0.759  16.221  0.1455 -0.0330  0.0884
  380TMC3    H1 5687   2.397   1.178  16.313 -0.7323 -0.4155 -0.1021
  380TMC3    H2 5688   2.233   1.026  15.954  0.2931 -3.0625 -1.0096
  380TMC3    C7 5689   2.248   1.234  16.119  0.4611 -0.4516 -0.5590
  380TMC3    C8 5690   2.378   0.795  15.964  0.7386  0.3396  0.5556
  380TMC3    O1 5691   2.303   1.325  16.176 -0.0692  0.7494 -0.2161
  380TMC3    O2 5692   2.387   0.675  15.981 -0.0455 -0.3068 -0.3220
  381TMC3    C1 5693   1.666   2.079  16.260 -0.1003  0.7292 -0.0384
  381TMC3    C2 5694   1.652   2.214  16.245  0.0958 -0.2154 -0.1798
  381TMC3    C3 5695   1.645   2.295  16.357 -0.0378 -0.0441 -0.1993
  381TMC3    C4 5696   1.686   2.021  16.382  0.3725  0.1852  0.2486
  381TMC3    C5 5697   1.680   2.100  16.492  0.0452 -0.2089 -0.3104
  381TMC3    C6 5698   1.672   2.238  16.479  0.2107 -0.0091  0.7636
  381TMC3     C 5699   1.650   1.999  16.135 -0.0014  0.3109 -0.1762
  381TMC3     O 5700   1.629   2.052  16.023  0.4516 -0.1126  0.4821
  381TMC3     H 5701   1.626   2.248  16.145  2.6925  1.0176 -0.4329
  381TMC3    H1 5702   1.665   1.918  16.410 -0.4083 -0.0847 -1.3437
  381TMC3    H2 5703   1.704   2.290  16.568 -0.8426 -0.1593  1.2302
  381TMC3    C7 5704   1.642   2.049  16.620 -0.3706 -0.0363  0.1586
  381TMC3    C8 5705   1.690   2.430  16.334 -0.4474  0.1808  0.6884
  381TMC3    O1 5706   1.657   1.928  16.646 -0.4020 -0.4100 -0.4004
  381TMC3    O2 5707   1.708   2.458  16.216  0.3205 -0.4267  0.2197
  382MPD2     C 5708   0.976   4.364  17.293 -0.1058  0.1487  0.3557
  382MPD2    C1 5709   0.919   4.383  17.419 -0.2745  0.4318  0.2410
  382MPD2    C2 5710   0.857   4.276  17.477 -0.4408 -0.0584 -0.7222
  382MPD2    C3 5711   0.841   4.155  17.419  0.2616 -0.2166  0.5096
  382MPD2    C4 5712   0.903   4.141  17.290  0.6372  0.1180 -0.2156
  382MPD2    C5 5713   0.970   4.242  17.229 -0.3526 -0.4619 -0.2610
  382MPD2     H 5714   0.813   4.278  17.576 -0.7745 -1.2141 -0.8481
  382MPD2    H1 5715   0.899   4.053  17.227 -1.7853 -2.4783  3.6130
  382MPD2    H2 5716   1.036   4.441  17.247 -0.0733  0.2738  0.6036
  382MPD2    H3 5717   1.008   4.241  17.128  0.7807  1.0031  0.1632
  382MPD2     N 5718   0.753   4.057  17.482  0.5439  0.2737 -0.1087
  382MPD2    H5 5719   0.700   4.098  17.558 -1.4691 -0.9559 -0.8736
  382MPD2    N1 5720   0.903   4.503  17.484  0.3107 -0.1290 -0.6993
  382MPD2    H7 5721   0.879   4.506  17.583 -0.1066 -0.7357 -0.7815
  383TMC3    C1 5722   0.629   3.860  17.494  0.3092 -0.1680  0.3370
  383TMC3    C2 5723   0.538   3.793  17.420  0.3692  0.1320 -0.5827
  383TMC3    C3 5724   0.444   3.720  17.484  0.4462 -0.2200  0.2256
  383TMC3    C4 5725   0.625   3.869  17.625  0.6173  0.8582  0.3342
  383TMC3    C5 5726   0.537   3.783   0.010 -0.6493  0.1813 -0.4128
  383TMC3    C6 5727   0.442   3.713  17.620  0.0489 -0.4102  0.0725
  383TMC3     C 5728   0.728   3.933  17.423  0.5955 -0.3417  0.3608
  383TMC3     O 5729   0.794   3.874  17.343  0.4868  0.0259 -0.0464
  383TMC3     H 5730   0.541   3.789  17.312 -0.9950  2.5608 -0.7039
  383TMC3    H1 5731   0.711   3.900   0.007 -0.4637  1.0747  1.8193
  383TMC3    H2 5732   0.370   3.653  17.674 -0.2268  0.3429  0.5440
  383TMC3    C7 5733   0.510   3.795   0.154  0.2382  0.3335  0.4875
  383TMC3    C8 5734   0.339   3.666  17.400 -0.5042  1.1512 -0.5589
  383TMC3    O1 5735   0.418   3.723   0.199  0.3058  0.3401 -0.3130
  383TMC3    O2 5736   0.303   3.752  17.320  0.2453  0.4217  0.0650
  384MPD2     C 5737   2.891   1.672  11.892  0.5800 -0.1514 -0.1669
  384MPD2    C1 5738   2.923   1.573  11.986  0.6156 -0.1911  0.4281
  384MPD2    C2 5739   3.056   1.527  11.985 -0.7332 -0.5632 -0.8473
  384MPD2    C3 5740   3.152   1.567  11.890 -0.0510  0.6156 -0.3591
  384MPD2    C4 5741   3.115   1.656  11.799 -0.5476  0.5456  0.6212
  384MPD2    C5 5742   2.983   1.707  11.801 -0.1401 -0.2145 -0.0052
  384MPD2     H 5743   3.080   1.446  12.054  2.2342  1.6993  0.7853
  384MPD2    H1 5744   3.189   1.681  11.723 -1.3609 -1.1872 -0.7717
  384MPD2    H2 5745   2.791   1.713  11.883  0.6984  0.5659  1.8006
  384MPD2    H3 5746   2.954   1.788  11.735 -1.7545 -0.1512  0.7835
  384MPD2     N 5747   3.285   1.517  11.896 -0.5645 -0.6675 -0.0913
  384MPD2    H5 5748   3.346   1.545  11.820 -0.4990 -0.5791 -0.0046
  384MPD2    N1 5749   2.831   1.520  12.084  0.5585  0.0025 -0.0071
  384MPD2    H7 5750   2.869   1.449  12.145  2.9071  1.0991 -0.1917
  385TMC3    C1 5751   3.474   1.408  11.968  0.7269 -0.5293 -0.6645
  385TMC3    C2 5752   3.517   1.403  11.841  0.6358 -0.2476 -0.0569
  385TMC3    C3 5753   3.585   1.293  11.796  0.2969  0.2617  0.1752
  385TMC3    C4 5754   3.514   1.317  12.057  0.0426 -0.0484  0.6975
  385TMC3    C5 5755   3.558   1.198  12.009  0.1413  0.0737  0.6098
  385TMC3    C6 5756   3.595   1.182  11.876  0.0000 -0.7017  0.8880
  385TMC3     C 5757   3.342   1.462  12.001 -0.5945 -0.0061  0.5469
  385TMC3     O 5758   3.290   1.433  12.106 -0.1560 -0.2082  0.1303
  385TMC3     H 5759   3.504   1.493  11.781  0.0474  0.5347  1.2424
  385TMC3    H1 5760   3.497   1.336  12.163  4.2244  4.3695  0.5941
  385TMC3    H2 5761   3.634   1.087  11.843 -1.5151 -1.5796  1.6502
  385TMC3    C7 5762   3.482   1.083  12.061 -0.2098 -0.2603  0.3771
  385TMC3    C8 5763   3.630   1.289  11.656 -0.3187  0.0701 -0.1474
  385TMC3    O1 5764   3.517   0.970  12.025  0.1055 -0.0846 -0.2346
  385TMC3    O2 5765   3.675   1.392  11.611  0.1527  0.3233 -0.0921
  386TMC3    C1 5766   3.699   3.537  11.732  0.3092 -0.4792 -0.6512
  386TMC3    C2 5767   3.690   3.599  11.606 -0.1810  0.0279  0.4056
  386TMC3    C3 5768   3.573   3.662  11.582 -0.3455  0.3355 -0.6163
  386TMC3    C4 5769   3.597   3.535  11.823 -0.5626 -0.5987 -0.3003
  386TMC3    C5 5770   3.494   3.619  11.794  0.6699  0.5980  0.1730
  386TMC3    C6 5771   3.479   3.686  11.677 -0.2231  0.0810 -0.0296
  386TMC3     C 5772   3.811   3.446  11.750  0.2067 -0.6065 -1.5734
  386TMC3     O 5773   3.914   3.474  11.685 -0.0539 -0.0120  0.2476
  386TMC3     H 5774   3.769   3.599  11.532 -0.2564  1.5796  0.3270
  386TMC3    H1 5775   3.597   3.491  11.922 -0.8858  0.7865  0.3278
  386TMC3    H2 5776   3.403   3.754  11.640 -1.0111 -1.4801 -1.3019
  386TMC3    C7 5777   3.382   3.610  11.871  0.1188 -0.3258  0.3846
  386TMC3    C8 5778   3.513   3.615  11.462  0.6866 -0.8269  0.0655
  386TMC3    O1 5779   3.372   3.589  11.991 -0.5910 -0.5212 -0.2360
  386TMC3    O2 5780   3.403   3.663  11.436 -0.3799 -0.3496 -0.5284
  387MPD2     C 5781   1.097   3.485   9.899  0.0717 -0.2042 -0.2904
  387MPD2    C1 5782   1.233   3.466   9.936 -0.0797 -0.0427  0.5697
  387MPD2    C2 5783   1.280   3.337   9.952 -0.0418  0.1764 -0.2885
  387MPD2    C3 5784   1.205   3.228   9.929  1.0895  0.2474  0.4317
  387MPD2    C4 5785   1.076   3.250   9.887  0.0004  0.2527  0.6977
  387MPD2    C5 5786   1.023   3.375   9.869  0.5731 -1.3815 -0.1391
  387MPD2     H 5787   1.383   3.318   9.980  0.5074 -1.1706 -3.2408
  387MPD2    H1 5788   1.020   3.166   9.846 -1.0748  0.5130  1.6516
  387MPD2    H2 5789   1.053   3.583   9.880 -0.5874 -0.4837 -0.2052
  387MPD2    H3 5790   0.924   3.386   9.825  0.7532  0.0243 -0.1938
  387MPD2     N 5791   1.271   3.100   9.932  0.3473  0.2972 -0.0686
  387MPD2    H5 5792   1.371   3.099   9.949  0.8011  0.0708 -2.7446
  387MPD2    N1 5793   1.335   3.561   9.942  0.1068 -0.2770  0.4326
  387MPD2    H7 5794   1.424   3.521   9.972  0.8407  0.6867 -0.4385
  388TMC3    C1 5795   1.469   3.746   9.919  0.5138  0.2604  0.9170
  388TMC3    C2 5796   1.503   3.858   9.992  0.8754  0.5122 -0.4056
  388TMC3    C3 5797   1.631   3.894  10.015 -0.6934 -0.0942 -0.0552
  388TMC3    C4 5798   1.571   3.662   9.873  0.3532 -0.0091 -0.4877
  388TMC3    C5 5799   1.698   3.717   9.889 -0.3591  0.1734 -0.0574
  388TMC3    C6 5800   1.732   3.829   9.955  0.6984  0.6377 -0.2341
  388TMC3     C 5801   1.337   3.692   9.925  0.1037 -0.6506  0.5987
  388TMC3     O 5802   1.241   3.766   9.928 -0.0922 -0.6360 -0.5787
  388TMC3     H 5803   1.420   3.914  10.032 -0.1593  0.0598 -1.9148
  388TMC3    H1 5804   1.543   3.581   9.807 -1.9801  0.6421 -0.3269
  388TMC3    H2 5805   1.836   3.845   9.981  0.8123 -0.2143 -0.1417
  388TMC3    C7 5806   1.807   3.626   9.861  0.1560 -0.3995  0.7403
  388TMC3    C8 5807   1.644   4.020  10.071 -0.7971 -0.1482 -0.1927
  388TMC3    O1 5808   1.918   3.660   9.829  0.3350  0.5484  0.9403
  388TMC3    O2 5809   1.549   4.065  10.141  0.4289  0.2176 -0.1955
  389MPD2     C 5810   0.779   2.114  11.338 -0.4193  0.4891 -0.1005
  389MPD2    C1 5811   0.696   2.039  11.258  0.2082 -0.1958 -0.3250
  389MPD2    C2 5812   0.608   1.949  11.316 -0.2904  0.0117  0.5963
  389MPD2    C3 5813   0.610   1.931  11.454  0.3953  0.9145  0.3091
  389MPD2    C4 5814   0.697   2.002  11.534  0.3095  0.4753  0.5235
  389MPD2    C5 5815   0.778   2.097  11.473  0.1409 -0.9757 -0.1582
  389MPD2     H 5816   0.538   1.892  11.255 -0.8560 -1.2362  2.4138
  389MPD2    H1 5817   0.693   1.998  11.643  2.2613 -0.3564  0.5642
  389MPD2    H2 5818   0.848   2.185  11.294  1.2150 -1.2211 -0.2690
  389MPD2    H3 5819   0.846   2.153  11.535 -0.1759  2.3429 -2.8036
  389MPD2     N 5820   0.530   1.838  11.518  0.5930  0.5058 -0.1738
  389MPD2    H5 5821   0.530   1.846  11.619  1.8992 -1.8888  0.0064
  389MPD2    N1 5822   0.706   2.077  11.120  0.0121 -0.5578  0.5285
  389MPD2    H7 5823   0.769   2.152  11.094  1.3142 -1.5842  0.6891
  390TMC3    C1 5824   0.346   1.695  11.569 -0.3234  0.4281  0.1605
  390TMC3    C2 5825   0.390   1.661  11.694  0.0141 -0.1866 -0.6481
  390TMC3    C3 5826   0.300   1.617  11.784 -0.2049 -0.0590 -0.4728
  390TMC3    C4 5827   0.217   1.699  11.532 -0.3423  0.2347 -0.1707
  390TMC3    C5 5828   0.127   1.681  11.638  0.4882  0.2737 -0.7421
  390TMC3    C6 5829   0.163   1.648  11.762  0.3200  0.2936 -0.5938
  390TMC3     C 5830   0.444   1.735  11.471 -0.1725 -0.0103  0.4848
  390TMC3     O 5831   0.425   1.703  11.353 -0.1168  0.1304 -0.2377
  390TMC3     H 5832   0.490   1.621  11.702  0.5073  0.7570 -2.0215
  390TMC3    H1 5833   0.179   1.707  11.430 -2.3697  2.4781  0.7461
  390TMC3    H2 5834   0.100   1.605  11.838  1.6912 -1.7365 -0.6019
  390TMC3    C7 5835   0.019   1.589  11.596  0.1860 -0.0844  0.0554
  390TMC3    C8 5836   0.303   1.475  11.803 -0.1820 -0.1599  0.3804
  390TMC3    O1 5837   4.627   1.591  11.654 -0.5383  0.4032  0.2505
  390TMC3    O2 5838   0.331   1.403  11.706  0.3833 -0.3949  0.0434
  391MPD2     C 5839   3.842   3.052  10.941  0.4964 -0.5922 -0.6529
  391MPD2    C1 5840   3.896   3.177  10.940 -0.6450 -0.1679 -0.6048
  391MPD2    C2 5841   3.918   3.247  10.824  0.7375 -0.1055  0.5512
  391MPD2    C3 5842   3.887   3.182  10.701 -0.4220 -0.3209 -0.4209
  391MPD2    C4 5843   3.829   3.054  10.700 -0.2940 -0.9590 -0.4242
  391MPD2    C5 5844   3.803   2.993  10.820  0.0376  0.2704  0.8623
  391MPD2     H 5845   3.963   3.346  10.825  0.8461 -0.1586  1.7319
  391MPD2    H1 5846   3.794   2.999  10.613  0.9972 -0.0180 -1.5441
  391MPD2    H2 5847   3.830   3.004  11.037  1.4703  0.5571  0.0328
  391MPD2    H3 5848   3.762   2.893  10.830  1.1135 -0.3818 -1.3912
  391MPD2     N 5849   3.921   3.251  10.578 -0.6361 -0.2764  0.1998
  391MPD2    H5 5850   3.975   3.336  10.592 -0.3761 -0.6221  1.2853
  391MPD2    N1 5851   3.934   3.225  11.065  0.8167 -0.1820 -0.1575
  391MPD2    H7 5852   3.899   3.178  11.148  1.2080 -2.8095 -1.5184
  392TMC3    C1 5853   3.942   3.278  10.346 -0.1303  0.6381 -0.5141
  392TMC3    C2 5854   3.922   3.236  10.217  0.2967 -0.2508  0.4969
  392TMC3    C3 5855   3.993   3.286  10.108  0.0255 -0.6610 -0.5757
  392TMC3    C4 5856   4.055   3.343  10.367  0.3509  0.3957 -0.3972
  392TMC3    C5 5857   4.121   3.392  10.261  0.1781  0.0582  0.0080
  392TMC3    C6 5858   4.088   3.375  10.126  0.3021 -0.5344  0.1953
  392TMC3     C 5859   3.872   3.214  10.453  0.2773  0.0297 -0.6899
  392TMC3     O 5860   3.790   3.130  10.421 -0.7207  0.3625  0.0609
  392TMC3     H 5861   3.841   3.167  10.193  0.3216 -1.5654  4.2636
  392TMC3    H1 5862   4.078   3.375  10.467  0.9337 -0.1435 -0.3577
  392TMC3    H2 5863   4.157   3.399  10.046 -1.1015  1.0619 -0.5226
  392TMC3    C7 5864   4.239   3.469  10.298  0.2197 -0.1478 -0.0582
  392TMC3    C8 5865   3.956   3.249   9.979  0.2107  0.4139  0.2921
  392TMC3    O1 5866   4.264   3.473  10.415  0.3801  0.0341  0.1754
  392TMC3    O2 5867   3.906   3.141   9.960 -0.1116 -0.3458  0.2697
  393TMC3    C1 5868   3.633   1.159  10.118  0.5566 -0.1303 -0.1368
  393TMC3    C2 5869   3.500   1.137  10.158  0.0030 -0.3802  0.2513
  393TMC3    C3 5870   3.482   1.047  10.264  0.1702  0.5946  0.0557
  393TMC3    C4 5871   3.744   1.104  10.180 -0.1408  0.2128  0.4789
  393TMC3    C5 5872   3.712   1.018  10.278 -0.1275 -0.5444 -0.5505
  393TMC3    C6 5873   3.590   0.993  10.327  0.5274  0.2358  0.4960
  393TMC3     C 5874   3.646   1.235   9.989 -0.0873  0.6917 -0.4949
  393TMC3     O 5875   3.553   1.236   9.909 -0.7082 -0.3946 -0.1076
  393TMC3     H 5876   3.416   1.188  10.112 -0.5073  1.3823  3.0821
  393TMC3    H1 5877   3.841   1.118  10.135  0.5033 -0.5526  1.6294
  393TMC3    H2 5878   3.580   0.912  10.399 -0.3061  2.1348  2.4936
  393TMC3    C7 5879   3.773   0.885  10.254  0.2957 -1.2422 -0.0340
  393TMC3    C8 5880   3.357   1.042  10.340  0.1608  0.4500  0.0753
  393TMC3    O1 5881   3.704   0.790  10.223  0.2051 -0.2348 -0.5907
  393TMC3    O2 5882   3.367   1.012  10.460 -0.3410 -0.4969  0.3066
  394TMC3    C1 5883   0.673   2.031  10.891 -0.0130 -0.3704 -0.5339
  394TMC3    C2 5884   0.573   2.012  10.799  0.1869 -0.5961 -0.4174
  394TMC3    C3 5885   0.612   1.975  10.674 -0.2152 -0.2081  1.3019
  394TMC3    C4 5886   0.807   2.025  10.865 -0.7488  0.3616 -0.3402
  394TMC3    C5 5887   0.840   1.978  10.742 -0.7310  0.1190 -0.3984
  394TMC3    C6 5888   0.742   1.943  10.651  0.7379 -1.0567 -0.2822
  394TMC3     C 5889   0.623   2.020  11.029  0.6281 -0.1238 -0.0275
  394TMC3     O 5890   0.521   1.953  11.050 -0.3126 -0.0433 -0.0372
  394TMC3     H 5891   0.472   2.030  10.833  1.0316  1.9520  0.7517
  394TMC3    H1 5892   0.880   2.062  10.936  0.7654 -0.2576 -1.5658
  394TMC3    H2 5893   0.777   1.934  10.548  2.0930  0.3047  0.0619
  394TMC3    C7 5894   0.979   1.978  10.692 -0.2720 -0.5243  0.7305
  394TMC3    C8 5895   0.509   1.920  10.587 -0.0183  0.0102 -0.2130
  394TMC3    O1 5896   1.054   2.070  10.715  0.7317 -0.1557 -0.0772
  394TMC3    O2 5897   0.395   1.955  10.617  0.2982 -0.2921  0.1605
  395TMC3    C1 5898   4.553   3.237  14.135  0.2436 -0.3807 -0.2704
  395TMC3    C2 5899   4.425   3.279  14.113 -0.0820 -0.7065 -0.3490
  395TMC3    C3 5900   4.379   3.387  14.190 -0.5733 -0.5185 -0.5303
  395TMC3    C4 5901   4.644   3.319  14.198 -0.8322 -0.2108 -0.0165
  395TMC3    C5 5902   4.599   3.425  14.274 -0.4627 -0.0436  0.3004
  395TMC3    C6 5903   4.467   3.451  14.277  0.5643  0.0935 -0.2822
  395TMC3     C 5904   4.615   3.129  14.055 -0.4069  0.5856  0.2839
  395TMC3     O 5905   0.021   3.126  14.054 -0.0725  0.0853 -0.1488
  395TMC3     H 5906   4.359   3.241  14.036 -3.3859 -0.5723  2.4533
  395TMC3    H1 5907   0.029   3.288  14.212 -0.8498 -0.3473 -0.1915
  395TMC3    H2 5908   4.430   3.532  14.339  1.1926  0.9695 -1.0489
  395TMC3    C7 5909   4.683   3.527  14.335 -0.3868  0.8466 -0.0700
  395TMC3    C8 5910   4.245   3.379  14.234  0.0839  0.1813  0.5334
  395TMC3    O1 5911   4.635   3.589  14.430 -0.2777  0.1195  0.4876
  395TMC3    O2 5912   4.220   3.451  14.326  0.0186 -0.0875 -0.2166
  396MPD2     C 5913   4.573   4.267  17.476  0.6702  0.1203  0.4358
  396MPD2    C1 5914   4.453   4.299  17.546  0.1247 -0.2153 -0.1168
  396MPD2    C2 5915   4.413   4.435  17.560 -0.3300  0.3059 -0.7322
  396MPD2    C3 5916   4.490   4.538  17.507  0.3834  0.3844  0.4640
  396MPD2    C4 5917   4.603   4.505  17.433 -0.6915 -0.1239  0.3091
  396MPD2    C5 5918   4.634   4.373  17.417  0.9192 -0.1439 -0.0872
  396MPD2     H 5919   4.327   4.462  17.620 -1.8205 -0.3423 -2.5687
  396MPD2    H1 5920   4.679   4.578  17.404  0.0638 -0.8212  0.5201
  396MPD2    H2 5921   4.608   4.165  17.476  1.5377  0.4225  0.7226
  396MPD2    H3 5922   0.005   4.354  17.360  0.9567  0.0298 -0.0873
  396MPD2     N 5923   4.455   4.674  17.516  0.5234  0.2088  0.1696
  396MPD2    H5 5924   4.359   4.693  17.541 -0.4138 -2.1533 -1.6110
  396MPD2    N1 5925   4.388   4.187  17.610 -0.1735  0.2589 -0.4583
  396MPD2    H7 5926   4.418   4.091  17.601 -2.6349 -0.4211 -1.1218
  397TMC3    C1 5927   4.209   4.063   0.014 -0.1443  0.1395  0.3743
  397TMC3    C2 5928   4.175   4.003  17.570  1.0269 -0.3713 -0.6473
  397TMC3    C3 5929   4.059   3.920  17.552 -0.4203  0.7759  0.8270
  397TMC3    C4 5930   4.115   4.056   0.116  0.5862 -0.8442 -0.3102
  397TMC3    C5 5931   3.998   3.985   0.097  0.0317  0.2091  0.1341
  397TMC3    C6 5932   3.970   3.913  17.657  0.5461  0.2334  0.0151
  397TMC3     C 5933   4.270   4.196   0.006  0.4322  0.8864 -0.0827
  397TMC3     O 5934   4.203   4.291   0.042 -0.5505  0.1742  0.5587
  397TMC3     H 5935   4.233   4.041  17.487  1.5449 -3.4165 -1.7039
  397TMC3    H1 5936   4.124   4.114   0.208 -1.4432 -0.9520 -0.0256
  397TMC3    H2 5937   3.874   3.862  17.647  1.8094 -1.9626 -0.8238
  397TMC3    C7 5938   3.911   3.944   0.213  0.4498  0.3296 -0.8479
  397TMC3    C8 5939   4.001   3.937  17.424 -0.2182 -0.4557  0.5893
  397TMC3    O1 5940   3.802   3.908   0.177  0.3673 -0.0323  0.7528
  397TMC3    O2 5941   4.013   4.051  17.381  0.5936  0.4086  0.0978
  398MPD2     C 5942   2.599   0.443  17.568  0.5389 -0.0817  0.7930
  398MPD2    C1 5943   2.698   0.389  17.643 -0.1441 -0.3873 -0.7001
  398MPD2    C2 5944   2.802   0.472   0.003  0.2183 -0.1658  0.1582
  398MPD2    C3 5945   2.816   0.608  17.646 -0.0723 -0.2632 -0.3367
  398MPD2    C4 5946   2.716   0.655  17.559  0.1627  0.6739 -0.2622
  398MPD2    C5 5947   2.611   0.569  17.525  0.0306 -0.9518  0.0704
  398MPD2     H 5948   2.878   0.428   0.066 -0.2093  0.2129  0.9344
  398MPD2    H1 5949   2.722   0.756  17.518  0.4691 -0.5194 -3.1479
  398MPD2    H2 5950   2.515   0.381  17.537 -0.9927  3.1253 -1.5046
  398MPD2    H3 5951   2.532   0.621  17.471 -1.0000 -2.0122  0.5615
  398MPD2     N 5952   2.923   0.690   0.015 -0.5284  0.4535  0.5431
  398MPD2    H5 5953   2.984   0.649   0.084 -1.9124 -0.9211  0.9525
  398MPD2    N1 5954   2.721   0.251  17.665  0.6617  0.0410  0.4961
  398MPD2    H7 5955   2.817   0.223   0.007  1.1867  2.3564  1.3517
  399TMC3    C1 5956   2.658   0.031   0.006  0.6593  0.0077  0.6400
  399TMC3    C2 5957   2.773   0.001  17.626 -0.0156 -0.8387  0.6220
  399TMC3    C3 5958   2.835   4.605  17.661 -0.0723 -0.6807 -0.0070
  399TMC3    C4 5959   2.590   4.664   0.094 -0.4382  0.8890 -0.1460
  399TMC3    C5 5960   2.649   4.546   0.123 -0.8220 -0.2188  0.0241
  399TMC3    C6 5961   2.780   4.524   0.079  0.0127 -0.4216 -0.4387
  399TMC3     C 5962   2.610   0.164  17.674 -0.7460 -0.1064  0.6225
  399TMC3     O 5963   2.490   0.194   0.017 -0.0380  0.2934  0.1726
  399TMC3     H 5964   2.807   0.051  17.536  0.7966  2.0203  2.5402
  399TMC3    H1 5965   2.497   4.701   0.136 -0.1086 -0.3764  1.6758
  399TMC3    H2 5966   2.813   4.421   0.072  0.7970 -0.2973  1.3420
  399TMC3    C7 5967   2.599   4.460   0.228  0.2761 -0.4096  0.2402
  399TMC3    C8 5968   2.956   4.562  17.587 -0.1109  0.3175 -0.0362
  399TMC3    O1 5969   2.682   4.412   0.305  0.3700  0.6707 -0.0435
  399TMC3    O2 5970   2.959   4.448  17.552  0.2782 -0.2878  0.0168
  400TMC3    C1 5971   0.294   3.393  17.019 -0.5496 -0.4154  0.3923
  400TMC3    C2 5972   0.200   3.366  16.922 -0.2141 -0.0740 -0.9378
  400TMC3    C3 5973   0.163   3.467  16.840 -0.1242 -0.6295 -1.0854
  400TMC3    C4 5974   0.336   3.521  17.049 -0.2139  0.0895  0.4287
  400TMC3    C5 5975   0.282   3.625  16.977  0.0441  0.6644  0.8143
  400TMC3    C6 5976   0.202   3.598  16.867 -0.0561 -0.2215  0.5687
  400TMC3     C 5977   0.347   3.280  17.092 -0.3744  0.5742 -0.0968
  400TMC3     O 5978   0.258   3.198  17.103 -0.2530 -0.0843  0.2951
  400TMC3     H 5979   0.167   3.264  16.906 -0.4521 -0.1113 -0.2094
  400TMC3    H1 5980   0.397   3.540  17.136  2.0746 -0.2056 -1.1062
  400TMC3    H2 5981   0.165   3.684  16.811 -0.8715  1.1438  3.2079
  400TMC3    C7 5982   0.367   3.747  16.955  0.6949 -0.4415 -0.6125
  400TMC3    C8 5983   0.043   3.443  16.757 -0.5021  0.4674  0.1869
  400TMC3    O1 5984   0.388   3.774  16.836  0.3434  0.2242 -0.2947
  400TMC3    O2 5985   4.688   3.541  16.739 -0.4056  0.1021  0.9429
  401MPD2     C 5986   3.943   1.954   0.485 -0.4133  0.6282 -0.3358
  401MPD2    C1 5987   3.907   1.952   0.620  0.7520  0.4274  0.0937
  401MPD2    C2 5988   3.995   1.891   0.712  0.3038  0.5982 -0.1579
  401MPD2    C3 5989   4.115   1.830   0.677 -0.6379  0.6428  0.1104
  401MPD2    C4 5990   4.141   1.824   0.545  0.2434  0.3375  0.2164
  401MPD2    C5 5991   4.064   1.892   0.454  0.4885 -0.7425  0.3037
  401MPD2     H 5992   3.972   1.889   0.818 -1.3449 -1.5670 -0.5650
  401MPD2    H1 5993   4.230   1.781   0.500 -0.4662 -1.3530  0.4153
  401MPD2    H2 5994   3.875   1.988   0.407 -0.5356  0.8404 -0.1348
  401MPD2    H3 5995   4.093   1.892   0.350 -0.5760 -0.5921  0.0103
  401MPD2     N 5996   4.212   1.780   0.780 -0.0504  0.2266 -0.2011
  401MPD2    H5 5997   4.183   1.789   0.876 -2.5848  0.7379 -1.0067
  401MPD2    N1 5998   3.787   2.014   0.665  0.6008 -0.6709  0.7060
  401MPD2    H7 5999   3.780   2.012   0.766  0.4846  0.2962  0.7179
  402TMC3    C1 6000   4.404   1.690   0.859 -0.0714  0.6906 -0.1510
  402TMC3    C2 6001   4.382   1.750   0.982 -0.1384  0.4986  0.5275
  402TMC3    C3 6002   4.471   1.736   1.086 -0.4956 -0.2712  0.9770
  402TMC3    C4 6003   4.519   1.621   0.838 -0.6511 -0.2953 -0.3828
  402TMC3    C5 6004   4.603   1.607   0.946 -0.7619  0.5857 -0.0865
  402TMC3    C6 6005   4.592   1.672   1.067 -0.1815 -0.9238 -0.6082
  402TMC3     C 6006   4.334   1.730   0.743  0.0694 -0.1733 -0.7304
  402TMC3     O 6007   4.387   1.718   0.634  0.4572 -0.0114  0.0395
  402TMC3     H 6008   4.296   1.816   0.990 -0.5533  0.2488 -1.9182
  402TMC3    H1 6009   4.522   1.554   0.753  1.1528  0.4933 -0.9530
  402TMC3    H2 6010   4.672   1.675   1.140  0.1660 -1.7073 -0.9573
  402TMC3    C7 6011   0.007   1.535   0.914  0.1808 -0.5621 -0.6157
  402TMC3    C8 6012   4.434   1.741   1.228 -0.0502 -0.0518  0.4469
  402TMC3    O1 6013   0.008   1.476   0.809 -0.2906 -0.4459 -0.2582
  402TMC3    O2 6014   4.511   1.679   1.299  0.5516  0.1867  0.3715
  403MPD2     C 6015   1.938   1.383  13.574 -0.4651 -0.0786  0.0259
  403MPD2    C1 6016   2.006   1.270  13.607  0.8401  0.1356  0.1717
  403MPD2    C2 6017   2.122   1.280  13.691 -0.0788 -0.1242  0.0956
  403MPD2    C3 6018   2.159   1.395  13.748 -0.1332 -0.2607  0.3256
  403MPD2    C4 6019   2.085   1.506  13.720 -0.6056  0.1621  0.0345
  403MPD2    C5 6020   1.977   1.504  13.632 -0.3397  0.3259 -0.1966
  403MPD2     H 6021   2.177   1.192  13.723 -0.4045 -1.2824 -2.4849
  403MPD2    H1 6022   2.103   1.608  13.750 -0.3047 -0.2730  1.3072
  403MPD2    H2 6023   1.850   1.380  13.512 -1.0197  0.3907  0.7876
  403MPD2    H3 6024   1.915   1.592  13.625 -0.9722 -0.1559 -0.6355
  403MPD2     N 6025   2.269   1.392  13.838 -0.0462 -0.4400  0.1177
  403MPD2    H5 6026   2.307   1.299  13.855 -0.1475 -0.4684  0.1875
  403MPD2    N1 6027   1.959   1.150  13.556  0.3624 -0.1241 -0.3459
  403MPD2    H7 6028   1.888   1.161  13.485 -0.2678  0.4661  0.3813
  404TMC3    C1 6029   1.947   0.925  13.508  0.4601  0.0016 -0.2224
  404TMC3    C2 6030   1.941   0.799  13.566 -0.2209 -0.7167 -0.4768
  404TMC3    C3 6031   1.968   0.689  13.490  0.5843 -0.1882  0.2650
  404TMC3    C4 6032   1.945   0.931  13.369 -0.7533  0.1351  0.3155
  404TMC3    C5 6033   1.964   0.816  13.297  0.5621  0.9912  0.0267
  404TMC3    C6 6034   1.979   0.696  13.356  0.3449  1.0691  0.0329
  404TMC3     C 6035   2.001   1.027  13.592  0.1206 -0.0869 -0.1077
  404TMC3     O 6036   2.094   0.996  13.665 -0.0702 -0.1651  0.5344
  404TMC3     H 6037   1.966   0.800  13.671 -0.6258  1.2215 -0.3964
  404TMC3    H1 6038   1.952   1.023  13.312 -3.5719 -0.2791 -0.6572
  404TMC3    H2 6039   1.991   0.607  13.294  0.7583 -0.1745  1.9000
  404TMC3    C7 6040   2.033   0.830  13.171 -0.0603  0.0840 -0.8467
  404TMC3    C8 6041   2.029   0.574  13.560  0.8618 -0.2004 -0.8256
  404TMC3    O1 6042   2.110   0.923  13.147  0.3743 -0.3038 -0.6895
  404TMC3    O2 6043   2.120   0.505  13.511 -0.1877  0.6196  0.1970
  405MPD2     C 6044   2.598   1.279  14.848  0.5420 -0.0822 -0.2264
  405MPD2    C1 6045   2.533   1.208  14.750  0.1282  0.3948 -0.3717
  405MPD2    C2 6046   2.451   1.288  14.667 -0.2445 -0.3887  0.6578
  405MPD2    C3 6047   2.428   1.418  14.681  0.5171  0.2871  0.0358
  405MPD2    C4 6048   2.499   1.484  14.776 -0.7737  0.7564  0.4360
  405MPD2    C5 6049   2.581   1.411  14.858  0.4225 -0.4316 -0.2484
  405MPD2     H 6050   2.403   1.244  14.580  0.0383  0.8246 -0.1188
  405MPD2    H1 6051   2.507   1.592  14.778  1.0712  0.6427 -0.3891
  405MPD2    H2 6052   2.654   1.240  14.933  1.1134 -0.4069 -0.7552
  405MPD2    H3 6053   2.641   1.452  14.938  1.3042 -0.8044 -0.7233
  405MPD2     N 6054   2.346   1.488  14.588 -0.6179 -0.4136 -0.1578
  405MPD2    H5 6055   2.310   1.435  14.510 -0.7650 -0.7793  0.1549
  405MPD2    N1 6056   2.543   1.067  14.746  0.0766 -0.3607 -0.6193
  405MPD2    H7 6057   2.600   1.021  14.815 -1.6881 -0.1154  0.9997
  406TMC3    C1 6058   1.983   1.722  14.438 -0.1626 -0.3867 -0.5249
  406TMC3    C2 6059   1.978   1.651  14.319  0.1763 -0.3641  0.5400
  406TMC3    C3 6060   2.085   1.567  14.287 -0.1160 -0.1900  0.1085
  406TMC3    C4 6061   2.090   1.715  14.519  1.0950 -0.3677 -0.2471
  406TMC3    C5 6062   2.191   1.635  14.488  0.4516  0.5795  0.1068
  406TMC3    C6 6063   2.193   1.561  14.369 -0.0100 -0.3178  0.1628
  406TMC3     C 6064   1.885   1.824  14.456  0.3505  0.3488  0.0246
  406TMC3     O 6065   1.915   1.939  14.484  0.5492 -0.3606 -0.3816
  406TMC3     H 6066   1.884   1.636  14.267 -0.8178  0.7653  2.0222
  406TMC3    H1 6067   2.102   1.780  14.605 -0.9704 -2.2440  1.4656
  406TMC3    H2 6068   2.278   1.500  14.340  0.1203 -0.2792  0.4614
  406TMC3    C7 6069   2.295   1.615  14.587  0.1499  0.3391  0.3587
  406TMC3    C8 6070   2.037   1.443  14.230 -0.1638 -0.3234  0.3109
  406TMC3    O1 6071   2.287   1.699  14.675  0.2871 -0.5057  0.1494
  406TMC3    O2 6072   1.935   1.440  14.165  0.6544 -0.5885 -0.0609
  407MPD2     C 6073   0.811   3.269   9.303  0.9095 -0.1541  0.7703
  407MPD2    C1 6074   0.897   3.234   9.407 -0.7488  0.6400  0.6424
  407MPD2    C2 6075   0.852   3.210   9.533  0.2244  0.2212  0.0043
  407MPD2    C3 6076   0.724   3.241   9.565 -0.0152  1.1619 -0.1387
  407MPD2    C4 6077   0.633   3.270   9.467 -0.4039  0.3866 -0.4949
  407MPD2    C5 6078   0.678   3.284   9.336 -0.3193  0.1914  0.2909
  407MPD2     H 6079   0.922   3.183   9.610  0.9589  0.8393 -0.4496
  407MPD2    H1 6080   0.531   3.298   9.488 -0.7276 -0.9083 -0.2995
  407MPD2    H2 6081   0.838   3.282   9.199 -1.7119  4.3074  0.6546
  407MPD2    H3 6082   0.604   3.330   9.271  1.0350  0.2902 -1.1833
  407MPD2     N 6083   0.688   3.233   9.703  0.5601  0.2421  0.0012
  407MPD2    H5 6084   0.603   3.285   9.726 -0.4800 -1.0041 -0.9963
  407MPD2    N1 6085   1.031   3.215   9.394 -0.0737 -0.3580  0.1031
  407MPD2    H7 6086   1.073   3.162   9.470 -0.6376 -1.0199 -0.0451
  408TMC3    C1 6087   1.252   3.234   9.306 -0.1537 -0.2348  0.1745
  408TMC3    C2 6088   1.303   3.130   9.381 -0.4975  0.1316  0.2659
  408TMC3    C3 6089   1.437   3.126   9.389 -0.4770  0.1980 -0.0412
  408TMC3    C4 6090   1.327   3.328   9.245  0.1720 -0.0182 -0.6210
  408TMC3    C5 6091   1.461   3.315   9.252 -0.4454  0.2017 -0.1503
  408TMC3    C6 6092   1.520   3.212   9.323  0.1624  0.3476  0.2957
  408TMC3     C 6093   1.106   3.255   9.284 -0.3075  0.1725 -0.0139
  408TMC3     O 6094   1.070   3.325   9.192  0.1973  0.6756  0.0032
  408TMC3     H 6095   1.244   3.045   9.413  0.5735 -1.2252 -1.3653
  408TMC3    H1 6096   1.282   3.392   9.171 -0.0459  2.5277  1.7368
  408TMC3    H2 6097   1.627   3.207   9.338  0.0977 -0.8062  0.3475
  408TMC3    C7 6098   1.549   3.434   9.222 -0.1051 -0.1881  0.2471
  408TMC3    C8 6099   1.485   2.996   9.425 -0.5612 -0.3837 -0.3165
  408TMC3    O1 6100   1.670   3.412   9.229  0.4074 -0.0716 -0.3191
  408TMC3    O2 6101   1.410   2.893   9.428 -0.2631  0.9221 -0.6285
  409MPD2     C 6102   4.051   3.001  17.020 -0.5651 -0.9590  0.0839
  409MPD2    C1 6103   4.105   3.065  17.124 -0.5398 -0.2051 -0.1990
  409MPD2    C2 6104   4.120   3.196  17.113  0.1338  0.2736  0.7627
  409MPD2    C3 6105   4.076   3.268  17.006  0.8385 -0.4757  0.0578
  409MPD2    C4 6106   4.023   3.201  16.896  0.3256 -0.0311  0.1858
  409MPD2    C5 6107   4.017   3.068  16.903  0.3155 -0.4357  0.1425
  409MPD2     H 6108   4.165   3.244  17.199  2.7436  0.7547 -0.8607
  409MPD2    H1 6109   3.992   3.243  16.801  1.5704  0.0865 -0.1782
  409MPD2    H2 6110   4.051   2.893  17.011  1.3040 -0.9996  0.5567
  409MPD2    H3 6111   3.990   3.008  16.817  2.4176 -2.6707  1.0356
  409MPD2     N 6112   4.111   3.404  16.977 -0.2515 -0.8998  0.4136
  409MPD2    H5 6113   4.105   3.424  16.877 -1.9759  2.3251  1.1470
  409MPD2    N1 6114   4.142   3.006  17.245  0.8765  0.4607 -0.4020
  409MPD2    H7 6115   4.178   3.072  17.313 -1.0199  1.4670 -0.3878
  410TMC3    C1 6116   4.271   3.575  17.008 -1.1683  0.1884 -0.4095
  410TMC3    C2 6117   4.381   3.608  17.087 -0.4873  0.0828 -0.1914
  410TMC3    C3 6118   4.486   3.676  17.031 -0.1400 -0.8448 -0.3226
  410TMC3    C4 6119   4.271   3.597  16.877  0.4924  0.8978  0.6113
  410TMC3    C5 6120   4.376   3.670  16.826 -0.3085 -0.0453 -0.4699
  410TMC3    C6 6121   4.483   3.716  16.904 -0.0738 -0.2913  0.4295
  410TMC3     C 6122   4.182   3.477  17.070 -0.7490 -0.3901  0.0964
  410TMC3     O 6123   4.186   3.465  17.191 -0.0026 -0.2572  0.7228
  410TMC3     H 6124   4.381   3.584  17.193  1.8262  2.3307  0.3315
  410TMC3    H1 6125   4.181   3.586  16.818  0.3159 -2.0375  1.3955
  410TMC3    H2 6126   4.573   3.742  16.849  0.4135 -0.5320  1.1244
  410TMC3    C7 6127   4.369   3.736  16.695  0.2736 -0.4575 -0.9418
  410TMC3    C8 6128   4.614   3.643  17.086  0.4047  0.1875 -0.2125
  410TMC3    O1 6129   4.353   3.661  16.599  0.3313 -0.1014 -0.4001
  410TMC3    O2 6130   4.712   3.717  17.064  0.3486 -0.3732 -0.1566
  411MPD2     C 6131   0.175   4.359  14.492 -0.0013 -0.0915  0.0122
  411MPD2    C1 6132   0.034   4.359  14.510  0.0908 -0.2095 -0.2612
  411MPD2    C2 6133   4.696   4.252  14.456  0.3442 -0.5789  1.0926
  411MPD2    C3 6134   0.040   4.150  14.377 -0.0592 -0.3816  0.5593
  411MPD2    C4 6135   0.180   4.163  14.348  0.4897 -0.6925 -0.9121
  411MPD2    C5 6136   0.240   4.260  14.416  0.4791  0.0570 -0.0315
  411MPD2     H 6137   4.589   4.246  14.471 -0.1944 -0.1625 -2.6985
  411MPD2    H1 6138   0.234   4.086  14.295  0.3665 -2.4475  1.5372
  411MPD2    H2 6139   0.241   4.437  14.527 -1.4359 -0.1957  2.9530
  411MPD2    H3 6140   0.348   4.270  14.422  0.3722  0.8655  0.5013
  411MPD2     N 6141   4.683   4.042  14.328  0.5137 -0.8871 -0.4367
  411MPD2    H5 6142   0.015   3.990  14.256 -1.3990 -0.3886 -2.1176
  411MPD2    N1 6143   4.684   4.456  14.581  0.4006 -0.4885 -0.0466
  411MPD2    H7 6144   4.585   4.441  14.600  0.4403  0.9260  1.2872
  412TMC3    C1 6145   4.514   3.897  14.267  0.6648 -0.2437  0.1209
  412TMC3    C2 6146   4.420   3.816  14.315  0.4009 -0.0173 -0.0492
  412TMC3    C3 6147   4.341   3.751  14.224 -0.1587  0.0723 -0.3891
  412TMC3    C4 6148   4.517   3.935  14.136  0.8482 -0.3064  0.3548
  412TMC3    C5 6149   4.443   3.865  14.042 -0.1789  0.0720  0.5297
  412TMC3    C6 6150   4.370   3.761  14.090  0.0790 -0.5999 -0.1271
  412TMC3     C 6151   4.562   3.995  14.362  0.5086 -0.4797  0.2915
  412TMC3     O 6152   4.503   4.008  14.467  0.1235 -0.0797 -0.1144
  412TMC3     H 6153   4.406   3.788  14.419 -0.8287  1.3032  0.1399
  412TMC3    H1 6154   4.586   4.017  14.116  1.0320 -0.2588  1.1697
  412TMC3    H2 6155   4.306   3.717  14.015 -0.7224  2.7633 -1.4204
  412TMC3    C7 6156   4.375   3.948  13.947 -0.5073  0.6044  0.1343
  412TMC3    C8 6157   4.192   3.756  14.257  0.3177 -0.6719 -0.1620
  412TMC3    O1 6158   4.254   3.950  13.935 -0.4767  0.3831 -0.3236
  412TMC3    O2 6159   4.153   3.730  14.370  0.1435 -0.3391  0.0812
  413MPD2     C 6160   1.394   2.644  15.605 -0.0652 -0.2779 -0.0143
  413MPD2    C1 6161   1.337   2.557  15.513  0.3343  0.0153  0.1925
  413MPD2    C2 6162   1.405   2.446  15.457  0.7485 -0.7271 -0.0416
  413MPD2    C3 6163   1.522   2.405  15.508  0.3172  0.8904  0.9472
  413MPD2    C4 6164   1.572   2.479  15.614  0.3433 -0.1723  0.3962
  413MPD2    C5 6165   1.511   2.599  15.661 -0.2976 -0.1769  0.6147
  413MPD2     H 6166   1.367   2.389  15.373  1.2984  1.4461 -1.7585
  413MPD2    H1 6167   1.665   2.448  15.662 -0.9067 -0.2989  2.7497
  413MPD2    H2 6168   1.337   2.728  15.643  0.0893 -0.2337  0.1242
  413MPD2    H3 6169   1.553   2.663  15.738 -0.6814  1.0183 -0.1699
  413MPD2     N 6170   1.588   2.294  15.453  0.3858  0.6085  0.3469
  413MPD2    H5 6171   1.534   2.253  15.378  0.8799 -0.0554  0.3579
  413MPD2    N1 6172   1.211   2.602  15.458 -0.2031 -0.4466 -0.4736
  413MPD2    H7 6173   1.174   2.688  15.499  3.5951  0.6835  0.5708
  414TMC3    C1 6174   1.726   2.115  15.407  0.4693  0.8461 -1.0182
  414TMC3    C2 6175   1.799   2.019  15.465  0.0719 -0.4258 -0.5602
  414TMC3    C3 6176   1.805   1.899  15.400  0.1957 -0.5540  0.2195
  414TMC3    C4 6177   1.679   2.112  15.284  0.1930  0.4167  0.3193
  414TMC3    C5 6178   1.700   1.996  15.218 -0.2996  0.3092 -0.1899
  414TMC3    C6 6179   1.750   1.883  15.278 -0.0081 -0.0403  0.1062
  414TMC3     C 6180   1.699   2.226  15.495 -0.7742 -0.0577  0.0258
  414TMC3     O 6181   1.754   2.228  15.603  0.1791  1.3398  0.2333
  414TMC3     H 6182   1.832   2.027  15.568  0.3644 -3.0267 -0.4507
  414TMC3    H1 6183   1.648   2.196  15.223  3.9459  0.4931 -1.4791
  414TMC3    H2 6184   1.749   1.786  15.229 -2.2274  0.2320 -0.4054
  414TMC3    C7 6185   1.616   1.976  15.103 -0.7970 -0.3165  0.4379
  414TMC3    C8 6186   1.925   1.815  15.412  0.9629  0.1725  0.4930
  414TMC3    O1 6187   1.504   2.022  15.118 -0.3508  0.0124 -0.0515
  414TMC3    O2 6188   1.928   1.706  15.357  0.3705 -0.7094 -0.2566
  415TMC3    C1 6189   3.057   0.300   9.886  0.6837  0.0199 -0.1064
  415TMC3    C2 6190   3.095   0.356   9.766 -0.2819 -0.7277  0.5395
  415TMC3    C3 6191   3.002   0.332   9.669 -0.0914  0.1489 -0.0530
  415TMC3    C4 6192   2.954   0.209   9.902  0.0958 -0.0230 -0.4344
  415TMC3    C5 6193   2.874   0.181   9.797 -0.4096  0.7277  0.7376
  415TMC3    C6 6194   2.897   0.248   9.679  0.3235  0.6690  0.1135
  415TMC3     C 6195   3.152   0.310   9.998 -0.4786 -0.1397 -0.3729
  415TMC3     O 6196   3.169   0.214  10.072 -0.1200  0.2610 -0.4997
  415TMC3     H 6197   3.193   0.396   9.745 -0.5772 -0.8940 -1.1641
  415TMC3    H1 6198   2.965   0.142   9.986 -0.9109 -0.8012 -0.9332
  415TMC3    H2 6199   2.824   0.233   9.600  0.2278  1.1790  0.1082
  415TMC3    C7 6200   2.749   0.115   9.818 -0.1747 -0.0413  0.9515
  415TMC3    C8 6201   3.024   0.391   9.538 -0.0647  0.1925  0.3805
  415TMC3    O1 6202   2.692   0.080   9.715 -0.2582 -0.6080  0.4817
  415TMC3    O2 6203   2.976   0.331   9.443 -0.3429 -0.3922  0.0158
  416MPD2     C 6204   0.224   0.144  11.234  1.0017  0.8107 -0.3321
  416MPD2    C1 6205   0.111   0.101  11.298  0.7643 -0.4029 -0.2528
  416MPD2    C2 6206   0.080   4.685  11.281  0.3609  0.5770 -0.0398
  416MPD2    C3 6207   0.150   4.606  11.195 -0.2856 -0.3563  0.1122
  416MPD2    C4 6208   0.257   4.657  11.122  0.2058 -0.0386  0.4947
  416MPD2    C5 6209   0.296   0.062  11.150  0.2876 -0.5372 -0.3325
  416MPD2     H 6210   0.003   4.647  11.347  0.3136  1.5233  0.4550
  416MPD2    H1 6211   0.293   4.603  11.035 -1.6783 -2.4340  1.2152
  416MPD2    H2 6212   0.264   0.242  11.257  1.4966  0.4509  0.3365
  416MPD2    H3 6213   0.384   0.094  11.095  1.5789 -1.9427  0.9422
  416MPD2     N 6214   0.100   4.473  11.186  0.5475  0.0623 -0.2506
  416MPD2    H5 6215   0.018   4.449  11.240 -0.1904  2.2060 -0.4035
  416MPD2    N1 6216   0.045   0.191  11.388  0.2934  0.3237  0.8675
  416MPD2    H7 6217   0.065   0.290  11.395 -0.0759  0.5078 -0.5435
  417TMC3    C1 6218   4.601   0.264  11.544  0.1405 -1.2740  0.4685
  417TMC3    C2 6219   4.527   0.229  11.653  0.1902 -0.2278 -0.5309
  417TMC3    C3 6220   4.397   0.278  11.668 -0.2848  0.2178  0.9560
  417TMC3    C4 6221   4.553   0.349  11.449  0.6743  0.2506  0.3630
  417TMC3    C5 6222   4.416   0.387  11.465  0.0894 -0.1302  0.2683
  417TMC3    C6 6223   4.341   0.348  11.568  0.0889  0.0265 -0.0757
  417TMC3     C 6224   4.674   0.151  11.488  0.2481 -0.2384 -0.3551
  417TMC3     O 6225   4.632   0.045  11.526 -0.1681  0.8555 -0.2908
  417TMC3     H 6226   4.564   0.149  11.715 -0.6465 -0.2978 -0.1329
  417TMC3    H1 6227   4.600   0.383  11.358 -1.4782 -0.5302 -1.0535
  417TMC3    H2 6228   4.243   0.387  11.594  0.6390  0.1899  1.7465
  417TMC3    C7 6229   4.346   0.406  11.334 -0.6837  0.2192 -0.2480
  417TMC3    C8 6230   4.325   0.267  11.791 -0.3876 -0.2004  0.0676
  417TMC3    O1 6231   4.409   0.456  11.240 -1.2106 -0.1188  0.0103
  417TMC3    O2 6232   4.203   0.269  11.776 -0.1253 -0.1267  0.4141
  418TMC3    C1 6233   3.303   0.827   0.026  0.0099 -0.0467  0.2939
  418TMC3    C2 6234   3.185   0.870  17.638 -1.0643  0.1187  0.2274
  418TMC3    C3 6235   3.074   0.877   0.044 -0.3138 -0.4818  0.3246
  418TMC3    C4 6236   3.317   0.824   0.163  0.1882 -0.1715  0.7610
  418TMC3    C5 6237   3.203   0.836   0.238  1.0499  0.2842 -0.5222
  418TMC3    C6 6238   3.077   0.848   0.183 -0.1536 -0.2877 -0.3475
  418TMC3     C 6239   3.422   0.806  17.619 -0.2713 -0.0611 -0.3782
  418TMC3     O 6240   3.411   0.834  17.498  0.0829  0.6129  0.0768
  418TMC3     H 6241   3.178   0.908  17.536 -1.8522  0.6291  0.4707
  418TMC3    H1 6242   3.413   0.793   0.204 -0.2920 -1.6241  0.7839
  418TMC3    H2 6243   2.983   0.847   0.237  1.1096  4.0783  1.9314
  418TMC3    C7 6244   3.206   0.801   0.378  1.0638 -0.2807 -0.0989
  418TMC3    C8 6245   2.952   0.821  17.654 -0.0181 -0.0714  0.3492
  418TMC3    O1 6246   3.293   0.714   0.393  0.2084 -0.0287  0.1271
  418TMC3    O2 6247   2.918   0.879  17.548 -0.5494  0.0793  0.5258
  419MPD2     C 6248   1.842   3.821  12.402  0.5017 -0.8276  0.2903
  419MPD2    C1 6249   1.857   3.939  12.332  0.7204 -0.3844 -0.7523
  419MPD2    C2 6250   1.873   4.056  12.398 -0.1052  0.8009 -0.1075
  419MPD2    C3 6251   1.847   4.059  12.539 -0.1363  0.4392 -0.5009
  419MPD2    C4 6252   1.845   3.939  12.602  0.0416  0.7247  0.9637
  419MPD2    C5 6253   1.843   3.828  12.537  0.2341 -1.1148 -0.1129
  419MPD2     H 6254   1.882   4.144  12.337 -1.7060  1.1056  0.0927
  419MPD2    H1 6255   1.824   3.929  12.707 -2.2886 -1.3462  0.2869
  419MPD2    H2 6256   1.818   3.723  12.362 -3.1052  1.1275 -2.4327
  419MPD2    H3 6257   1.825   3.734  12.588 -0.7747  0.0556  1.6631
  419MPD2     N 6258   1.833   4.184  12.605  0.1765 -0.7150 -0.8095
  419MPD2    H5 6259   1.828   4.272  12.555  0.7470  0.1577  0.6784
  419MPD2    N1 6260   1.844   3.950  12.193 -0.0112 -0.2873 -0.6996
  419MPD2    H7 6261   1.863   4.040  12.150  0.7501 -0.4645 -0.7425
  420TMC3    C1 6262   1.746   4.330  12.763 -0.1249 -0.4346  0.0771
  420TMC3    C2 6263   1.643   4.369  12.682  0.1119  0.8492 -0.1278
  420TMC3    C3 6264   1.571   4.479  12.721  0.0444  0.5741 -0.7062
  420TMC3    C4 6265   1.783   4.405  12.871 -0.4493 -0.0866 -0.3264
  420TMC3    C5 6266   1.710   4.520  12.897  0.2054 -0.1175 -0.3524
  420TMC3    C6 6267   1.603   4.561  12.825 -0.0718 -0.6862  0.0507
  420TMC3     C 6268   1.813   4.198  12.737 -0.1597 -0.3052  0.4759
  420TMC3     O 6269   1.817   4.124  12.831  0.0770 -0.4005  0.0184
  420TMC3     H 6270   1.624   4.320  12.587 -0.3294  0.3144  0.2377
  420TMC3    H1 6271   1.872   4.368  12.921  0.1553 -0.2765 -1.5367
  420TMC3    H2 6272   1.539   4.647  12.840  0.0874 -0.7124  0.8463
  420TMC3    C7 6273   1.749   4.590  13.019  0.2927 -0.1562 -0.3488
  420TMC3    C8 6274   1.435   4.480  12.665  0.9097 -0.5618  0.3329
  420TMC3    O1 6275   1.860   4.551  13.053  0.1420  0.5620  0.2287
  420TMC3    O2 6276   1.370   4.586  12.649  0.0111 -0.3353 -0.1260
  421TMC3    C1 6277   2.425   1.463  14.007  0.4238  0.0095 -0.1485
  421TMC3    C2 6278   2.447   1.561  14.106 -0.6489 -0.0412  0.6576
  421TMC3    C3 6279   2.568   1.559  14.166 -0.0249 -0.0472  0.8672
  421TMC3    C4 6280   2.519   1.362  13.976  0.0676 -0.0552  0.3714
  421TMC3    C5 6281   2.645   1.380  14.031  0.3812 -0.1812 -0.2006
  421TMC3    C6 6282   2.664   1.468  14.129 -0.1827  0.6584  0.3313
  421TMC3     C 6283   2.318   1.493  13.916  0.1303 -0.4151 -0.3442
  421TMC3     O 6284   2.280   1.604  13.923  0.0779  0.4721  0.3031
  421TMC3     H 6285   2.373   1.639  14.123 -0.9342 -0.2264  0.2536
  421TMC3    H1 6286   2.511   1.279  13.907  1.1632 -0.3099  0.5500
  421TMC3    H2 6287   2.757   1.465  14.184  0.6015 -0.8469 -1.0989
  421TMC3    C7 6288   2.745   1.275  14.025  0.2343  0.0979 -0.1005
  421TMC3    C8 6289   2.583   1.633  14.292  0.0484  0.5519 -0.9566
  421TMC3    O1 6290   2.699   1.163  14.011 -0.0611 -0.3076  0.0338
  421TMC3    O2 6291   2.486   1.690  14.334 -0.2421  0.5356  0.2532
  422TMC3    C1 6292   0.475   2.497  12.487 -0.3128  0.5031  0.3768
  422TMC3    C2 6293   0.446   2.629  12.485 -0.0610  0.3520  0.1199
  422TMC3    C3 6294   0.324   2.662  12.534  0.6446  0.1536 -0.5908
  422TMC3    C4 6295   0.385   2.404  12.526 -0.1355 -0.0257 -0.2369
  422TMC3    C5 6296   0.254   2.440  12.562 -0.1308 -0.6323 -0.5224
  422TMC3    C6 6297   0.228   2.569  12.585  0.0878  0.3417  0.5255
  422TMC3     C 6298   0.601   2.462  12.429  0.0749  0.2801 -0.1122
  422TMC3     O 6299   0.638   2.544  12.340 -0.1872  0.4011  0.1788
  422TMC3     H 6300   0.517   2.706  12.457 -0.7057  1.0295  0.3783
  422TMC3    H1 6301   0.403   2.299  12.507  1.6986 -0.1086  2.0065
  422TMC3    H2 6302   0.126   2.603  12.600 -0.1218 -0.8776  1.8133
  422TMC3    C7 6303   0.157   2.393  12.474  0.4586  0.4530 -0.2590
  422TMC3    C8 6304   0.288   2.802  12.544 -0.1337  0.3329 -0.5747
  422TMC3    O1 6305   0.154   2.451  12.363  0.3454  0.6924  0.0670
  422TMC3    O2 6306   0.352   2.868  12.463  0.0794  0.4321  0.0984
  423MPD2     C 6307   1.251   3.417   0.647  0.1952 -0.7311 -0.2832
  423MPD2    C1 6308   1.303   3.300   0.702  0.1886 -0.0360 -0.1423
  423MPD2    C2 6309   1.370   3.212   0.613 -0.4633  0.3078  0.7695
  423MPD2    C3 6310   1.406   3.254   0.481  0.0903  0.4580 -0.2903
  423MPD2    C4 6311   1.364   3.376   0.441 -0.3656  0.5597 -0.8338
  423MPD2    C5 6312   1.286   3.459   0.521  0.2280  0.5378  0.2385
  423MPD2     H 6313   1.380   3.107   0.637  0.2779  0.1180 -0.3351
  423MPD2    H1 6314   1.374   3.415   0.340  0.6689 -0.4818 -1.1314
  423MPD2    H2 6315   1.179   3.473   0.706  0.6125 -1.6061  1.0649
  423MPD2    H3 6316   1.251   3.560   0.501 -1.4707 -0.3391 -1.2132
  423MPD2     N 6317   1.468   3.167   0.387  0.6005 -0.4087 -0.0743
  423MPD2    H5 6318   1.476   3.195   0.290  0.4015 -2.2513 -0.6183
  423MPD2    N1 6319   1.264   3.262   0.832  0.3887  0.0738  0.3214
  423MPD2    H7 6320   1.269   3.165   0.860 -0.9688 -0.1420 -0.1974
  424TMC3    C1 6321   1.198   3.291   1.058 -0.0278  0.3873 -0.1624
  424TMC3    C2 6322   1.258   3.174   1.087  0.3111  0.5836 -0.0266
  424TMC3    C3 6323   1.230   3.123   1.216 -0.2444  0.4964 -0.5233
  424TMC3    C4 6324   1.129   3.366   1.154  0.2950  0.0612  0.0376
  424TMC3    C5 6325   1.104   3.308   1.276  0.7534  0.7413  0.4972
  424TMC3    C6 6326   1.152   3.181   1.314  0.0805  0.0969  0.3306
  424TMC3     C 6327   1.230   3.351   0.931 -0.4142  0.3779 -0.5900
  424TMC3     O 6328   1.237   3.472   0.928  0.0782  0.2320  0.0073
  424TMC3     H 6329   1.330   3.131   1.019  0.5838  0.2803  0.4539
  424TMC3    H1 6330   1.099   3.468   1.130 -0.1585 -0.3036 -0.9208
  424TMC3    H2 6331   1.118   3.125   1.399  0.3737 -0.8977 -0.2050
  424TMC3    C7 6332   0.999   3.373   1.364  0.4783 -1.0025 -0.3240
  424TMC3    C8 6333   1.269   2.987   1.250  0.5517  0.2359  0.1725
  424TMC3    O1 6334   0.939   3.464   1.313 -0.0796 -0.4354  0.5563
  424TMC3    O2 6335   1.259   2.954   1.366 -0.5165  0.7316  0.7277
  425MPD2     C 6336   0.605   2.521   0.031  0.2927  0.0807 -0.7057
  425MPD2    C1 6337   0.541   2.459  17.598  0.3632  0.2020  0.3573
  425MPD2    C2 6338   0.403   2.465  17.592 -0.0417 -0.6353  0.1687
  425MPD2    C3 6339   0.331   2.524   0.016  0.2038  0.6249  0.8215
  425MPD2    C4 6340   0.394   2.567   0.131  0.2128 -0.2964 -0.2943
  425MPD2    C5 6341   0.532   2.556   0.140  0.5512 -0.0106  0.7540
  425MPD2     H 6342   0.351   2.418  17.509 -2.2403 -0.2207  1.3122
  425MPD2    H1 6343   0.344   2.612   0.217 -0.9497  1.7323 -2.0423
  425MPD2    H2 6344   0.711   2.509   0.051  0.4691  1.9299 -0.5608
  425MPD2    H3 6345   0.572   2.586   0.237  3.0884  1.4637 -0.7581
  425MPD2     N 6346   0.195   2.525  17.668 -0.3245 -0.7455 -0.6876
  425MPD2    H5 6347   0.165   2.481  17.581 -2.2518 -1.5036  0.3677
  425MPD2    N1 6348   0.619   2.371  17.511 -0.2270  0.3638 -0.0138
  425MPD2    H7 6349   0.715   2.358  17.542 -0.6769 -2.4661  0.1642
  426TMC3    C1 6350   0.657   2.198  17.357  0.4106  0.4226  0.0628
  426TMC3    C2 6351   0.627   2.146  17.236 -0.4438  0.6066  0.4966
  426TMC3    C3 6352   0.684   2.034  17.195 -0.8453 -0.3512  0.3481
  426TMC3    C4 6353   0.731   2.127  17.444 -0.1613 -0.3559 -0.2586
  426TMC3    C5 6354   0.779   2.006  17.403  0.4102 -0.6137  0.7907
  426TMC3    C6 6355   0.765   1.960  17.273 -0.4974  0.4061 -0.0308
  426TMC3     C 6356   0.575   2.307  17.400  0.1200 -0.3762  0.2453
  426TMC3     O 6357   0.473   2.325  17.340  0.2246  0.0779 -0.3585
  426TMC3     H 6358   0.564   2.198  17.164  1.9013  2.4630 -0.2066
  426TMC3    H1 6359   0.747   2.164  17.545  0.6726  1.5474 -1.0895
  426TMC3    H2 6360   0.792   1.860  17.242  0.0286  0.2994  0.7862
  426TMC3    C7 6361   0.811   1.923  17.510 -0.1326  0.5746 -0.5928
  426TMC3    C8 6362   0.614   1.949  17.100 -0.0527  0.0209 -0.3949
  426TMC3    O1 6363   0.899   1.844  17.489 -0.0663 -0.1680 -0.2302
  426TMC3    O2 6364   0.686   1.866  17.049  0.7192 -0.3849 -0.5707
  427MPD2     C 6365   3.916   4.471  14.534 -0.2109 -1.2635 -0.8717
  427MPD2    C1 6366   3.846   4.357  14.545  0.9207  0.2935  0.7106
  427MPD2    C2 6367   3.710   4.371  14.572 -0.0931  1.0225  0.0619
  427MPD2    C3 6368   3.646   4.488  14.606 -0.1773  0.1636  0.4159
  427MPD2    C4 6369   3.725   4.602  14.610 -0.2922  0.3378 -0.2928
  427MPD2    C5 6370   3.856   4.592  14.564  0.0831  0.6934 -0.3004
  427MPD2     H 6371   3.653   4.279  14.567  1.7844 -0.1079 -0.8475
  427MPD2    H1 6372   3.689   4.699  14.642  1.7786  0.9374  0.2195
  427MPD2    H2 6373   4.018   4.476  14.496  1.6348 -0.0908  4.2591
  427MPD2    H3 6374   3.920   4.680  14.555 -1.5493  1.7965 -1.1755
  427MPD2     N 6375   3.510   4.496  14.646  0.2660  0.1008 -0.6118
  427MPD2    H5 6376   3.473   4.590  14.652  0.7432  0.2254  0.2600
  427MPD2    N1 6377   3.903   4.227  14.536  0.0973  0.3867 -0.1904
  427MPD2    H7 6378   3.845   4.149  14.565  1.3225  0.1707  1.6670
  428TMC3    C1 6379   4.065   4.050  14.523  0.3461  1.0696 -0.4650
  428TMC3    C2 6380   3.964   3.958  14.508  0.6828 -0.3752  0.2008
  428TMC3    C3 6381   3.985   3.846  14.579 -0.0594 -0.5920  0.1442
  428TMC3    C4 6382   4.187   4.026  14.576  0.7271  0.0478  0.2847
  428TMC3    C5 6383   4.196   3.909  14.642  0.0547  0.4222  0.6161
  428TMC3    C6 6384   4.100   3.816  14.650  0.0606  0.4690 -0.0652
  428TMC3     C 6385   4.036   4.197  14.540 -0.5295 -0.2531 -0.6093
  428TMC3     O 6386   4.125   4.277  14.571 -0.0958  0.6772 -0.2775
  428TMC3     H 6387   3.870   3.980  14.460  0.4499  1.4846  1.5395
  428TMC3    H1 6388   4.263   4.103  14.579  0.5795  0.1853  0.4975
  428TMC3    H2 6389   4.113   3.727  14.711  1.8151  1.4398  1.0037
  428TMC3    C7 6390   4.278   3.912  14.759  0.6046 -0.1657  0.2301
  428TMC3    C8 6391   3.876   3.752  14.590  0.1092  0.0506  0.3389
  428TMC3    O1 6392   4.221   3.884  14.865  0.2450  0.5725 -0.1184
  428TMC3    O2 6393   3.764   3.783  14.561  0.3569 -0.2559 -0.3973
  429MPD2     C 6394   4.523   4.148   0.265  0.3992  0.0301  0.1964
  429MPD2    C1 6395   4.631   4.074   0.245 -0.4901  0.5137  0.6275
  429MPD2    C2 6396   0.023   4.136   0.187 -0.2065  1.0440 -0.0537
  429MPD2    C3 6397   0.022   4.266   0.137 -0.6247  0.4253  1.0351
  429MPD2    C4 6398   4.627   4.337   0.158 -0.1252 -0.6887  0.3422
  429MPD2    C5 6399   4.520   4.279   0.226  0.6904 -0.1611 -0.2871
  429MPD2     H 6400   0.113   4.075   0.181 -0.5573  0.5073  0.0886
  429MPD2    H1 6401   4.608   4.435   0.117  1.2517 -0.6160 -0.1101
  429MPD2    H2 6402   4.431   4.105   0.302 -0.5621  0.5691 -1.6022
  429MPD2    H3 6403   4.436   4.347   0.239  1.2223  1.0635 -3.2988
  429MPD2     N 6404   0.125   4.319   0.051 -0.4780 -0.0968  0.0933
  429MPD2    H5 6405   0.191   4.251   0.016 -0.2290 -0.5047  1.3405
  429MPD2    N1 6406   4.639   3.942   0.295  0.4085  0.6185 -0.2241
  429MPD2    H7 6407   0.008   3.890   0.287  0.8754  1.1887  1.2987
  430TMC3    C1 6408   0.243   4.456  17.590  0.4117  0.0762 -0.1610
  430TMC3    C2 6409   0.212   4.552  17.496 -0.6660  0.0857 -0.2217
  430TMC3    C3 6410   0.272   4.528  17.374 -0.5326 -0.1160  0.3091
  430TMC3    C4 6411   0.333   4.356  17.569 -0.7050  0.9607  0.2469
  430TMC3    C5 6412   0.403   4.352  17.452  0.2139  0.2855  0.1071
  430TMC3    C6 6413   0.365   4.437  17.354  0.8405 -0.3943  0.0118
  430TMC3     C 6414   0.142   4.449   0.013  0.4082 -0.4735 -0.2463
  430TMC3     O 6415   0.072   4.544   0.036  0.2629 -0.0992 -0.6149
  430TMC3     H 6416   0.130   4.623  17.503 -1.0885 -0.3429 -0.7744
  430TMC3    H1 6417   0.354   4.288  17.650 -0.0978  1.1138  0.2159
  430TMC3    H2 6418   0.403   4.426  17.253 -3.7706  3.4550 -2.1343
  430TMC3    C7 6419   0.465   4.224  17.409  0.6251  0.6702  0.5178
  430TMC3    C8 6420   0.240   4.614  17.267 -0.2486  0.2929 -0.6983
  430TMC3    O1 6421   0.420   4.122  17.464  0.8912  0.7462 -0.7042
  430TMC3    O2 6422   0.243   4.556  17.163  0.4601 -0.6917 -0.1112
  431MPD2     C 6423   1.581   4.569  12.380 -0.1025  0.0484  0.8649
  431MPD2    C1 6424   1.713   4.524  12.369  0.5205  0.0380  0.1091
  431MPD2    C2 6425   1.728   4.428  12.273  0.2859  0.4843  0.2892
  431MPD2    C3 6426   1.633   4.378  12.188  0.3859  0.7691 -0.2630
  431MPD2    C4 6427   1.513   4.437  12.187  0.2778  0.0129  0.2483
  431MPD2    C5 6428   1.488   4.526  12.282 -0.3470  0.3460  0.1159
  431MPD2     H 6429   1.828   4.387  12.268  0.6168  1.6127 -2.6724
  431MPD2    H1 6430   1.442   4.410  12.109 -1.5057  0.0855  1.8335
  431MPD2    H2 6431   1.546   4.645  12.449 -0.6787  0.8358 -0.2808
  431MPD2    H3 6432   1.385   4.557  12.300  0.2735  1.1586  2.2174
  431MPD2     N 6433   1.664   4.285  12.088 -0.1241  0.0601 -0.0663
  431MPD2    H5 6434   1.591   4.243  12.032  0.2311 -3.9480  2.4557
  431MPD2    N1 6435   1.823   4.577  12.442  0.5661  0.1286  0.6763
  431MPD2    H7 6436   1.910   4.526  12.434  1.4993  2.0788 -1.6131
  432TMC3    C1 6437   1.782   4.154  11.936 -0.2219 -0.7270 -0.1556
  432TMC3    C2 6438   1.893   4.140  11.861  0.3559  0.8968 -0.2041
  432TMC3    C3 6439   1.941   4.017  11.827  0.3295 -0.4543  0.4720
  432TMC3    C4 6440   1.731   4.035  11.986 -0.1536 -0.0845 -0.1528
  432TMC3    C5 6441   1.791   3.917  11.967  0.2296  0.4363 -0.6432
  432TMC3    C6 6442   1.893   3.897  11.875 -0.1689 -0.1428 -0.0825
  432TMC3     C 6443   1.789   4.259  12.042  0.1135 -0.1655  0.8555
  432TMC3     O 6444   1.894   4.312  12.067  0.5052  0.2465  0.5207
  432TMC3     H 6445   1.936   4.232  11.823 -0.2892  1.1217 -0.3893
  432TMC3    H1 6446   1.663   4.042  12.070  1.2793  2.7912  0.7833
  432TMC3    H2 6447   1.944   3.802  11.868 -0.4483 -0.3184  0.2274
  432TMC3    C7 6448   1.810   3.854  12.101  0.2855 -0.4872 -0.1136
  432TMC3    C8 6449   2.046   4.007  11.724 -0.3159  0.5310 -0.4776
  432TMC3    O1 6450   1.775   3.738  12.122  0.0141 -0.1751 -0.2021
  432TMC3    O2 6451   2.053   3.892  11.675  0.0396 -0.2131 -0.6936
  433MPD2     C 6452   0.502   3.639  10.925  0.1659 -0.8037 -0.4695
  433MPD2    C1 6453   0.410   3.538  10.947  0.0733 -0.2247  0.4220
  433MPD2    C2 6454   0.363   3.525  11.078  0.9653  0.6006  0.4593
  433MPD2    C3 6455   0.410   3.600  11.185 -0.0799 -0.4380 -0.2473
  433MPD2    C4 6456   0.505   3.701  11.159 -0.8715 -0.2431  0.5811
  433MPD2    C5 6457   0.555   3.710  11.031 -0.2897  0.2552 -0.3927
  433MPD2     H 6458   0.291   3.446  11.095  1.9337 -0.1991  0.8819
  433MPD2    H1 6459   0.545   3.769  11.232  0.9512 -1.2120  0.5006
  433MPD2    H2 6460   0.550   3.651  10.828  1.2184 -2.4246 -0.1494
  433MPD2    H3 6461   0.631   3.787  11.021 -1.5060  1.5996  0.8589
  433MPD2     N 6462   0.360   3.563  11.309  0.2893 -0.6646 -0.1772
  433MPD2    H5 6463   0.294   3.486  11.314 -3.6220  2.5789 -1.7571
  433MPD2    N1 6464   0.387   3.448  10.838  0.2571  0.6840  0.6954
  433MPD2    H7 6465   0.444   3.463  10.755  0.8143 -0.1666  0.9128
  434TMC3    C1 6466   0.357   3.227  10.758 -0.6046 -0.9722  0.2762
  434TMC3    C2 6467   0.408   3.115  10.817  0.7224 -0.0631 -0.0840
  434TMC3    C3 6468   0.524   3.071  10.754  0.5615 -0.1472 -0.0562
  434TMC3    C4 6469   0.391   3.276  10.637 -0.5122 -0.7204 -0.4763
  434TMC3    C5 6470   0.499   3.227  10.573 -0.7332  0.2815 -0.1467
  434TMC3    C6 6471   0.572   3.122  10.634 -0.3065 -0.0714  0.5071
  434TMC3     C 6472   0.318   3.331  10.853  0.6907 -0.2084 -0.7904
  434TMC3     O 6473   0.258   3.283  10.951 -0.6693  0.3325 -0.7128
  434TMC3     H 6474   0.380   3.086  10.917 -0.8642 -0.2989 -0.5831
  434TMC3    H1 6475   0.325   3.343  10.583 -1.1873 -1.9914 -1.2372
  434TMC3    H2 6476   0.663   3.088  10.586 -0.8059 -0.4522 -0.1759
  434TMC3    C7 6477   0.480   3.226  10.431  0.5708 -0.3900  0.3325
  434TMC3    C8 6478   0.597   2.987  10.838  0.5308  0.2275 -0.0088
  434TMC3    O1 6479   0.426   3.322  10.377  0.0319  0.3650  0.3192
  434TMC3    O2 6480   0.548   2.942  10.943 -0.4587  0.3271  0.0564
  435MPD2     C 6481   1.904   2.972  15.454  0.4931  0.2151  0.3537
  435MPD2    C1 6482   1.855   2.962  15.579  0.5631 -0.0123 -0.0671
  435MPD2    C2 6483   1.939   2.947  15.688 -0.1641 -0.2342  0.0744
  435MPD2    C3 6484   2.067   2.917  15.671 -0.0510 -0.2623  0.1655
  435MPD2    C4 6485   2.118   2.928  15.540 -0.1369  0.3568  0.6814
  435MPD2    C5 6486   2.035   2.952  15.431 -0.2097  0.3269  0.5153
  435MPD2     H 6487   1.893   2.938  15.786 -1.8596  3.2059 -0.4116
  435MPD2    H1 6488   2.225   2.927  15.522 -0.4566 -0.1719 -1.2804
  435MPD2    H2 6489   1.846   2.982  15.363  0.0537 -0.3108  0.5757
  435MPD2    H3 6490   2.065   2.951  15.327  1.6353 -0.2998  1.0558
  435MPD2     N 6491   2.147   2.881  15.776 -0.0684 -0.1703  0.1255
  435MPD2    H5 6492   2.118   2.904  15.870 -3.3507  0.7546 -1.0747
  435MPD2    N1 6493   1.710   2.982  15.606  0.2020 -0.2812  0.0019
  435MPD2    H7 6494   1.673   2.956  15.697  2.2681  0.7375  1.1250
  436TMC3    C1 6495   1.349   3.023  15.772  0.3315 -0.1882 -0.7790
  436TMC3    C2 6496   1.455   2.987  15.696  0.2674 -0.2357 -0.3041
  436TMC3    C3 6497   1.497   3.064  15.586 -0.5565 -0.3469  0.5386
  436TMC3    C4 6498   1.276   3.141  15.746 -0.3571 -0.4275 -0.0868
  436TMC3    C5 6499   1.321   3.211  15.638  0.1727 -0.0506 -0.2760
  436TMC3    C6 6500   1.423   3.172  15.557  0.2300  0.0185 -0.4580
  436TMC3     C 6501   1.304   2.924  15.876 -0.7836 -0.2909 -0.1575
  436TMC3     O 6502   1.350   2.811  15.875 -0.9039 -0.5089 -0.1797
  436TMC3     H 6503   1.506   2.896  15.726  1.3511  0.8873  1.2359
  436TMC3    H1 6504   1.195   3.175  15.809  0.9560  0.9509  0.8494
  436TMC3    H2 6505   1.451   3.227  15.469 -0.1167  1.7136  0.4764
  436TMC3    C7 6506   1.246   3.337  15.607  0.1040  0.2396 -0.6059
  436TMC3    C8 6507   1.625   3.057  15.523  0.0536  0.0650  0.6834
  436TMC3    O1 6508   1.243   3.382  15.493 -0.4029 -0.0044  0.1738
  436TMC3    O2 6509   1.643   3.132  15.423 -0.5533  0.1941  0.1528
  437TMC3    C1 6510   0.951   0.717  12.318  0.1886  0.4450  1.0560
  437TMC3    C2 6511   0.923   0.849  12.340  0.4255 -0.3608  0.0854
  437TMC3    C3 6512   0.913   0.931  12.232 -0.1871 -0.3987  0.1696
  437TMC3    C4 6513   0.990   0.672  12.197 -0.1878 -0.2369  0.2594
  437TMC3    C5 6514   0.997   0.760  12.095  0.8654 -0.2170  0.4573
  437TMC3    C6 6515   0.960   0.890  12.109  0.2359 -0.0867  0.3322
  437TMC3     C 6516   0.877   0.617  12.390  0.0272  0.2868 -0.5935
  437TMC3     O 6517   0.775   0.659  12.441  0.3731 -0.5617 -0.2509
  437TMC3     H 6518   0.899   0.886  12.439 -0.9244  0.8807 -0.7066
  437TMC3    H1 6519   1.008   0.568  12.171  3.5731  0.9895 -1.8909
  437TMC3    H2 6520   0.963   0.959  12.025 -0.2798 -0.0207  0.3678
  437TMC3    C7 6521   1.070   0.727  11.974 -1.0235 -0.0789 -0.1774
  437TMC3    C8 6522   0.914   1.074  12.265 -0.3141 -0.2646 -0.1851
  437TMC3    O1 6523   1.071   0.805  11.881 -0.0949  0.1246 -0.3488
  437TMC3    O2 6524   0.957   1.148  12.178 -0.0394  0.3263  0.1511
  438MPD2     C 6525   2.992   1.278  16.881 -0.6500 -0.8829  0.1771
  438MPD2    C1 6526   3.041   1.184  16.970  0.1578  0.2279  0.0346
  438MPD2    C2 6527   2.965   1.077  17.012  0.2745 -0.5161 -0.2667
  438MPD2    C3 6528   2.835   1.063  16.974  0.3530 -0.1058  0.0514
  438MPD2    C4 6529   2.775   1.166  16.902  0.1153 -0.2291 -0.7695
  438MPD2    C5 6530   2.858   1.264  16.845  0.2057 -0.3584  0.6149
  438MPD2     H 6531   3.020   0.999  17.063 -0.6174  0.0616  1.5824
  438MPD2    H1 6532   2.670   1.154  16.877 -1.0503  1.5192  3.2316
  438MPD2    H2 6533   3.050   1.356  16.832 -1.2807 -0.7564 -0.3603
  438MPD2    H3 6534   2.814   1.326  16.769 -1.9086 -0.0250  2.1189
  438MPD2     N 6535   2.756   0.948  16.997 -0.1430 -0.5462  0.3131
  438MPD2    H5 6536   2.663   0.951  16.955  0.2583  0.7943 -0.4905
  438MPD2    N1 6537   3.177   1.193  17.014 -0.2284 -0.6856 -0.5967
  438MPD2    H7 6538   3.206   1.114  17.070 -0.2711 -0.0417  0.3442
  439TMC3    C1 6539   3.398   1.249  17.011 -0.0073 -0.1630 -0.2226
  439TMC3    C2 6540   3.434   1.138  16.947  0.1379 -0.1321 -0.4631
  439TMC3    C3 6541   3.567   1.115  16.940 -0.3187 -0.3691  0.0358
  439TMC3    C4 6542   3.483   1.336  17.070 -0.4435  0.1308  0.1371
  439TMC3    C5 6543   3.616   1.294  17.075 -0.3621  0.0747 -0.4095
  439TMC3    C6 6544   3.659   1.188  17.007  0.4566  0.2074 -0.5505
  439TMC3     C 6545   3.265   1.296  16.986  0.1080  0.6292 -0.4210
  439TMC3     O 6546   3.247   1.413  16.950 -0.4013  0.2232 -0.3797
  439TMC3     H 6547   3.362   1.066  16.910 -0.7283  0.5253 -0.0727
  439TMC3    H1 6548   3.449   1.417  17.133 -2.2492 -0.3288 -0.2283
  439TMC3    H2 6549   3.763   1.160  17.000  0.3672  0.2386 -2.0169
  439TMC3    C7 6550   3.680   1.297  17.200  0.5059  0.4754 -0.3121
  439TMC3    C8 6551   3.617   1.034  16.829 -0.0012 -0.8893 -0.3873
  439TMC3    O1 6552   3.803   1.288  17.197 -0.0556  0.0793 -0.8556
  439TMC3    O2 6553   3.720   0.968  16.843  0.4575 -0.8072 -0.3505
  440MPD2     C 6554   1.919   1.213  14.777  0.1425 -0.9262 -0.5224
  440MPD2    C1 6555   1.926   1.294  14.891 -1.3174  0.0704 -0.1823
  440MPD2    C2 6556   2.044   1.301  14.963 -0.2372 -0.2433 -0.1984
  440MPD2    C3 6557   2.162   1.245  14.922 -0.2691  0.3056 -0.1607
  440MPD2    C4 6558   2.153   1.165  14.810 -0.7223 -0.3618 -0.0650
  440MPD2    C5 6559   2.034   1.149  14.747  0.3103  0.2132  0.1904
  440MPD2     H 6560   2.039   1.368  15.048  0.3557 -0.4116 -0.0325
  440MPD2    H1 6561   2.245   1.118  14.778  0.0661 -0.6024  2.5455
  440MPD2    H2 6562   1.827   1.192  14.722  2.0164 -1.2555 -3.5221
  440MPD2    H3 6563   2.029   1.070  14.673 -1.6977  0.2283  0.3171
  440MPD2     N 6564   2.285   1.259  14.993 -0.1004  0.7162 -0.4098
  440MPD2    H5 6565   2.359   1.196  14.965 -0.8553  1.0841 -3.1819
  440MPD2    N1 6566   1.819   1.356  14.953  0.1939 -0.5327  0.1469
  440MPD2    H7 6567   1.832   1.394  15.046 -0.8823 -1.3528  0.6421
  441TMC3    C1 6568   2.431   1.343  15.151 -0.3241  0.7515  0.3027
  441TMC3    C2 6569   2.485   1.463  15.191  0.5591 -0.3227 -0.1570
  441TMC3    C3 6570   2.578   1.467  15.290  1.1825 -0.0371 -0.0185
  441TMC3    C4 6571   2.460   1.227  15.215  0.0399  0.6205  0.4179
  441TMC3    C5 6572   2.543   1.244  15.323 -0.4574  0.6751 -0.1827
  441TMC3    C6 6573   2.605   1.353  15.366  0.6837  0.5164  0.0638
  441TMC3     C 6574   2.316   1.360  15.076 -0.2542  0.8496  0.7874
  441TMC3     O 6575   2.258   1.462  15.090 -0.1190 -0.6305 -0.0534
  441TMC3     H 6576   2.464   1.555  15.137  1.4659 -0.3413 -0.5480
  441TMC3    H1 6577   2.409   1.131  15.206 -0.1482  0.8323 -0.6792
  441TMC3    H2 6578   2.655   1.361  15.462  1.8325  0.8974 -0.5797
  441TMC3    C7 6579   2.507   1.154  15.438  0.3718  0.4183  0.0826
  441TMC3    C8 6580   2.562   1.592  15.363 -0.5347  0.2697 -0.2005
  441TMC3    O1 6581   2.501   1.208  15.547 -0.7294  0.5250 -0.4842
  441TMC3    O2 6582   2.661   1.645  15.409 -0.4174 -0.4795  0.6070
  442MPD2     C 6583   0.103   2.449  16.598  0.1320  0.4690 -0.4676
  442MPD2    C1 6584   4.716   2.377  16.630  0.7399 -0.0239  0.8624
  442MPD2    C2 6585   4.707   2.242  16.596  0.3167  0.4045 -0.2210
  442MPD2    C3 6586   0.100   2.180  16.546  1.2287 -0.4403  0.4666
  442MPD2    C4 6587   0.212   2.250  16.515 -0.0521 -0.1994  0.5574
  442MPD2    C5 6588   0.208   2.384  16.538 -0.5039 -0.4885  0.5612
  442MPD2     H 6589   4.610   2.193  16.597  0.3149  0.4329  1.2836
  442MPD2    H1 6590   0.303   2.200  16.483 -0.0960  0.3995 -0.4959
  442MPD2    H2 6591   0.109   2.555  16.622  0.3184  0.2881  0.2728
  442MPD2    H3 6592   0.295   2.443  16.509  0.0395 -0.8453  1.4393
  442MPD2     N 6593   0.112   2.037  16.527 -0.1636  0.3120  0.1300
  442MPD2    H5 6594   0.201   1.999  16.497 -0.6094  0.9508 -2.0120
  442MPD2    N1 6595   4.594   2.432  16.674  0.0676  0.2735  0.0765
  442MPD2    H7 6596   4.519   2.365  16.692 -1.2137  2.4409  2.7238
  443TMC3    C1 6597   4.434   2.584  16.747 -0.2168  0.0982 -0.1637
  443TMC3    C2 6598   4.383   2.705  16.716  0.8495  0.1505  0.1197
  443TMC3    C3 6599   4.258   2.732  16.761  0.0515  0.3640 -0.3262
  443TMC3    C4 6600   4.383   2.499  16.838  0.2235 -0.7466  0.7664
  443TMC3    C5 6601   4.257   2.534  16.882 -0.1648 -0.2498 -0.0282
  443TMC3    C6 6602   4.192   2.649  16.851 -0.0027 -0.1934  0.1951
  443TMC3     C 6603   4.571   2.564  16.700 -0.2461 -0.5345 -0.7808
  443TMC3     O 6604   4.641   2.661  16.671 -0.2087  0.1092 -0.3237
  443TMC3     H 6605   4.420   2.772  16.640 -0.4295 -0.0607 -0.6833
  443TMC3    H1 6606   4.438   2.409  16.861 -0.2786 -1.4354 -0.7177
  443TMC3    H2 6607   4.094   2.678  16.887  0.0620 -1.3324  1.2809
  443TMC3    C7 6608   4.219   2.454  16.998  0.5321 -0.3409  0.1931
  443TMC3    C8 6609   4.196   2.832  16.673  0.3837  0.1908  0.5321
  443TMC3    O1 6610   4.279   2.346  17.001  0.2538  0.3020  0.3815
  443TMC3    O2 6611   4.258   2.939  16.657 -0.2765  0.2677  0.4098
  444MPD2     C 6612   0.710   1.526  17.064 -0.1447 -0.0951  0.6995
  444MPD2    C1 6613   0.610   1.421  17.051  0.3433  0.2749  0.1841
  444MPD2    C2 6614   0.644   1.300  16.993 -0.4139 -0.1655 -0.1310
  444MPD2    C3 6615   0.774   1.275  16.953 -0.3915 -0.1100  0.4413
  444MPD2    C4 6616   0.874   1.371  16.974  0.2377  0.4420 -0.1551
  444MPD2    C5 6617   0.833   1.495  17.019 -0.6793  0.2323 -0.1650
  444MPD2     H 6618   0.560   1.231  16.988  0.1459 -0.9525  1.3190
  444MPD2    H1 6619   0.981   1.355  16.963  0.0478 -0.8014 -0.1116
  444MPD2    H2 6620   0.698   1.621  17.114 -1.7180  0.1648 -0.1610
  444MPD2    H3 6621   0.918   1.563  17.021 -0.9478  0.5666 -0.1847
  444MPD2     N 6622   0.804   1.143  16.906  0.1833 -0.0591  0.3565
  444MPD2    H5 6623   0.730   1.074  16.902  0.9813 -0.7691 -1.7790
  444MPD2    N1 6624   0.480   1.427  17.109  0.2253  0.0292  0.2689
  444MPD2    H7 6625   0.415   1.350  17.095  1.4960 -1.1495  0.8334
  445TMC3    C1 6626   0.917   0.954  16.829  0.3028 -0.3237 -0.0951
  445TMC3    C2 6627   0.858   0.869  16.915  0.0280  0.0774  0.2069
  445TMC3    C3 6628   0.858   0.738  16.874 -0.0258  0.4446  0.5081
  445TMC3    C4 6629   0.970   0.910  16.709  0.8449  0.4406  0.1358
  445TMC3    C5 6630   0.965   0.776  16.669 -0.5344  0.0275 -0.1970
  445TMC3    C6 6631   0.895   0.687  16.750  0.5592 -0.8948  0.3888
  445TMC3     C 6632   0.929   1.096  16.856 -0.2131 -0.4630 -0.6794
  445TMC3     O 6633   1.028   1.147  16.810  0.6854 -0.3990  0.0649
  445TMC3     H 6634   0.815   0.901  17.009  1.2819 -1.1994  1.2122
  445TMC3    H1 6635   0.997   0.986  16.637  0.3289 -0.6038 -1.1561
  445TMC3    H2 6636   0.908   0.580  16.735 -3.2078 -1.2865 -0.1946
  445TMC3    C7 6637   0.975   0.758  16.526 -0.3454  0.2372 -0.3552
  445TMC3    C8 6638   0.810   0.640  16.963  0.4458 -0.0050 -0.9765
  445TMC3    O1 6639   1.064   0.814  16.465 -0.1797 -0.2122  0.0896
  445TMC3    O2 6640   0.883   0.612  17.057 -0.3152 -0.4478 -0.4441
  446MPD2     C 6641   0.172   2.823  11.294  0.2724 -0.0867 -0.3770
  446MPD2    C1 6642   0.139   2.896  11.176  0.3427 -0.3652 -0.1532
  446MPD2    C2 6643   0.225   3.000  11.143 -0.7507  0.9855 -0.5039
  446MPD2    C3 6644   0.327   3.039  11.229 -0.8253  0.5091 -0.4828
  446MPD2    C4 6645   0.353   2.975  11.344 -0.0427  0.4088  0.6211
  446MPD2    C5 6646   0.276   2.868  11.373 -0.2062  0.0659 -0.4397
  446MPD2     H 6647   0.199   3.052  11.052  1.3702  0.0651 -1.6299
  446MPD2    H1 6648   0.419   3.014  11.420 -1.1888  1.2502  1.1787
  446MPD2    H2 6649   0.106   2.745  11.331  0.8743 -0.7796 -0.7749
  446MPD2    H3 6650   0.287   2.818  11.468  0.5162 -0.2203 -0.6758
  446MPD2     N 6651   0.414   3.146  11.182 -0.1881  0.2904  0.3307
  446MPD2    H5 6652   0.377   3.196  11.101  0.4747 -1.8184 -1.2781
  446MPD2    N1 6653   0.037   2.850  11.091  0.4746 -0.6002  0.8854
  446MPD2    H7 6654   0.031   2.904  11.005  0.6184 -1.0280  0.6090
  447TMC3    C1 6655   0.596   3.303  11.188 -0.0854 -0.6939  0.1153
  447TMC3    C2 6656   0.612   3.308  11.048  0.3634  0.0407  0.4854
  447TMC3    C3 6657   0.735   3.350  11.007 -0.0211 -0.4285  0.3959
  447TMC3    C4 6658   0.701   3.345  11.269 -0.2310 -0.7310 -0.2169
  447TMC3    C5 6659   0.830   3.357  11.221 -0.5516  0.2584 -0.5211
  447TMC3    C6 6660   0.846   3.365  11.091  0.3998 -0.3539 -0.2838
  447TMC3     C 6661   0.532   3.183  11.247  0.0998  0.0157  0.1921
  447TMC3     O 6662   0.590   3.114  11.330 -0.0597  0.1752 -0.5196
  447TMC3     H 6663   0.539   3.273  10.976 -0.1019  1.0320  0.4828
  447TMC3    H1 6664   0.688   3.319  11.373 -0.9404  1.2935  0.2135
  447TMC3    H2 6665   0.940   3.397  11.048 -0.1336  0.5499 -0.7675
  447TMC3    C7 6666   0.941   3.288  11.281 -0.2173  0.5447 -0.0365
  447TMC3    C8 6667   0.758   3.340  10.868  0.5918  0.3578 -0.3329
  447TMC3    O1 6668   1.022   3.244  11.197  0.5484  0.2151 -0.0768
  447TMC3    O2 6669   0.677   3.388  10.790 -0.1753  0.3765  0.1458
  448TMC3    C1 6670   3.428   2.025  17.583  0.2827  0.1342  0.6687
  448TMC3    C2 6671   3.432   2.101  17.468  0.3854 -0.1968  0.8760
  448TMC3    C3 6672   3.559   2.134  17.418 -0.2250 -0.6019 -0.1321
  448TMC3    C4 6673   3.545   1.987  17.649  0.1978  0.6112  0.2724
  448TMC3    C5 6674   3.669   2.017  17.596 -0.5867  0.4493  0.5285
  448TMC3    C6 6675   3.679   2.087  17.478 -0.0869 -0.7808  0.1108
  448TMC3     C 6676   3.295   1.993  17.644  0.2450 -0.3166 -0.2777
  448TMC3     O 6677   3.199   2.037  17.581  0.2117 -0.1604 -0.4377
  448TMC3     H 6678   3.338   2.128  17.422  0.3878 -0.5054  0.6883
  448TMC3    H1 6679   3.537   1.924   0.060  1.3590  2.4017  1.6657
  448TMC3    H2 6680   3.773   2.094  17.424 -0.8980 -0.0048 -1.2064
  448TMC3    C7 6681   3.780   1.926  17.618 -0.0825 -0.3349  0.0845
  448TMC3    C8 6682   3.559   2.146  17.277  0.1905 -0.0509  0.7332
  448TMC3    O1 6683   3.866   1.910  17.535  0.0564 -0.3343  0.7112
  448TMC3    O2 6684   3.475   2.081  17.219 -0.1908 -0.3456  0.1792
  449MPD2     C 6685   4.658   1.069  13.880 -0.3633 -0.1868  0.3659
  449MPD2    C1 6686   4.607   1.014  13.765 -0.0297  0.2562  0.4834
  449MPD2    C2 6687   4.532   0.894  13.778  0.6053 -0.6895  0.2478
  449MPD2    C3 6688   4.505   0.847  13.901  0.1158 -0.0104  0.1873
  449MPD2    C4 6689   4.553   0.905  14.018 -0.6853  0.0248  0.0731
  449MPD2    C5 6690   4.640   1.009  14.002  0.2335  0.2848  0.3171
  449MPD2     H 6691   4.516   0.842  13.684 -2.0287  1.2047 -0.3754
  449MPD2    H1 6692   4.520   0.879  14.118  2.0533 -1.1234  0.6717
  449MPD2    H2 6693   0.010   1.151  13.877 -1.2495  0.6082  1.2298
  449MPD2    H3 6694   4.687   1.044  14.094 -0.5930  1.9966  0.0850
  449MPD2     N 6695   4.429   0.726  13.895  0.6664  0.4264 -0.4604
  449MPD2    H5 6696   4.413   0.693  13.801 -0.8412  0.4153 -0.1922
  449MPD2    N1 6697   4.622   1.068  13.637  0.1841  0.2754  0.0952
  449MPD2    H7 6698   4.578   1.021  13.559  1.5750 -0.4953 -0.2256
  450TMC3    C1 6699   4.671   1.204  13.460 -0.5588 -0.7448  0.2587
  450TMC3    C2 6700   0.067   1.187  13.390  0.3915 -0.2915  0.0267
  450TMC3    C3 6701   0.069   1.120  13.270 -0.1214 -0.1836 -0.1510
  450TMC3    C4 6702   4.560   1.150  13.410  0.3115 -0.0539 -0.2344
  450TMC3    C5 6703   4.560   1.079  13.291 -0.0387 -0.1815 -0.0566
  450TMC3    C6 6704   4.670   1.073  13.215  0.1695 -0.6517 -0.4485
  450TMC3     C 6705   4.678   1.188  13.605  0.0611  0.4056 -0.4199
  450TMC3     O 6706   0.032   1.265  13.666 -0.1418 -0.0248  0.9727
  450TMC3     H 6707   0.163   1.214  13.433  0.2052  1.1329 -0.4633
  450TMC3    H1 6708   4.463   1.176  13.450  0.9737  1.8788  0.1162
  450TMC3    H2 6709   4.664   1.041  13.112 -3.0826 -0.9015 -0.1848
  450TMC3    C7 6710   4.507   0.951  13.318 -0.0753 -0.0733  0.1923
  450TMC3    C8 6711   0.169   1.159  13.177  0.1601 -0.7579 -0.9630
  450TMC3    O1 6712   4.530   0.919  13.436  0.4570 -0.7435  0.3716
  450TMC3    O2 6713   0.225   1.266  13.179  0.0629 -0.3424  0.3730
  451MPD2     C 6714   1.643   4.682   2.069 -0.6002 -0.2446  0.4882
  451MPD2    C1 6715   1.556   4.639   1.971 -0.0681  0.1708 -0.5236
  451MPD2    C2 6716   1.578   4.526   1.896  0.3313  0.2221 -0.3413
  451MPD2    C3 6717   1.695   4.458   1.919 -0.0513  0.4116 -0.1687
  451MPD2    C4 6718   1.778   4.499   2.022 -0.0329  0.2556 -0.1570
  451MPD2    C5 6719   1.754   4.605   2.099  0.7696  0.0816 -0.5148
  451MPD2     H 6720   1.511   4.488   1.820  1.7350 -0.2741 -1.3366
  451MPD2    H1 6721   1.868   4.442   2.041  1.1792  1.6282 -1.7917
  451MPD2    H2 6722   1.628   0.058   2.121 -1.2564 -0.7097  1.1430
  451MPD2    H3 6723   1.830   4.641   2.169  0.3152 -0.4075  0.2280
  451MPD2     N 6724   1.726   4.338   1.854  0.2331 -0.1085  0.2121
  451MPD2    H5 6725   1.811   4.295   1.892  0.6425  0.1865 -0.3777
  451MPD2    N1 6726   1.447   0.007   1.938  0.8412  0.6984 -0.0175
  451MPD2    H7 6727   1.442   0.075   2.013 -1.8618 -0.7433  1.1014
  452TMC3    C1 6728   1.713   4.145   1.706 -0.3169 -0.4151  0.0400
  452TMC3    C2 6729   1.733   4.054   1.806 -0.0559  0.1916  0.1472
  452TMC3    C3 6730   1.783   3.927   1.777  0.4656 -0.5924 -0.1705
  452TMC3    C4 6731   1.729   4.116   1.578 -0.3085 -0.4375 -0.5958
  452TMC3    C5 6732   1.782   3.994   1.551 -0.1239  0.2152  0.0186
  452TMC3    C6 6733   1.810   3.900   1.648  0.2573  0.2567  0.3166
  452TMC3     C 6734   1.669   4.280   1.741  0.1751  0.7919  0.1418
  452TMC3     O 6735   1.592   4.332   1.659 -0.4078 -0.1455 -0.1772
  452TMC3     H 6736   1.705   4.093   1.903  0.0303 -1.5873  0.8873
  452TMC3    H1 6737   1.723   4.196   1.504 -0.8316 -1.0402 -1.1988
  452TMC3    H2 6738   1.866   3.813   1.614  0.0972  0.7058 -1.0964
  452TMC3    C7 6739   1.844   3.986   1.426 -0.1020  0.3427 -0.1166
  452TMC3    C8 6740   1.782   3.824   1.875 -0.5874 -0.0440  0.6173
  452TMC3    O1 6741   1.946   3.916   1.410  0.2458  0.7087  0.0597
  452TMC3    O2 6742   1.758   3.711   1.840  0.0254 -0.1290 -0.2763
  453TMC3    C1 6743   2.625   1.814  11.315 -0.5640 -0.4695  0.3208
  453TMC3    C2 6744   2.574   1.694  11.364 -0.5862  0.4162  0.1436
  453TMC3    C3 6745   2.502   1.629  11.267  0.3287 -0.1064  0.3391
  453TMC3    C4 6746   2.615   1.857  11.186  0.1283  0.0257 -0.3758
  453TMC3    C5 6747   2.540   1.781  11.096  0.6414  0.0936 -0.1634
  453TMC3    C6 6748   2.476   1.669  11.143  0.5655  0.6642  0.2687
  453TMC3     C 6749   2.708   1.893  11.397 -0.1490  0.8377  0.1607
  453TMC3     O 6750   2.797   1.942  11.336  0.2673 -0.1050  0.3081
  453TMC3     H 6751   2.585   1.674  11.470  1.9387 -1.4895 -0.4893
  453TMC3    H1 6752   2.638   1.960  11.161 -1.0196  0.4973  0.5277
  453TMC3    H2 6753   2.406   1.611  11.085 -0.3898  1.4765  0.6223
  453TMC3    C7 6754   2.545   1.802  10.946  0.2891  0.5461 -0.2156
  453TMC3    C8 6755   2.475   1.490  11.297  0.0190 -0.8434  0.4147
  453TMC3    O1 6756   2.477   1.729  10.872 -0.0958  0.1719 -0.0763
  453TMC3    O2 6757   2.400   1.429  11.223  0.0675  0.0622 -0.6833
  454MPD2     C 6758   1.106   1.134  16.331 -0.2891 -0.3628  0.1449
  454MPD2    C1 6759   0.995   1.063  16.312 -0.0732  1.0878 -0.0066
  454MPD2    C2 6760   0.888   1.085  16.402  0.9179 -0.3897 -0.3954
  454MPD2    C3 6761   0.898   1.190  16.500  0.2930 -0.6398 -0.1188
  454MPD2    C4 6762   1.009   1.258  16.509 -0.1128 -0.3196 -0.2458
  454MPD2    C5 6763   1.113   1.232  16.425 -0.5103 -0.3342 -0.9445
  454MPD2     H 6764   0.798   1.027  16.393 -0.1430  1.6872 -3.3037
  454MPD2    H1 6765   1.022   1.339  16.580 -1.1789  0.9233 -1.4633
  454MPD2    H2 6766   1.191   1.123  16.264 -0.7747 -0.4091 -0.4557
  454MPD2    H3 6767   1.203   1.291  16.438 -1.9042  0.9564  2.8927
  454MPD2     N 6768   0.788   1.229  16.572  0.3831  0.3920 -0.0105
  454MPD2    H5 6769   0.788   1.320  16.617  1.1613 -0.0584  0.9137
  454MPD2    N1 6770   0.968   0.978  16.197  0.2519  0.1322 -0.4736
  454MPD2    H7 6771   0.878   0.931  16.205  0.2730  0.2672  0.5687
  455TMC3    C1 6772   0.564   1.251  16.590 -0.0544 -0.0639  0.2715
  455TMC3    C2 6773   0.565   1.360  16.670 -0.1334 -0.0674  0.3885
  455TMC3    C3 6774   0.450   1.431  16.687  0.4460 -0.3353 -0.2591
  455TMC3    C4 6775   0.457   1.223  16.515 -0.0149 -0.3195  0.7801
  455TMC3    C5 6776   0.340   1.292  16.538  0.0874  0.2791 -0.1090
  455TMC3    C6 6777   0.329   1.396  16.628 -0.4167  0.4793 -0.4271
  455TMC3     C 6778   0.668   1.160  16.579  0.3113  0.5342  0.3173
  455TMC3     O 6779   0.648   1.040  16.566 -0.4139 -0.3890  0.3894
  455TMC3     H 6780   0.662   1.389  16.710  0.5224  0.9602 -1.9173
  455TMC3    H1 6781   0.461   1.130  16.459 -0.4568  0.0775  0.0904
  455TMC3    H2 6782   0.246   1.465  16.613 -0.1201  1.3726  2.0245
  455TMC3    C7 6783   0.219   1.233  16.484  0.5197  0.6904  0.1242
  455TMC3    C8 6784   0.463   1.557  16.759 -0.6795 -0.6479 -0.7873
  455TMC3    O1 6785   0.121   1.239  16.563 -0.2297  0.1122 -0.2657
  455TMC3    O2 6786   0.578   1.590  16.787  0.1229  1.4135 -0.1978
  456MPD2     C 6787   3.540   1.170  16.249 -0.9777  0.1688 -0.2372
  456MPD2    C1 6788   3.660   1.131  16.309 -0.7725 -0.3875 -0.2343
  456MPD2    C2 6789   3.707   1.203  16.415 -0.5022  0.2342  0.3580
  456MPD2    C3 6790   3.648   1.319  16.459  0.3431  1.0590 -0.3154
  456MPD2    C4 6791   3.521   1.347  16.406  0.2528  0.3838  0.4946
  456MPD2    C5 6792   3.469   1.273  16.307 -0.0545  0.6481 -1.0228
  456MPD2     H 6793   3.803   1.178  16.459  0.5133 -0.0602 -2.0601
  456MPD2    H1 6794   3.465   1.434  16.440 -0.5832 -0.0904  0.3325
  456MPD2    H2 6795   3.486   1.125  16.167 -0.1323 -2.3384  0.5683
  456MPD2    H3 6796   3.373   1.300  16.264 -0.7477  0.0217  0.1331
  456MPD2     N 6797   3.696   1.407  16.560  0.0328 -0.3824 -0.1048
  456MPD2    H5 6798   3.780   1.375  16.608 -0.1491 -0.1917  0.3470
  456MPD2    N1 6799   3.734   1.027  16.252 -0.4411 -0.4190  0.2871
  456MPD2    H7 6800   3.698   0.977  16.171  0.3683  1.4429 -1.2358
  457TMC3    C1 6801   3.738   1.610  16.680  0.1256 -0.9197 -0.0912
  457TMC3    C2 6802   3.764   1.737  16.645 -0.2744 -0.4159 -0.3560
  457TMC3    C3 6803   3.841   1.809  16.734 -0.3944 -0.0713 -0.0514
  457TMC3    C4 6804   3.779   1.549  16.797  0.6588  0.0803  0.6271
  457TMC3    C5 6805   3.840   1.628  16.887 -0.3163  0.5021 -0.6330
  457TMC3    C6 6806   3.872   1.761  16.859 -0.0185  0.2124 -0.2071
  457TMC3     C 6807   3.659   1.539  16.582  0.4151 -0.3706  0.2100
  457TMC3     O 6808   3.584   1.605  16.518  0.0165 -0.0174  0.6378
  457TMC3     H 6809   3.734   1.784  16.552  0.6500  2.8023  0.9539
  457TMC3    H1 6810   3.757   1.448  16.828 -2.7255 -0.4715 -3.5418
  457TMC3    H2 6811   3.906   1.822  16.941  2.2755 -1.4198  0.0617
  457TMC3    C7 6812   3.818   1.595  17.025 -0.1544  0.1570  0.7408
  457TMC3    C8 6813   3.828   1.952  16.723 -0.1939  0.0893 -0.2214
  457TMC3    O1 6814   3.904   1.540  17.087 -0.2624 -0.1903 -0.0207
  457TMC3    O2 6815   3.920   2.019  16.684 -0.2793 -0.2193  0.0982
  458MPD2     C 6816   1.522   0.596  11.811  0.6875 -0.1405  0.1486
  458MPD2    C1 6817   1.513   0.549  11.936  0.3123  0.2705  0.1230
  458MPD2    C2 6818   1.392   0.558  11.998  0.7236 -0.1499 -0.0855
  458MPD2    C3 6819   1.283   0.609  11.928 -0.8922  1.0702 -0.0188
  458MPD2    C4 6820   1.283   0.635  11.792 -0.1152  0.4920  0.6622
  458MPD2    C5 6821   1.410   0.621  11.737 -0.0240 -0.4259  0.1756
  458MPD2     H 6822   1.381   0.516  12.097 -0.4848 -0.3387 -0.3079
  458MPD2    H1 6823   1.203   0.664  11.725  0.7731 -1.6371 -1.3430
  458MPD2    H2 6824   1.617   0.599  11.758  1.1767 -0.5326  1.0178
  458MPD2    H3 6825   1.411   0.650  11.632  0.4019  0.4882  0.4274
  458MPD2     N 6826   1.167   0.632  12.009  0.6410  0.3837 -0.2291
  458MPD2    H5 6827   1.177   0.611  12.108  1.3561  0.4480 -0.2883
  458MPD2    N1 6828   1.630   0.508  12.008  0.4240 -0.3561  0.7638
  458MPD2    H7 6829   1.715   0.541  11.963 -2.0066  3.2438 -1.1927
  459TMC3    C1 6830   1.765   0.487  12.205 -0.2515 -0.4083 -0.7157
  459TMC3    C2 6831   1.845   0.580  12.154 -0.0539 -0.2361  0.0801
  459TMC3    C3 6832   1.928   0.653  12.239 -0.3434 -0.2270 -0.2517
  459TMC3    C4 6833   1.761   0.462  12.342 -0.1683 -0.2782  0.4967
  459TMC3    C5 6834   1.857   0.518  12.418  0.0195  0.0133 -0.3840
  459TMC3    C6 6835   1.940   0.621  12.371 -0.1952  0.5387 -0.2654
  459TMC3     C 6836   1.640   0.460  12.138 -0.3901  0.7989 -0.2685
  459TMC3     O 6837   1.557   0.394  12.194 -0.3362  0.9927  0.1780
  459TMC3     H 6838   1.859   0.594  12.047  0.5883 -0.7973  0.0882
  459TMC3    H1 6839   1.687   0.390  12.374 -1.7088  0.2327 -1.8993
  459TMC3    H2 6840   2.018   0.668  12.429  1.0754 -2.4548  0.4548
  459TMC3    C7 6841   1.816   0.512  12.560 -0.7288 -0.5097  0.5104
  459TMC3    C8 6842   2.031   0.743  12.190  0.4980  0.3424 -0.4259
  459TMC3    O1 6843   1.771   0.398  12.590  0.2492 -0.3755 -0.0368
  459TMC3    O2 6844   2.137   0.745  12.254  0.2806  0.0004 -0.6794
  460MPD2     C 6845   1.064   3.220  10.726  0.2372 -0.0352 -0.1707
  460MPD2    C1 6846   0.942   3.275  10.725  0.1575 -0.4540 -0.1801
  460MPD2    C2 6847   0.877   3.296  10.611  0.1152 -0.2029  0.4729
  460MPD2    C3 6848   0.928   3.251  10.494 -0.4117  0.2339 -0.3648
  460MPD2    C4 6849   1.057   3.204  10.486  0.2860  0.1646  0.5774
  460MPD2    C5 6850   1.120   3.189  10.606 -0.3265 -0.1921 -0.2441
  460MPD2     H 6851   0.779   3.343  10.607  0.7430  1.0393 -0.4957
  460MPD2    H1 6852   1.114   3.180  10.398 -2.0779  0.3618 -1.0043
  460MPD2    H2 6853   1.117   3.201  10.819  2.7855 -0.1489 -1.6457
  460MPD2    H3 6854   1.214   3.137  10.591 -1.1167 -1.4413 -0.8638
  460MPD2     N 6855   0.846   3.260  10.381 -0.1684  0.6428  1.1542
  460MPD2    H5 6856   0.768   3.323  10.396  1.3139  3.0277 -1.0110
  460MPD2    N1 6857   0.889   3.301  10.849  0.1109  0.6568 -0.1970
  460MPD2    H7 6858   0.929   3.260  10.933  0.7797  0.1576 -0.7654
  461TMC3    C1 6859   0.766   3.235  10.161  0.0511 -0.2814  0.0692
  461TMC3    C2 6860   0.770   3.158  10.045 -0.0082  0.1846  0.6460
  461TMC3    C3 6861   0.700   3.201   9.934 -0.1296  0.4567  0.1865
  461TMC3    C4 6862   0.697   3.349  10.166  0.0170  0.2582 -1.4796
  461TMC3    C5 6863   0.639   3.395  10.050  0.1472 -0.3990 -0.1319
  461TMC3    C6 6864   0.631   3.321   9.936 -0.3415 -0.0645  0.0955
  461TMC3     C 6865   0.869   3.200  10.257  0.2317 -0.0997  0.0967
  461TMC3     O 6866   0.926   3.096  10.233 -0.2436 -1.1137  0.4857
  461TMC3     H 6867   0.845   3.080  10.035  0.7923  1.1781 -1.2627
  461TMC3    H1 6868   0.702   3.413  10.254 -1.7080  0.8093 -1.7875
  461TMC3    H2 6869   0.581   3.374   9.855  2.3699  1.5745 -0.4981
  461TMC3    C7 6870   0.596   3.531  10.048 -0.1622 -0.3492 -0.0591
  461TMC3    C8 6871   0.746   3.153   9.799 -0.5821 -0.1321 -0.0691
  461TMC3    O1 6872   0.512   3.562   9.963 -0.4271  0.0553 -0.9525
  461TMC3    O2 6873   0.828   3.063   9.791 -0.7407 -0.4076  0.5423
  462TMC3    C1 6874   0.340   3.635   1.085 -0.4763  0.1685 -0.5393
  462TMC3    C2 6875   0.439   3.553   1.026  0.1339  0.1204 -0.6033
  462TMC3    C3 6876   0.406   3.476   0.919  0.6690 -0.0550  0.3179
  462TMC3    C4 6877   0.213   3.638   1.025 -0.1708 -0.5799 -0.0498
  462TMC3    C5 6878   0.187   3.567   0.913  0.3677  0.1697  0.1936
  462TMC3    C6 6879   0.277   3.476   0.871  0.5291 -0.3792  0.2051
  462TMC3     C 6880   0.367   3.720   1.199  0.6892  0.4129 -0.2853
  462TMC3     O 6881   0.271   3.793   1.224 -0.3769 -0.5309 -0.2935
  462TMC3     H 6882   0.529   3.524   1.078 -0.8177 -1.7979 -0.0286
  462TMC3    H1 6883   0.147   3.716   1.062  1.1560  0.5970 -0.1776
  462TMC3    H2 6884   0.252   3.430   0.776  1.7120  0.2363 -0.4075
  462TMC3    C7 6885   0.047   3.545   0.877  0.1663 -0.2219  0.3481
  462TMC3    C8 6886   0.505   3.388   0.866  0.3354 -0.2703  0.1778
  462TMC3    O1 6887   0.020   3.428   0.858 -0.4427  0.7784 -0.2484
  462TMC3    O2 6888   0.611   3.381   0.925 -0.1924 -0.1600  0.1226
  463MPD2     C 6889   1.904   2.779   1.891  0.2034  0.1131 -0.1436
  463MPD2    C1 6890   1.786   2.846   1.875 -0.2940 -0.5037 -0.2555
  463MPD2    C2 6891   1.793   2.979   1.826 -0.5638 -0.0107  0.4290
  463MPD2    C3 6892   1.912   3.048   1.795 -0.1941 -0.4966 -0.4116
  463MPD2    C4 6893   2.023   2.981   1.805  0.0247  0.4461  0.1672
  463MPD2    C5 6894   2.021   2.854   1.859  0.1272  0.5104 -0.3994
  463MPD2     H 6895   1.695   3.025   1.824 -1.4578 -1.8340  1.6811
  463MPD2    H1 6896   2.115   3.029   1.773 -1.2692  2.1954 -0.9823
  463MPD2    H2 6897   1.914   2.683   1.941  1.2867 -1.6574 -3.7729
  463MPD2    H3 6898   2.111   2.795   1.875 -0.3507 -0.8374 -2.5783
  463MPD2     N 6899   1.908   3.180   1.746 -0.0759 -0.4781 -0.0999
  463MPD2    H5 6900   1.997   3.216   1.713 -0.2849  0.5187  0.4180
  463MPD2    N1 6901   1.659   2.803   1.911  0.2282  0.0457  0.0513
  463MPD2    H7 6902   1.587   2.864   1.874  0.0296 -0.1632  0.0937
  464TMC3    C1 6903   1.502   2.631   1.973 -0.2039 -0.7046 -0.0331
  464TMC3    C2 6904   1.403   2.720   1.956  0.3937 -0.7919  0.5128
  464TMC3    C3 6905   1.272   2.677   1.965  0.6532  1.1065 -0.9472
  464TMC3    C4 6906   1.469   2.509   2.014 -0.6035 -0.6941 -0.5899
  464TMC3    C5 6907   1.342   2.468   2.018  0.6175 -0.0386  0.0732
  464TMC3    C6 6908   1.239   2.558   2.006 -0.0065 -0.1152  0.0443
  464TMC3     C 6909   1.640   2.673   1.963 -0.4814  0.3869  1.3413
  464TMC3     O 6910   1.721   2.585   1.987 -0.0965  0.0078  0.5014
  464TMC3     H 6911   1.420   2.821   1.920 -1.2312 -0.3125  1.0655
  464TMC3    H1 6912   1.550   2.438   2.025 -1.1182 -1.1212  0.4651
  464TMC3    H2 6913   1.139   2.519   2.017 -0.9102  2.1088 -0.3650
  464TMC3    C7 6914   1.327   2.320   2.024  0.5247 -0.5789 -0.9450
  464TMC3    C8 6915   1.171   2.783   1.936  0.0515 -0.7502  0.6882
  464TMC3    O1 6916   1.412   2.259   2.085 -0.9377 -0.1454  0.1126
  464TMC3    O2 6917   1.204   2.882   1.876 -0.0747 -0.1294 -0.2099
  465MPD2     C 6918   2.751   1.780  16.903  0.2956  0.0552  0.1270
  465MPD2    C1 6919   2.695   1.649  16.896  0.0328  0.4202  0.3032
  465MPD2    C2 6920   2.617   1.612  16.787  0.6027 -1.1764 -0.0998
  465MPD2    C3 6921   2.584   1.699  16.694 -0.2807  0.7268  0.1679
  465MPD2    C4 6922   2.640   1.827  16.698  0.0395 -0.0226  0.0943
  465MPD2    C5 6923   2.716   1.866  16.802  0.0437 -0.3546  0.6452
  465MPD2     H 6924   2.571   1.514  16.784  0.9209 -1.4465  3.0245
  465MPD2    H1 6925   2.641   1.888  16.608  1.2185 -0.6914 -0.3525
  465MPD2    H2 6926   2.822   1.816  16.976 -1.9320  1.5931  1.5583
  465MPD2    H3 6927   2.755   1.967  16.804  0.0326 -0.3211 -0.7104
  465MPD2     N 6928   2.513   1.648  16.581  0.1024 -0.1412  0.1512
  465MPD2    H5 6929   2.478   1.555  16.599 -1.4797  0.3591 -0.2461
  465MPD2    N1 6930   2.721   1.548  16.996  0.2441  0.2248 -0.1136
  465MPD2    H7 6931   2.711   1.448  16.980  0.2181  0.3097 -0.6211
  466TMC3    C1 6932   2.204   1.511  16.409  0.4530  0.6849 -0.0358
  466TMC3    C2 6933   2.136   1.599  16.323  0.3724 -0.2924  0.5557
  466TMC3    C3 6934   2.207   1.694  16.253  0.2035  0.3007  0.0732
  466TMC3    C4 6935   2.334   1.532  16.438  0.0011  0.0490 -0.4834
  466TMC3    C5 6936   2.398   1.642  16.382 -0.9803 -0.0341  0.1138
  466TMC3    C6 6937   2.339   1.717  16.283 -0.1427  0.1032 -0.3958
  466TMC3     C 6938   2.130   1.427  16.508 -0.1628  0.9163  0.2766
  466TMC3     O 6939   2.209   1.398  16.597  0.1651  0.4673  0.0922
  466TMC3     H 6940   2.032   1.585  16.294  0.2370 -1.5868  1.6202
  466TMC3    H1 6941   2.387   1.465  16.505 -1.6123 -1.5299 -0.7854
  466TMC3    H2 6942   2.404   1.784  16.227 -1.7207  0.8659 -1.3282
  466TMC3    C7 6943   2.485   1.721  16.465 -1.1313  0.5697 -0.1717
  466TMC3    C8 6944   2.137   1.804  16.193  0.0112 -0.3161 -0.6404
  466TMC3    O1 6945   2.511   1.839  16.432 -0.4283 -0.5429  0.3198
  466TMC3    O2 6946   2.187   1.854  16.089  0.0037 -0.3709  0.6607
  467TMC3    C1 6947   3.219   0.265  14.015 -0.1644 -1.1340 -0.4369
  467TMC3    C2 6948   3.153   0.341  13.922 -0.0288 -0.7540 -0.0964
  467TMC3    C3 6949   3.027   0.308  13.890 -0.3994  0.1680  0.1739
  467TMC3    C4 6950   3.155   0.157  14.078 -0.2511 -0.1324 -0.0967
  467TMC3    C5 6951   3.032   0.120  14.029  0.4632  0.2869 -0.2597
  467TMC3    C6 6952   2.964   0.193  13.934  0.6024  0.0063  0.7017
  467TMC3     C 6953   3.361   0.256  13.998 -0.4252  0.2342  0.2767
  467TMC3     O 6954   3.430   0.210  14.089 -0.1801 -0.0593 -0.0265
  467TMC3     H 6955   3.203   0.426  13.877  0.3289  0.2393  2.1815
  467TMC3    H1 6956   3.214   0.093  14.143 -1.9533  1.0885  2.6238
  467TMC3    H2 6957   2.864   0.160  13.907  0.2169  1.5052  0.2785
  467TMC3    C7 6958   2.969   0.019  14.116  0.0492 -0.3632  0.1186
  467TMC3    C8 6959   2.972   0.364  13.767  0.2387  0.1857  0.5406
  467TMC3    O1 6960   3.051   4.658  14.160 -0.1195  0.4229 -0.2004
  467TMC3    O2 6961   2.997   0.484  13.759 -0.0014 -0.1463 -0.2126
  468MPD2     C 6962   2.395   3.036  11.183 -0.0344 -0.1579 -0.1548
  468MPD2    C1 6963   2.516   3.018  11.129 -0.1645  0.5940  0.8128
  468MPD2    C2 6964   2.531   2.910  11.049  0.0703 -0.4086  0.3527
  468MPD2    C3 6965   2.431   2.815  11.044 -0.3832  0.0084  0.6352
  468MPD2    C4 6966   2.316   2.824  11.106  0.3982 -0.5239 -0.5758
  468MPD2    C5 6967   2.297   2.935  11.181 -0.1738 -0.6648  0.0844
  468MPD2     H 6968   2.623   2.900  10.993 -0.8726  0.1302 -1.2786
  468MPD2    H1 6969   2.241   2.745  11.104  0.7330 -0.9017  2.0792
  468MPD2    H2 6970   2.368   3.131  11.228 -1.2670  0.8047 -2.9859
  468MPD2    H3 6971   2.200   2.968  11.215  0.1740 -0.6595  1.0482
  468MPD2     N 6972   2.440   2.695  10.963 -0.1902  0.2106 -0.2072
  468MPD2    H5 6973   2.372   2.621  10.978 -1.4847  1.2055 -1.2495
  468MPD2    N1 6974   2.621   3.109  11.121 -0.2654  0.5999 -0.4849
  468MPD2    H7 6975   2.701   3.074  11.069  0.1578  0.7635  0.0501
  469TMC3    C1 6976   2.747   3.310  11.140 -0.3106 -0.2942  0.9575
  469TMC3    C2 6977   2.869   3.242  11.118  0.1380 -0.3848 -0.4762
  469TMC3    C3 6978   2.974   3.314  11.068 -0.0869  0.5913 -0.3360
  469TMC3    C4 6979   2.736   3.437  11.102  0.6434  0.2836  0.3518
  469TMC3    C5 6980   2.850   3.504  11.064 -0.5114  0.7863 -0.2553
  469TMC3    C6 6981   2.972   3.445  11.039 -0.0941  0.2866  0.0654
  469TMC3     C 6982   2.628   3.236  11.180 -0.1589  0.4164 -0.0381
  469TMC3     O 6983   2.535   3.307  11.209  0.2287  0.3673  0.2396
  469TMC3     H 6984   2.887   3.145  11.161 -1.6248  0.2243  1.6296
  469TMC3    H1 6985   2.642   3.488  11.120 -0.7825 -1.2972 -2.6564
  469TMC3    H2 6986   3.061   3.499  11.008 -0.3724 -0.2737 -1.7066
  469TMC3    C7 6987   2.843   3.651  11.068  0.1261 -0.1624  0.2852
  469TMC3    C8 6988   3.103   3.254  11.086 -0.9332 -0.1168  0.5195
  469TMC3    O1 6989   2.922   3.715  10.997 -0.4105  0.1977  0.6141
  469TMC3    O2 6990   3.123   3.146  11.030  0.8810 -0.0981 -0.3069
  470TMC3    C1 6991   4.536   4.308   1.337  0.7566  0.2752  0.0867
  470TMC3    C2 6992   4.636   4.396   1.364 -0.5825 -0.2977 -0.4922
  470TMC3    C3 6993   4.603   4.501   1.444 -0.1797 -0.1713 -0.0260
  470TMC3    C4 6994   4.411   4.318   1.396  0.5798 -0.3446 -0.4789
  470TMC3    C5 6995   4.386   4.420   1.483  0.3754  0.2540  0.0945
  470TMC3    C6 6996   4.481   4.517   1.509 -0.2322 -0.9626 -1.2264
  470TMC3     C 6997   4.577   4.166   1.309 -0.4776 -1.4011  0.2123
  470TMC3     O 6998   4.690   4.140   1.350  0.4992 -0.3923 -0.3945
  470TMC3     H 6999   0.006   4.385   1.302 -0.4252  0.0599 -0.3331
  470TMC3    H1 7000   4.332   4.244   1.389 -1.5216  1.9021 -0.2641
  470TMC3    H2 7001   4.453   4.611   1.554  2.1225  0.1408 -2.0886
  470TMC3    C7 7002   4.251   4.440   1.526 -0.3992 -0.4058 -0.6318
  470TMC3    C8 7003   4.704   4.595   1.498 -0.4940  0.0257  0.4650
  470TMC3    O1 7004   4.166   4.389   1.452  0.3521  0.4832  0.5936
  470TMC3    O2 7005   4.667   4.667   1.589 -0.6063  0.3777  0.3764
  471MPD2     C 7006   4.694   0.253  17.027 -0.0899  0.5756  0.4591
  471MPD2    C1 7007   4.703   0.114  16.999  0.2402  0.1451  0.3517
  471MPD2    C2 7008   0.060   0.041  17.093  0.2725  1.2627  0.5807
  471MPD2    C3 7009   0.120   0.105  17.199  0.0748  0.0761  0.3230
  471MPD2    C4 7010   0.115   0.237  17.220 -0.1413 -0.2317 -0.0874
  471MPD2    C5 7011   0.045   0.309  17.125 -0.2218 -0.8740 -0.0683
  471MPD2     H 7012   0.066   4.653  17.076  2.8229  1.6393 -0.8817
  471MPD2    H1 7013   0.150   0.296  17.304  1.8230 -0.9263 -0.4229
  471MPD2    H2 7014   4.637   0.323  16.966  1.3805  0.3180 -1.1955
  471MPD2    H3 7015   0.046   0.417  17.136 -1.5788 -0.8044 -0.6270
  471MPD2     N 7016   0.196   0.024  17.293 -0.3917 -0.9100  0.1428
  471MPD2    H5 7017   0.219   0.066  17.382 -1.5148 -2.2594  1.0731
  471MPD2    N1 7018   4.651   0.048  16.881  0.6876  0.6036 -0.2628
  471MPD2    H7 7019   4.669   4.667  16.877  0.7082  0.6100 -0.3413
  472TMC3    C1 7020   4.569   0.026  16.660 -0.1272 -0.0309 -0.1615
  472TMC3    C2 7021   4.498   0.078  16.552 -0.1326 -0.3714 -0.6406
  472TMC3    C3 7022   4.463   4.712  16.447  0.4316 -0.0335 -0.0010
  472TMC3    C4 7023   4.600   4.609  16.664 -0.1617 -0.1141 -0.3712
  472TMC3    C5 7024   4.549   4.527  16.561 -0.2551  0.4547  0.0890
  472TMC3    C6 7025   4.484   4.581  16.451 -0.1801 -0.0019  0.2791
  472TMC3     C 7026   4.593   0.118  16.770 -0.3342  0.5942  0.2397
  472TMC3     O 7027   4.585   0.236  16.748  0.0064 -0.3973  0.4293
  472TMC3     H 7028   4.460   0.180  16.560  0.2634 -0.3382  0.9690
  472TMC3    H1 7029   4.647   4.561  16.749 -0.1913  1.7636  0.7224
  472TMC3    H2 7030   4.460   4.512  16.371  1.1121  0.9054 -0.8907
  472TMC3    C7 7031   4.532   4.385  16.596  0.3323 -0.4945  0.6998
  472TMC3    C8 7032   4.332   0.027  16.394 -0.2777 -0.3667 -0.0829
  472TMC3    O1 7033   4.525   4.368  16.718  0.0954  0.6527  0.0492
  472TMC3    O2 7034   4.319   0.144  16.369  0.3351 -0.2738  0.5204
  473MPD2     C 7035   0.153   2.445  13.641 -0.3514  0.0264  0.1379
  473MPD2    C1 7036   0.217   2.536  13.553 -0.3608 -0.3958  0.5509
  473MPD2    C2 7037   0.270   2.656  13.599 -0.1579  0.7346  0.3182
  473MPD2    C3 7038   0.258   2.669  13.742 -0.0333  0.1246  0.5661
  473MPD2    C4 7039   0.199   2.579  13.831 -0.2916 -0.3467  0.3264
  473MPD2    C5 7040   0.136   2.473  13.777 -0.1501 -0.0646 -0.3474
  473MPD2     H 7041   0.322   2.726  13.535  1.4789 -1.0309 -0.2827
  473MPD2    H1 7042   0.209   2.589  13.938  1.4576  1.0128  0.0310
  473MPD2    H2 7043   0.108   2.352  13.610 -2.9099  2.0394 -2.1686
  473MPD2    H3 7044   0.096   2.396  13.842  0.3495 -0.4207 -0.4578
  473MPD2     N 7045   0.303   2.783  13.811 -0.2263 -0.0921 -0.0944
  473MPD2    H5 7046   0.285   2.787  13.911  0.4268 -1.3183  0.0752
  473MPD2    N1 7047   0.210   2.514  13.407 -0.0305  1.0409 -0.4247
  473MPD2    H7 7048   0.244   2.594  13.354  0.7693 -0.1667 -1.7440
  474TMC3    C1 7049   0.385   2.987  13.857  0.6565 -0.1870  0.0881
  474TMC3    C2 7050   0.310   3.101  13.863 -0.0203  0.1587  0.4983
  474TMC3    C3 7051   0.318   3.180  13.976 -0.1369 -0.2242 -0.8753
  474TMC3    C4 7052   0.474   2.953  13.957  0.2678  0.0543 -0.4485
  474TMC3    C5 7053   0.480   3.038  14.066  1.0841  0.1386 -0.0962
  474TMC3    C6 7054   0.404   3.149  14.079 -0.3540 -0.0820 -0.0054
  474TMC3     C 7055   0.366   2.888  13.755  0.6035 -0.6385  0.4002
  474TMC3     O 7056   0.390   2.915  13.638  0.4243  0.6747 -0.2289
  474TMC3     H 7057   0.242   3.123  13.781  2.7040  2.2105 -1.1945
  474TMC3    H1 7058   0.530   2.861  13.949  1.0477  0.4434  0.4797
  474TMC3    H2 7059   0.395   3.204  14.171 -0.4571  3.0554 -1.9029
  474TMC3    C7 7060   0.592   3.012  14.154  0.7986  0.2210  0.6389
  474TMC3    C8 7061   0.255   3.307  13.984  0.1363  0.4409  0.9089
  474TMC3    O1 7062   0.696   2.963  14.104  0.2693 -0.1925 -0.1787
  474TMC3    O2 7063   0.271   3.368  14.090  0.4148 -0.0974 -0.0013
  475MPD2     C 7064   4.198   0.590  10.197  0.3517  0.0931 -0.5078
  475MPD2    C1 7065   4.239   0.721  10.209 -0.1086  0.8938  0.0246
  475MPD2    C2 7066   4.141   0.823  10.227 -0.3908  0.0686  0.5073
  475MPD2    C3 7067   4.006   0.799  10.227  0.5549  0.0023  0.0500
  475MPD2    C4 7068   3.969   0.661  10.223 -0.1617  0.1464 -0.0296
  475MPD2    C5 7069   4.062   0.560  10.214 -0.6474 -0.1539  0.2883
  475MPD2     H 7070   4.163   0.928  10.235  1.8775 -0.2611 -1.5001
  475MPD2    H1 7071   3.867   0.628  10.241  0.0918 -0.9881 -0.6730
  475MPD2    H2 7072   4.272   0.511  10.193  0.4757  0.0617  2.3400
  475MPD2    H3 7073   4.039   0.454  10.213 -1.7487  0.0555  2.5700
  475MPD2     N 7074   3.910   0.898  10.250 -0.7000 -0.5906  0.1647
  475MPD2    H5 7075   3.945   0.990  10.273  0.2855 -1.1815  0.9999
  475MPD2    N1 7076   4.376   0.740  10.179  0.5503  0.3067  0.0536
  475MPD2    H7 7077   4.431   0.655  10.173 -1.8338 -1.3964  2.0792
  476TMC3    C1 7078   4.570   0.855  10.159  0.3111  0.0996 -0.4403
  476TMC3    C2 7079   4.565   0.872  10.019  0.3033 -0.5001 -0.4085
  476TMC3    C3 7080   4.620   0.983   9.962  0.0656  0.4440  0.7484
  476TMC3    C4 7081   4.635   0.946  10.229 -0.5467 -0.1010 -0.0287
  476TMC3    C5 7082   4.710   1.053  10.173 -0.7684  0.1958 -0.5882
  476TMC3    C6 7083   4.701   1.067  10.034  0.7884  0.3739 -0.6074
  476TMC3     C 7084   4.433   0.859  10.201  0.2083 -0.3974  0.6338
  476TMC3     O 7085   4.393   0.968  10.241 -0.1061  0.3912 -0.2072
  476TMC3     H 7086   4.506   0.802   9.960 -0.3751  0.9214 -1.4096
  476TMC3    H1 7087   4.612   0.946  10.335  1.0373 -0.7785  0.3114
  476TMC3    H2 7088   0.013   1.159   9.987  0.1128  0.4332 -0.9185
  476TMC3    C7 7089   4.714   1.177  10.249  1.2280 -0.3740  0.0061
  476TMC3    C8 7090   4.517   1.063   9.886  0.3194 -0.0015  0.1391
  476TMC3    O1 7091   0.090   1.255  10.229  0.1055 -0.6420  0.2514
  476TMC3    O2 7092   4.557   1.154   9.809  0.1906 -0.3443 -0.0174
  477MPD2     C 7093   1.443   2.382  11.591 -0.2079  0.0006  0.8087
  477MPD2    C1 7094   1.325   2.318  11.612 -0.3469 -0.4578 -0.1197
  477MPD2    C2 7095   1.313   2.204  11.694 -0.1496  0.0788  0.1164
  477MPD2    C3 7096   1.427   2.163  11.762 -0.2794  0.1403  0.6397
  477MPD2    C4 7097   1.544   2.232  11.751 -0.3002 -0.6895 -0.5779
  477MPD2    C5 7098   1.551   2.346  11.669  0.6644  0.7401  0.4283
  477MPD2     H 7099   1.220   2.151  11.708  0.3843 -0.4550  1.6778
  477MPD2    H1 7100   1.631   2.209  11.811  1.1893  0.8265 -2.1463
  477MPD2    H2 7101   1.438   2.471  11.530 -3.3877 -0.5374  0.2685
  477MPD2    H3 7102   1.643   2.399  11.690  2.0765 -1.5815  0.1252
  477MPD2     N 7103   1.413   2.045  11.839 -0.1896 -0.6265  0.3204
  477MPD2    H5 7104   1.332   1.988  11.817 -0.8654  0.9763 -1.4316
  477MPD2    N1 7105   1.209   2.368  11.544 -0.2294  0.0612  0.3301
  477MPD2    H7 7106   1.215   2.444  11.476 -2.5935 -1.8709 -2.0275
  478TMC3    C1 7107   0.995   2.406  11.471  0.0657  0.7775 -1.3410
  478TMC3    C2 7108   0.886   2.437  11.537 -0.5705 -0.3201  0.5302
  478TMC3    C3 7109   0.831   2.565  11.520  0.4576  0.3408  0.2001
  478TMC3    C4 7110   1.041   2.499  11.381 -1.2864  0.1129 -0.5048
  478TMC3    C5 7111   0.983   2.623  11.359  0.6287 -0.0802 -1.0511
  478TMC3    C6 7112   0.881   2.665  11.436  0.5207 -0.0179 -0.5150
  478TMC3     C 7113   1.083   2.315  11.543  0.4029 -0.0123  0.3076
  478TMC3     O 7114   1.037   2.232  11.620 -0.0907 -0.4941 -0.0155
  478TMC3     H 7115   0.853   2.382  11.624  0.2328  0.1873  1.1624
  478TMC3    H1 7116   1.127   2.480  11.319 -0.3621  2.7862 -0.0427
  478TMC3    H2 7117   0.847   2.767  11.424 -0.5780 -0.2726  0.4150
  478TMC3    C7 7118   1.029   2.691  11.240  0.1613 -0.3706  0.2563
  478TMC3    C8 7119   0.742   2.609  11.622 -0.2005 -0.1795  0.2517
  478TMC3    O1 7120   1.136   2.665  11.189  0.1112 -0.3980  0.3891
  478TMC3    O2 7121   0.724   2.527  11.713 -0.2001 -0.0414  0.9955
  479MPD2     C 7122   4.574   4.138  14.768 -0.4145  0.2869  0.1445
  479MPD2    C1 7123   4.478   4.051  14.823  0.0997 -0.2490 -0.1153
  479MPD2    C2 7124   4.469   4.032  14.961 -0.0200  0.3587  0.0478
  479MPD2    C3 7125   4.568   4.103  15.037 -0.1001 -0.0151  0.3844
  479MPD2    C4 7126   4.660   4.180  14.977 -0.2534 -0.1548  0.3588
  479MPD2    C5 7127   4.664   4.206  14.846  0.7637 -0.7978  0.1444
  479MPD2     H 7128   4.399   3.970  15.015 -0.1391  0.8328  0.4357
  479MPD2    H1 7129   0.019   4.218  15.043 -0.2065  1.1306 -0.4274
  479MPD2    H2 7130   4.581   4.149  14.660 -2.0725 -1.2883 -0.1256
  479MPD2    H3 7131   0.025   4.263  14.799  1.1217 -0.7999  0.7467
  479MPD2     N 7132   4.583   4.108  15.183  0.0999  0.0793 -0.2371
  479MPD2    H5 7133   4.663   4.161  15.215 -0.5323  0.2798  1.0000
  479MPD2    N1 7134   4.388   3.988  14.735 -0.0119 -0.3602 -0.1776
  479MPD2    H7 7135   4.413   3.998  14.637 -1.4538 -3.0837 -0.8088
  480TMC3    C1 7136   4.409   4.022  15.610 -0.1968 -0.8497  0.4808
  480TMC3    C2 7137   4.403   4.155  15.641 -0.0725  0.7805 -0.3184
  480TMC3    C3 7138   4.459   4.241  15.552  0.0407  0.4210  0.8555
  480TMC3    C4 7139   4.468   3.972  15.497  0.1051 -0.3757  0.0850
  480TMC3    C5 7140   4.529   4.059  15.414  0.1900 -0.4743 -0.1527
  480TMC3    C6 7141   4.532   4.192  15.444 -0.0954 -0.0935 -0.4276
  480TMC3     C 7142   4.372   3.913  15.702  0.5131 -0.0707  0.1020
  480TMC3     O 7143   4.351   3.804  15.652  0.1742 -0.0557  0.2484
  480TMC3     H 7144   4.354   4.194  15.729 -0.4519  0.1974 -0.2686
  480TMC3    H1 7145   4.468   3.865  15.482 -0.7271 -0.4827  0.8613
  480TMC3    H2 7146   4.582   4.262  15.378 -2.4147  2.0784  0.1262
  480TMC3    C7 7147   4.501   4.031  15.271 -0.1777 -0.1297 -0.5149
  480TMC3    C8 7148   4.361   4.341  15.515  0.2324  0.1014 -0.1063
  480TMC3    O1 7149   4.399   3.968  15.244  0.5025 -0.1877  0.3365
  480TMC3    O2 7150   4.262   4.354  15.589  0.5182  0.4722  0.6559
  481MPD2     C 7151   1.375   3.965  14.049  0.1129  0.0552  0.3361
  481MPD2    C1 7152   1.492   4.030  14.079  0.0292 -0.0650 -0.1087
  481MPD2    C2 7153   1.530   4.034  14.214  0.0213 -0.0084 -0.3345
  481MPD2    C3 7154   1.458   3.965  14.306 -0.7824  0.6480 -0.0726
  481MPD2    C4 7155   1.350   3.886  14.273  0.2234 -0.0856  0.2194
  481MPD2    C5 7156   1.306   3.892  14.140  0.4774 -0.1166  0.5578
  481MPD2     H 7157   1.614   4.098  14.236  0.0216 -0.6594  1.5673
  481MPD2    H1 7158   1.286   3.831  14.342 -0.6483  0.1743 -0.3784
  481MPD2    H2 7159   1.350   3.943  13.946 -0.7293  3.1588 -0.1167
  481MPD2    H3 7160   1.216   3.839  14.109  0.1992  0.6221  0.0975
  481MPD2     N 7161   1.479   3.971  14.448 -0.1936 -0.0531 -0.1361
  481MPD2    H5 7162   1.415   3.922  14.510 -2.8234  2.3821 -0.8935
  481MPD2    N1 7163   1.574   4.088  13.976 -0.1648 -0.0934 -0.3364
  481MPD2    H7 7164   1.535   4.078  13.882 -0.7523  4.0308 -0.5113
  482TMC3    C1 7165   1.752   4.175  13.859 -0.1274  0.0308  0.2260
  482TMC3    C2 7166   1.727   4.075  13.769 -0.0766  0.4484 -0.0537
  482TMC3    C3 7167   1.697   4.102  13.636  0.5021 -0.2884 -0.0937
  482TMC3    C4 7168   1.744   4.304  13.812 -0.6967 -0.0647  0.7887
  482TMC3    C5 7169   1.736   4.337  13.681  0.3119 -0.6328 -0.2352
  482TMC3    C6 7170   1.708   4.234  13.590 -0.1909  0.1925  0.3805
  482TMC3     C 7171   1.702   4.141  13.992 -0.1800  0.1657  0.6014
  482TMC3     O 7172   1.774   4.159  14.086 -0.2196  0.1623 -0.2258
  482TMC3     H 7173   1.725   3.975  13.811  0.5363  0.1956 -0.6272
  482TMC3    H1 7174   1.735   4.389  13.879  0.0498  0.8541 -0.2928
  482TMC3    H2 7175   1.689   4.251  13.485  0.6644 -1.4536 -0.0273
  482TMC3    C7 7176   1.704   4.479  13.651 -0.0014  0.0727  0.1455
  482TMC3    C8 7177   1.616   4.000  13.569  0.3916 -0.4769  0.0644
  482TMC3    O1 7178   1.668   4.554  13.740 -0.3374  0.3376 -0.2251
  482TMC3    O2 7179   1.595   3.896  13.632 -0.3548  0.4118 -0.5264
  483TMC3    C1 7180   3.611   2.169   0.690 -0.3036  1.0676  0.4992
  483TMC3    C2 7181   3.569   2.291   0.657  0.4454  0.1831  0.1390
  483TMC3    C3 7182   3.513   2.373   0.750 -0.0225 -0.7494  0.2479
  483TMC3    C4 7183   3.600   2.136   0.822  0.5428  0.1304  0.7030
  483TMC3    C5 7184   3.545   2.213   0.919  0.6136  1.0205 -0.5760
  483TMC3    C6 7185   3.496   2.333   0.881  0.7280  0.4019 -0.6061
  483TMC3     C 7186   3.708   2.108   0.600  0.4628 -0.1639 -0.2863
  483TMC3     O 7187   3.724   2.141   0.486 -0.4473 -0.1681  0.4943
  483TMC3     H 7188   3.590   2.318   0.554  0.2025  0.1214  0.0748
  483TMC3    H1 7189   3.642   2.039   0.847  0.1679 -0.4058 -0.7545
  483TMC3    H2 7190   3.470   2.403   0.960 -0.5591 -0.9836  0.1949
  483TMC3    C7 7191   3.621   2.210   1.045  0.6224 -0.2545 -0.0394
  483TMC3    C8 7192   3.551   2.515   0.734 -0.0577 -0.2951 -0.2019
  483TMC3    O1 7193   3.720   2.280   1.045 -0.0982  0.1911 -0.0188
  483TMC3    O2 7194   3.635   2.537   0.651  0.4106  0.0594 -0.0111
  484MPD2     C 7195   2.016   0.936  11.873 -0.0944  0.1299 -0.5462
  484MPD2    C1 7196   2.062   0.917  12.007 -1.2267  0.7200 -0.4629
  484MPD2    C2 7197   2.172   0.987  12.051 -0.3432  0.5308  0.1222
  484MPD2    C3 7198   2.241   1.087  11.979  0.4195  0.0148 -0.0770
  484MPD2    C4 7199   2.197   1.105  11.852 -0.5891  0.2903 -1.1434
  484MPD2    C5 7200   2.095   1.032  11.800 -0.5563  0.5930 -0.1789
  484MPD2     H 7201   2.206   0.967  12.152 -1.0497  0.5098  0.3598
  484MPD2    H1 7202   2.243   1.179  11.788  0.5814  0.5174 -0.0416
  484MPD2    H2 7203   1.957   0.866  11.815 -2.6474  0.6239  1.4894
  484MPD2    H3 7204   2.075   1.045  11.695  1.2597  0.7680 -0.5069
  484MPD2     N 7205   2.348   1.168  12.037  0.2489 -0.3418  0.4464
  484MPD2    H5 7206   2.384   1.242  11.977  0.1466 -0.8082 -0.1935
  484MPD2    N1 7207   1.992   0.815  12.076 -0.1819 -0.0702 -0.1746
  484MPD2    H7 7208   1.906   0.788  12.028  0.2482  1.7543 -1.9655
  485TMC3    C1 7209   2.534   1.241  12.159 -0.1489 -0.0886 -0.5839
  485TMC3    C2 7210   2.637   1.186  12.234  0.1857 -0.4671  0.1134
  485TMC3    C3 7211   2.732   1.270  12.283 -0.8941  0.6637  0.0308
  485TMC3    C4 7212   2.528   1.372  12.131 -0.4820  0.6508 -0.0792
  485TMC3    C5 7213   2.630   1.452  12.183 -0.1306  0.0624  0.3609
  485TMC3    C6 7214   2.730   1.408  12.270  0.1997 -0.6233 -0.0780
  485TMC3     C 7215   2.419   1.148  12.153 -0.8476  0.1790 -0.2093
  485TMC3     O 7216   2.408   1.059  12.234 -0.6002  0.0885  0.3642
  485TMC3     H 7217   2.641   1.078  12.247 -1.3979 -0.4083  1.1899
  485TMC3    H1 7218   2.445   1.415  12.075 -0.9189  0.9344  0.7892
  485TMC3    H2 7219   2.796   1.475  12.324 -1.2094  1.4656 -0.9890
  485TMC3    C7 7220   2.692   1.534  12.082 -0.2795 -0.2255  0.2523
  485TMC3    C8 7221   2.876   1.235  12.279 -0.1751  0.5526  0.0035
  485TMC3    O1 7222   2.627   1.621  12.024 -0.1614  0.0886  0.0638
  485TMC3    O2 7223   2.947   1.328  12.249  0.2658 -0.2245 -0.6768
  486MPD2     C 7224   4.315   0.156  12.715 -1.2122 -0.7663  0.9109
  486MPD2    C1 7225   4.186   0.161  12.667  0.2211  0.3558 -0.8227
  486MPD2    C2 7226   4.135   0.278  12.604  0.3515  0.5724  0.6445
  486MPD2    C3 7227   4.210   0.396  12.599  0.2091  0.6095  0.0994
  486MPD2    C4 7228   4.343   0.386  12.643  0.2529 -0.2668  0.9205
  486MPD2    C5 7229   4.395   0.275  12.700 -0.4621 -0.2608 -0.1977
  486MPD2     H 7230   4.034   0.292  12.568  0.1603  0.0561  0.9803
  486MPD2    H1 7231   4.402   0.475  12.625 -0.2941 -0.1014 -0.0415
  486MPD2    H2 7232   4.347   0.062  12.761 -2.6576 -1.3308  0.7707
  486MPD2    H3 7233   4.500   0.280  12.726 -0.3524 -0.3629 -0.6114
  486MPD2     N 7234   4.154   0.511  12.538  0.0595  0.4866  0.3817
  486MPD2    H5 7235   4.066   0.507  12.488  0.8490 -1.4498 -0.8678
  486MPD2    N1 7236   4.099   0.045  12.684  0.1482 -0.1696  0.1933
  486MPD2    H7 7237   4.133   4.695  12.750 -0.0939  0.0588  0.5545
  487TMC3    C1 7238   3.929   4.616  12.623  0.0882 -1.0331 -0.6374
  487TMC3    C2 7239   3.889   4.562  12.506  0.3241  0.2178  0.2187
  487TMC3    C3 7240   3.855   4.426  12.514 -0.1506  0.2965  0.1340
  487TMC3    C4 7241   3.941   4.555  12.743 -0.2486  0.1982 -0.9097
  487TMC3    C5 7242   3.909   4.421  12.744  0.6653 -0.2391  0.1316
  487TMC3    C6 7243   3.882   4.353  12.625  0.4801 -0.2860 -0.2311
  487TMC3     C 7244   3.992   0.024  12.605  0.0731  0.5838 -0.0274
  487TMC3     O 7245   3.964   0.083  12.499 -0.3910 -1.1563  0.1426
  487TMC3     H 7246   3.875   4.619  12.415  1.1845 -0.6234 -0.4352
  487TMC3    H1 7247   3.971   4.600  12.837 -0.1432 -0.4613 -0.6299
  487TMC3    H2 7248   3.838   4.255  12.634 -0.0882 -0.0866 -0.8701
  487TMC3    C7 7249   3.872   4.361  12.876 -0.4626 -0.1845  0.3296
  487TMC3    C8 7250   3.798   4.367  12.392 -0.7773  1.0151 -0.0830
  487TMC3    O1 7251   3.896   4.435  12.975  0.0588  0.1449  0.0951
  487TMC3    O2 7252   3.830   4.422  12.283 -0.2384  0.6307  0.1517
  488MPD2     C 7253   4.276   1.639  16.577  0.0232  0.0896  0.0780
  488MPD2    C1 7254   4.302   1.760  16.640  0.0923  0.4533  0.9331
  488MPD2    C2 7255   4.283   1.776  16.775 -0.3282  0.0963  0.1172
  488MPD2    C3 7256   4.252   1.672  16.849 -0.1916 -0.2806 -0.2325
  488MPD2    C4 7257   4.237   1.548  16.790  0.0500  0.9222  0.3537
  488MPD2    C5 7258   4.246   1.533  16.650 -0.0759 -0.5830 -0.9198
  488MPD2     H 7259   4.306   1.876  16.810  0.0660  0.1801 -0.3887
  488MPD2    H1 7260   4.222   1.460  16.852  2.2746  1.5544  1.7803
  488MPD2    H2 7261   4.301   1.622  16.473  0.0836  0.7427 -0.0158
  488MPD2    H3 7262   4.229   1.433  16.613 -1.2243 -0.0928 -1.7374
  488MPD2     N 7263   4.237   1.690  16.987  0.3956  0.0566 -0.2068
  488MPD2    H5 7264   4.232   1.781  17.031  2.5446 -0.3580  0.8821
  488MPD2    N1 7265   4.345   1.873  16.567  0.1154 -0.5269  0.0853
  488MPD2    H7 7266   4.359   1.956  16.624 -1.8216  1.1982 -1.9585
  489TMC3    C1 7267   4.187   1.658  17.208 -0.1842  0.2643  0.7348
  489TMC3    C2 7268   4.111   1.767  17.176  0.4254 -0.9209  0.5935
  489TMC3    C3 7269   4.115   1.869  17.271 -0.2904 -0.0911  0.5217
  489TMC3    C4 7270   4.268   1.654  17.319 -0.4201  0.4053  0.1792
  489TMC3    C5 7271   4.267   1.760  17.412  0.1941 -0.1031 -0.1884
  489TMC3    C6 7272   4.192   1.870  17.385 -0.0036 -0.1753 -0.0707
  489TMC3     C 7273   4.234   1.594  17.085  0.2701  0.2916 -0.1669
  489TMC3     O 7274   4.222   1.471  17.079  0.1916  0.0016 -0.0371
  489TMC3     H 7275   4.048   1.773  17.089  1.0390 -1.3299  0.1196
  489TMC3    H1 7276   4.335   1.570  17.333 -0.2718 -0.0784 -3.4079
  489TMC3    H2 7277   4.213   1.958  17.444  1.8388 -2.2969  2.4293
  489TMC3    C7 7278   4.375   1.765  17.502  0.4378  0.0549 -0.7922
  489TMC3    C8 7279   4.069   1.990  17.216 -0.7048  0.1461  0.2031
  489TMC3    O1 7280   4.438   1.659  17.515 -0.2697 -0.0618 -0.1923
  489TMC3    O2 7281   4.045   1.981  17.096  0.2701 -0.1010  0.1460
  490MPD2     C 7282   0.723   1.365  17.367  0.4089  0.0716  0.3352
  490MPD2    C1 7283   0.804   1.252  17.351 -0.3222 -0.1013 -0.5215
  490MPD2    C2 7284   0.935   1.258  17.384  0.2031 -0.3198 -0.2483
  490MPD2    C3 7285   0.992   1.374  17.432 -0.4533  0.5974 -0.3811
  490MPD2    C4 7286   0.913   1.491  17.445 -0.8381  0.4627 -0.0333
  490MPD2    C5 7287   0.782   1.484  17.405  0.0264 -0.4749  0.0986
  490MPD2     H 7288   0.992   1.166  17.382  0.1488 -0.3775  0.8646
  490MPD2    H1 7289   0.955   1.580  17.492 -0.0245  1.0418 -1.8456
  490MPD2    H2 7290   0.623   1.376  17.329  0.9361 -0.1179 -1.0912
  490MPD2    H3 7291   0.720   1.571  17.419 -0.1687 -0.8795  1.8293
  490MPD2     N 7292   1.122   1.367  17.490  0.8441 -0.4348 -0.0322
  490MPD2    H5 7293   1.145   1.453  17.539  2.2416 -0.0242 -1.4268
  490MPD2    N1 7294   0.752   1.122  17.309 -0.8876 -0.7003  0.2024
  490MPD2    H7 7295   0.823   1.050  17.294 -0.0702 -0.0816  1.0725
  491TMC3    C1 7296   0.608   0.947  17.262 -0.2071  0.8806  0.4104
  491TMC3    C2 7297   0.700   0.864  17.322  0.1791 -0.0975 -0.7473
  491TMC3    C3 7298   0.661   0.736  17.346 -0.3236  0.4869  0.2366
  491TMC3    C4 7299   0.488   0.903  17.211 -0.3052 -0.1703  0.0973
  491TMC3    C5 7300   0.468   0.768  17.220 -0.1582 -0.8604  0.4309
  491TMC3    C6 7301   0.560   0.682  17.278 -0.4161  0.0252 -0.2032
  491TMC3     C 7302   0.627   1.094  17.269 -0.4642  0.4285 -0.2023
  491TMC3     O 7303   0.527   1.162  17.271 -0.0598 -0.4959 -0.5593
  491TMC3     H 7304   0.780   0.904  17.383  0.6063 -0.8560 -0.8096
  491TMC3    H1 7305   0.409   0.976  17.197 -1.2228 -1.3484 -1.0132
  491TMC3    H2 7306   0.545   0.575  17.286  0.0917 -0.0301 -0.0048
  491TMC3    C7 7307   0.331   0.728  17.229  0.2395 -0.0811 -0.1238
  491TMC3    C8 7308   0.630   0.717  17.485  0.2269  0.9647  0.6861
  491TMC3    O1 7309   0.310   0.644  17.314 -0.4536  0.0817  0.0822
  491TMC3    O2 7310   0.608   0.823  17.544 -0.1295 -0.5043  0.8038
  492MPD2     C 7311   1.221   1.590  11.484  1.1286 -0.0960 -0.5224
  492MPD2    C1 7312   1.208   1.515  11.368  0.5034 -0.2743  0.2619
  492MPD2    C2 7313   1.136   1.398  11.371 -0.3980 -0.6151  0.2727
  492MPD2    C3 7314   1.067   1.364  11.489  0.6793 -0.5995  0.2591
  492MPD2    C4 7315   1.086   1.439  11.601 -0.2833  0.8065  0.3102
  492MPD2    C5 7316   1.160   1.551  11.598 -0.2262 -0.9025 -0.3996
  492MPD2     H 7317   1.112   1.339  11.283 -1.3423 -0.7347  0.6013
  492MPD2    H1 7318   1.043   1.412  11.696  0.0504  1.1718  0.5649
  492MPD2    H2 7319   1.289   1.674  11.494  1.0479 -0.0996  0.0340
  492MPD2    H3 7320   1.182   1.607  11.687 -1.7657 -1.6178  0.4432
  492MPD2     N 7321   0.976   1.258  11.504  0.7831  0.5393  0.3089
  492MPD2    H5 7322   0.938   1.254  11.598  1.7868  0.2372  0.7002
  492MPD2    N1 7323   1.276   1.558  11.247 -0.3865  0.5838 -0.1540
  492MPD2    H7 7324   1.310   1.652  11.231 -1.2274  0.7091 -1.2117
  493TMC3    C1 7325   1.364   1.517  11.035 -0.2959 -0.2390  0.2860
  493TMC3    C2 7326   1.458   1.614  11.045 -0.0945  0.7011 -0.1991
  493TMC3    C3 7327   1.527   1.646  10.930 -0.3473 -0.0061 -0.2217
  493TMC3    C4 7328   1.356   1.434  10.926  0.5269 -0.5240  0.1770
  493TMC3    C5 7329   1.443   1.449  10.823 -0.0951  0.3421  0.2896
  493TMC3    C6 7330   1.534   1.560  10.823  0.6244 -0.3836  1.1661
  493TMC3     C 7331   1.305   1.465  11.154 -0.6491  0.4275  0.1738
  493TMC3     O 7332   1.283   1.346  11.150 -0.2842 -0.0254 -0.2550
  493TMC3     H 7333   1.480   1.656  11.142 -2.4851 -0.3213  0.7870
  493TMC3    H1 7334   1.280   1.357  10.922 -0.6253  0.7202 -1.9123
  493TMC3    H2 7335   1.612   1.577  10.749 -0.8064 -1.5993 -0.6405
  493TMC3    C7 7336   1.409   1.367  10.706 -0.6055  0.7783  0.1344
  493TMC3    C8 7337   1.618   1.759  10.944  0.2718  0.2726 -0.1713
  493TMC3    O1 7338   1.343   1.265  10.719  0.6692  0.1981 -0.6211
  493TMC3    O2 7339   1.643   1.788  11.060 -0.2294  0.7750 -0.1294
  494TMC3    C1 7340   1.213   2.542   0.789  0.9426  0.2211 -0.3493
  494TMC3    C2 7341   1.244   2.412   0.802 -0.6702  0.0092  0.1092
  494TMC3    C3 7342   1.293   2.352   0.687 -0.8020 -0.2880 -0.4862
  494TMC3    C4 7343   1.236   2.611   0.671 -0.3603 -0.6647  0.0198
  494TMC3    C5 7344   1.289   2.545   0.565  0.1258  0.5815 -0.6666
  494TMC3    C6 7345   1.318   2.413   0.568  0.3916 -0.3573  0.5860
  494TMC3     C 7346   1.144   2.609   0.896  0.5444 -0.4765  0.2482
  494TMC3     O 7347   1.115   2.724   0.880  0.0539  0.0642  0.7732
  494TMC3     H 7348   1.238   2.359   0.896  1.0536  1.0925  0.8380
  494TMC3    H1 7349   1.204   2.715   0.668 -0.1835 -0.5957  0.6055
  494TMC3    H2 7350   1.343   2.354   0.480  1.6903  1.0458  0.0034
  494TMC3    C7 7351   1.285   2.601   0.427 -0.1914 -0.3403 -0.9508
  494TMC3    C8 7352   1.323   2.210   0.688  0.1497  0.0183  0.2988
  494TMC3    O1 7353   1.270   2.516   0.339  0.3472 -0.1097  0.0623
  494TMC3    O2 7354   1.275   2.149   0.784 -0.0528 -0.4358 -0.0127
  495TMC3    C1 7355   4.624   4.658  14.661  0.3878 -0.3341 -1.1896
  495TMC3    C2 7356   4.536   4.675  14.562 -0.3651  0.3599  0.2566
  495TMC3    C3 7357   4.409   4.692  14.603  0.1678  0.1145 -0.2232
  495TMC3    C4 7358   4.590   4.674  14.794 -0.5695 -0.7556  0.0656
  495TMC3    C5 7359   4.470   4.714  14.826  0.1635  0.7684  0.1416
  495TMC3    C6 7360   4.372   0.003  14.733  0.2336 -0.0404  0.0037
  495TMC3     C 7361   0.014   4.575  14.619 -0.0879  0.2705 -0.6201
  495TMC3     O 7362   0.106   4.633  14.563  0.1402 -0.2139 -0.1045
  495TMC3     H 7363   4.570   4.644  14.464  0.5873  1.9900  0.0804
  495TMC3    H1 7364   4.673   4.673  14.863 -0.3527 -1.5408 -0.2111
  495TMC3    H2 7365   4.275   0.045  14.757  0.6801 -0.4424  2.4794
  495TMC3    C7 7366   4.431   4.695  14.970 -0.0412 -0.3225 -0.2929
  495TMC3    C8 7367   4.302   4.689  14.506 -0.5193  0.1595 -0.3615
  495TMC3    O1 7368   4.528   4.704  15.044  0.1660  0.5214 -0.2752
  495TMC3    O2 7369   4.199   0.031  14.538 -0.3600 -0.3136 -0.4101
  496MPD2     C 7370   1.369   4.690  15.430 -0.4448  0.7422 -0.5697
  496MPD2    C1 7371   1.411   4.592  15.526 -0.9094 -0.3540 -0.6195
  496MPD2    C2 7372   1.389   4.610  15.662  0.1433  0.3214 -0.3238
  496MPD2    C3 7373   1.319   0.002  15.699  0.8998 -0.1618 -1.5343
  496MPD2    C4 7374   1.275   0.095  15.610 -0.1402  0.0924  0.6360
  496MPD2    C5 7375   1.303   0.085  15.473  0.2630 -0.2715 -0.4276
  496MPD2     H 7376   1.419   4.532  15.731  0.0768  0.9686  0.4420
  496MPD2    H1 7377   1.220   0.178  15.653  3.0243  2.5947 -0.1357
  496MPD2    H2 7378   1.397   4.675  15.327  0.5313 -1.3218 -0.0259
  496MPD2    H3 7379   1.266   0.159  15.403  0.5710 -0.8809 -1.2330
  496MPD2     N 7380   1.280   0.016  15.833  0.3241  0.0655 -0.5117
  496MPD2    H5 7381   1.215   0.094  15.836 -0.5024 -0.6626  0.8719
  496MPD2    N1 7382   1.485   4.485  15.463  0.1436  0.0385 -0.3637
  496MPD2    H7 7383   1.498   4.493  15.363 -1.6341 -0.9803 -0.6653
  497TMC3    C1 7384   1.248   4.701  16.066  0.0415  0.0501 -0.7852
  497TMC3    C2 7385   1.114   0.008  16.045  0.3150  0.2105 -0.3740
  497TMC3    C3 7386   1.047   0.079  16.142 -0.1095  0.4759 -0.2241
  497TMC3    C4 7387   1.304   0.001  16.190 -0.5891  0.5471  0.0151
  497TMC3    C5 7388   1.232   0.050  16.289 -0.1617  0.1714 -0.2569
  497TMC3    C6 7389   1.104   0.101  16.266 -0.0790 -0.3356  0.7188
  497TMC3     C 7390   1.324   4.668  15.947 -0.0488 -0.2843 -0.0027
  497TMC3     O 7391   1.425   4.604  15.960  0.6681  0.3743 -0.5066
  497TMC3     H 7392   1.056   4.697  15.959  0.5966 -0.1903 -0.4257
  497TMC3    H1 7393   1.409   4.693  16.191 -0.6058  0.5472  1.1672
  497TMC3    H2 7394   1.046   0.149  16.344  0.9216  3.3984 -0.8416
  497TMC3    C7 7395   1.280   0.078  16.424 -0.1666 -0.5760 -0.0433
  497TMC3    C8 7396   0.900   0.096  16.137 -0.5107  0.2218 -0.0538
  497TMC3    O1 7397   1.219   0.156  16.498 -0.2200  0.2532  0.3415
  497TMC3    O2 7398   0.826   0.108  16.231 -0.2100 -0.4747 -0.4428
  498MPD2     C 7399   3.250   0.721   9.223 -0.6796  0.5058 -0.3508
  498MPD2    C1 7400   3.317   0.715   9.339 -0.0332 -0.3664 -0.0363
  498MPD2    C2 7401   3.264   0.656   9.447 -0.3765  0.2969  0.4151
  498MPD2    C3 7402   3.152   0.575   9.429  0.3539  0.0629  0.2532
  498MPD2    C4 7403   3.099   0.564   9.306 -0.2774 -0.2567 -0.1144
  498MPD2    C5 7404   3.146   0.644   9.209 -0.4513  0.8507 -0.1229
  498MPD2     H 7405   3.313   0.672   9.543 -0.4994  1.6159  0.2553
  498MPD2    H1 7406   3.010   0.504   9.291 -1.6649  1.6988  0.3006
  498MPD2    H2 7407   3.282   0.779   9.136 -0.0690  0.0359 -0.4433
  498MPD2    H3 7408   3.091   0.647   9.116 -0.4893  1.6561 -0.0743
  498MPD2     N 7409   3.108   0.498   9.542  0.3883 -0.3697 -0.3594
  498MPD2    H5 7410   3.142   0.515   9.636  0.8621  0.1195 -0.6144
  498MPD2    N1 7411   3.444   0.779   9.353  0.2922  0.3411 -0.1812
  498MPD2    H7 7412   3.493   0.756   9.439  0.4939 -0.0842 -0.4151
  499TMC3    C1 7413   3.628   0.915   9.324 -0.0536  0.3337 -0.2716
  499TMC3    C2 7414   3.720   0.836   9.399  0.3339 -0.2981  0.8510
  499TMC3    C3 7415   3.842   0.891   9.436 -0.2505 -0.4859  0.5997
  499TMC3    C4 7416   3.670   1.032   9.267  0.0335  0.3882 -0.2112
  499TMC3    C5 7417   3.804   1.074   9.305 -1.3842 -0.1143 -0.4448
  499TMC3    C6 7418   3.877   1.021   9.408 -0.0642  0.6243  0.4807
  499TMC3     C 7419   3.506   0.863   9.269  0.3656  0.5932 -0.2213
  499TMC3     O 7420   3.463   0.922   9.174  0.5075 -0.6238 -0.0287
  499TMC3     H 7421   3.697   0.734   9.428  2.1720 -0.8651  0.2515
  499TMC3    H1 7422   3.622   1.082   9.183  2.7653  1.9265 -0.8582
  499TMC3    H2 7423   3.980   1.049   9.426  0.2796  0.8826 -1.9447
  499TMC3    C7 7424   3.855   1.200   9.241 -0.2740  0.5851  0.2208
  499TMC3    C8 7425   3.937   0.799   9.505  0.2536  0.3370 -0.1759
  499TMC3    O1 7426   3.912   1.292   9.296 -0.1259 -0.4869 -0.6000
  499TMC3    O2 7427   3.888   0.708   9.565 -0.3131  0.0344  0.2033
  500MPD2     C 7428   0.310   2.098  10.175  0.4697 -0.4066  0.3378
  500MPD2    C1 7429   0.303   2.202  10.089  0.3410  0.0068 -0.2373
  500MPD2    C2 7430   0.181   2.225  10.021 -0.0852  0.1943  0.9669
  500MPD2    C3 7431   0.071   2.148  10.046  0.4002 -0.2153 -0.3177
  500MPD2    C4 7432   0.089   2.033  10.127 -0.6054  0.2749  0.3871
  500MPD2    C5 7433   0.208   2.013  10.191 -0.5880  0.2209  0.5816
  500MPD2     H 7434   0.186   2.301   9.944  0.4112 -0.2066  0.5968
  500MPD2    H1 7435   4.718   1.973  10.139 -1.6949  1.4872 -1.8149
  500MPD2    H2 7436   0.397   2.071  10.234  1.6600  1.9957 -0.3262
  500MPD2    H3 7437   0.217   1.926  10.255  1.0661 -0.6885 -0.8789
  500MPD2     N 7438   4.666   2.156   9.981  0.1017  0.4464  0.6579
  500MPD2    H5 7439   4.592   2.089  10.000  0.5944 -0.6189 -1.2003
  500MPD2    N1 7440   0.417   2.281  10.067  0.1402 -0.2507  0.7389
  500MPD2    H7 7441   0.402   2.370  10.020  1.1350 -1.0059 -1.0237
  501TMC3    C1 7442   0.650   2.355  10.080  0.4050 -0.7393 -0.2259
  501TMC3    C2 7443   0.616   2.485  10.046 -0.2988 -0.2182 -0.1997
  501TMC3    C3 7444   0.716   2.584  10.046 -0.0038  0.9684 -0.2020
  501TMC3    C4 7445   0.780   2.338  10.133  0.4951 -0.3472  0.1296
  501TMC3    C5 7446   0.879   2.432  10.127 -0.1893  0.4992 -1.0146
  501TMC3    C6 7447   0.843   2.549  10.077  0.5162 -0.3407  0.4533
  501TMC3     C 7448   0.543   2.268  10.130 -0.0105 -0.1168  0.4415
  501TMC3     O 7449   0.586   2.171  10.194  0.2865 -0.2439  0.6063
  501TMC3     H 7450   0.511   2.514  10.043 -0.4424 -0.6437  0.7086
  501TMC3    H1 7451   0.798   2.240  10.174 -1.5140 -2.0084 -2.9755
  501TMC3    H2 7452   0.919   2.625  10.064 -0.5512  0.6395 -0.0754
  501TMC3    C7 7453   0.973   2.429  10.237 -0.0969  0.4179  0.1361
  501TMC3    C8 7454   0.691   2.710  10.103  0.7772  0.8531 -0.1213
  501TMC3    O1 7455   1.028   2.327  10.272  0.5422  0.3692  0.0509
  501TMC3    O2 7456   0.762   2.742  10.197 -0.2985  0.0612 -0.1508
  502TMC3    C1 7457   4.025   0.832  15.511  0.1335 -0.0199  0.5273
  502TMC3    C2 7458   4.032   0.882  15.380  0.2173 -0.2669 -0.0170
  502TMC3    C3 7459   3.926   0.866  15.292  0.6455  0.2608  0.7681
  502TMC3    C4 7460   3.911   0.759  15.547  0.2112  0.6797 -1.0571
  502TMC3    C5 7461   3.810   0.741  15.453  0.2889 -0.3247  0.5766
  502TMC3    C6 7462   3.818   0.794  15.329 -0.0824 -0.4074 -0.5461
  502TMC3     C 7463   4.149   0.811  15.589 -0.1151  0.5007  0.5949
  502TMC3     O 7464   4.251   0.839  15.527 -0.0588  0.3175  0.1601
  502TMC3     H 7465   4.125   0.923  15.342 -0.7067  2.8461  1.0556
  502TMC3    H1 7466   3.899   0.697  15.635 -1.3382  2.1064 -0.2797
  502TMC3    H2 7467   3.731   0.775  15.267  0.2024  1.0745 -1.3911
  502TMC3    C7 7468   3.709   0.632  15.478  0.4846  0.0293 -0.2418
  502TMC3    C8 7469   3.956   0.866  15.156  0.3559 -0.2492 -0.0920
  502TMC3    O1 7470   3.766   0.545  15.545 -0.5530  0.4639 -0.4194
  502TMC3    O2 7471   4.059   0.925  15.122 -0.1978 -0.0898  0.7719
  503MPD2     C 7472   1.458   1.507  17.058  0.4818  0.2020  0.1266
  503MPD2    C1 7473   1.456   1.504  17.194  0.0779  0.1942 -0.4184
  503MPD2    C2 7474   1.512   1.404  17.267 -0.0287 -0.5779 -0.7986
  503MPD2    C3 7475   1.569   1.301  17.198 -0.0475  0.3057 -0.3277
  503MPD2    C4 7476   1.577   1.305  17.065  0.2801 -0.5197 -1.7629
  503MPD2    C5 7477   1.533   1.413  16.996  0.3717 -0.0976  0.5568
  503MPD2     H 7478   1.504   1.410  17.375 -0.7639 -1.2985 -0.8098
  503MPD2    H1 7479   1.610   1.218  17.009  1.0741 -0.5954 -1.1738
  503MPD2    H2 7480   1.410   1.586  17.003 -2.6195  0.4764  3.2528
  503MPD2    H3 7481   1.516   1.403  16.890 -0.4658  1.3934  0.5441
  503MPD2     N 7482   1.618   1.192  17.270 -0.5274 -0.5615 -0.7258
  503MPD2    H5 7483   1.593   1.178  17.367  2.2370  1.5718  0.2897
  503MPD2    N1 7484   1.391   1.612  17.262 -0.1293 -0.0621  0.7064
  503MPD2    H7 7485   1.412   1.612  17.362  2.0799  0.3931  0.2371
  504TMC3    C1 7486   1.707   0.983  17.313 -0.2321 -0.3030  0.2047
  504TMC3    C2 7487   1.616   0.963  17.417  0.2341  0.4505  0.7543
  504TMC3    C3 7488   1.620   0.845  17.493 -0.9492  0.0617 -0.8711
  504TMC3    C4 7489   1.792   0.884  17.272 -0.1679 -0.1579  0.0984
  504TMC3    C5 7490   1.795   0.772  17.348  0.1364 -0.0536 -0.0984
  504TMC3    C6 7491   1.708   0.746  17.452 -0.1357  0.1364 -0.0826
  504TMC3     C 7492   1.704   1.092  17.221  0.9587 -0.6774  0.1439
  504TMC3     O 7493   1.760   1.087  17.115 -0.3989  0.1875 -0.3090
  504TMC3     H 7494   1.551   1.039  17.460 -1.7329 -0.5700 -0.4556
  504TMC3    H1 7495   1.865   0.912  17.197 -3.6297  2.1478 -2.3860
  504TMC3    H2 7496   1.700   0.644  17.489  0.1560 -0.5511 -1.9123
  504TMC3    C7 7497   1.858   0.660  17.281 -0.9171  0.6343 -0.3184
  504TMC3    C8 7498   1.582   0.839  17.631  0.2817  0.6848 -0.3600
  504TMC3    O1 7499   1.969   0.692  17.235  0.4163  0.0102  0.5428
  504TMC3    O2 7500   1.474   0.882  17.661  0.1008 -0.3477  0.1623
  505MPD2     C 7501   2.499   0.365  11.116 -0.2412  0.3214 -0.4638
  505MPD2    C1 7502   2.536   0.340  10.986  0.2043  0.5260  0.5965
  505MPD2    C2 7503   2.653   0.396  10.935 -0.4646  0.1087  0.1756
  505MPD2    C3 7504   2.744   0.468  11.011  0.1260 -0.7064 -0.1097
  505MPD2    C4 7505   2.709   0.474  11.141 -0.5704 -0.3852  0.3209
  505MPD2    C5 7506   2.588   0.435  11.196  0.1649  0.3452  0.6753
  505MPD2     H 7507   2.683   0.385  10.831 -0.1589 -0.4733  0.3230
  505MPD2    H1 7508   2.772   0.511  11.221 -0.4347  0.8878 -0.3833
  505MPD2    H2 7509   2.405   0.327  11.153  0.1932  0.7083  1.0539
  505MPD2    H3 7510   2.561   0.471  11.295 -1.5519  3.6043 -0.9596
  505MPD2     N 7511   2.869   0.521  10.964  0.2927 -0.3241  0.2962
  505MPD2    H5 7512   2.927   0.557  11.040 -0.4034  2.9524 -0.7199
  505MPD2    N1 7513   2.448   0.248  10.915 -0.4642 -0.0049 -0.4422
  505MPD2    H7 7514   2.373   0.194  10.957 -0.4854  0.8188  0.5800
  506TMC3    C1 7515   2.414   0.091  10.742 -0.0131 -0.3097 -0.2025
  506TMC3    C2 7516   2.426   0.064  10.606  0.4405  0.4547 -0.1476
  506TMC3    C3 7517   2.435   4.649  10.575 -0.5795  0.1348  0.2116
  506TMC3    C4 7518   2.410   4.713  10.841 -0.2912 -0.8446 -0.3612
  506TMC3    C5 7519   2.425   4.581  10.799 -0.4244 -0.0036  0.4788
  506TMC3    C6 7520   2.436   4.542  10.670  0.2965 -0.0411  0.0112
  506TMC3     C 7521   2.465   0.223  10.778  0.1441  0.0453 -0.1463
  506TMC3     O 7522   2.545   0.273  10.699 -0.4883 -0.1181  0.3387
  506TMC3     H 7523   2.390   0.141  10.539  1.5031  1.0298 -0.0540
  506TMC3    H1 7524   2.442   0.011  10.943 -2.0150 -3.4382  0.5737
  506TMC3    H2 7525   2.468   4.443  10.638  2.1511  0.2571  0.9268
  506TMC3    C7 7526   2.544   4.535  10.872  0.6278 -0.7828 -0.4297
  506TMC3    C8 7527   2.417   4.608  10.433 -0.4149  0.1661  0.3339
  506TMC3    O1 7528   2.521   4.466  10.969  0.1570 -0.0009  0.2959
  506TMC3    O2 7529   2.388   4.491  10.402 -0.1485 -0.2237  0.3632
  507TMC3    C1 7530   2.291   0.791  14.855  0.2622 -0.0922  0.4009
  507TMC3    C2 7531   2.205   0.755  14.758  0.0452 -0.2340 -0.7778
  507TMC3    C3 7532   2.246   0.759  14.627  0.8512 -0.2165 -0.8589
  507TMC3    C4 7533   2.420   0.831  14.821  0.5389  0.3799 -0.0290
  507TMC3    C5 7534   2.450   0.853  14.691  0.6115 -0.1547 -0.1965
  507TMC3    C6 7535   2.369   0.801  14.593  0.2974  0.1005 -0.0834
  507TMC3     C 7536   2.249   0.806  14.995  0.5494 -0.3399 -0.4182
  507TMC3     O 7537   2.332   0.866  15.064 -0.3096 -0.6094  0.2142
  507TMC3     H 7538   2.100   0.739  14.781  0.2099 -0.5810 -0.2768
  507TMC3    H1 7539   2.494   0.866  14.891 -0.1981  1.9199 -0.0042
  507TMC3    H2 7540   2.385   0.818  14.487 -0.1072  1.7177  0.1169
  507TMC3    C7 7541   2.462   0.992  14.656  1.0217 -0.0714  0.1169
  507TMC3    C8 7542   2.138   0.808  14.543  0.1313 -0.3537  0.2573
  507TMC3    O1 7543   2.408   1.028  14.549 -0.5753  0.6007 -0.1750
  507TMC3    O2 7544   2.029   0.761  14.564 -0.2992 -0.6023  0.2970
  508MPD2     C 7545   2.544   3.044  15.641 -0.1871  0.5182 -0.4087
  508MPD2    C1 7546   2.648   3.129  15.657  0.4444 -0.2052  0.6330
  508MPD2    C2 7547   2.681   3.213  15.553 -0.4687 -0.1888 -0.1298
  508MPD2    C3 7548   2.621   3.206  15.427  0.0057  0.1670  0.0008
  508MPD2    C4 7549   2.532   3.103  15.410 -0.3023  0.6061 -0.4174
  508MPD2    C5 7550   2.493   3.031  15.516  0.4808 -0.1907  0.0412
  508MPD2     H 7551   2.761   3.284  15.566 -0.2436 -0.3942 -0.3889
  508MPD2    H1 7552   2.494   3.082  15.311  0.0006 -0.4906 -0.2909
  508MPD2    H2 7553   2.512   2.980  15.722  0.9480  1.4544  0.7607
  508MPD2    H3 7554   2.412   2.959  15.517 -1.1678  1.6183 -0.8246
  508MPD2     N 7555   2.683   3.282  15.327 -0.2372  0.3144  0.7701
  508MPD2    H5 7556   2.759   3.343  15.356  0.7279 -0.2170 -0.6514
  508MPD2    N1 7557   2.724   3.119  15.772  0.3610 -0.2030 -0.1758
  508MPD2    H7 7558   2.699   3.056  15.848 -0.1990 -0.0982 -0.2682
  509TMC3    C1 7559   2.742   3.612  15.077  0.2558  0.3015  0.6693
  509TMC3    C2 7560   2.872   3.622  15.120  0.1344 -0.1114 -0.5192
  509TMC3    C3 7561   2.929   3.508  15.171 -0.4035  0.5177 -0.3601
  509TMC3    C4 7562   2.676   3.491  15.079 -0.5764  0.4382 -0.3574
  509TMC3    C5 7563   2.736   3.385  15.129 -0.5913 -0.3113  0.1182
  509TMC3    C6 7564   2.865   3.390  15.167  0.4474  1.4836  0.3832
  509TMC3     C 7565   2.675   3.724  15.020 -0.0168 -0.0944  0.4578
  509TMC3     O 7566   2.553   3.710  15.020 -0.2202 -0.0738 -0.0087
  509TMC3     H 7567   2.927   3.714  15.133 -1.7408  0.8403  0.6495
  509TMC3    H1 7568   2.576   3.482  15.038  0.3655  0.0049 -2.5702
  509TMC3    H2 7569   2.915   3.304  15.210  1.6825  2.6340  1.2569
  509TMC3    C7 7570   2.648   3.296  15.193 -0.1173 -0.1609 -0.0827
  509TMC3    C8 7571   3.074   3.506  15.216  0.0511 -0.3231 -0.1383
  509TMC3    O1 7572   2.530   3.277  15.152  0.3154  0.0764  0.5396
  509TMC3    O2 7573   3.146   3.407  15.194 -0.0188  0.4509 -0.3564
  510MPD2     C 7574   0.989   0.517  14.601 -0.4196 -0.0185  0.3094
  510MPD2    C1 7575   1.028   0.396  14.651  0.2199  0.7251  0.1273
  510MPD2    C2 7576   1.151   0.347  14.605  0.2498 -0.9338 -0.2768
  510MPD2    C3 7577   1.236   0.414  14.524 -0.1661  0.0213  1.0343
  510MPD2    C4 7578   1.196   0.535  14.475 -0.1681 -0.1922  0.0050
  510MPD2    C5 7579   1.068   0.580  14.506 -0.0886  0.1796  0.6930
  510MPD2     H 7580   1.196   0.258  14.647  0.2263 -0.6763  0.2989
  510MPD2    H1 7581   1.270   0.595  14.423 -1.1853  0.2021 -1.0009
  510MPD2    H2 7582   0.889   0.545  14.631  0.5108  1.0040  2.5157
  510MPD2    H3 7583   1.028   0.671  14.463  0.6335 -0.5850 -1.5422
  510MPD2     N 7584   1.364   0.365  14.499  0.1658 -0.7614 -0.0633
  510MPD2    H5 7585   1.376   0.272  14.537  2.5292 -1.4365 -2.4166
  510MPD2    N1 7586   0.933   0.320  14.733  0.1864  0.2499  0.4140
  510MPD2    H7 7587   0.850   0.371  14.761 -0.8917 -0.9450 -0.5635
  511TMC3    C1 7588   0.832   0.119  14.822  0.2936  0.0962  0.3107
  511TMC3    C2 7589   0.771   0.183  14.928  0.4855  0.3612 -0.7366
  511TMC3    C3 7590   0.705   0.104  15.018 -0.0731  0.0730  0.0284
  511TMC3    C4 7591   0.843   4.703  14.809  0.5140  0.2794  0.1729
  511TMC3    C5 7592   0.772   4.625  14.895  0.1873  0.2012  1.1255
  511TMC3    C6 7593   0.702   4.680  15.003 -0.3597 -0.4233 -0.7716
  511TMC3     C 7594   0.951   0.187  14.763  0.1003 -0.1595  0.1566
  511TMC3     O 7595   1.037   0.104  14.727 -0.4847 -0.0820  0.0683
  511TMC3     H 7596   0.780   0.289  14.947 -1.5377  0.1711  1.3137
  511TMC3    H1 7597   0.893   4.662  14.722 -3.0243 -0.9607 -1.2544
  511TMC3    H2 7598   0.631   4.626  15.064  2.5715 -1.4698  1.7115
  511TMC3    C7 7599   0.753   4.486  14.870  0.2122  0.1387 -0.1788
  511TMC3    C8 7600   0.621   0.176  15.118 -0.4723 -0.5379  0.2699
  511TMC3    O1 7601   0.757   4.456  14.752  0.5939 -0.2353  0.2942
  511TMC3    O2 7602   0.634   0.295  15.119 -0.2092  0.9817 -0.2603
  512TMC3    C1 7603   4.540   4.446  13.192 -0.3467  0.6974 -0.4571
  512TMC3    C2 7604   4.570   4.370  13.302  0.0535  0.1149  0.8617
  512TMC3    C3 7605   4.667   4.276  13.288  0.2090  0.0617 -0.0334
  512TMC3    C4 7606   4.600   4.444  13.066  0.6655  0.1575  0.6679
  512TMC3    C5 7607   4.690   4.336  13.054 -0.3994  0.3184  0.0831
  512TMC3    C6 7608   0.007   4.262  13.166  0.4058 -0.3864  0.0861
  512TMC3     C 7609   4.457   4.561  13.223  0.4626  0.2637  0.3195
  512TMC3     O 7610   4.383   4.561  13.316 -0.3791 -0.7270 -0.3604
  512TMC3     H 7611   4.517   4.398  13.392 -2.4537 -2.5737  0.1920
  512TMC3    H1 7612   4.573   4.506  12.982  0.6332 -1.1521 -0.2915
  512TMC3    H2 7613   0.075   4.180  13.147 -0.9028 -1.3620 -0.3650
  512TMC3    C7 7614   0.041   4.333  12.923 -0.1570  0.0326  0.3429
  512TMC3    C8 7615   0.030   4.226  13.394  0.5481  0.4966  0.1299
  512TMC3    O1 7616   0.017   4.428  12.844  0.5504 -0.2783  0.2574
  512TMC3    O2 7617   0.090   4.125  13.369 -0.3148  0.6435 -0.6076
  513MPD2     C 7618   2.072   4.033  12.926 -0.2140 -0.2117  0.3086
  513MPD2    C1 7619   2.166   4.126  12.918 -0.6352 -0.6746 -0.2763
  513MPD2    C2 7620   2.168   4.229  13.016  0.2727  0.5424 -0.0862
  513MPD2    C3 7621   2.081   4.236  13.118 -0.5787 -0.1649 -0.3567
  513MPD2    C4 7622   1.986   4.136  13.133  0.2189  0.3376 -0.2590
  513MPD2    C5 7623   1.993   4.034  13.039 -0.7882 -0.0462 -0.0484
  513MPD2     H 7624   2.234   4.314  13.005 -0.4875  0.9194 -1.7006
  513MPD2    H1 7625   1.914   4.126  13.214  1.9642  4.3281  1.7709
  513MPD2    H2 7626   2.055   3.954  12.853 -1.3526  1.8356 -1.6143
  513MPD2    H3 7627   1.930   3.948  13.057 -3.0495  1.7772  0.7216
  513MPD2     N 7628   2.080   4.355  13.200  0.2563 -0.2490 -0.7382
  513MPD2    H5 7629   2.151   4.424  13.178 -2.5879  1.7564 -3.4871
  513MPD2    N1 7630   2.270   4.125  12.823 -0.7709  0.3532  0.2981
  513MPD2    H7 7631   2.336   4.201  12.833  1.2815 -1.1868 -1.5484
  514TMC3    C1 7632   2.395   4.086  12.634 -0.2314 -0.2061  0.2891
  514TMC3    C2 7633   2.346   4.130  12.519 -0.0166 -0.2642 -0.5492
  514TMC3    C3 7634   2.398   4.251  12.475 -0.2278  0.0944  0.1792
  514TMC3    C4 7635   2.494   4.156  12.697  0.6288  0.0815  0.2592
  514TMC3    C5 7636   2.551   4.270  12.652 -0.3368  0.7178  0.7041
  514TMC3    C6 7637   2.497   4.319  12.538  0.9870 -0.0185  0.8403
  514TMC3     C 7638   2.292   4.035  12.725 -0.1221 -0.4010 -0.0927
  514TMC3     O 7639   2.220   3.945  12.685  0.1476 -0.0583  0.1720
  514TMC3     H 7640   2.266   4.079  12.466  0.5231 -0.1864 -1.4348
  514TMC3    H1 7641   2.526   4.127  12.796  2.5982  0.5779 -0.2164
  514TMC3    H2 7642   2.522   4.423  12.520 -1.2203  0.4176  0.3349
  514TMC3    C7 7643   2.521   4.369  12.761 -0.2534  0.3305  0.1591
  514TMC3    C8 7644   2.338   4.302  12.351 -0.4247  0.3462  0.9930
  514TMC3    O1 7645   2.401   4.376  12.789  0.3577 -0.4815  0.0928
  514TMC3    O2 7646   2.236   4.248  12.312  0.6184  0.6357  0.0802
  515MPD2     C 7647   0.196   1.456  15.478  0.0143  0.0582 -1.2510
  515MPD2    C1 7648   0.275   1.456  15.362  0.0205 -0.1024 -0.0051
  515MPD2    C2 7649   0.366   1.554  15.331  0.0211 -0.1828 -0.1662
  515MPD2    C3 7650   0.362   1.667  15.412  0.0299 -0.4657 -0.4505
  515MPD2    C4 7651   0.286   1.668  15.522  0.1143 -0.7249  0.6717
  515MPD2    C5 7652   0.202   1.566  15.562 -0.0641 -0.3782 -0.1348
  515MPD2     H 7653   0.431   1.556  15.244  2.0245  2.2173  1.3812
  515MPD2    H1 7654   0.282   1.763  15.574  0.5744 -0.1787 -0.2813
  515MPD2    H2 7655   0.128   1.378  15.509  3.4336 -1.7471  1.7239
  515MPD2    H3 7656   0.145   1.574  15.653  1.3966 -1.4027  0.8754
  515MPD2     N 7657   0.432   1.789  15.381  0.6249  0.1531 -0.5960
  515MPD2    H5 7658   0.429   1.864  15.450 -2.5264 -0.6802  0.1706
  515MPD2    N1 7659   0.271   1.342  15.278  0.1812 -0.2182  0.2103
  515MPD2    H7 7660   0.316   1.350  15.187 -0.3307 -0.4485 -0.0602
  516TMC3    C1 7661   0.192   1.139  15.184  0.0637 -0.3688  0.0723
  516TMC3    C2 7662   0.185   1.207  15.062  0.7987  0.4893  0.0278
  516TMC3    C3 7663   0.130   1.140  14.956  0.4540  0.0158 -0.3304
  516TMC3    C4 7664   0.144   1.013  15.197  0.4794 -0.1807  0.6571
  516TMC3    C5 7665   0.103   0.941  15.080 -0.3550 -0.2276 -0.2291
  516TMC3    C6 7666   0.091   1.006  14.961 -0.0882  0.6171  0.1878
  516TMC3     C 7667   0.213   1.219  15.303 -0.2559  0.2325  0.1376
  516TMC3     O 7668   0.186   1.164  15.413  0.4120 -0.5438 -0.2846
  516TMC3     H 7669   0.197   1.315  15.053  1.2629  0.4191 -0.2095
  516TMC3    H1 7670   0.151   0.963  15.293  0.1085 -0.6561  0.4359
  516TMC3    H2 7671   0.056   0.960  14.869  2.4231 -0.7964 -0.0842
  516TMC3    C7 7672   0.050   0.812  15.099  0.0674 -0.6029 -0.0849
  516TMC3    C8 7673   0.127   1.198  14.822  0.3296 -0.4008 -0.1603
  516TMC3    O1 7674   0.029   0.774  15.217  0.6193  0.9307  0.0655
  516TMC3    O2 7675   0.062   1.143  14.732 -0.4062 -0.3191 -0.7534
  517MPD2     C 7676   4.074   2.659   0.115 -0.1474  0.0773  0.6724
  517MPD2    C1 7677   4.192   2.685   0.181  0.5707  0.4435  0.6456
  517MPD2    C2 7678   4.199   2.783   0.277 -0.4263 -0.4469  0.8894
  517MPD2    C3 7679   4.085   2.858   0.302 -0.2169 -0.1639 -0.0458
  517MPD2    C4 7680   3.969   2.827   0.232  0.1940 -0.1394  0.1218
  517MPD2    C5 7681   3.965   2.726   0.142 -0.6920  0.0720  0.4755
  517MPD2     H 7682   4.287   2.785   0.340 -0.8462  0.0353  1.4621
  517MPD2    H1 7683   3.874   2.876   0.248 -0.1676 -1.1076  0.9011
  517MPD2    H2 7684   4.058   2.581   0.042 -0.7740  0.2324  0.6507
  517MPD2    H3 7685   3.874   2.699   0.090 -0.0807  1.0457 -1.0892
  517MPD2     N 7686   4.072   2.948   0.411 -0.2660 -0.3963  0.2740
  517MPD2    H5 7687   3.980   2.984   0.432 -1.7074 -2.9684 -1.6969
  517MPD2    N1 7688   4.317   2.613   0.165 -0.4983 -0.2362 -0.1592
  517MPD2    H7 7689   4.397   2.627   0.226  1.3216 -1.0801 -2.3183
  518TMC3    C1 7690   4.466   2.459   0.054  0.3589 -0.7067  0.3459
  518TMC3    C2 7691   4.485   2.339  17.661 -0.3554  0.0920 -0.2470
  518TMC3    C3 7692   4.610   2.300  17.634 -0.3678  0.1887  0.1155
  518TMC3    C4 7693   4.576   2.534   0.100 -0.3880  0.2696  0.3579
  518TMC3    C5 7694   4.700   2.489   0.071 -0.6510 -0.3842 -0.3854
  518TMC3    C6 7695   4.717   2.370   0.009  0.3271  0.0839  0.3842
  518TMC3     C 7696   4.331   2.516   0.067 -0.4299 -0.1118 -0.9008
  518TMC3     O 7697   4.254   2.490  17.650 -0.1123 -0.2685 -0.1732
  518TMC3     H 7698   4.401   2.288  17.615 -2.5618  2.7106  0.8937
  518TMC3    H1 7699   4.561   2.632   0.145  1.4782 -0.4376  2.5252
  518TMC3    H2 7700   0.087   2.326  17.640  0.2072 -0.4873  0.7069
  518TMC3    C7 7701   0.102   2.572   0.086 -0.5220  0.2128  0.1400
  518TMC3    C8 7702   4.627   2.179  17.557  0.6434  0.6052 -0.3437
  518TMC3    O1 7703   0.109   2.651   0.182 -0.1728 -0.5305  0.9408
  518TMC3    O2 7704   0.008   2.116  17.591  0.3563  0.3703  0.3003
  519MPD2     C 7705   1.427   1.567  14.053 -0.3089  0.4741 -0.0694
  519MPD2    C1 7706   1.304   1.515  14.015 -0.6410  0.4526  0.0019
  519MPD2    C2 7707   1.292   1.372  14.009 -0.1589  1.2115 -0.1717
  519MPD2    C3 7708   1.402   1.295  14.038 -0.0925  0.3963 -0.5829
  519MPD2    C4 7709   1.526   1.354  14.067  0.4430  0.1392 -0.6533
  519MPD2    C5 7710   1.532   1.488  14.078  0.0917  1.0076 -0.0035
  519MPD2     H 7711   1.194   1.329  13.991  0.9230 -1.3152  0.0288
  519MPD2    H1 7712   1.616   1.295  14.084  2.3631  2.6049 -2.2490
  519MPD2    H2 7713   1.445   1.674  14.055 -2.0248  0.7004  2.5786
  519MPD2    H3 7714   1.630   1.526  14.101  0.4406 -0.5406  1.0958
  519MPD2     N 7715   1.393   1.156  14.031 -0.6513  0.6245 -0.1258
  519MPD2    H5 7716   1.482   1.110  14.050 -1.7633 -2.0212 -1.3071
  519MPD2    N1 7717   1.197   1.596  13.983  1.1781 -0.6525 -1.4280
  519MPD2    H7 7718   1.228   1.693  13.974  1.8489 -0.7882 -0.6275
  520TMC3    C1 7719   1.341   0.948  13.953  0.1189  0.5928  1.4476
  520TMC3    C2 7720   1.281   0.866  13.854  0.2358 -0.8290  0.0594
  520TMC3    C3 7721   1.333   0.743  13.827  0.2720  0.3567 -0.1450
  520TMC3    C4 7722   1.454   0.906  14.018  0.1592 -0.0542 -1.2016
  520TMC3    C5 7723   1.487   0.774  13.989 -0.2967  0.6938 -0.5762
  520TMC3    C6 7724   1.433   0.691  13.904 -0.0578  0.1463 -0.0480
  520TMC3     C 7725   1.299   1.089  13.961 -0.4622  0.2115 -0.4551
  520TMC3     O 7726   1.190   1.118  13.911  0.0978 -0.3388 -0.0446
  520TMC3     H 7727   1.203   0.920  13.800  0.4174 -0.9282 -0.3001
  520TMC3    H1 7728   1.502   0.956  14.100  1.4316 -1.4180 -1.1176
  520TMC3    H2 7729   1.488   0.600  13.881  0.6557  1.1912 -2.5046
  520TMC3    C7 7730   1.617   0.732  14.029  0.6524 -0.9395  0.6608
  520TMC3    C8 7731   1.321   0.695  13.694  0.2662 -1.0135  0.7274
  520TMC3    O1 7732   1.636   0.614  14.059  0.1460  0.1140  0.2527
  520TMC3    O2 7733   1.404   0.616  13.652 -0.0404 -0.3944  0.1377
  521MPD2     C 7734   1.629   3.763  17.196 -0.4431 -0.1579 -0.4250
  521MPD2    C1 7735   1.603   3.727  17.062  0.1867 -0.2012 -0.8194
  521MPD2    C2 7736   1.715   3.706  16.976  0.8576 -0.2284  0.4633
  521MPD2    C3 7737   1.843   3.691  17.029  0.4170  0.0895 -0.3460
  521MPD2    C4 7738   1.862   3.721  17.163 -0.1683  0.0107 -1.0007
  521MPD2    C5 7739   1.761   3.750  17.243 -0.3388  0.4004 -0.2656
  521MPD2     H 7740   1.696   3.688  16.871  1.9708 -0.7095  0.3515
  521MPD2    H1 7741   1.955   3.710  17.218 -0.1782  2.6520 -0.4501
  521MPD2    H2 7742   1.548   3.789  17.264  0.9301  2.1754  0.3212
  521MPD2    H3 7743   1.778   3.765  17.349 -1.6627  1.7621 -0.2494
  521MPD2     N 7744   1.949   3.647  16.942 -0.3433  0.7906  0.9189
  521MPD2    H5 7745   1.929   3.645  16.842 -0.5040 -2.5866  1.0253
  521MPD2    N1 7746   1.473   3.712  17.019 -0.0289 -0.2928  0.1646
  521MPD2    H7 7747   1.406   3.764  17.074 -0.1463  0.2342 -0.4654
  522TMC3    C1 7748   2.168   3.590  16.864  0.1930  0.3946  1.3441
  522TMC3    C2 7749   2.278   3.515  16.878 -0.1577  0.0324  0.4798
  522TMC3    C3 7750   2.370   3.512  16.779 -0.5982  0.1201 -0.2367
  522TMC3    C4 7751   2.143   3.656  16.744  0.3418 -0.2537  0.2860
  522TMC3    C5 7752   2.247   3.655  16.648  0.5250  0.1896 -0.4393
  522TMC3    C6 7753   2.362   3.585  16.663 -0.7626 -0.1537  0.8672
  522TMC3     C 7754   2.076   3.604  16.978 -0.0614 -0.0870  0.2872
  522TMC3     O 7755   2.131   3.609  17.087 -0.1633 -0.2258 -0.1351
  522TMC3     H 7756   2.288   3.452  16.966  1.4660 -0.4431 -0.0525
  522TMC3    H1 7757   2.062   3.728  16.742 -0.2204 -0.9095 -0.7237
  522TMC3    H2 7758   2.437   3.581  16.585  0.7803  1.0666  2.2890
  522TMC3    C7 7759   2.226   3.702  16.513 -0.2921 -0.3566  0.6774
  522TMC3    C8 7760   2.464   3.401  16.789 -0.0285  0.0568  0.6480
  522TMC3    O1 7761   2.329   3.721  16.453  0.1796 -0.3220  0.1221
  522TMC3    O2 7762   2.474   3.343  16.897  0.1206 -0.2604 -0.5491
  523MPD2     C 7763   0.659   3.825  10.265  0.3347 -0.4839 -0.6852
  523MPD2    C1 7764   0.622   3.763  10.146 -0.3322  0.0186 -0.0278
  523MPD2    C2 7765   0.560   3.840  10.058  0.3864  0.1624  0.1534
  523MPD2    C3 7766   0.553   3.981  10.076  0.1047  0.3151  0.4898
  523MPD2    C4 7767   0.592   4.037  10.195 -0.4062  0.0030  0.1167
  523MPD2    C5 7768   0.641   3.961  10.293  0.1455  0.3314 -0.1342
  523MPD2     H 7769   0.521   3.794   9.968  0.9982 -2.1995  1.0953
  523MPD2    H1 7770   0.564   4.141  10.207 -2.2358 -0.5177  0.3676
  523MPD2    H2 7771   0.717   3.761  10.330  0.3630 -1.5949 -1.8038
  523MPD2    H3 7772   0.687   4.012  10.377  2.8334 -1.1294 -0.7326
  523MPD2     N 7773   0.486   4.070   9.991 -0.0868  0.5671  0.8257
  523MPD2    H5 7774   0.488   4.168  10.019 -2.3596  0.9507 -0.3602
  523MPD2    N1 7775   0.659   3.623  10.128  0.0914  0.3140  0.0743
  523MPD2    H7 7776   0.714   3.587  10.205 -0.1505  0.2841  0.2331
  524TMC3    C1 7777   0.359   4.137   9.803  0.0432  0.9247  0.2518
  524TMC3    C2 7778   0.305   4.110   9.685 -0.0250 -0.1375  0.0834
  524TMC3    C3 7779   0.230   4.208   9.633  0.1262  0.4526 -0.1002
  524TMC3    C4 7780   0.319   4.243   9.886  0.7331 -0.2490 -0.5482
  524TMC3    C5 7781   0.232   4.330   9.831  0.3827 -0.4176 -0.3321
  524TMC3    C6 7782   0.191   4.320   9.703 -0.4837  0.6523 -0.0446
  524TMC3     C 7783   0.427   4.031   9.871 -0.2235 -0.7684  0.3982
  524TMC3     O 7784   0.409   3.921   9.823 -0.5382 -0.7036 -0.3650
  524TMC3     H 7785   0.347   4.026   9.631 -2.4783  0.2453 -2.4517
  524TMC3    H1 7786   0.326   4.245   9.994 -3.2709 -0.3247 -0.3060
  524TMC3    H2 7787   0.120   4.394   9.669 -0.5360  0.1609 -0.9949
  524TMC3    C7 7788   0.167   4.433   9.913 -0.5852 -0.3173 -0.1731
  524TMC3    C8 7789   0.166   4.193   9.506 -0.7056 -0.0295  0.2603
  524TMC3    O1 7790   0.139   4.400  10.024 -0.1253 -0.1999 -0.3766
  524TMC3    O2 7791   0.105   4.297   9.474 -0.4932  0.0283 -0.0637
  525MPD2     C 7792   2.659   0.743  14.448 -0.2972  0.1806 -0.0850
  525MPD2    C1 7793   2.778   0.756  14.515 -0.2626  0.0573  0.0045
  525MPD2    C2 7794   2.848   0.868  14.502  0.0737 -0.6534 -0.7054
  525MPD2    C3 7795   2.798   0.985  14.434 -0.3734 -0.3661  0.3001
  525MPD2    C4 7796   2.679   0.978  14.373  0.4284 -0.2387  0.3848
  525MPD2    C5 7797   2.621   0.851  14.371  0.1608 -0.1060 -0.2322
  525MPD2     H 7798   2.939   0.878  14.559 -0.0680 -2.1707 -0.2271
  525MPD2    H1 7799   2.637   1.056  14.309  0.1360 -0.2372  0.5765
  525MPD2    H2 7800   2.600   0.652  14.452 -0.7648  0.5823  1.7194
  525MPD2    H3 7801   2.529   0.836  14.316 -0.9960  0.1297  1.6698
  525MPD2     N 7802   2.863   1.099  14.438 -0.2237 -0.5183  0.2084
  525MPD2    H5 7803   2.960   1.103  14.466 -0.1766 -2.5162  0.3355
  525MPD2    N1 7804   2.832   0.650  14.592 -0.2418  0.1974 -0.8167
  525MPD2    H7 7805   2.928   0.656  14.623 -0.1211 -0.6242 -1.0288
  526TMC3    C1 7806   2.834   0.436  14.704  0.6912  0.4782  0.3410
  526TMC3    C2 7807   2.773   0.347  14.783  0.2477 -0.3727  0.8953
  526TMC3    C3 7808   2.850   0.277  14.873  0.0287 -0.2982 -0.1999
  526TMC3    C4 7809   2.968   0.450  14.690 -0.5244 -0.4248 -0.1975
  526TMC3    C5 7810   3.042   0.372  14.777  0.6191  0.6727  0.6333
  526TMC3    C6 7811   2.986   0.294  14.866  0.5502  0.5297 -0.0921
  526TMC3     C 7812   2.757   0.543  14.644  0.3036  0.0613  0.1398
  526TMC3     O 7813   2.637   0.518  14.644 -0.3312 -0.2463  0.0648
  526TMC3     H 7814   2.665   0.345  14.790  0.0678 -0.4664 -1.8731
  526TMC3    H1 7815   3.006   0.477  14.592 -1.1955  0.5305 -0.2005
  526TMC3    H2 7816   3.048   0.232  14.929 -1.0639  1.4880  2.4363
  526TMC3    C7 7817   3.181   0.337  14.742  0.3338 -0.4196  0.0075
  526TMC3    C8 7818   2.796   0.266  15.006  0.3040  0.7631 -0.0638
  526TMC3    O1 7819   3.223   0.228  14.783 -0.3825 -0.4935 -0.3851
  526TMC3    O2 7820   2.865   0.275  15.109 -0.2175  0.1164 -0.4214
  527MPD2     C 7821   0.701   3.425   1.772  0.4836 -0.5147  0.0222
  527MPD2    C1 7822   0.810   3.351   1.812 -0.3816  0.0145 -0.0028
  527MPD2    C2 7823   0.911   3.333   1.725  0.4290  0.1330 -0.1984
  527MPD2    C3 7824   0.893   3.365   1.589  0.0825 -0.4602  0.0193
  527MPD2    C4 7825   0.775   3.423   1.549  0.0944 -0.8665  0.0182
  527MPD2    C5 7826   0.678   3.453   1.636 -0.2110 -0.8806 -0.1064
  527MPD2     H 7827   1.001   3.281   1.757 -0.5651 -2.5481 -1.7038
  527MPD2    H1 7828   0.754   3.450   1.446  0.2441 -3.8320 -0.8033
  527MPD2    H2 7829   0.620   3.454   1.838  0.0125  0.3717 -0.9440
  527MPD2    H3 7830   0.593   3.513   1.607  0.2815  0.4787  1.2287
  527MPD2     N 7831   0.999   3.335   1.495 -0.0415  0.1068 -0.3785
  527MPD2    H5 7832   1.078   3.276   1.521 -1.4558 -0.9064  1.5783
  527MPD2    N1 7833   0.821   3.304   1.947 -0.4765  0.7313  0.6774
  527MPD2    H7 7834   0.906   3.250   1.961 -0.2824  0.6750 -0.7200
  528TMC3    C1 7835   0.789   3.239   2.162  0.9766 -0.6878 -0.2385
  528TMC3    C2 7836   0.924   3.205   2.168  0.2137 -0.3558 -0.5382
  528TMC3    C3 7837   0.971   3.104   2.245 -0.4438  0.2153  0.4092
  528TMC3    C4 7838   0.692   3.170   2.228 -0.1068 -0.0914 -0.3445
  528TMC3    C5 7839   0.738   3.062   2.297  0.0832  0.0994 -0.2472
  528TMC3    C6 7840   0.871   3.030   2.305 -0.0634  0.8448  0.4287
  528TMC3     C 7841   0.741   3.313   2.053  0.2277  0.4047 -0.4736
  528TMC3     O 7842   0.635   3.367   2.062  0.2649 -0.2439  0.6403
  528TMC3     H 7843   0.996   3.253   2.104 -1.5689  0.9154 -1.6074
  528TMC3    H1 7844   0.586   3.187   2.214 -0.2933 -2.6448 -2.2072
  528TMC3    H2 7845   0.888   2.953   2.380  3.1299  0.1214 -1.0187
  528TMC3    C7 7846   0.651   2.986   2.386 -0.5676 -0.3280 -0.1892
  528TMC3    C8 7847   1.106   3.061   2.241  0.6665  0.1460  0.5783
  528TMC3    O1 7848   0.689   2.875   2.424  0.6987  0.2726  0.1126
  528TMC3    O2 7849   1.191   3.141   2.199  0.4903 -0.7989 -0.4680
  529MPD2     C 7850   4.237   1.390   1.341  0.0916  0.5750 -0.1595
  529MPD2    C1 7851   4.103   1.381   1.349 -0.2836  0.2811  0.4157
  529MPD2    C2 7852   4.026   1.396   1.237 -0.5248  0.5519 -0.6357
  529MPD2    C3 7853   4.097   1.417   1.120 -0.5136 -0.3997 -0.4629
  529MPD2    C4 7854   4.229   1.415   1.115  0.1113 -0.4233 -0.2097
  529MPD2    C5 7855   4.305   1.408   1.221  0.0275 -0.1006  0.1411
  529MPD2     H 7856   3.917   1.395   1.244 -0.3599 -0.3765  1.7163
  529MPD2    H1 7857   4.282   1.426   1.021 -1.1181 -1.6663 -1.0311
  529MPD2    H2 7858   4.296   1.381   1.431 -1.3648 -1.5597  0.5656
  529MPD2    H3 7859   4.413   1.403   1.218  0.1295  1.2215  1.8110
  529MPD2     N 7860   4.035   1.416   0.988 -0.5958 -0.1344 -0.7786
  529MPD2    H5 7861   4.101   1.416   0.911 -0.6352  0.2423 -0.8142
  529MPD2    N1 7862   4.030   1.369   1.469  0.2419 -0.5836  0.6539
  529MPD2    H7 7863   3.929   1.376   1.474  0.1023 -3.3831  1.8268
  530TMC3    C1 7864   3.989   1.370   1.705 -0.1501 -0.4903 -0.3994
  530TMC3    C2 7865   4.023   1.307   1.822  0.0600  0.6721  0.9859
  530TMC3    C3 7866   3.947   1.326   1.936  0.0023  0.0535  1.0993
  530TMC3    C4 7867   3.877   1.446   1.691  0.1193 -0.3016 -0.3645
  530TMC3    C5 7868   3.808   1.472   1.801  0.1999  0.1380 -0.3068
  530TMC3    C6 7869   3.837   1.407   1.917  0.1734  0.1476 -0.2438
  530TMC3     C 7870   4.083   1.345   1.593  0.1601  0.3082  0.1671
  530TMC3     O 7871   4.197   1.310   1.627 -0.0258  0.3496  0.3461
  530TMC3     H 7872   4.118   1.254   1.828 -0.5157 -0.3693  0.8848
  530TMC3    H1 7873   3.844   1.484   1.595 -1.6023  1.8969  1.0702
  530TMC3    H2 7874   3.784   1.434   2.008  2.4764  0.7042  0.9547
  530TMC3    C7 7875   3.667   1.514   1.782 -0.2167 -0.6906 -0.3866
  530TMC3    C8 7876   4.000   1.332   2.072  0.1718 -0.0450 -0.1537
  530TMC3    O1 7877   3.648   1.580   1.681 -0.1191 -0.2558 -0.1251
  530TMC3    O2 7878   3.935   1.385   2.162  0.6200  0.4022 -0.6378
  531MPD2     C 7879   2.648   0.008  13.121  0.4511 -0.4475 -0.4906
  531MPD2    C1 7880   2.528   4.660  13.102  0.0275  0.7294 -0.3741
  531MPD2    C2 7881   2.515   4.563  13.001 -0.0632  0.0527  0.5064
  531MPD2    C3 7882   2.628   4.533  12.917 -0.0012  0.0230 -0.0254
  531MPD2    C4 7883   2.741   4.607  12.933  0.2826  0.2136  0.4452
  531MPD2    C5 7884   2.758   4.696  13.039 -0.7790  0.7226 -0.3770
  531MPD2     H 7885   2.423   4.510  12.979 -0.3620  1.4419 -1.5653
  531MPD2    H1 7886   2.821   4.582  12.864 -0.2102  1.7566 -0.6868
  531MPD2    H2 7887   2.655   0.086  13.196  4.2278 -1.7174  0.5150
  531MPD2    H3 7888   2.849   0.033  13.059 -1.6321  1.6313  1.0062
  531MPD2     N 7889   2.632   4.434  12.817  0.2872  0.2810 -0.1867
  531MPD2    H5 7890   2.717   4.424  12.763 -0.2366  0.4252 -1.0353
  531MPD2    N1 7891   2.421   4.684  13.194 -0.3432  0.8826 -0.2427
  531MPD2    H7 7892   2.439   0.034  13.266  1.4340 -1.3172  1.4174
  532TMC3    C1 7893   2.221   4.630  13.303 -0.0817 -0.5523 -0.8420
  532TMC3    C2 7894   2.091   4.593  13.281  0.1241  0.1751  0.4024
  532TMC3    C3 7895   2.023   4.515  13.364 -0.2502  0.0583  0.6734
  532TMC3    C4 7896   2.282   4.601  13.422 -0.4186  0.8161 -0.0590
  532TMC3    C5 7897   2.208   4.533  13.508  0.1238 -0.3040 -0.1097
  532TMC3    C6 7898   2.078   4.494  13.485  0.6763  0.1044  0.3321
  532TMC3     C 7899   2.306   4.614  13.187 -0.2516 -0.1035 -0.3089
  532TMC3     O 7900   2.259   4.532  13.108  0.2956  0.3975 -0.1867
  532TMC3     H 7901   2.044   4.614  13.185  0.2379 -0.2333  0.2602
  532TMC3    H1 7902   2.387   4.625  13.436 -0.2244 -2.3253  3.8539
  532TMC3    H2 7903   2.020   4.432  13.554 -0.9721 -0.8961 -1.9545
  532TMC3    C7 7904   2.243   4.518  13.643  0.2056  0.0135  0.0952
  532TMC3    C8 7905   1.994   4.382  13.302  0.4535 -0.7209 -0.1518
  532TMC3    O1 7906   2.156   4.538  13.724  0.0837  0.0560  0.0604
  532TMC3    O2 7907   1.914   4.312  13.363 -0.5505  0.2053  0.6323
  533TMC3    C1 7908   2.881   1.320  14.469  0.2079 -0.1890  0.5488
  533TMC3    C2 7909   3.006   1.331  14.433 -0.1301  0.1853 -0.0499
  533TMC3    C3 7910   3.103   1.384  14.515 -0.0120  0.1778  0.7979
  533TMC3    C4 7911   2.851   1.343  14.603  0.4666  0.0811  0.8212
  533TMC3    C5 7912   2.947   1.394  14.686  0.1357  0.4836 -0.1382
  533TMC3    C6 7913   3.073   1.408  14.644 -0.0720  0.2137  0.3625
  533TMC3     C 7914   2.799   1.218  14.419 -0.3804 -0.4259  0.2074
  533TMC3     O 7915   2.685   1.253  14.402 -0.3358  0.4828  0.0574
  533TMC3     H 7916   3.025   1.301  14.331  0.3089 -2.5198  0.8149
  533TMC3    H1 7917   2.753   1.324  14.647 -1.0617  2.7159 -1.3971
  533TMC3    H2 7918   3.154   1.452  14.702  0.4620  0.2474 -0.4162
  533TMC3    C7 7919   2.932   1.317  14.808  0.5373 -0.3913  0.7022
  533TMC3    C8 7920   3.233   1.400  14.470  0.7616 -0.9209 -0.4904
  533TMC3    O1 7921   2.890   1.201  14.800 -0.2438 -0.6311 -0.2601
  533TMC3    O2 7922   3.320   1.383  14.557  0.1878  0.9118 -0.0275
  534MPD2     C 7923   1.294   2.039   1.954  0.3917  0.0176 -0.5376
  534MPD2    C1 7924   1.194   2.132   1.941 -0.2609 -1.0456 -0.7131
  534MPD2    C2 7925   1.074   2.094   1.885  0.6744  0.3353 -0.8718
  534MPD2    C3 7926   1.032   1.963   1.871  0.6035 -0.5772 -0.2095
  534MPD2    C4 7927   1.133   1.868   1.892  0.4508 -0.1673 -0.0348
  534MPD2    C5 7928   1.256   1.910   1.938 -0.9855  0.4089  0.4221
  534MPD2     H 7929   1.003   2.173   1.866  3.8634  3.7090  1.1743
  534MPD2    H1 7930   1.104   1.764   1.898 -2.0496  0.5366 -0.2009
  534MPD2    H2 7931   1.395   2.063   1.986  0.1259 -0.0636  0.3570
  534MPD2    H3 7932   1.329   1.831   1.951 -1.4287  0.0213  0.5195
  534MPD2     N 7933   0.899   1.932   1.829  0.4218  0.0186  0.0365
  534MPD2    H5 7934   0.877   1.837   1.799 -0.2632  0.5457 -1.1500
  534MPD2    N1 7935   1.216   2.269   1.970  0.1370 -1.0593 -0.7622
  534MPD2    H7 7936   1.141   2.332   1.942 -0.2115 -1.0587  0.1700
  535TMC3    C1 7937   0.674   1.984   1.770  0.1032  0.0392 -0.3618
  535TMC3    C2 7938   0.556   2.008   1.823  0.0861 -0.0756 -0.2559
  535TMC3    C3 7939   0.444   1.998   1.747  0.3062 -0.0563 -0.1233
  535TMC3    C4 7940   0.682   1.954   1.635  0.4685  0.3298 -0.4894
  535TMC3    C5 7941   0.568   1.952   1.559  0.6389  0.5504  0.0345
  535TMC3    C6 7942   0.449   1.982   1.612 -0.7449 -0.0358 -0.1646
  535TMC3     C 7943   0.795   2.024   1.838  0.0060 -0.5431 -0.5023
  535TMC3     O 7944   0.779   2.120   1.918 -0.0841  0.3212 -0.0939
  535TMC3     H 7945   0.545   1.999   1.931 -0.7412  1.0320 -0.2514
  535TMC3    H1 7946   0.781   1.966   1.593 -0.3752  0.3091 -2.5238
  535TMC3    H2 7947   0.355   1.974   1.558 -1.2524  1.1483  0.5373
  535TMC3    C7 7948   0.584   1.976   1.422  0.0200  0.0012 -0.4903
  535TMC3    C8 7949   0.320   1.972   1.817  0.3656  0.0122 -0.3020
  535TMC3    O1 7950   0.698   1.956   1.379  0.2597 -1.2760  0.5642
  535TMC3    O2 7951   0.237   1.913   1.747  0.1501  0.6020 -0.2428
  536MPD2     C 7952   4.269   4.662  16.905 -0.0927  0.2555  0.7140
  536MPD2    C1 7953   4.285   0.083  16.927 -0.4153 -0.3450 -0.6323
  536MPD2    C2 7954   4.221   0.174  16.842  0.5617 -0.6559  0.2180
  536MPD2    C3 7955   4.172   0.127  16.724 -0.4523  0.5728 -0.2441
  536MPD2    C4 7956   4.162   4.706  16.704  0.3911  0.6568  0.7455
  536MPD2    C5 7957   4.211   4.615  16.796  0.3367 -0.4460 -0.4071
  536MPD2     H 7958   4.234   0.279  16.868  1.1192 -1.3864  2.8168
  536MPD2    H1 7959   4.127   4.657  16.614  0.9071  0.8681  0.4304
  536MPD2    H2 7960   4.314   4.584  16.966 -2.7139 -1.2786  0.6927
  536MPD2    H3 7961   4.225   4.511  16.767 -0.5791 -0.2178 -1.6684
  536MPD2     N 7962   4.139   0.221  16.624  0.0435 -0.0949  0.4175
  536MPD2    H5 7963   4.098   0.181  16.540  0.0356 -0.0432  0.3967
  536MPD2    N1 7964   4.338   0.116  17.055 -0.6233 -0.4436 -0.1861
  536MPD2    H7 7965   4.372   0.037  17.109 -1.3578 -0.3268  0.4407
  537TMC3    C1 7966   4.398   0.254  17.235  0.3363  0.2940 -0.0255
  537TMC3    C2 7967   4.424   0.376  17.282 -0.5217  0.2329 -0.2147
  537TMC3    C3 7968   4.498   0.397  17.395 -0.3928 -0.4469  0.1174
  537TMC3    C4 7969   4.421   0.144  17.319 -0.4335 -0.5506  1.1178
  537TMC3    C5 7970   4.479   0.171  17.438 -0.0588  0.1797 -0.7614
  537TMC3    C6 7971   4.542   0.293  17.467 -0.0120  0.7828 -0.0094
  537TMC3     C 7972   4.348   0.239  17.106 -0.5238  0.3996 -0.5774
  537TMC3     O 7973   4.313   0.345  17.054  0.0590  0.8483  0.4496
  537TMC3     H 7974   4.401   0.463  17.221  0.8867  0.8328  0.1171
  537TMC3    H1 7975   4.386   0.043  17.300  0.4913 -0.4464 -1.1478
  537TMC3    H2 7976   4.598   0.297  17.559 -1.6899 -1.3389  1.0983
  537TMC3    C7 7977   4.543   0.057  17.504  0.0787 -0.0305 -0.5742
  537TMC3    C8 7978   4.581   0.511  17.392  0.1178  0.5054  0.5857
  537TMC3    O1 7979   4.659   0.071  17.534  0.3153 -0.1439 -0.1190
  537TMC3    O2 7980   4.700   0.484  17.428  0.2364  0.1358 -0.1530
  538TMC3    C1 7981   1.156   3.628  10.927 -0.7313  0.1317  0.4480
  538TMC3    C2 7982   1.248   3.534  10.881 -0.2739  0.1369 -0.7657
  538TMC3    C3 7983   1.258   3.523  10.746 -0.1530 -0.0122 -0.3653
  538TMC3    C4 7984   1.073   3.705  10.842  0.4477  0.4951  0.0962
  538TMC3    C5 7985   1.081   3.672  10.706  0.2246  0.1103 -0.0193
  538TMC3    C6 7986   1.170   3.579  10.657 -0.1303 -0.1237  0.4777
  538TMC3     C 7987   1.108   3.621  11.067  0.0248  0.4121 -0.2677
  538TMC3     O 7988   1.005   3.682  11.087 -0.0911 -0.3976  0.3708
  538TMC3     H 7989   1.305   3.473  10.950  1.4881  1.6497 -0.8888
  538TMC3    H1 7990   0.999   3.773  10.883  0.3725 -0.6146  1.7704
  538TMC3    H2 7991   1.170   3.562  10.550 -1.0977  0.5663  0.3684
  538TMC3    C7 7992   0.976   3.727  10.628 -0.2613 -0.2226 -0.1291
  538TMC3    C8 7993   1.353   3.427  10.707 -0.1590  0.0841 -0.8971
  538TMC3    O1 7994   0.908   3.649  10.557  0.5971 -0.2139 -0.4796
  538TMC3    O2 7995   1.376   3.329  10.776 -0.3123  0.4421  1.1774
  539MPD2     C 7996   0.552   2.739  11.805 -0.1168  0.0918  0.2271
  539MPD2    C1 7997   0.611   2.801  11.707  0.1618 -0.1209 -0.0825
  539MPD2    C2 7998   0.584   2.938  11.690 -0.3116 -0.1992 -0.3862
  539MPD2    C3 7999   0.484   2.992  11.769  0.3636  0.3439 -0.2885
  539MPD2    C4 8000   0.425   2.924  11.870  0.2026  0.4281 -0.3107
  539MPD2    C5 8001   0.459   2.798  11.889  0.2657 -0.1059 -0.3567
  539MPD2     H 8002   0.611   2.986  11.596 -0.1749  0.7882  0.1685
  539MPD2    H1 8003   0.346   2.966  11.931 -1.5996 -0.2625 -2.1678
  539MPD2    H2 8004   0.565   2.633  11.818  2.5998  0.4743  0.6825
  539MPD2    H3 8005   0.415   2.734  11.965 -0.1502 -0.3323 -0.7889
  539MPD2     N 8006   0.434   3.122  11.757 -0.0907  0.0027 -0.5194
  539MPD2    H5 8007   0.352   3.137  11.815 -0.2910 -1.4750 -0.4158
  539MPD2    N1 8008   0.704   2.739  11.622  0.2645 -0.1518  0.3274
  539MPD2    H7 8009   0.737   2.798  11.547  2.7334  1.1818  2.4467
  540TMC3    C1 8010   0.385   3.329  11.654 -0.2309 -0.5199 -0.0052
  540TMC3    C2 8011   0.382   3.399  11.532  0.3479 -0.1377 -0.2456
  540TMC3    C3 8012   0.351   3.536  11.539  0.1160  0.1084 -0.2011
  540TMC3    C4 8013   0.352   3.391  11.770 -0.1039 -0.3926  0.0535
  540TMC3    C5 8014   0.321   3.531  11.774  0.4735 -1.2973  0.1378
  540TMC3    C6 8015   0.326   3.602  11.660  0.9006  0.1628 -0.1686
  540TMC3     C 8016   0.472   3.212  11.663 -0.1619  0.8601  0.3468
  540TMC3     O 8017   0.571   3.219  11.595  0.0297  0.2187 -0.2624
  540TMC3     H 8018   0.412   3.344  11.444 -0.2970 -0.6801 -0.1295
  540TMC3    H1 8019   0.379   3.340  11.862 -2.7418  0.4502  1.2865
  540TMC3    H2 8020   0.302   3.708  11.652 -0.5656 -0.0133  2.0541
  540TMC3    C7 8021   0.233   3.579  11.873 -0.0352  0.3199  0.5575
  540TMC3    C8 8022   0.393   3.623  11.426  0.1830  0.1438 -0.5856
  540TMC3    O1 8023   0.182   3.689  11.846 -0.2955 -0.3534 -0.4180
  540TMC3    O2 8024   0.446   3.727  11.454 -0.1648 -0.1710 -0.3248
  541MPD2     C 8025   3.840   0.154  12.991  0.8362  0.5605 -0.1582
  541MPD2    C1 8026   3.749   0.087  12.916 -0.0756 -0.4042  0.2655
  541MPD2    C2 8027   3.716   0.135  12.793  0.1296 -0.1643 -0.3190
  541MPD2    C3 8028   3.781   0.242  12.739 -1.0247 -0.2767  0.7739
  541MPD2    C4 8029   3.881   0.307  12.816 -0.3310 -0.0615 -0.2095
  541MPD2    C5 8030   3.908   0.266  12.946  0.7214 -0.5215  0.1152
  541MPD2     H 8031   3.632   0.095  12.737  0.7023  1.4511 -2.3243
  541MPD2    H1 8032   3.940   0.390  12.780  2.0761 -1.2631  0.9379
  541MPD2    H2 8033   3.855   0.124  13.093 -1.0434 -0.1918 -0.1072
  541MPD2    H3 8034   3.977   0.317  13.012  0.5210  1.2977 -1.0795
  541MPD2     N 8035   3.750   0.289  12.603 -0.4856  0.0565  0.4657
  541MPD2    H5 8036   3.800   0.367  12.563  0.3392  0.0333  1.4638
  541MPD2    N1 8037   3.679   4.705  12.984 -0.4368 -0.9440 -0.0340
  541MPD2    H7 8038   3.687   4.711  13.085 -1.7251 -0.4098  0.0360
  542TMC3    C1 8039   3.666   0.247  12.389 -0.6333  0.9115  0.2940
  542TMC3    C2 8040   3.795   0.246  12.335  0.1200  1.1276 -0.2471
  542TMC3    C3 8041   3.806   0.231  12.197  0.0567  0.2680 -0.3939
  542TMC3    C4 8042   3.555   0.222  12.312 -0.4785 -0.1846 -0.0340
  542TMC3    C5 8043   3.569   0.213  12.179  0.7158  0.0994  0.2687
  542TMC3    C6 8044   3.694   0.217  12.119 -0.7876  0.3583  0.0411
  542TMC3     C 8045   3.649   0.228  12.531 -1.2327  0.1735 -0.0744
  542TMC3     O 8046   3.537   0.183  12.563  0.0503  0.1749  0.3110
  542TMC3     H 8047   3.881   0.271  12.395  1.1015 -1.8177 -0.4375
  542TMC3    H1 8048   3.457   0.208  12.355  0.6396  0.1687  2.5783
  542TMC3    H2 8049   3.711   0.216  12.012  0.4933 -1.0827  0.2550
  542TMC3    C7 8050   3.451   0.201  12.092  0.3949  0.6747  0.0109
  542TMC3    C8 8051   3.940   0.208  12.137  0.8307 -0.7079  0.2837
  542TMC3    O1 8052   3.345   0.246  12.132 -0.1553 -0.2188  0.5101
  542TMC3    O2 8053   3.937   0.218  12.015 -0.0030 -0.5365 -0.0972
  543TMC3    C1 8054   2.685   0.740  17.098  0.7192  0.6192 -0.6249
  543TMC3    C2 8055   2.724   0.614  17.149  0.3761  0.4162  0.1632
  543TMC3    C3 8056   2.625   0.525  17.161  0.0921 -1.0850  0.1044
  543TMC3    C4 8057   2.556   0.760  17.047 -0.3162  0.1136  0.7440
  543TMC3    C5 8058   2.467   0.659  17.052  0.0083  0.5243  0.5652
  543TMC3    C6 8059   2.500   0.546  17.120 -0.3102 -0.0850  0.2141
  543TMC3     C 8060   2.789   0.844  17.080  0.7627 -1.3424 -0.3319
  543TMC3     O 8061   2.888   0.833  17.152 -0.2060  0.2284 -0.0531
  543TMC3     H 8062   2.827   0.596  17.179 -0.2393 -0.0329  1.9755
  543TMC3    H1 8063   2.516   0.853  17.009 -0.8664 -0.6255 -0.4639
  543TMC3    H2 8064   2.435   0.460  17.112 -0.8062  0.2131  1.0656
  543TMC3    C7 8065   2.330   0.674  17.020  0.0924 -0.1751 -0.1611
  543TMC3    C8 8066   2.664   0.396  17.231  0.0408  0.3415 -0.1942
  543TMC3    O1 8067   2.258   0.584  17.059 -0.0417  0.1433 -0.5846
  543TMC3    O2 8068   2.783   0.372  17.215  0.5812 -0.2083  0.1394
  544MPD2     C 8069   2.559   4.604  17.253  0.4961 -0.9570  0.1657
  544MPD2    C1 8070   2.679   4.668  17.241 -0.7467  0.6206 -0.0344
  544MPD2    C2 8071   2.682   0.089  17.252 -0.2518  0.1927 -0.6509
  544MPD2    C3 8072   2.565   0.162  17.275  0.0955 -0.3770 -0.2186
  544MPD2    C4 8073   2.449   0.092  17.285  0.4379  0.3252 -0.3081
  544MPD2    C5 8074   2.446   4.678  17.274 -0.2290 -0.3288  0.9187
  544MPD2     H 8075   2.777   0.140  17.238 -0.6062  0.9547 -0.2835
  544MPD2    H1 8076   2.356   0.143  17.306 -0.7362 -1.0541 -2.0727
  544MPD2    H2 8077   2.549   4.497  17.241 -2.9104 -0.7844  1.4288
  544MPD2    H3 8078   2.351   4.628  17.270  0.9361 -2.6251  1.8505
  544MPD2     N 8079   2.562   0.303  17.270  0.3684  0.3685 -0.9465
  544MPD2    H5 8080   2.470   0.340  17.294  0.6861 -0.3631  1.4409
  544MPD2    N1 8081   2.789   4.576  17.226  0.7259 -0.0216  0.2564
  544MPD2    H7 8082   2.769   4.482  17.193 -0.7724  0.1119  0.8146
  545TMC3    C1 8083   3.013   4.511  17.197  0.1248  0.0723 -0.2017
  545TMC3    C2 8084   3.125   4.548  17.149  0.3636  0.2221  0.1750
  545TMC3    C3 8085   3.223   4.457  17.134 -0.5366 -0.3276  0.1168
  545TMC3    C4 8086   2.995   4.381  17.247  0.3652 -0.1550  0.3216
  545TMC3    C5 8087   3.097   4.290  17.226 -0.4900 -0.3893  0.3402
  545TMC3    C6 8088   3.214   4.324  17.174 -0.3717 -0.7812  1.0100
  545TMC3     C 8089   2.916   4.616  17.227 -1.1129 -0.7003 -0.1994
  545TMC3     O 8090   2.959   0.005  17.262 -0.3427  0.1511 -0.3227
  545TMC3     H 8091   3.151   4.652  17.129 -0.5954  0.8993  2.5035
  545TMC3    H1 8092   2.901   4.360  17.297 -0.6504 -0.7814 -1.8493
  545TMC3    H2 8093   3.302   4.261  17.173 -0.6188 -1.1478  4.0654
  545TMC3    C7 8094   3.109   4.187  17.320 -0.3067  0.1522  0.6042
  545TMC3    C8 8095   3.328   4.486  17.044 -0.1158 -0.3002  0.6590
  545TMC3    O1 8096   3.174   4.097  17.275  0.5713  0.4593 -0.2285
  545TMC3    O2 8097   3.369   4.399  16.968  0.0262  0.5644 -0.2291
  546MPD2     C 8098   0.053   0.803  17.567 -0.3269 -0.3828  0.4578
  546MPD2    C1 8099   4.669   0.892  17.535 -0.6334  0.3438 -0.8684
  546MPD2    C2 8100   4.707   0.999  17.459  0.2754 -0.0263 -0.1770
  546MPD2    C3 8101   0.118   1.041  17.437  0.2208 -0.1587  1.0897
  546MPD2    C4 8102   0.216   0.961  17.491  0.5368 -0.1371  0.2823
  546MPD2    C5 8103   0.185   0.836  17.540 -0.1774  0.5588  0.8913
  546MPD2     H 8104   4.631   1.072  17.434 -0.6715 -0.4894  1.3671
  546MPD2    H1 8105   0.322   0.981  17.480  0.9260 -1.4443  1.6856
  546MPD2    H2 8106   0.031   0.698  17.585  0.5743 -0.9340 -1.6469
  546MPD2    H3 8107   0.268   0.780  17.581  0.0011  0.4896  0.4351
  546MPD2     N 8108   0.152   1.149  17.356  0.2012  0.3510  0.4025
  546MPD2    H5 8109   0.246   1.186  17.367  0.1843  0.0823  1.5011
  546MPD2    N1 8110   4.533   0.851  17.558 -0.0732 -0.2474  0.0440
  546MPD2    H7 8111   4.519   0.774  17.623 -0.9504 -0.8486 -0.8614
  547TMC3    C1 8112   4.300   0.892  17.578 -0.1047 -0.3261 -0.0330
  547TMC3    C2 8113   4.191   0.927  17.508 -0.1900  0.3084 -0.0426
  547TMC3    C3 8114   4.067   0.896  17.559  0.0963  0.3853 -0.1800
  547TMC3    C4 8115   4.289   0.825   0.019 -0.8962  0.5849  0.1161
  547TMC3    C5 8116   4.165   0.795   0.068 -0.4149  0.5140  0.1178
  547TMC3    C6 8117   4.052   0.818   0.001 -0.8438  0.8715 -0.7926
  547TMC3     C 8118   4.430   0.924  17.515 -0.6577  0.0900 -0.2579
  547TMC3     O 8119   4.418   0.990  17.411  0.0303  0.2139 -0.7118
  547TMC3     H 8120   4.192   1.007  17.435  1.2579 -1.4559 -1.9544
  547TMC3    H1 8121   4.378   0.824   0.080 -1.5501  0.7171  1.0736
  547TMC3    H2 8122   3.956   0.780   0.033 -0.4785 -0.3679 -1.1754
  547TMC3    C7 8123   4.146   0.718   0.192  0.0651 -0.0135  0.4791
  547TMC3    C8 8124   3.951   0.966  17.506  0.0575  0.2666  0.5962
  547TMC3    O1 8125   4.035   0.710   0.239 -0.0645 -0.0961 -0.0439
  547TMC3    O2 8126   3.973   1.031  17.404  0.4067 -0.3625  0.2388
  548MPD2     C 8127   0.077   1.983  11.776  0.6568  0.1762 -0.0244
  548MPD2    C1 8128   0.069   1.940  11.910  0.1610  0.0038 -0.7906
  548MPD2    C2 8129   0.186   1.920  11.980 -0.2215  0.5214 -0.4413
  548MPD2    C3 8130   0.309   1.927  11.913  0.3630 -0.0074  0.2713
  548MPD2    C4 8131   0.311   1.970  11.781  0.2150 -0.2983 -0.0945
  548MPD2    C5 8132   0.193   2.008  11.715 -0.1113 -0.0398  0.2964
  548MPD2     H 8133   0.191   1.880  12.081  1.9554 -1.0884 -1.1611
  548MPD2    H1 8134   0.402   1.997  11.728 -0.4290  1.3643 -0.3549
  548MPD2    H2 8135   4.701   1.991  11.722  1.4370 -0.8633 -1.5351
  548MPD2    H3 8136   0.192   2.033  11.610  1.3107 -2.3347 -0.2854
  548MPD2     N 8137   0.426   1.898  11.997  0.0527  0.1226  0.3025
  548MPD2    H5 8138   0.405   1.895  12.096 -0.3098  3.1258  0.3453
  548MPD2    N1 8139   4.660   1.903  11.963 -0.2696 -0.6541 -0.0289
  548MPD2    H7 8140   4.590   1.876  11.895 -0.8402 -1.3021  0.8163
  549TMC3    C1 8141   4.506   1.836  12.131  0.2151  0.0264 -0.0999
  549TMC3    C2 8142   4.410   1.834  12.035  0.0478 -0.2014  0.2833
  549TMC3    C3 8143   4.289   1.786  12.065  0.0416 -0.8539 -0.3956
  549TMC3    C4 8144   4.498   1.771  12.245  0.0855 -0.2840 -0.1122
  549TMC3    C5 8145   4.370   1.715  12.265 -0.1509 -0.3096  0.1442
  549TMC3    C6 8146   4.262   1.724  12.180 -0.0251  1.2388  0.4333
  549TMC3     C 8147   4.636   1.898  12.098  0.3089 -0.0524  0.2983
  549TMC3     O 8148   4.708   1.929  12.193 -0.1518 -0.6897 -1.1186
  549TMC3     H 8149   4.428   1.899  11.950  1.8047 -0.3215  0.5568
  549TMC3    H1 8150   4.581   1.771  12.314  0.0112 -2.6135 -0.0156
  549TMC3    H2 8151   4.161   1.692  12.205  0.5696 -1.5559 -0.7891
  549TMC3    C7 8152   4.357   1.641  12.385 -0.2243 -0.1674  0.2341
  549TMC3    C8 8153   4.175   1.866  12.026 -0.0137 -0.3922 -0.7299
  549TMC3    O1 8154   4.420   1.681  12.479  0.1702 -0.3585 -0.0794
  549TMC3    O2 8155   4.120   1.827  11.924  0.6027  0.6715  0.2680
  550TMC3    C1 8156   3.306   4.173  12.279  0.1384  0.6333 -0.2077
  550TMC3    C2 8157   3.251   4.222  12.395 -0.0406  0.5412 -0.1740
  550TMC3    C3 8158   3.287   4.346  12.435 -0.1365 -0.1752  0.3941
  550TMC3    C4 8159   3.393   4.247  12.199  0.1574 -0.8913  0.5720
  550TMC3    C5 8160   3.415   4.374  12.239  0.1429  0.4022 -0.3386
  550TMC3    C6 8161   3.369   4.420  12.357  0.8022 -0.0664 -0.3147
  550TMC3     C 8162   3.212   4.087  12.206 -0.5432  0.5738  0.5471
  550TMC3     O 8163   3.101   4.080  12.253  0.1771 -0.0317  0.2842
  550TMC3     H 8164   3.192   4.156  12.458 -0.2700  0.4564 -0.4773
  550TMC3    H1 8165   3.433   4.202  12.109 -0.2201 -0.5480  0.2353
  550TMC3    H2 8166   3.374   4.527  12.378  1.8324  0.0612 -1.2325
  550TMC3    C7 8167   3.376   4.466  12.135 -0.1125  0.6918 -0.1171
  550TMC3    C8 8168   3.202   4.413  12.535 -1.0063 -0.3486 -0.2486
  550TMC3    O1 8169   3.282   4.537  12.160 -0.4764  0.4807  0.0217
  550TMC3    O2 8170   3.098   4.365  12.571 -0.0432 -0.1356 -0.2198
  551TMC3    C1 8171   0.673   2.301  13.173  0.1586  0.2635 -0.4502
  551TMC3    C2 8172   0.795   2.320  13.116  0.4076 -0.0204 -0.2499
  551TMC3    C3 8173   0.858   2.438  13.139  0.5272 -0.2246  0.1869
  551TMC3    C4 8174   0.612   2.395  13.259  0.6423  0.7515 -0.0593
  551TMC3    C5 8175   0.681   2.509  13.286 -0.1949  0.1238 -0.0153
  551TMC3    C6 8176   0.803   2.531  13.221 -0.2422 -1.2179  0.0026
  551TMC3     C 8177   0.595   2.193  13.113 -0.2262 -0.4539  0.5238
  551TMC3     O 8178   0.648   2.125  13.022  0.0379 -0.4363 -0.5390
  551TMC3     H 8179   0.839   2.239  13.057  0.3117  0.0511 -0.4205
  551TMC3    H1 8180   0.512   2.384  13.297  0.4144  0.9276 -0.6101
  551TMC3    H2 8181   0.856   2.621  13.252 -0.2036 -1.3203  0.2308
  551TMC3    C7 8182   0.647   2.573  13.409  0.4139  0.4176  0.3261
  551TMC3    C8 8183   1.001   2.451  13.103 -0.3450  0.0472 -0.8377
  551TMC3    O1 8184   0.564   2.522  13.484 -0.2949  0.5739 -0.0805
  551TMC3    O2 8185   1.068   2.352  13.081  0.4200 -0.0700 -0.8318
  552MPD2     C 8186   2.148   4.226  14.174 -0.3974 -0.4591 -0.4283
  552MPD2    C1 8187   2.248   4.145  14.117 -0.0837 -0.7539  0.0015
  552MPD2    C2 8188   2.362   4.108  14.180 -0.1796 -0.6705 -0.7676
  552MPD2    C3 8189   2.383   4.152  14.311 -0.5614 -1.4854  0.4637
  552MPD2    C4 8190   2.297   4.252  14.363  0.3695  0.1419  0.0750
  552MPD2    C5 8191   2.175   4.279  14.301 -0.7639  0.2795  0.2260
  552MPD2     H 8192   2.436   4.047  14.131 -0.6989 -1.1954 -0.8944
  552MPD2    H1 8193   2.318   4.298  14.459 -1.4670 -1.4368  1.2189
  552MPD2    H2 8194   2.058   4.244  14.117 -2.2252 -1.1984  2.2819
  552MPD2    H3 8195   2.101   4.348  14.338 -0.2508  0.4745  0.8774
  552MPD2     N 8196   2.484   4.095  14.391  0.0096 -0.6933 -0.0933
  552MPD2    H5 8197   2.540   4.019  14.353  1.2160  0.5001 -0.7123
  552MPD2    N1 8198   2.240   4.095  13.986  0.1952  0.8665  0.4110
  552MPD2    H7 8199   2.314   4.033  13.954 -0.1138  0.0455  1.3272
  553TMC3    C1 8200   2.187   4.071  13.764 -0.3799  0.7687  0.4411
  553TMC3    C2 8201   2.164   4.137  13.647 -0.2323 -0.4801 -0.1064
  553TMC3    C3 8202   2.200   4.073  13.534  0.3823  0.0801 -0.4670
  553TMC3    C4 8203   2.244   3.947  13.767 -0.7921 -0.8456  0.4070
  553TMC3    C5 8204   2.303   3.898  13.657 -0.6023 -0.4004 -0.4877
  553TMC3    C6 8205   2.268   3.949  13.532 -0.2696 -0.4412 -0.1489
  553TMC3     C 8206   2.161   4.141  13.889 -0.1480  0.1496  0.0053
  553TMC3     O 8207   2.098   4.243  13.902 -0.7908  0.3164  0.0922
  553TMC3     H 8208   2.131   4.240  13.638  0.2643 -0.2471  0.7665
  553TMC3    H1 8209   2.271   3.901  13.861  0.0292 -1.2068 -0.0059
  553TMC3    H2 8210   2.314   3.907  13.443  1.2526 -2.0976  1.4116
  553TMC3    C7 8211   2.402   3.797  13.667 -0.0862  0.0655 -0.1844
  553TMC3    C8 8212   2.281   4.168  13.442 -0.3950 -0.2416  0.4238
  553TMC3    O1 8213   2.373   3.687  13.615 -0.2131 -0.1845 -0.3114
  553TMC3    O2 8214   2.330   4.253  13.515  0.2437 -0.2551 -0.2424
  554TMC3    C1 8215   4.180   3.234  11.401 -0.3878  0.1968  0.1063
  554TMC3    C2 8216   4.097   3.226  11.293 -0.0400 -0.2707 -0.9242
  554TMC3    C3 8217   4.066   3.348  11.226 -0.9228  0.1967  0.0001
  554TMC3    C4 8218   4.239   3.347  11.443  0.4011  0.4833 -0.2804
  554TMC3    C5 8219   4.218   3.462  11.374  0.0251 -0.2427  0.8017
  554TMC3    C6 8220   4.116   3.463  11.275  0.1351 -0.1809 -0.9267
  554TMC3     C 8221   4.228   3.111  11.463 -0.0636  0.2755 -0.1474
  554TMC3     O 8222   4.327   3.117  11.532 -0.3788 -0.0736  0.1943
  554TMC3     H 8223   4.092   3.135  11.234 -1.3521  0.2489 -1.5964
  554TMC3    H1 8224   4.301   3.340  11.532 -0.6668  1.2310  0.5242
  554TMC3    H2 8225   4.087   3.552  11.221  0.8317 -0.3717 -1.6235
  554TMC3    C7 8226   4.333   3.531  11.311  0.4882 -0.2025  0.2118
  554TMC3    C8 8227   4.012   3.342  11.088 -0.0508 -0.5086  0.6126
  554TMC3    O1 8228   4.316   3.554  11.192  0.4985 -0.3486  0.4608
  554TMC3    O2 8229   4.043   3.437  11.020  0.7957 -0.5028  0.2073
  555TMC3    C1 8230   3.375   2.366  15.062  0.2461 -0.0367 -0.7066
  555TMC3    C2 8231   3.346   2.480  15.145  0.1697  0.2104  0.1501
  555TMC3    C3 8232   3.304   2.454  15.273 -0.1708 -0.5209 -0.5332
  555TMC3    C4 8233   3.380   2.237  15.121  0.7471 -0.4944 -0.4878
  555TMC3    C5 8234   3.335   2.225  15.250 -0.3322 -0.0958 -0.7073
  555TMC3    C6 8235   3.306   2.332  15.333  0.6983 -0.2537 -0.5962
  555TMC3     C 8236   3.430   2.393  14.929 -0.3433  0.4231  0.8611
  555TMC3     O 8237   3.495   2.302  14.883 -0.5574 -0.6139 -0.1937
  555TMC3     H 8238   3.342   2.584  15.115 -1.1798 -0.5248 -2.3049
  555TMC3    H1 8239   3.392   2.151  15.057  1.9205 -3.6399  3.9056
  555TMC3    H2 8240   3.264   2.306  15.429  0.1440 -1.3378 -1.1289
  555TMC3    C7 8241   3.350   2.090  15.313  0.6343 -0.7464  0.0781
  555TMC3    C8 8242   3.276   2.569  15.354  0.3338  0.0290 -0.5486
  555TMC3    O1 8243   3.283   2.062  15.415  0.1079  0.4780 -0.2919
  555TMC3    O2 8244   3.256   2.671  15.297  0.4789  0.1168 -0.2509
  556MPD2     C 8245   2.125   4.393  10.598  0.2755  0.3890 -0.2185
  556MPD2    C1 8246   2.117   4.273  10.662  0.5221 -0.1037 -0.0279
  556MPD2    C2 8247   2.086   4.161  10.587  0.5532  0.2017  0.7321
  556MPD2    C3 8248   2.065   4.164  10.451 -0.3804 -0.4709 -0.0767
  556MPD2    C4 8249   2.062   4.285  10.390 -0.1891 -0.2325  0.3592
  556MPD2    C5 8250   2.092   4.400  10.461  0.3017  0.2411 -0.3512
  556MPD2     H 8251   2.086   4.065  10.636 -1.6241  0.6011  1.5395
  556MPD2    H1 8252   2.029   4.287  10.286  0.8903 -1.2052 -0.0037
  556MPD2    H2 8253   2.164   4.483  10.644 -0.8486  0.7315  0.0728
  556MPD2    H3 8254   2.107   4.491  10.404  1.3715 -0.2325 -0.8339
  556MPD2     N 8255   2.048   4.045  10.384  0.6404  0.3415 -0.0741
  556MPD2    H5 8256   2.045   3.956  10.432  0.2770  0.4647  0.1348
  556MPD2    N1 8257   2.135   4.256  10.803 -0.3224  0.3309  0.4484
  556MPD2    H7 8258   2.156   4.161  10.835 -2.5020 -0.3462 -0.1744
  557TMC3    C1 8259   2.046   3.898  10.209  0.2451  0.4355 -0.1380
  557TMC3    C2 8260   2.131   3.854  10.117  0.4360 -0.4654 -0.5120
  557TMC3    C3 8261   2.113   3.721  10.081 -0.4409  0.4420  0.7214
  557TMC3    C4 8262   1.944   3.819  10.254 -0.6624  0.3857  0.1816
  557TMC3    C5 8263   1.935   3.689  10.221  0.0938 -0.1269 -0.0478
  557TMC3    C6 8264   2.022   3.634  10.136 -0.2275 -1.4406 -0.2847
  557TMC3     C 8265   2.043   4.032  10.247 -0.0190 -0.3755  0.4882
  557TMC3     O 8266   2.098   4.112  10.167  0.1277 -0.3137  0.1124
  557TMC3     H 8267   2.210   3.922  10.087 -0.8020 -0.3048 -3.3659
  557TMC3    H1 8268   1.884   3.862  10.334  0.8096  1.4442  0.7259
  557TMC3    H2 8269   2.018   3.535  10.093  0.6536  0.0696 -3.8485
  557TMC3    C7 8270   1.813   3.622  10.267  0.2865  0.0070  0.3917
  557TMC3    C8 8271   2.195   3.685   9.963 -0.1126 -0.0671  0.1278
  557TMC3    O1 8272   1.716   3.699  10.278 -0.2472 -0.3414 -0.0912
  557TMC3    O2 8273   2.219   3.777   9.889  0.0252  0.5445 -0.3416
  558TMC3    C1 8274   4.523   2.233   9.815 -0.8404 -0.2318 -1.5343
  558TMC3    C2 8275   4.421   2.166   9.877  0.0374 -0.1663  0.1153
  558TMC3    C3 8276   4.299   2.186   9.813  0.7135  0.4726 -0.3413
  558TMC3    C4 8277   4.514   2.313   9.706 -0.1663 -0.1253  0.1553
  558TMC3    C5 8278   4.392   2.334   9.653  0.4220 -0.2851 -0.3021
  558TMC3    C6 8279   4.280   2.274   9.708 -0.1176 -0.4548 -0.0324
  558TMC3     C 8280   4.654   2.233   9.864 -0.0478 -0.7328 -0.1808
  558TMC3     O 8281   0.000   2.327   9.817  0.7489  0.1041  0.5898
  558TMC3     H 8282   4.431   2.096   9.959  3.8381  0.5922  0.2674
  558TMC3    H1 8283   4.592   2.357   9.646  0.6194 -1.5746  0.1294
  558TMC3    H2 8284   4.179   2.304   9.681 -0.1094 -1.3400 -1.0698
  558TMC3    C7 8285   4.397   2.393   9.518  0.1814 -0.2716  0.2127
  558TMC3    C8 8286   4.182   2.104   9.846 -0.1373 -0.1118  1.0639
  558TMC3    O1 8287   4.477   2.476   9.487 -0.2993  0.4704 -0.0874
  558TMC3    O2 8288   4.082   2.113   9.772 -0.3965 -0.3161 -0.4397
  559MPD2     C 8289   4.074   2.948  10.347 -0.2124 -0.5479  0.0969
  559MPD2    C1 8290   4.012   2.858  10.430  0.3503  0.0564  0.7495
  559MPD2    C2 8291   4.078   2.805  10.536 -0.1719 -0.1594  0.1882
  559MPD2    C3 8292   4.203   2.856  10.571  0.0176 -0.1308 -0.0140
  559MPD2    C4 8293   4.254   2.964  10.498 -0.7828 -0.0813  0.4106
  559MPD2    C5 8294   4.184   3.017  10.390  0.0381 -0.0515  0.0811
  559MPD2     H 8295   4.030   2.732  10.600  0.1547 -0.1326  0.4672
  559MPD2    H1 8296   4.348   3.011  10.526 -0.6833 -0.8710  1.3989
  559MPD2    H2 8297   4.021   2.988  10.261  0.9379 -1.4602 -1.0325
  559MPD2    H3 8298   4.228   3.088  10.321  1.8192 -0.9998  0.2580
  559MPD2     N 8299   4.263   2.805  10.690  0.2138  0.0176 -0.5549
  559MPD2    H5 8300   4.212   2.724  10.723  0.4092  0.2123  0.2248
  559MPD2    N1 8301   3.877   2.826  10.396  0.8332  0.0944  0.1924
  559MPD2    H7 8302   3.835   2.876  10.318 -0.5976  0.3377  1.1284
  560TMC3    C1 8303   4.431   2.760  10.844  0.4024 -0.2955  0.3176
  560TMC3    C2 8304   4.403   2.629  10.828  0.1128  0.1104 -0.4399
  560TMC3    C3 8305   4.461   2.536  10.908  0.8485  0.2626  0.5865
  560TMC3    C4 8306   4.536   2.797  10.930  0.1160 -0.1530  0.0013
  560TMC3    C5 8307   4.585   2.697  11.009 -0.2045 -0.3800  0.0529
  560TMC3    C6 8308   4.554   2.569  11.004  0.1148 -0.7691 -0.1567
  560TMC3     C 8309   4.386   2.852  10.743  0.2754 -0.2606  0.1093
  560TMC3     O 8310   4.463   2.942  10.715 -0.0464 -0.0927  0.1336
  560TMC3     H 8311   4.354   2.585  10.742 -0.0342  0.0316 -0.3163
  560TMC3    H1 8312   4.551   2.903  10.946 -0.3563 -0.1020  0.1053
  560TMC3    H2 8313   4.570   2.495  11.082  0.2271  0.2843  0.8079
  560TMC3    C7 8314   4.682   2.730  11.106 -0.2722 -0.2271  0.0550
  560TMC3    C8 8315   4.411   2.405  10.902 -0.0323  0.3197 -0.3577
  560TMC3    O1 8316   4.718   2.634  11.172  0.7713  0.0182  0.2571
  560TMC3    O2 8317   4.295   2.377  10.877 -0.0762  0.0627  0.1225
  561TMC3    C1 8318   1.900   1.505  10.947 -0.7322  0.0828 -0.0557
  561TMC3    C2 8319   1.809   1.438  11.022  0.3922  0.2521 -0.2676
  561TMC3    C3 8320   1.804   1.467  11.151  0.8676  0.6829  0.2057
  561TMC3    C4 8321   1.995   1.590  11.004  0.4825 -0.3481  0.1806
  561TMC3    C5 8322   1.984   1.612  11.141 -0.7799  0.0098 -0.1867
  561TMC3    C6 8323   1.886   1.554  11.212  0.2304 -0.1767  0.0400
  561TMC3     C 8324   1.923   1.459  10.810  0.2003 -0.0406 -0.6782
  561TMC3     O 8325   1.820   1.414  10.761 -0.1447 -0.2116  0.6766
  561TMC3     H 8326   1.757   1.351  10.984 -1.1265  2.6615 -3.7043
  561TMC3    H1 8327   2.087   1.609  10.950  0.2935  1.7277  0.6009
  561TMC3    H2 8328   1.866   1.595  11.311 -4.4783 -1.6030 -0.3252
  561TMC3    C7 8329   2.064   1.713  11.197  0.7481 -0.6739 -0.3284
  561TMC3    C8 8330   1.699   1.397  11.227  0.3204 -0.6398  0.1920
  561TMC3    O1 8331   2.052   1.724  11.315 -0.3931 -0.3656 -0.1852
  561TMC3    O2 8332   1.655   1.289  11.182 -0.4902 -0.2531  0.0560
  562TMC3    C1 8333   2.807   2.659  15.785  0.3490 -0.4878  0.5086
  562TMC3    C2 8334   2.757   2.691  15.660 -0.0025  0.0439  0.0949
  562TMC3    C3 8335   2.764   2.606  15.549  0.3796 -0.2682  0.2729
  562TMC3    C4 8336   2.860   2.538  15.793 -0.4031 -0.7389 -0.9049
  562TMC3    C5 8337   2.878   2.452  15.686  0.1495  0.4410  0.3528
  562TMC3    C6 8338   2.826   2.485  15.557 -0.3736  0.0790 -0.8736
  562TMC3     C 8339   2.778   2.744  15.896 -0.4938 -0.8741 -0.7086
  562TMC3     O 8340   2.710   2.842  15.877  0.2751  0.3597 -0.0399
  562TMC3     H 8341   2.690   2.774  15.646 -0.8772 -0.9574 -1.6775
  562TMC3    H1 8342   2.891   2.503  15.891  0.3969 -0.1053 -0.9358
  562TMC3    H2 8343   2.833   2.414  15.475 -0.4066  0.1488 -0.9368
  562TMC3    C7 8344   2.995   2.364  15.687 -0.3542  0.7491  0.0233
  562TMC3    C8 8345   2.670   2.632  15.450 -0.6354 -0.2948  0.2511
  562TMC3    O1 8346   3.046   2.338  15.576  0.3078  0.1445 -1.3117
  562TMC3    O2 8347   2.657   2.748  15.424 -0.3318 -0.2252  0.5524
  563MPD2     C 8348   0.049   3.799  15.630  0.9784 -0.1977 -0.5970
  563MPD2    C1 8349   0.054   3.825  15.766 -0.2083  0.5419  0.4145
  563MPD2    C2 8350   0.131   3.926  15.813 -0.4623 -0.2841 -0.1266
  563MPD2    C3 8351   0.206   4.003  15.727  0.4217  0.2389  0.2253
  563MPD2    C4 8352   0.217   3.970  15.594 -0.0835 -0.3882 -0.4128
  563MPD2    C5 8353   0.137   3.870  15.546 -0.0323  0.3514  0.4667
  563MPD2     H 8354   0.123   3.960  15.915  0.8030  2.4232 -0.9406
  563MPD2    H1 8355   0.269   4.031  15.521 -2.4503  0.6159 -1.2633
  563MPD2    H2 8356   4.700   3.726  15.587  0.6168  0.0717 -0.4885
  563MPD2    H3 8357   0.130   3.853  15.439 -0.8563 -0.5797  0.6656
  563MPD2     N 8358   0.290   4.101  15.789 -0.0572 -0.3693  0.3169
  563MPD2    H5 8359   0.294   4.106  15.890  0.1044 -1.4712  0.3689
  563MPD2    N1 8360   4.698   3.740  15.853 -0.6123 -0.5377  0.1949
  563MPD2    H7 8361   4.657   3.661  15.805  0.2611 -0.4222 -0.7444
  564TMC3    C1 8362   4.640   3.651  16.061 -0.3338 -0.9005  0.1735
  564TMC3    C2 8363   4.547   3.563  16.012  0.3580  0.2189  0.3517
  564TMC3    C3 8364   4.478   3.486  16.097 -0.0801  0.4368 -0.1529
  564TMC3    C4 8365   4.692   3.651  16.185  0.2322  0.0746  0.1053
  564TMC3    C5 8366   4.649   3.547  16.265 -0.2822  0.3262 -0.1346
  564TMC3    C6 8367   4.533   3.484  16.226  0.8530  0.4241  0.1271
  564TMC3     C 8368   4.678   3.769  15.992 -0.1423  0.3065 -1.0029
  564TMC3     O 8369   4.687   3.878  16.053  0.4413  0.2168 -0.3484
  564TMC3     H 8370   4.507   3.590  15.915 -1.2477  1.2323  1.2885
  564TMC3    H1 8371   0.065   3.705  16.206  1.2883 -1.3829 -0.7733
  564TMC3    H2 8372   4.495   3.422  16.306 -1.2601  0.8913 -0.5338
  564TMC3    C7 8373   0.038   3.469  16.321 -0.6170 -0.3833  0.2983
  564TMC3    C8 8374   4.455   3.352  16.052  0.6997 -0.1457  0.8627
  564TMC3    O1 8375   0.144   3.527  16.354 -0.2921 -0.0925  0.0880
  564TMC3    O2 8376   4.409   3.281  16.142 -0.0991  0.1270 -0.0220
  565TMC3    C1 8377   1.890   0.535  10.261  0.0199 -0.1353 -0.6617
  565TMC3    C2 8378   1.826   0.450  10.345  0.1695 -0.3050  0.1091
  565TMC3    C3 8379   1.693   0.430  10.329 -0.3296 -0.0080  0.5499
  565TMC3    C4 8380   1.813   0.608  10.170  0.5598 -0.1370 -0.2904
  565TMC3    C5 8381   1.681   0.586  10.160 -0.4243 -0.3880  0.2822
  565TMC3    C6 8382   1.622   0.483  10.225 -0.2006 -0.7979 -0.0219
  565TMC3     C 8383   2.036   0.560  10.279 -0.2826 -0.0188  0.4992
  565TMC3     O 8384   2.073   0.539  10.399 -0.4479 -0.1890 -1.4131
  565TMC3     H 8385   1.882   0.396  10.421  2.6906  2.5506  0.3035
  565TMC3    H1 8386   1.862   0.689  10.118 -1.5964  3.4903  3.3769
  565TMC3    H2 8387   1.514   0.470  10.221 -0.2884  0.3815 -1.5284
  565TMC3    C7 8388   1.602   0.640  10.053  0.3319 -0.0585  0.0165
  565TMC3    C8 8389   1.628   0.353  10.433 -0.0307  0.4600  0.1092
  565TMC3    O1 8390   1.478   0.633  10.061 -0.0625  0.1509 -0.4112
  565TMC3    O2 8391   1.700   0.329  10.529 -0.6419  0.1220 -0.2369
  566MPD2     C 8392   2.540   2.612  14.406  0.6420  0.2272 -0.5693
  566MPD2    C1 8393   2.621   2.532  14.336 -0.6336 -0.3698 -0.4186
  566MPD2    C2 8394   2.587   2.501  14.203 -0.6326  0.2171  0.1884
  566MPD2    C3 8395   2.477   2.554  14.131  0.3342 -0.1838 -0.3176
  566MPD2    C4 8396   2.398   2.637  14.208  0.2072  0.7317 -0.1777
  566MPD2    C5 8397   2.430   2.666  14.337  0.1389  0.3274  0.9418
  566MPD2     H 8398   2.650   2.438  14.140  0.4346  0.6674  0.8163
  566MPD2    H1 8399   2.311   2.672  14.153  0.0780 -0.6450 -0.8544
  566MPD2    H2 8400   2.552   2.637  14.511  3.2200 -0.7738 -0.6104
  566MPD2    H3 8401   2.369   2.737  14.390 -0.6215 -0.3694  0.9988
  566MPD2     N 8402   2.443   2.526  13.998 -0.1310  0.1608 -0.8619
  566MPD2    H5 8403   2.374   2.583  13.950  0.7293  2.5437  0.7535
  566MPD2    N1 8404   2.747   2.487  14.387  0.1416 -0.0340 -0.2778
  566MPD2    H7 8405   2.807   2.439  14.321  0.8900  2.0377 -1.1038
  567TMC3    C1 8406   2.942   2.476  14.511  0.1272 -0.6830  0.5010
  567TMC3    C2 8407   3.016   2.519  14.409 -0.3044  0.0934  0.2116
  567TMC3    C3 8408   3.144   2.470  14.406 -0.4762  0.1209 -0.0225
  567TMC3    C4 8409   2.985   2.409  14.619  0.1307 -0.1944 -1.3174
  567TMC3    C5 8410   3.107   2.351  14.608 -0.2571  0.1426  0.6043
  567TMC3    C6 8411   3.188   2.381  14.502  0.2364  1.1130 -0.0235
  567TMC3     C 8412   2.801   2.515  14.508 -0.0126 -0.7791 -0.2025
  567TMC3     O 8413   2.748   2.549  14.613  0.0609 -0.1048 -0.4330
  567TMC3     H 8414   2.980   2.593  14.339 -1.7391  0.5300  1.4287
  567TMC3    H1 8415   2.914   2.405  14.702 -0.5311  1.0512 -1.8096
  567TMC3    H2 8416   3.289   2.342  14.498 -0.1043 -0.0784  2.6623
  567TMC3    C7 8417   3.132   2.217  14.673 -0.6572 -0.3322 -0.0577
  567TMC3    C8 8418   3.221   2.523  14.299  0.3549  0.6975  0.0575
  567TMC3    O1 8419   3.241   2.167  14.660  0.0434  0.1160  0.1082
  567TMC3    O2 8420   3.208   2.642  14.263 -0.3020 -0.1164 -0.1980
  568MPD2     C 8421   0.672   2.654  16.599  0.4546 -1.2592  0.8563
  568MPD2    C1 8422   0.571   2.722  16.669 -0.0460  0.5705  0.5231
  568MPD2    C2 8423   0.447   2.745  16.601 -0.2380  0.7480 -0.5369
  568MPD2    C3 8424   0.421   2.695  16.473  0.1609  0.4694 -0.9010
  568MPD2    C4 8425   0.522   2.616  16.415 -0.5191  0.2067  0.3535
  568MPD2    C5 8426   0.641   2.593  16.479  0.0682  0.1343 -0.0347
  568MPD2     H 8427   0.374   2.810  16.648  0.4975  0.4461  1.0219
  568MPD2    H1 8428   0.505   2.561  16.323  0.8342  0.5230 -0.0757
  568MPD2    H2 8429   0.770   2.644  16.643  1.3530 -0.7920 -1.0544
  568MPD2    H3 8430   0.712   2.527  16.431 -1.3219  0.3156 -2.3158
  568MPD2     N 8431   0.287   2.717  16.419 -0.3959 -0.2191  0.4797
  568MPD2    H5 8432   0.217   2.752  16.483  0.7057  2.1976  0.3899
  568MPD2    N1 8433   0.602   2.769  16.800  0.1740 -0.4087  0.0925
  568MPD2    H7 8434   0.695   2.750  16.834  0.5255 -1.5902 -1.5210
  569TMC3    C1 8435   0.098   2.688  16.273 -0.0745 -0.1077  0.5613
  569TMC3    C2 8436   0.010   2.724  16.369 -0.4573  0.4343  0.3072
  569TMC3    C3 8437   4.595   2.732  16.347  0.1380 -0.3467 -0.4397
  569TMC3    C4 8438   0.056   2.647  16.152 -0.3574  0.0352 -0.4214
  569TMC3    C5 8439   4.642   2.657  16.127 -0.1217  0.1174  0.1220
  569TMC3    C6 8440   4.548   2.686  16.227 -0.3152 -0.4878  0.4977
  569TMC3     C 8441   0.242   2.671  16.297 -0.2407  0.1446  0.4542
  569TMC3     O 8442   0.313   2.639  16.200 -0.5848  0.8140  0.0982
  569TMC3     H 8443   0.045   2.726  16.472  0.2037  0.0264  0.0927
  569TMC3    H1 8444   0.122   2.653  16.066 -0.9862 -0.1691 -0.9236
  569TMC3    H2 8445   4.443   2.699  16.200 -1.2084  0.0171  4.1867
  569TMC3    C7 8446   4.615   2.723  15.997  0.2395 -0.4239  0.0754
  569TMC3    C8 8447   4.521   2.855  16.389 -0.7423  0.0329 -0.0695
  569TMC3    O1 8448   4.666   2.667  15.896 -0.2893 -0.4176 -0.1603
  569TMC3    O2 8449   4.465   2.904  16.290 -0.4513  0.3670  0.4475
  570TMC3    C1 8450   4.413   2.013  16.396  0.2908 -0.4321 -0.4619
  570TMC3    C2 8451   4.506   2.015  16.300 -0.5613  0.3982 -0.7517
  570TMC3    C3 8452   4.554   2.137  16.273 -0.0482  0.1399  0.3635
  570TMC3    C4 8453   4.344   2.126  16.443  0.2009 -0.3208 -0.4803
  570TMC3    C5 8454   4.387   2.248  16.394  0.3613 -0.2146 -0.0965
  570TMC3    C6 8455   4.499   2.256  16.317  0.1081  0.3441 -0.2017
  570TMC3     C 8456   4.377   1.877  16.436 -0.2295  0.2073 -0.3659
  570TMC3     O 8457   4.403   1.783  16.362  0.4055 -0.7737 -0.4010
  570TMC3     H 8458   4.553   1.927  16.257 -0.7635 -0.0892  0.0337
  570TMC3    H1 8459   4.258   2.119  16.508 -0.2168  0.9963 -0.8936
  570TMC3    H2 8460   4.532   2.353  16.283 -0.3741  0.2753 -0.8662
  570TMC3    C7 8461   4.315   2.373  16.418  0.5700 -0.7078  0.0067
  570TMC3    C8 8462   4.676   2.147  16.190  0.4087 -0.2150  0.2663
  570TMC3    O1 8463   4.390   2.471  16.435  0.3242 -0.0350  0.5722
  570TMC3    O2 8464   0.000   2.259  16.173 -0.4081 -0.5291 -0.5882
  571MPD2     C 8465   2.108   3.865   0.836  0.6921 -0.1281 -0.5430
  571MPD2    C1 8466   2.222   3.791   0.866 -0.2595 -0.0470 -0.3903
  571MPD2    C2 8467   2.330   3.795   0.779 -0.2194  0.0888 -1.0732
  571MPD2    C3 8468   2.319   3.869   0.656 -0.1043  1.3124 -0.2713
  571MPD2    C4 8469   2.200   3.928   0.627 -0.8587  0.2321 -0.8934
  571MPD2    C5 8470   2.094   3.929   0.717 -0.0968  0.5223  0.1971
  571MPD2     H 8471   2.417   3.733   0.793 -0.4930 -0.0310  0.1245
  571MPD2    H1 8472   2.196   3.988   0.537  0.2708  2.2689  0.4152
  571MPD2    H2 8473   2.027   3.869   0.908  0.5871 -0.8068 -0.6263
  571MPD2    H3 8474   2.012   3.995   0.694 -0.3696  0.7711  1.8463
  571MPD2     N 8475   2.425   3.888   0.567  0.3317  0.4114  0.9718
  571MPD2    H5 8476   2.412   3.956   0.493  2.0840  1.1140  1.3056
  571MPD2    N1 8477   2.222   3.729   0.985 -0.4700 -0.0704 -0.7972
  571MPD2    H7 8478   2.144   3.735   1.051 -1.2141 -0.7525 -1.6209
  572TMC3    C1 8479   2.644   3.882   0.486  0.2245 -0.8351 -0.1630
  572TMC3    C2 8480   2.772   3.922   0.524  0.8737 -0.1488  0.0069
  572TMC3    C3 8481   2.837   4.023   0.460 -0.2163  0.3732 -0.0177
  572TMC3    C4 8482   2.586   3.940   0.376  0.6397 -0.5388  0.2830
  572TMC3    C5 8483   2.655   4.032   0.304  0.0987 -0.2179  0.0845
  572TMC3    C6 8484   2.778   4.079   0.348  0.1735 -0.5695 -0.5276
  572TMC3     C 8485   2.552   3.838   0.589 -0.0002  0.3635 -0.1830
  572TMC3     O 8486   2.599   3.773   0.680  0.2959 -0.4772 -0.5091
  572TMC3     H 8487   2.807   3.903   0.625 -0.3199 -0.7463  0.2996
  572TMC3    H1 8488   2.493   3.909   0.330  1.2790 -2.7093  0.4240
  572TMC3    H2 8489   2.831   4.153   0.289  0.9237 -0.6360  0.0620
  572TMC3    C7 8490   2.600   4.092   0.189  0.2555  0.4629  0.7042
  572TMC3    C8 8491   2.928   4.104   0.542  0.2352 -0.0919  0.2157
  572TMC3    O1 8492   2.480   4.100   0.174 -0.0442  0.1179  0.1151
  572TMC3    O2 8493   3.039   4.064   0.559 -0.1425 -0.5737  0.0718
  573MPD2     C 8494   2.480   0.084   0.717 -0.1703  0.3453 -0.2244
  573MPD2    C1 8495   2.595   0.094   0.790 -0.0328  0.7689 -0.1515
  573MPD2    C2 8496   2.705   0.012   0.756 -0.4950 -0.4423 -0.1311
  573MPD2    C3 8497   2.706   4.663   0.637 -0.5270  0.0121 -0.1280
  573MPD2    C4 8498   2.597   4.669   0.557  0.2023  0.3716  0.6123
  573MPD2    C5 8499   2.486   0.015   0.596  0.2854  0.1841  0.5299
  573MPD2     H 8500   2.787   0.002   0.826 -0.5333 -0.5979 -0.1095
  573MPD2    H1 8501   2.586   4.617   0.463 -2.1695  0.0955  1.0474
  573MPD2    H2 8502   2.399   0.148   0.750 -0.2237  1.1862 -1.9607
  573MPD2    H3 8503   2.393   0.013   0.540  0.5864 -0.0213  0.0347
  573MPD2     N 8504   2.819   4.587   0.592 -0.2355  0.4717  0.5579
  573MPD2    H5 8505   2.819   4.550   0.497  1.5086 -1.6818  1.4226
  573MPD2    N1 8506   2.595   0.191   0.893  0.2127  0.8739 -0.3744
  573MPD2    H7 8507   2.512   0.245   0.914  0.3288  1.5054 -1.4986
  574TMC3    C1 8508   3.046   4.519   0.582 -0.5786  0.1726 -0.2773
  574TMC3    C2 8509   3.024   4.442   0.473  0.2699 -0.4946 -0.4670
  574TMC3    C3 8510   3.132   4.372   0.420 -0.1845 -0.2923 -0.2843
  574TMC3    C4 8511   3.171   4.529   0.635  0.2098 -0.4567 -0.0716
  574TMC3    C5 8512   3.281   4.475   0.576 -0.8488 -0.5147  0.5599
  574TMC3    C6 8513   3.263   4.400   0.460  0.3665 -0.1847 -0.0565
  574TMC3     C 8514   2.936   4.576   0.661  0.0314  0.1904 -0.4633
  574TMC3     O 8515   2.957   4.607   0.778 -0.0072 -0.5869 -0.2102
  574TMC3     H 8516   2.927   4.428   0.427 -0.1821  0.3402  0.2369
  574TMC3    H1 8517   3.183   4.600   0.716 -0.8446 -0.8303  0.4057
  574TMC3    H2 8518   3.347   4.365   0.401 -0.5880  0.1393 -1.5940
  574TMC3    C7 8519   3.417   4.521   0.624 -0.3411 -0.7427 -0.1572
  574TMC3    C8 8520   3.114   4.329   0.281  0.2438  0.2051  0.2133
  574TMC3    O1 8521   3.420   4.571   0.736 -0.2263 -0.0799 -0.9625
  574TMC3    O2 8522   3.012   4.369   0.227 -0.5450  0.4156 -0.0122
  575TMC3    C1 8523   1.801   4.539  11.079  0.0098 -0.6821  0.4671
  575TMC3    C2 8524   1.812   4.407  11.045 -0.8600 -0.3361  0.0494
  575TMC3    C3 8525   1.767   4.370  10.921  0.6360  0.5083 -0.1741
  575TMC3    C4 8526   1.735   4.632  11.000 -0.2119 -0.0540  0.1321
  575TMC3    C5 8527   1.679   4.588  10.886  0.3150  0.0428 -0.6183
  575TMC3    C6 8528   1.693   4.464  10.843  0.0478  0.2646 -0.2291
  575TMC3     C 8529   1.847   4.568  11.213  0.1852  0.0206  0.1342
  575TMC3     O 8530   1.846   4.474  11.297  0.5694  0.6466 -0.5767
  575TMC3     H 8531   1.865   4.343  11.114 -1.0034  1.2666  1.6677
  575TMC3    H1 8532   1.703   0.010  11.040  2.1355  1.0018 -0.5744
  575TMC3    H2 8533   1.654   4.429  10.748  1.4957  0.7474 -1.0110
  575TMC3    C7 8534   1.611   4.696  10.801  0.3074 -0.0326 -0.7594
  575TMC3    C8 8535   1.781   4.231  10.888  0.1769 -0.9658 -0.4249
  575TMC3    O1 8536   1.665   0.088  10.810  0.1841 -0.0926  0.2481
  575TMC3    O2 8537   1.847   4.160  10.962 -0.2170 -0.0004  0.0810
  576MPD2     C 8538   1.291   1.763  12.586  0.7365 -0.0483 -0.1799
  576MPD2    C1 8539   1.327   1.873  12.508 -0.0688 -0.6943  0.9140
  576MPD2    C2 8540   1.270   1.997  12.538  0.4995  0.1996 -0.3218
  576MPD2    C3 8541   1.183   2.012  12.642 -0.3245  0.0151 -0.3457
  576MPD2    C4 8542   1.136   1.896  12.717  0.0726  0.3115  0.4511
  576MPD2    C5 8543   1.201   1.771  12.681 -0.1992  0.0645 -0.3200
  576MPD2     H 8544   1.302   2.081  12.476  0.3293  0.5649  0.0895
  576MPD2    H1 8545   1.063   1.909  12.796  0.3639 -0.7405  0.8881
  576MPD2    H2 8546   1.330   1.667  12.555  1.2842  0.5236 -1.2696
  576MPD2    H3 8547   1.162   1.681  12.728  0.3611 -0.8543 -1.6355
  576MPD2     N 8548   1.151   2.143  12.673 -0.5106 -0.4704 -0.5115
  576MPD2    H5 8549   1.178   2.213  12.604 -1.6633  0.6422  0.1903
  576MPD2    N1 8550   1.412   1.871  12.391  0.0165 -0.1759 -0.1016
  576MPD2    H7 8551   1.400   1.952  12.331 -0.4893  1.1646  1.8284
  577TMC3    C1 8552   1.492   1.766  12.195  0.0802  0.1487 -0.9251
  577TMC3    C2 8553   1.482   1.649  12.124  0.0777 -0.0594  0.2847
  577TMC3    C3 8554   1.463   1.670  11.993 -0.6915  0.3123 -0.9196
  577TMC3    C4 8555   1.498   1.889  12.142 -0.3825 -0.4521 -0.1029
  577TMC3    C5 8556   1.457   1.901  12.015  0.1755  0.8713  0.9240
  577TMC3    C6 8557   1.436   1.792  11.937  0.0943  0.6138  0.4199
  577TMC3     C 8558   1.469   1.756  12.339  0.0644 -0.1689  0.0099
  577TMC3     O 8559   1.492   1.650  12.398  0.3884  0.4882 -0.5553
  577TMC3     H 8560   1.505   1.550  12.163  0.0743  0.2805  1.1449
  577TMC3    H1 8561   1.532   1.975  12.199 -2.4477 -0.5542  1.3163
  577TMC3    H2 8562   1.433   1.799  11.829 -2.9533 -3.0319  0.2624
  577TMC3    C7 8563   1.495   2.027  11.950 -0.4029 -0.3613  0.4889
  577TMC3    C8 8564   1.466   1.547  11.912  0.1312 -0.2017 -0.0922
  577TMC3    O1 8565   1.584   2.100  11.997 -0.0318 -0.1691 -0.4762
  577TMC3    O2 8566   1.451   1.438  11.966 -0.1192 -0.1960  0.3114
  578MPD2     C 8567   4.084   1.789   1.355 -0.0063  0.4016  0.1352
  578MPD2    C1 8568   4.220   1.761   1.362 -0.3290  0.2241  0.0181
  578MPD2    C2 8569   4.273   1.713   1.480  0.4735  0.5020  0.5518
  578MPD2    C3 8570   4.190   1.693   1.597  0.0232 -0.4403  0.0068
  578MPD2    C4 8571   4.060   1.727   1.584  0.4002 -0.0901 -0.1836
  578MPD2    C5 8572   4.007   1.770   1.468  0.0590  0.4210  0.4555
  578MPD2     H 8573   4.375   1.677   1.484 -0.2833 -1.6804  0.1898
  578MPD2    H1 8574   3.984   1.718   1.661  1.6700  1.0584  1.2113
  578MPD2    H2 8575   4.035   1.836   1.271 -0.5307  1.1432  0.8654
  578MPD2    H3 8576   3.901   1.789   1.470 -0.1988 -1.0033  0.1503
  578MPD2     N 8577   4.251   1.646   1.710 -0.2325 -0.0284 -0.1419
  578MPD2    H5 8578   4.350   1.632   1.695 -0.0364  2.2759 -0.9379
  578MPD2    N1 8579   4.297   1.778   1.242 -0.1231 -0.7236  0.4453
  578MPD2    H7 8580   4.243   1.806   1.161  0.7716  1.4276  0.6039
  579TMC3    C1 8581   4.275   1.581   1.938  0.5216  0.8271 -1.0323
  579TMC3    C2 8582   4.321   1.662   2.038  0.3502  0.4288  0.3918
  579TMC3    C3 8583   4.443   1.643   2.090  0.6002 -0.3345 -0.0582
  579TMC3    C4 8584   4.352   1.475   1.893  0.3086  0.4048  0.0382
  579TMC3    C5 8585   4.483   1.465   1.940  0.0939 -0.3955 -0.1956
  579TMC3    C6 8586   4.533   1.551   2.036 -0.7154  0.4969 -0.7603
  579TMC3     C 8587   4.193   1.643   1.836 -0.4217 -0.6151 -0.2401
  579TMC3     O 8588   4.087   1.697   1.870 -0.0022  0.0991  0.1497
  579TMC3     H 8589   4.257   1.738   2.081  0.3335  1.3618 -1.3183
  579TMC3    H1 8590   4.324   1.408   1.813 -2.4013  0.8295  0.6395
  579TMC3    H2 8591   4.636   1.531   2.063 -1.0309 -1.0084 -0.6696
  579TMC3    C7 8592   4.582   1.380   1.865 -0.2254 -0.4897  0.5605
  579TMC3    C8 8593   4.495   1.770   2.141  0.8215  0.0173 -0.1380
  579TMC3    O1 8594   4.699   1.403   1.874  0.0170 -0.2231 -0.0130
  579TMC3    O2 8595   4.422   1.838   2.215 -0.5054 -0.3467  0.0237
  580TMC3    C1 8596   4.055   1.333  11.479 -0.2909  0.7179  0.4288
  580TMC3    C2 8597   4.160   1.291  11.400  0.0027  0.3026 -0.0698
  580TMC3    C3 8598   4.196   1.164  11.390 -0.9215 -0.2804  0.0390
  580TMC3    C4 8599   3.979   1.243  11.550  0.5932 -0.4203 -0.1050
  580TMC3    C5 8600   4.018   1.113  11.543 -0.2569 -0.2552 -0.3928
  580TMC3    C6 8601   4.130   1.071  11.471 -0.5480 -0.3573 -1.1260
  580TMC3     C 8602   4.031   1.474  11.494  0.1383 -0.9853  0.3318
  580TMC3     O 8603   4.104   1.541  11.417  0.1591  0.2075 -0.4355
  580TMC3     H 8604   4.208   1.360  11.332 -1.2752 -0.5820 -1.8669
  580TMC3    H1 8605   3.908   1.281  11.623  0.1698 -2.3921  0.5101
  580TMC3    H2 8606   4.169   0.971  11.481  2.8322  0.8859 -1.8873
  580TMC3    C7 8607   3.951   1.034  11.640 -0.7496 -0.0427 -0.0222
  580TMC3    C8 8608   4.334   1.134  11.369 -0.3698  0.3663 -0.4945
  580TMC3    O1 8609   3.898   1.092  11.737  0.1842  0.4643  0.5028
  580TMC3    O2 8610   4.362   1.029  11.311 -0.1844 -0.0114  0.3508
  581MPD2     C 8611   1.236   0.894  14.595  0.0020 -0.4809 -0.5037
  581MPD2    C1 8612   1.115   0.934  14.649 -0.0519  0.1432 -0.0302
  581MPD2    C2 8613   1.059   1.055  14.607 -0.6381  1.4473  0.8884
  581MPD2    C3 8614   1.126   1.138  14.515  0.7164  0.0027  0.0543
  581MPD2    C4 8615   1.241   1.092  14.458  0.1987  0.0796 -0.0809
  581MPD2    C5 8616   1.302   0.977  14.504  0.6800 -0.5611 -0.1530
  581MPD2     H 8617   0.961   1.083  14.644 -1.2485  0.3552  0.1113
  581MPD2    H1 8618   1.294   1.140  14.377 -0.2014 -1.8208 -1.4658
  581MPD2    H2 8619   1.296   0.810  14.626  0.9417  0.5321  0.4278
  581MPD2    H3 8620   1.393   0.944  14.456  1.8204  2.5273 -0.1057
  581MPD2     N 8621   1.053   1.255  14.470  0.3306  0.5382 -0.1692
  581MPD2    H5 8622   0.957   1.275  14.496  0.6808  1.9861  0.0228
  581MPD2    N1 8623   1.056   0.850  14.745  0.8128  0.2028  1.1419
  581MPD2    H7 8624   1.112   0.768  14.768  0.6981 -0.2074 -0.0140
  582TMC3    C1 8625   0.924   0.773  14.921 -0.0142 -0.2209 -0.1111
  582TMC3    C2 8626   0.971   0.650  14.907 -0.3713 -0.9261  0.4099
  582TMC3    C3 8627   0.936   0.554  14.990 -0.2475  0.5183 -0.2168
  582TMC3    C4 8628   0.850   0.813  15.026  0.0856 -0.7003 -0.3948
  582TMC3    C5 8629   0.803   0.713  15.108  0.0205  0.2393 -0.2932
  582TMC3    C6 8630   0.847   0.584  15.089  0.8139  0.6983  0.2948
  582TMC3     C 8631   0.944   0.879  14.822 -0.0894  0.0128 -0.3589
  582TMC3     O 8632   0.875   0.978  14.832 -0.4741  0.3447 -0.2136
  582TMC3     H 8633   1.050   0.629  14.835 -1.0706  1.1607 -0.9481
  582TMC3    H1 8634   0.803   0.910  15.033 -1.8794 -1.6508 -0.3183
  582TMC3    H2 8635   0.823   0.509  15.163 -0.9321  1.5523  0.6002
  582TMC3    C7 8636   0.796   0.741  15.249  0.2424 -0.1445  0.1791
  582TMC3    C8 8637   1.030   0.450  15.028 -0.1811 -0.4738 -0.5162
  582TMC3    O1 8638   0.740   0.663  15.318 -0.2953 -0.1404 -0.0583
  582TMC3    O2 8639   0.985   0.361  15.095  0.2500 -0.1500 -0.4264
  583MPD2     C 8640   1.616   2.014  16.918  0.4368  0.4658 -0.0648
  583MPD2    C1 8641   1.565   2.121  16.842  0.2573 -0.7281  0.2635
  583MPD2    C2 8642   1.492   2.219  16.902  0.1585  0.6657  0.2717
  583MPD2    C3 8643   1.472   2.221  17.040 -0.0977 -0.4256  0.1434
  583MPD2    C4 8644   1.512   2.102  17.113 -0.5355 -0.1485  0.5628
  583MPD2    C5 8645   1.584   2.005  17.050  0.4361  0.1904  0.1661
  583MPD2     H 8646   1.453   2.287  16.828 -0.7902  0.4203  0.5484
  583MPD2    H1 8647   1.502   2.098  17.221 -2.0112  1.2043  0.4773
  583MPD2    H2 8648   1.679   1.936  16.876  1.4155  1.4632 -0.4582
  583MPD2    H3 8649   1.632   1.931  17.113  3.3549  1.8028 -0.1360
  583MPD2     N 8650   1.398   2.335  17.096 -0.1741 -0.4898 -0.3487
  583MPD2    H5 8651   1.362   2.399  17.026  1.9595  0.1010 -0.9325
  583MPD2    N1 8652   1.585   2.140  16.700 -0.4096  0.4163 -0.6257
  583MPD2    H7 8653   1.545   2.227  16.665  0.3588  1.1947  0.4352
  584TMC3    C1 8654   1.326   2.488  17.274 -0.2587  0.4376  0.1077
  584TMC3    C2 8655   1.230   2.548  17.191 -0.2091  0.2832  1.4211
  584TMC3    C3 8656   1.158   2.659  17.238 -0.8680 -0.4847  0.1191
  584TMC3    C4 8657   1.351   2.543  17.397 -0.3470 -0.0063 -0.0677
  584TMC3    C5 8658   1.282   2.656  17.435  0.5467  0.2683 -0.1462
  584TMC3    C6 8659   1.187   2.719  17.356  0.1642  0.2346 -0.2219
  584TMC3     C 8660   1.399   2.361  17.237  0.9468  0.4112 -0.3594
  584TMC3     O 8661   1.453   2.300  17.328 -0.3092  0.5903 -0.1723
  584TMC3     H 8662   1.200   2.490  17.104  0.4024  0.7012  0.9328
  584TMC3    H1 8663   1.431   2.501  17.456 -1.0275 -0.9926  0.1431
  584TMC3    H2 8664   1.134   2.810  17.385 -0.7954 -0.5405  0.4586
  584TMC3    C7 8665   1.278   2.679  17.579  0.4600  0.7506  0.3420
  584TMC3    C8 8666   1.085   2.740  17.143 -0.1877  0.2896 -0.5860
  584TMC3    O1 8667   1.336   2.591  17.644  0.1558  0.6552  0.6111
  584TMC3    O2 8668   1.033   2.675  17.053 -0.1757 -0.1064  0.4183
  585MPD2     C 8669   0.701   1.399   0.671  0.5909 -0.5894 -0.5742
  585MPD2    C1 8670   0.799   1.492   0.622 -0.7501  0.1988 -0.0013
  585MPD2    C2 8671   0.870   1.463   0.499 -0.3774 -0.7568  0.1189
  585MPD2    C3 8672   0.838   1.343   0.435  0.0790  0.1389 -0.0139
  585MPD2    C4 8673   0.733   1.265   0.481 -0.8458 -0.1848  0.3383
  585MPD2    C5 8674   0.655   1.298   0.592 -0.0734 -0.1038 -0.2550
  585MPD2     H 8675   0.951   1.522   0.459 -1.5581  0.3207 -0.6685
  585MPD2    H1 8676   0.678   1.187   0.428  1.1049 -0.8649 -0.6979
  585MPD2    H2 8677   0.649   1.429   0.761  0.8646 -2.1762  0.1125
  585MPD2    H3 8678   0.563   1.242   0.605  0.3913  0.2473  4.5152
  585MPD2     N 8679   0.907   1.290   0.328 -0.0434  0.0281  0.4795
  585MPD2    H5 8680   0.875   1.204   0.284  0.0678 -0.1446  0.7398
  585MPD2    N1 8681   0.817   1.600   0.705 -0.0835  0.5302 -0.3678
  585MPD2    H7 8682   0.754   1.625   0.780 -1.5590 -0.6076 -1.2104
  586TMC3    C1 8683   1.080   1.258   0.175  0.9352 -0.1632  0.3496
  586TMC3    C2 8684   1.097   1.127   0.192  0.1499  0.1103 -0.4147
  586TMC3    C3 8685   1.181   1.054   0.117  0.1183 -0.3321 -0.0437
  586TMC3    C4 8686   1.127   1.314   0.065 -0.0828  0.4883 -0.2880
  586TMC3    C5 8687   1.224   1.255  17.661 -0.5815  0.6168 -0.6757
  586TMC3    C6 8688   1.241   1.118   0.011 -0.7236 -0.3087  0.8146
  586TMC3     C 8689   1.021   1.342   0.274  0.3405 -0.2675  0.1801
  586TMC3     O 8690   1.096   1.434   0.310 -0.0136  0.0024 -0.2994
  586TMC3     H 8691   1.054   1.078   0.278 -0.9294  2.2175  0.2532
  586TMC3    H1 8692   1.094   1.417   0.053 -1.4196  0.4549  3.2640
  586TMC3    H2 8693   1.317   1.063  17.634  1.2001  0.7089  2.5158
  586TMC3    C7 8694   1.198   1.254  17.520  0.6162  0.1484  0.4414
  586TMC3    C8 8695   1.124   0.924   0.078 -0.1886  0.2579 -0.0498
  586TMC3    O1 8696   1.215   1.152  17.452  0.5277  0.1110 -0.4391
  586TMC3    O2 8697   1.075   0.845   0.160  0.2833  0.2211 -0.5688
  587TMC3    C1 8698   2.966   4.251  16.295 -0.3066  0.0130  0.4404
  587TMC3    C2 8699   2.979   4.310  16.415  0.4707  0.2358  0.2896
  587TMC3    C3 8700   3.110   4.349  16.446 -0.7664  0.3219 -0.1938
  587TMC3    C4 8701   3.078   4.216  16.219  0.3785  0.2450 -0.8908
  587TMC3    C5 8702   3.205   4.245  16.259 -0.8170  0.8289 -1.0059
  587TMC3    C6 8703   3.224   4.314  16.374 -0.3909  0.7884  0.4879
  587TMC3     C 8704   2.833   4.206  16.253  0.3154 -0.1741 -0.2794
  587TMC3     O 8705   2.831   4.152  16.145  0.3545 -0.0181  0.2286
  587TMC3     H 8706   2.895   4.337  16.478 -0.9160 -2.2018 -0.5324
  587TMC3    H1 8707   3.060   4.167  16.124  0.3297 -0.0595 -0.7254
  587TMC3    H2 8708   3.323   4.333  16.414 -0.6449 -0.0381  1.5119
  587TMC3    C7 8709   3.314   4.228  16.171  0.4031  0.2847 -0.4950
  587TMC3    C8 8710   3.136   4.440  16.561 -0.6613  0.3776 -0.4477
  587TMC3    O1 8711   3.417   4.286  16.204  0.0554  0.2515 -0.1073
  587TMC3    O2 8712   3.252   4.483  16.577 -0.2346 -0.6517 -0.2338
  588TMC3    C1 8713   1.318   2.885   9.892  0.3218 -0.0874 -0.7563
  588TMC3    C2 8714   1.322   2.816   9.777 -0.1556 -0.2862 -0.4041
  588TMC3    C3 8715   1.441   2.772   9.724 -0.7521  0.5645 -1.4011
  588TMC3    C4 8716   1.440   2.923   9.951  0.3665  0.2581 -0.3703
  588TMC3    C5 8717   1.557   2.882   9.894  0.0455 -0.1714 -0.1292
  588TMC3    C6 8718   1.557   2.798   9.781 -0.2013 -0.4468 -0.2732
  588TMC3     C 8719   1.212   2.985   9.897 -0.1104  0.0827 -0.4009
  588TMC3     O 8720   1.100   2.965   9.850  0.1134 -0.2549 -0.3213
  588TMC3     H 8721   1.226   2.779   9.745  0.3893 -2.8434  0.9277
  588TMC3    H1 8722   1.442   2.976  10.045  0.8004  0.6496 -0.6005
  588TMC3    H2 8723   1.648   2.780   9.724  1.0910 -1.5289  2.1422
  588TMC3    C7 8724   1.626   3.006   9.855 -0.1490 -0.0762  0.1712
  588TMC3    C8 8725   1.439   2.637   9.673  0.4529 -0.2585  0.6722
  588TMC3    O1 8726   1.543   3.092   9.835  0.2142  0.4556  0.0361
  588TMC3    O2 8727   1.348   2.597   9.599  0.4069 -0.0354 -0.0564
  589TMC3    C1 8728   0.067   0.582   1.895  0.2411  0.1380 -0.9193
  589TMC3    C2 8729   0.174   0.594   1.979  0.3878  0.0762  0.4454
  589TMC3    C3 8730   0.287   0.520   1.949 -0.4990 -0.0030 -0.7811
  589TMC3    C4 8731   0.074   0.516   1.778 -0.5500 -0.6726  0.3247
  589TMC3    C5 8732   0.185   0.449   1.745  0.0437  0.5640 -0.2604
  589TMC3    C6 8733   0.291   0.446   1.831 -0.1539  0.0705 -0.1777
  589TMC3     C 8734   4.660   0.653   1.912  0.4872 -0.3838  0.0190
  589TMC3     O 8735   4.579   0.642   1.819  0.0126 -0.1092 -0.4859
  589TMC3     H 8736   0.168   0.645   2.074 -3.4897  1.3439 -0.4697
  589TMC3    H1 8737   4.705   0.508   1.713  0.2849  0.4428 -0.9196
  589TMC3    H2 8738   0.358   0.361   1.828 -1.7082 -1.2204  1.4315
  589TMC3    C7 8739   0.178   0.368   1.629  0.3014 -0.2365 -0.0510
  589TMC3    C8 8740   0.379   0.492   2.053  0.1700  0.0006  0.3691
  589TMC3    O1 8741   0.063   0.351   1.580 -0.3049  0.5703  0.4760
  589TMC3    O2 8742   0.351   0.535   2.167 -0.1230  0.1606  0.0576
  590MPD2     C 8743   3.417   2.965  16.380  0.6989 -0.7111 -0.1174
  590MPD2    C1 8744   3.394   3.042  16.264 -0.2751 -0.0089 -0.5058
  590MPD2    C2 8745   3.499   3.083  16.185  0.8298  0.3647 -0.5056
  590MPD2    C3 8746   3.625   3.051  16.228 -1.2364  0.6561 -0.1518
  590MPD2    C4 8747   3.649   2.982  16.343 -0.2143 -0.1450 -0.2167
  590MPD2    C5 8748   3.542   2.940  16.421 -0.3904 -0.2527  0.1195
  590MPD2     H 8749   3.491   3.129  16.087 -1.4271  0.9648 -0.0440
  590MPD2    H1 8750   3.743   2.941  16.378 -0.2238 -0.0156 -0.0384
  590MPD2    H2 8751   3.333   2.941  16.444 -0.8234  2.2722 -0.9594
  590MPD2    H3 8752   3.560   2.898  16.519  0.1102 -0.5001 -0.0785
  590MPD2     N 8753   3.740   3.101  16.154 -0.3993  0.1120 -0.6654
  590MPD2    H5 8754   3.722   3.173  16.085 -0.9341 -2.0225 -2.7194
  590MPD2    N1 8755   3.263   3.074  16.225  0.2199  0.1118 -0.2755
  590MPD2    H7 8756   3.186   3.053  16.288 -0.2471  0.4437 -0.7360
  591TMC3    C1 8757   3.952   3.134  16.060 -0.2755  0.2271 -0.4288
  591TMC3    C2 8758   4.029   3.073  15.965  0.4311  0.2868 -0.4352
  591TMC3    C3 8759   4.122   3.151  15.904 -0.5596 -0.0758 -0.8281
  591TMC3    C4 8760   3.961   3.267  16.093 -0.6279 -0.5994  0.0676
  591TMC3    C5 8761   4.060   3.336  16.035 -0.4551  0.4211  0.7795
  591TMC3    C6 8762   4.132   3.285  15.932 -0.2832 -0.2998  0.3079
  591TMC3     C 8763   3.870   3.062  16.152  1.1453  0.8995 -0.6534
  591TMC3     O 8764   3.924   2.961  16.201 -0.3213 -0.2525 -0.1485
  591TMC3     H 8765   4.019   2.965  15.961 -2.2968  0.4159  2.5866
  591TMC3    H1 8766   3.910   3.308  16.179 -0.8522 -1.3380  0.2855
  591TMC3    H2 8767   4.222   3.332  15.896  0.3214  0.4059  2.7197
  591TMC3    C7 8768   4.099   3.462  16.096  0.0628  0.0538  0.4633
  591TMC3    C8 8769   4.179   3.089  15.790  0.1389 -0.4595  0.0534
  591TMC3    O1 8770   4.077   3.473  16.216 -0.1050  0.2378  0.5543
  591TMC3    O2 8771   4.186   2.968  15.795  0.1103  0.2112 -0.0144
  592MPD2     C 8772   0.534   1.190  11.245  0.5253  0.3487  0.8629
  592MPD2    C1 8773   0.562   1.246  11.366 -0.1340  0.3347 -0.2885
  592MPD2    C2 8774   0.504   1.187  11.478  0.4676  0.7546  0.7034
  592MPD2    C3 8775   0.432   1.067  11.473  0.4193  0.7599  0.3695
  592MPD2    C4 8776   0.423   1.000  11.356  0.3999 -0.4737 -0.4178
  592MPD2    C5 8777   0.475   1.062  11.245  0.4246 -0.2796  0.1349
  592MPD2     H 8778   0.515   1.223  11.580 -1.7294 -0.5824  1.4030
  592MPD2    H1 8779   0.364   0.909  11.346 -0.2378 -0.3587  2.3473
  592MPD2    H2 8780   0.556   1.247  11.156 -1.0745 -0.5700 -0.1288
  592MPD2    H3 8781   0.461   1.017  11.147 -0.8022 -2.7520  1.4565
  592MPD2     N 8782   0.391   1.012  11.593 -0.2644 -0.3241  0.3655
  592MPD2    H5 8783   0.388   1.070  11.676  1.0533  0.4870 -0.1605
  592MPD2    N1 8784   0.644   1.360  11.370 -0.6804 -0.6209 -0.4549
  592MPD2    H7 8785   0.678   1.402  11.284  1.6079 -0.3323  0.5879
  593TMC3    C1 8786   0.766   1.536  11.478 -0.2036  0.3455 -0.7090
  593TMC3    C2 8787   0.773   1.610  11.597 -0.0888 -0.5216 -0.0778
  593TMC3    C3 8788   0.838   1.730  11.598 -0.9917 -0.0630 -0.1134
  593TMC3    C4 8789   0.824   1.577  11.360  0.2951 -0.9095 -0.3905
  593TMC3    C5 8790   0.883   1.706  11.365 -0.1531  0.5662  0.7311
  593TMC3    C6 8791   0.908   1.774  11.483 -1.1108 -0.5442  0.1249
  593TMC3     C 8792   0.684   1.419  11.487  1.0482  0.3834 -0.4565
  593TMC3     O 8793   0.643   1.390  11.600  0.4537 -0.2746 -0.2019
  593TMC3     H 8794   0.715   1.586  11.686 -0.1452 -0.2770 -0.0482
  593TMC3    H1 8795   0.785   1.531  11.270 -0.7935 -1.1012  0.1810
  593TMC3    H2 8796   0.947   1.875  11.484 -0.3803 -0.8267  0.0487
  593TMC3    C7 8797   0.953   1.747  11.246 -0.2995 -1.0873 -0.4136
  593TMC3    C8 8798   0.909   1.764  11.720  0.0720 -0.6119  0.0342
  593TMC3    O1 8799   1.004   1.862  11.262  0.3216 -0.0195  0.2737
  593TMC3    O2 8800   0.958   1.877  11.724 -0.1980  0.3344 -0.0958
  594MPD2     C 8801   3.287   3.911  14.429 -0.6719 -0.0420 -0.1859
  594MPD2    C1 8802   3.209   4.021  14.438  0.2339  0.3318  0.2869
  594MPD2    C2 8803   3.253   4.141  14.401 -0.1769  0.0082 -0.5527
  594MPD2    C3 8804   3.376   4.162  14.349 -0.7322  0.6556  0.8680
  594MPD2    C4 8805   3.452   4.048  14.325  0.3310 -0.2094 -0.2117
  594MPD2    C5 8806   3.402   3.922  14.360  0.0549  0.1996  0.1082
  594MPD2     H 8807   3.200   4.233  14.426 -0.6393 -0.1738 -0.8784
  594MPD2    H1 8808   3.557   4.046  14.296  0.6118  0.7558  0.7221
  594MPD2    H2 8809   3.262   3.809  14.457 -3.2027  0.9626  1.2450
  594MPD2    H3 8810   3.461   3.833  14.337  0.9158  0.6298  0.6407
  594MPD2     N 8811   3.413   4.287  14.305  0.4853  0.4401  0.3260
  594MPD2    H5 8812   3.356   4.368  14.327 -0.3047  0.0503 -0.2962
  594MPD2    N1 8813   3.081   3.997  14.502 -0.6536  0.0623 -0.0599
  594MPD2    H7 8814   3.064   3.901  14.530 -0.4538  0.6149  1.9341
  595TMC3    C1 8815   3.674   4.622  14.122 -0.2279 -0.8617 -0.4349
  595TMC3    C2 8816   3.620   4.502  14.114  0.8610  0.3662  1.1685
  595TMC3    C3 8817   3.534   4.459  14.209 -0.1331  0.2456  0.0184
  595TMC3    C4 8818   3.650   4.706  14.228 -0.6270 -0.1847  0.1638
  595TMC3    C5 8819   3.547   4.673  14.319 -0.1827 -0.3395 -0.1226
  595TMC3    C6 8820   3.489   4.551  14.302  0.2866  0.6585 -0.5395
  595TMC3     C 8821   3.805   4.634  14.067 -0.4956 -0.4299  0.0455
  595TMC3     O 8822   3.816   4.617  13.949 -0.0919 -0.4575 -0.4711
  595TMC3     H 8823   3.673   4.436  14.047 -2.5454  0.6324 -1.8171
  595TMC3    H1 8824   3.689   0.088  14.232 -0.0646 -0.3002 -3.0320
  595TMC3    H2 8825   3.421   4.524  14.382 -0.2241  3.4589 -0.0260
  595TMC3    C7 8826   3.497   0.053  14.424  0.5171  0.1160 -0.5614
  595TMC3    C8 8827   3.520   4.318  14.231  1.1260 -0.1750 -0.5775
  595TMC3    O1 8828   3.380   0.037  14.465 -0.2234 -0.7352 -0.4119
  595TMC3    O2 8829   3.609   4.245  14.185 -0.1816  0.6184 -0.2721
  596MPD2     C 8830   2.342   2.216  16.843 -0.6064  0.0855  0.5662
  596MPD2    C1 8831   2.308   2.315  16.759  0.0987  0.0344 -0.4838
  596MPD2    C2 8832   2.334   2.301  16.623 -0.6232  0.3059 -0.2927
  596MPD2    C3 8833   2.363   2.173  16.574  0.1320  0.4592 -1.3523
  596MPD2    C4 8834   2.375   2.066  16.661  0.2676 -0.5180  0.1003
  596MPD2    C5 8835   2.369   2.094  16.794  0.3066  0.0219 -0.1492
  596MPD2     H 8836   2.321   2.389  16.562 -0.4028  0.0766 -0.6748
  596MPD2    H1 8837   2.396   1.966  16.626 -4.3325 -1.5530  0.3795
  596MPD2    H2 8838   2.327   2.227  16.950  0.4270 -0.0940  0.7230
  596MPD2    H3 8839   2.392   2.025  16.875 -0.3091  0.9525  0.8285
  596MPD2     N 8840   2.384   2.153  16.438  0.2499  0.3185 -0.1161
  596MPD2    H5 8841   2.403   2.059  16.404 -0.0777 -0.2451  1.2501
  596MPD2    N1 8842   2.259   2.440  16.797 -0.0122 -0.3421  0.3243
  596MPD2    H7 8843   2.247   2.505  16.720  1.6088 -1.0857 -0.5493
  597TMC3    C1 8844   2.198   2.619  16.942 -0.0472  0.4691  0.2820
  597TMC3    C2 8845   2.216   2.690  16.825 -0.1518  0.1161 -0.7705
  597TMC3    C3 8846   2.137   2.806  16.811 -0.3150 -0.3694 -0.2925
  597TMC3    C4 8847   2.103   2.647  17.032  0.3145  0.7871 -0.7767
  597TMC3    C5 8848   2.022   2.753  17.004 -0.5742 -0.0499 -0.0599
  597TMC3    C6 8849   2.037   2.836  16.905 -0.1154 -0.4191 -0.1962
  597TMC3     C 8850   2.227   2.476  16.928 -0.2736 -0.0159 -0.0475
  597TMC3     O 8851   2.210   2.404  17.026 -0.4784  0.6253 -0.3610
  597TMC3     H 8852   2.285   2.672  16.744  0.7394  3.3458 -0.7392
  597TMC3    H1 8853   2.076   2.580  17.113 -0.9053 -0.1417 -1.9360
  597TMC3    H2 8854   1.983   2.930  16.895 -1.3417 -1.2146 -1.0489
  597TMC3    C7 8855   1.928   2.779  17.110  0.0514  0.6122 -0.3551
  597TMC3    C8 8856   2.158   2.890  16.695 -1.1159  0.4705 -0.6382
  597TMC3    O1 8857   1.956   2.729  17.223  0.0834  0.1926 -0.1579
  597TMC3    O2 8858   2.249   2.860  16.617 -0.2522  0.5671 -0.1737
  598TMC3    C1 8859   0.602   3.883  15.606  0.8640 -0.1550  0.3711
  598TMC3    C2 8860   0.529   3.774  15.638 -0.3184  0.2299 -0.2067
  598TMC3    C3 8861   0.459   3.712  15.540  0.0702  0.1065  0.4878
  598TMC3    C4 8862   0.611   3.936  15.474 -0.7265 -0.1161  0.1824
  598TMC3    C5 8863   0.538   3.862  15.388 -0.2368  0.1924  0.2488
  598TMC3    C6 8864   0.457   3.754  15.413 -0.7703 -0.6275 -0.6718
  598TMC3     C 8865   0.669   3.950  15.713  0.7099  0.3055  0.2429
  598TMC3     O 8866   0.746   4.041  15.682  0.2808 -0.0796  0.3931
  598TMC3     H 8867   0.549   3.716  15.727 -1.8492  0.5097  0.3339
  598TMC3    H1 8868   0.681   4.015  15.451  0.9875 -1.8264 -0.4628
  598TMC3    H2 8869   0.390   3.704  15.343 -0.3659  1.3665 -2.5136
  598TMC3    C7 8870   0.540   3.898  15.249 -0.6414  0.7847 -0.0953
  598TMC3    C8 8871   0.400   3.585  15.565 -0.6607  0.3268  0.0069
  598TMC3    O1 8872   0.523   3.806  15.171 -0.2783  0.1915 -0.1730
  598TMC3    O2 8873   0.408   3.504  15.474  0.0436  0.4455 -0.0394
  599MPD2     C 8874   0.781   1.519  16.302 -0.0758  0.1839 -0.3654
  599MPD2    C1 8875   0.677   1.438  16.267 -0.5783  0.4396 -0.5693
  599MPD2    C2 8876   0.543   1.481  16.278 -0.5947 -0.3998 -0.5412
  599MPD2    C3 8877   0.519   1.597  16.340 -0.2238 -0.2212 -0.9584
  599MPD2    C4 8878   0.625   1.680  16.374  0.2868  0.1818 -1.1030
  599MPD2    C5 8879   0.751   1.640  16.356  0.9547  0.1645 -0.1285
  599MPD2     H 8880   0.463   1.412  16.255 -1.0619 -0.3987  1.0993
  599MPD2    H1 8881   0.612   1.778  16.418 -2.2533 -0.8840  0.4818
  599MPD2    H2 8882   0.885   1.488  16.303  0.0466  0.6738  1.7648
  599MPD2    H3 8883   0.831   1.703  16.392 -1.2307  2.5308  0.5661
  599MPD2     N 8884   0.387   1.645  16.372 -0.2673 -0.5688  0.2979
  599MPD2    H5 8885   0.381   1.733  16.422 -2.4489  0.0365 -1.0345
  599MPD2    N1 8886   0.706   1.323  16.181 -0.6643  0.2958  1.3239
  599MPD2    H7 8887   0.805   1.308  16.167 -1.0549 -1.1990  0.0989
  600TMC3    C1 8888   0.145   1.647  16.381  0.0185 -0.4623  0.3082
  600TMC3    C2 8889   0.043   1.560  16.400  0.3093 -0.1798  0.7372
  600TMC3    C3 8890   4.670   1.596  16.496 -0.1864 -0.1092  0.0484
  600TMC3    C4 8891   0.151   1.771  16.446 -0.3997  0.2642  0.1862
  600TMC3    C5 8892   0.049   1.806  16.532 -0.4074  0.7973 -0.2455
  600TMC3    C6 8893   4.667   1.715  16.565 -0.1395  0.2008  0.5177
  600TMC3     C 8894   0.269   1.586  16.328  0.2907 -0.5166  0.4007
  600TMC3     O 8895   0.255   1.479  16.271 -0.0285  0.1680  0.0325
  600TMC3     H 8896   0.044   1.460  16.359 -1.1617  0.7284 -1.5173
  600TMC3    H1 8897   0.226   1.836  16.403 -1.2262  0.7670 -0.5135
  600TMC3    H2 8898   4.577   1.751  16.613  1.7102  1.9945  2.6340
  600TMC3    C7 8899   0.016   1.952  16.561  0.1686 -0.0160  0.2179
  600TMC3    C8 8900   4.597   1.490  16.569  0.0206  0.3080  0.1880
  600TMC3    O1 8901   4.634   1.983  16.618 -0.1123 -0.0760 -0.0133
  600TMC3    O2 8902   4.596   1.496  16.693 -0.2607  0.7923  0.4277
  601MPD2     C 8903   2.619   4.282  17.401  0.0919 -0.0402 -0.4503
  601MPD2    C1 8904   2.532   4.316  17.503 -0.0525 -0.3964  0.1356
  601MPD2    C2 8905   2.558   4.269  17.630 -0.0778  0.6024  0.4161
  601MPD2    C3 8906   2.671   4.188  17.650  0.1698 -0.5729  0.4398
  601MPD2    C4 8907   2.766   4.162  17.552 -0.4436 -0.0762 -0.7328
  601MPD2    C5 8908   2.739   4.214  17.426  0.3063 -0.6024  0.1882
  601MPD2     H 8909   2.492   4.287   0.038 -2.0594  1.6646 -1.3842
  601MPD2    H1 8910   2.851   4.097  17.567 -0.1805  0.5351  0.4283
  601MPD2    H2 8911   2.590   4.297  17.297 -1.1454 -0.3781 -0.1520
  601MPD2    H3 8912   2.799   4.172  17.347  0.4981  0.5267 -0.2693
  601MPD2     N 8913   2.694   4.112   0.097  0.1407 -0.6432  0.1888
  601MPD2    H5 8914   2.784   4.069   0.115  1.5124  1.1546 -2.2928
  601MPD2    N1 8915   2.407   4.382  17.466 -0.1411 -0.2107  0.1138
  601MPD2    H7 8916   2.375   4.362  17.372  0.7048  0.2436 -0.2650
  602TMC3    C1 8917   2.214   4.508  17.483  0.5300 -0.0180  1.0832
  602TMC3    C2 8918   2.156   4.613  17.547  0.0702  0.7296 -0.5788
  602TMC3    C3 8919   2.061   4.687  17.491  0.1724  0.2761  0.8171
  602TMC3    C4 8920   2.161   4.467  17.364 -0.0077 -0.2622 -0.3073
  602TMC3    C5 8921   2.053   4.537  17.314 -0.1347 -0.7591  0.5303
  602TMC3    C6 8922   2.004   4.651  17.370 -0.0231  0.0489  0.5694
  602TMC3     C 8923   2.322   4.447  17.554 -0.9679  0.1614 -0.7404
  602TMC3     O 8924   2.352   4.484  17.664  0.6577  0.2787  0.2706
  602TMC3     H 8925   2.196   4.644  17.643  0.0079  0.7705 -0.5662
  602TMC3    H1 8926   2.201   4.376  17.323  1.7845  0.8995 -1.1606
  602TMC3    H2 8927   1.929   4.714  17.324  0.4506 -0.2371 -0.5916
  602TMC3    C7 8928   1.962   4.467  17.223  0.4317  0.5231 -0.7168
  602TMC3    C8 8929   1.994   0.074  17.565  0.0273 -0.2228 -0.4032
  602TMC3    O1 8930   2.017   4.393  17.142 -0.2633  0.3385 -0.3262
  602TMC3    O2 8931   2.063   0.152  17.626  0.5015 -0.2063 -0.0067
  603TMC3    C1 8932   1.347   0.354  10.825 -0.5196  1.2992  0.2898
  603TMC3    C2 8933   1.366   0.288  10.948  0.4002 -0.0790  0.1070
  603TMC3    C3 8934   1.492   0.305  11.008  0.6220 -0.0981 -0.2533
  603TMC3    C4 8935   1.444   0.435  10.771 -0.0835 -0.6239  0.3071
  603TMC3    C5 8936   1.568   0.448  10.836 -0.2686 -0.3285  0.6283
  603TMC3    C6 8937   1.596   0.378  10.952  0.1067  0.2407 -0.6096
  603TMC3     C 8938   1.217   0.357  10.755  1.1406  0.4701 -0.1279
  603TMC3     O 8939   1.218   0.417  10.649  0.1408 -0.0689  0.3393
  603TMC3     H 8940   1.305   0.208  10.989 -0.8936 -0.0274 -1.6641
  603TMC3    H1 8941   1.430   0.472  10.670  1.5156  0.8092  0.6161
  603TMC3    H2 8942   1.687   0.405  11.005  0.7709 -0.1148 -1.5674
  603TMC3    C7 8943   1.671   0.531  10.768  0.0626 -0.0437  0.5273
  603TMC3    C8 8944   1.514   0.240  11.145  0.1949  0.0008  0.7396
  603TMC3    O1 8945   1.776   0.543  10.827  0.0699  0.0033  0.1726
  603TMC3    O2 8946   1.445   0.143  11.174 -0.0525  0.4588 -0.6856
  604MPD2     C 8947   1.111   2.845  16.348 -0.1584 -0.2493  0.0451
  604MPD2    C1 8948   1.069   2.963  16.308  0.1849 -0.3434 -0.4636
  604MPD2    C2 8949   1.118   3.013  16.185 -0.2610 -0.4274  0.2904
  604MPD2    C3 8950   1.191   2.935  16.097 -0.1026 -0.0123  0.2368
  604MPD2    C4 8951   1.228   2.809  16.139  0.4594 -0.5767 -0.2048
  604MPD2    C5 8952   1.189   2.772  16.264  0.3311  0.1887 -0.0966
  604MPD2     H 8953   1.098   3.115  16.155 -0.9075 -0.9729 -1.1189
  604MPD2    H1 8954   1.275   2.731  16.080  2.3590  0.9752 -0.7306
  604MPD2    H2 8955   1.079   2.803  16.443 -0.9849 -0.8137 -0.4798
  604MPD2    H3 8956   1.220   2.671  16.291  0.6369  0.7551  1.6855
  604MPD2     N 8957   1.224   2.984  15.971  0.4260 -0.8849 -0.6048
  604MPD2    H5 8958   1.190   3.077  15.950  0.4771 -1.4434 -3.1380
  604MPD2    N1 8959   0.983   3.055  16.370 -0.0943 -0.4008  0.1394
  604MPD2    H7 8960   0.964   3.148  16.334  0.7093  0.2815  1.4926
  605TMC3    C1 8961   0.817   3.141  16.499  0.1239 -0.1509  0.7010
  605TMC3    C2 8962   0.882   3.261  16.523  0.1755 -0.0244  0.5150
  605TMC3    C3 8963   0.800   3.365  16.569  0.4616  0.7427  0.9742
  605TMC3    C4 8964   0.688   3.118  16.538 -0.5521 -0.5583  0.4376
  605TMC3    C5 8965   0.611   3.229  16.576  0.2423  0.1749 -0.1680
  605TMC3    C6 8966   0.669   3.346  16.592 -0.2366 -0.2731 -0.1161
  605TMC3     C 8967   0.900   3.026  16.473  1.3246  0.2777  0.1888
  605TMC3     O 8968   0.899   2.924  16.547 -0.3272  0.1245 -0.4482
  605TMC3     H 8969   0.990   3.276  16.523  0.0686  0.7660 -1.1696
  605TMC3    H1 8970   0.650   3.016  16.535 -0.5179 -0.5934  1.2439
  605TMC3    H2 8971   0.617   3.433  16.629 -0.1857  0.3032 -1.3898
  605TMC3    C7 8972   0.473   3.234  16.532 -0.6853  0.0739 -0.3383
  605TMC3    C8 8973   0.865   3.495  16.566 -0.4792  0.1557 -0.1125
  605TMC3    O1 8974   0.407   3.318  16.584  0.1354  1.0086  0.2287
  605TMC3    O2 8975   0.987   3.494  16.545  0.5104  0.0522  0.3908
  606TMC3    C1 8976   2.659   1.477   0.434 -0.1650 -0.2476  0.1533
  606TMC3    C2 8977   2.774   1.482   0.512 -0.7012  0.0494 -0.0092
  606TMC3    C3 8978   2.893   1.504   0.444  0.2321  0.1883  0.2885
  606TMC3    C4 8979   2.654   1.493   0.296 -0.8231  0.3658  0.6573
  606TMC3    C5 8980   2.777   1.519   0.237  0.8322  0.2874  0.8777
  606TMC3    C6 8981   2.896   1.522   0.302  0.5206  0.7511 -0.6033
  606TMC3     C 8982   2.543   1.446   0.511 -0.5498 -0.0442 -0.3269
  606TMC3     O 8983   2.555   1.427   0.631 -0.0800  0.0480 -0.6323
  606TMC3     H 8984   2.761   1.488   0.619  1.3820  0.3520  0.2250
  606TMC3    H1 8985   2.560   1.521   0.252 -0.3115 -2.7387 -2.4140
  606TMC3    H2 8986   2.989   1.551   0.255  0.6278  0.3000 -0.6715
  606TMC3    C7 8987   2.778   1.556   0.102 -0.4644  0.4668  0.8606
  606TMC3    C8 8988   3.016   1.472   0.519  0.3767  0.6015  0.5116
  606TMC3    O1 8989   2.867   1.623   0.057 -0.1009 -0.4800 -0.1518
  606TMC3    O2 8990   3.119   1.534   0.486 -0.1699 -0.4342 -0.0424
  607MPD2     C 8991   0.621   0.477  11.245  0.2648 -0.1696 -0.2045
  607MPD2    C1 8992   0.577   0.547  11.357  0.3144  0.0990 -0.4530
  607MPD2    C2 8993   0.498   0.488  11.451  0.5584  0.4848  0.6647
  607MPD2    C3 8994   0.459   0.356  11.444 -0.9318  0.2696 -0.1049
  607MPD2    C4 8995   0.513   0.284  11.341  0.0161 -0.3091 -0.2828
  607MPD2    C5 8996   0.590   0.347  11.244 -0.3002 -0.6441  0.0299
  607MPD2     H 8997   0.467   0.552  11.532 -1.7081 -1.2029  1.1237
  607MPD2    H1 8998   0.495   0.178  11.330 -2.3357 -0.0590  1.1389
  607MPD2    H2 8999   0.675   0.524  11.163 -2.8370  1.5931 -1.2289
  607MPD2    H3 9000   0.633   0.282  11.169 -1.9982 -2.0004  0.2281
  607MPD2     N 9001   0.391   0.300  11.554  0.0691  0.5993 -0.8646
  607MPD2    H5 9002   0.362   0.362  11.628 -0.7907 -2.3523  1.2926
  607MPD2    N1 9003   0.606   0.683  11.374 -0.0312 -0.1484 -0.6402
  607MPD2    H7 9004   0.549   0.732  11.442  0.5383 -1.4986  0.8113
  608TMC3    C1 9005   0.743   0.860  11.419  0.2458  0.7792  0.1545
  608TMC3    C2 9006   0.716   0.849  11.550 -0.5215  0.4604  0.0775
  608TMC3    C3 9007   0.784   0.929  11.633  0.1805 -0.6098 -1.0798
  608TMC3    C4 9008   0.828   0.953  11.370  0.4263  0.0503  0.6660
  608TMC3    C5 9009   0.873   1.054  11.456  0.3664 -0.0832 -0.7579
  608TMC3    C6 9010   0.854   1.037  11.589  0.5274 -0.2604 -0.3248
  608TMC3     C 9011   0.712   0.750  11.332 -0.5178 -0.0367  0.8836
  608TMC3     O 9012   0.790   0.722  11.236 -0.0646  0.1696  0.0153
  608TMC3     H 9013   0.652   0.771  11.590 -0.2709  0.3950  0.3512
  608TMC3    H1 9014   0.835   0.964  11.263 -3.2541 -2.6008  0.1455
  608TMC3    H2 9015   0.891   1.098  11.671 -1.3143 -2.7597  2.3559
  608TMC3    C7 9016   0.940   1.166  11.405 -0.4850 -0.4454 -0.0614
  608TMC3    C8 9017   0.757   0.925  11.775 -0.4876  0.0644  0.1846
  608TMC3    O1 9018   0.959   1.163  11.284 -0.0207  0.1588  0.1750
  608TMC3    O2 9019   0.751   1.019  11.849 -0.0596 -0.0517 -0.4285
  609TMC3    C1 9020   3.490   4.016   9.191 -0.0106 -0.4197  0.3820
  609TMC3    C2 9021   3.395   3.942   9.129  0.3629 -0.0376 -0.2684
  609TMC3    C3 9022   3.434   3.862   9.023  0.4625 -0.5571  1.0541
  609TMC3    C4 9023   3.622   4.006   9.158  0.1298 -0.2859 -1.0720
  609TMC3    C5 9024   3.663   3.915   9.065  0.0620  0.7671  0.1410
  609TMC3    C6 9025   3.566   3.850   8.989  0.4082  0.0079  1.3606
  609TMC3     C 9026   3.442   4.106   9.297  0.0806  0.1624 -0.1231
  609TMC3     O 9027   3.335   4.080   9.347  0.3789  0.5352  0.5226
  609TMC3     H 9028   3.296   3.939   9.173  0.3742  0.8165 -0.1834
  609TMC3    H1 9029   3.698   4.064   9.208  0.9939 -1.5339 -0.9424
  609TMC3    H2 9030   3.587   3.764   8.926  0.1082  0.7298  0.2574
  609TMC3    C7 9031   3.805   3.907   9.034 -0.0732  0.4525  0.0839
  609TMC3    C8 9032   3.325   3.791   8.948 -0.6250 -0.2583  0.2600
  609TMC3    O1 9033   3.892   3.955   9.107  0.0990  0.0902  0.1481
  609TMC3    O2 9034   3.359   3.712   8.865 -0.1178  0.1483 -0.5453
  610TMC3    C1 9035   0.701   0.105  12.310  0.4826  0.2856  0.0968
  610TMC3    C2 9036   0.745   0.197  12.221  0.1617  0.6699  0.8077
  610TMC3    C3 9037   0.873   0.182  12.165 -0.2749  0.1764  0.2107
  610TMC3    C4 9038   0.779   4.712  12.339 -0.0308  0.0130  0.1799
  610TMC3    C5 9039   0.910   4.702  12.291  0.4498  0.1219 -0.0667
  610TMC3    C6 9040   0.960   0.079  12.203  0.4726  0.2715 -0.2205
  610TMC3     C 9041   0.559   0.084  12.309 -0.6429 -0.0145 -0.0974
  610TMC3     O 9042   0.487   0.182  12.300  0.1227  0.6870  0.2551
  610TMC3     H 9043   0.679   0.280  12.198 -1.2959 -0.8449 -0.4438
  610TMC3    H1 9044   0.745   4.647  12.419  1.0457  1.8259  2.1096
  610TMC3    H2 9045   1.062   0.079  12.168 -0.4125 -1.9110 -2.7561
  610TMC3    C7 9046   1.012   4.617  12.348 -0.6197 -0.0548 -0.4075
  610TMC3    C8 9047   0.913   0.271  12.056  0.1998  0.2919  0.0451
  610TMC3    O1 9048   1.129   4.652  12.331 -0.6401  0.1194  0.2376
  610TMC3    O2 9049   1.008   0.342  12.071  0.4208  0.7144 -0.0093
  611MPD2     C 9050   0.933   0.525  10.001 -0.1475 -0.8559 -0.4850
  611MPD2    C1 9051   0.900   0.644  10.059  0.4601 -0.8007 -0.4537
  611MPD2    C2 9052   0.990   0.749  10.054 -0.6188 -0.2844 -0.3875
  611MPD2    C3 9053   1.121   0.730   9.999  0.0950  1.1390  0.3154
  611MPD2    C4 9054   1.152   0.607   9.939 -0.1302 -0.8256  0.4879
  611MPD2    C5 9055   1.051   0.517   9.936 -0.1669 -0.8371  0.1054
  611MPD2     H 9056   0.961   0.842  10.102  3.0071  1.2828 -1.2170
  611MPD2    H1 9057   1.249   0.594   9.894  0.0241  0.2889  0.4967
  611MPD2    H2 9058   0.868   0.440  10.013 -0.0924 -0.7831  0.2793
  611MPD2    H3 9059   1.075   0.420   9.893  1.1995 -0.1470 -0.6904
  611MPD2     N 9060   1.221   0.823  10.019 -0.2510  0.3245  0.2000
  611MPD2    H5 9061   1.321   0.802  10.015  0.1068  1.7763  1.6039
  611MPD2    N1 9062   0.763   0.656  10.115  0.0188  0.6359  0.8537
  611MPD2    H7 9063   0.722   0.566  10.137  0.4533  0.2942  0.2690
  612TMC3    C1 9064   1.326   1.032  10.064 -0.2821 -0.2477 -0.2909
  612TMC3    C2 9065   1.432   0.968  10.124  0.1179  0.1770 -0.2162
  612TMC3    C3 9066   1.547   1.035  10.129 -0.2696  0.1160  0.3675
  612TMC3    C4 9067   1.331   1.157  10.012 -0.2566  0.3987  0.6310
  612TMC3    C5 9068   1.450   1.219  10.017 -0.5744 -0.4724 -0.3437
  612TMC3    C6 9069   1.556   1.168  10.095 -0.6858  0.3477 -0.2003
  612TMC3     C 9070   1.204   0.953  10.049  0.7641 -0.2862 -0.3509
  612TMC3     O 9071   1.099   1.019  10.050  0.0845  0.1237 -0.3598
  612TMC3     H 9072   1.422   0.868  10.163 -1.1050  0.1706 -0.5510
  612TMC3    H1 9073   1.248   1.203   9.960 -0.4989 -1.1825 -0.3609
  612TMC3    H2 9074   1.650   1.222  10.091 -1.0910  1.1591  1.3112
  612TMC3    C7 9075   1.457   1.342   9.937 -0.7093  0.4188  0.1125
  612TMC3    C8 9076   1.654   0.982  10.212 -0.1484  0.3695 -0.5604
  612TMC3    O1 9077   1.401   1.329   9.827  0.0174  0.0588 -0.3921
  612TMC3    O2 9078   1.763   1.030  10.184 -0.5980 -0.4912 -0.4391
  613MPD2     C 9079   3.037   2.449  16.697 -0.6180  0.5436  0.2188
  613MPD2    C1 9080   3.081   2.424  16.569  0.8370 -0.7667  0.3072
  613MPD2    C2 9081   3.095   2.287  16.535  0.5733  0.1034  0.4869
  613MPD2    C3 9082   3.061   2.182  16.620 -0.3390  0.1544  0.6094
  613MPD2    C4 9083   3.025   2.209  16.751  0.7926  0.1258 -0.7960
  613MPD2    C5 9084   3.013   2.345  16.784 -0.0365 -0.3688  0.4808
  613MPD2     H 9085   3.149   2.270  16.443  1.4914  1.8980  0.6981
  613MPD2    H1 9086   3.029   2.141  16.836  0.9768  0.6346 -0.3981
  613MPD2    H2 9087   3.024   2.550  16.734 -0.2793  1.8798 -3.3240
  613MPD2    H3 9088   2.989   2.357  16.889  0.4098  0.0017  0.5391
  613MPD2     N 9089   3.105   2.050  16.600  0.2021 -0.1515  0.1068
  613MPD2    H5 9090   3.097   1.981  16.673  0.5523 -1.8225 -1.4517
  613MPD2    N1 9091   3.140   2.525  16.497  0.7678  0.3811 -0.0603
  613MPD2    H7 9092   3.188   2.487  16.416 -2.4120  0.4121 -1.9496
  614TMC3    C1 9093   3.246   2.705  16.423 -0.6054 -0.1011 -0.1502
  614TMC3    C2 9094   3.364   2.643  16.436  0.7741 -0.4179  0.3563
  614TMC3    C3 9095   3.439   2.615  16.325 -0.4750  0.6333 -0.3076
  614TMC3    C4 9096   3.192   2.737  16.303  0.7077 -0.0293  0.0371
  614TMC3    C5 9097   3.265   2.705  16.195  0.4093  0.0245 -0.3828
  614TMC3    C6 9098   3.386   2.643  16.196  0.0496  0.3010  0.3132
  614TMC3     C 9099   3.151   2.654  16.521 -0.5400  0.1533  0.1976
  614TMC3     O 9100   3.089   2.735  16.586 -0.1724 -0.1388 -0.0312
  614TMC3     H 9101   3.399   2.607  16.532 -0.2398 -1.4380  0.3534
  614TMC3    H1 9102   3.092   2.778  16.301  1.0438  0.8600  0.8054
  614TMC3    H2 9103   3.447   2.618  16.110 -0.5794  1.0499 -0.3475
  614TMC3    C7 9104   3.201   2.736  16.071  0.2286  0.2149  0.0093
  614TMC3    C8 9105   3.495   2.486  16.341 -0.2270 -0.1980  0.4241
  614TMC3    O1 9106   3.107   2.815  16.075  0.0335 -0.2302 -0.4873
  614TMC3    O2 9107   3.425   2.408  16.405  0.1937 -0.1241  0.5086
  615MPD2     C 9108   2.706   3.629  15.845 -0.1869 -0.6945  0.1446
  615MPD2    C1 9109   2.629   3.566  15.942  0.4504  0.3121 -0.3871
  615MPD2    C2 9110   2.527   3.479  15.905 -0.0201 -0.6509 -0.1435
  615MPD2    C3 9111   2.507   3.461  15.769  0.6984 -0.6742  0.0107
  615MPD2    C4 9112   2.582   3.529  15.678 -0.2685 -0.7020  0.3026
  615MPD2    C5 9113   2.681   3.612  15.714 -0.0597  0.1092 -0.6534
  615MPD2     H 9114   2.457   3.442  15.979 -0.6503  0.0316 -0.3884
  615MPD2    H1 9115   2.557   3.525  15.573 -1.4819  1.3251  0.4981
  615MPD2    H2 9116   2.790   3.690  15.877  0.3633 -1.0871 -0.5785
  615MPD2    H3 9117   2.739   3.661  15.637 -0.8519  1.1290 -0.6005
  615MPD2     N 9118   2.402   3.374  15.715  0.3378 -0.1413  0.2358
  615MPD2    H5 9119   2.402   3.372  15.613  2.6252  0.3152  0.2305
  615MPD2    N1 9120   2.652   3.590  16.082 -0.9443 -0.0460  0.4319
  615MPD2    H7 9121   2.603   3.532  16.148 -0.7725 -0.9739 -0.2553
  616TMC3    C1 9122   2.717   3.689  16.275  0.4882 -0.4029 -0.4159
  616TMC3    C2 9123   2.728   3.812  16.335  0.4314 -0.3917 -0.2645
  616TMC3    C3 9124   2.797   3.817  16.456  0.5373 -0.1106  0.1084
  616TMC3    C4 9125   2.790   3.584  16.321 -0.3523  0.4094 -0.2471
  616TMC3    C5 9126   2.859   3.595  16.432 -0.3163  0.7345  0.3194
  616TMC3    C6 9127   2.858   3.707  16.508  0.0925 -0.1355  0.0572
  616TMC3     C 9128   2.708   3.696  16.131  0.0970 -0.3874 -0.0498
  616TMC3     O 9129   2.733   3.802  16.070 -0.0223  0.6001  0.2674
  616TMC3     H 9130   2.680   3.903  16.301  2.9627  0.7425 -0.7874
  616TMC3    H1 9131   2.775   3.492  16.265  3.0446  0.1052 -0.6736
  616TMC3    H2 9132   2.904   3.714  16.606 -0.5233 -0.5934  0.3789
  616TMC3    C7 9133   2.942   3.479  16.479 -0.4306  0.2995 -0.2730
  616TMC3    C8 9134   2.831   3.954  16.509 -0.1049  0.3746  0.3682
  616TMC3    O1 9135   2.994   3.407  16.397 -0.1095 -0.3008 -0.3829
  616TMC3    O2 9136   2.735   4.027  16.528 -0.4301 -0.1947  0.2641
  617MPD2     C 9137   1.446   2.367  13.499 -0.6536  0.1979  0.2886
  617MPD2    C1 9138   1.360   2.363  13.611 -0.3978 -0.5228  0.5816
  617MPD2    C2 9139   1.231   2.324  13.579  0.0450  0.2490 -0.4331
  617MPD2    C3 9140   1.198   2.272  13.450 -0.1320 -0.0497 -0.2715
  617MPD2    C4 9141   1.293   2.259  13.349 -0.5265 -0.1340  0.6207
  617MPD2    C5 9142   1.416   2.318  13.371  1.2855  0.7304 -0.6548
  617MPD2     H 9143   1.158   2.319  13.659  0.8075  0.8039  0.2940
  617MPD2    H1 9144   1.282   2.226  13.246  1.1243  1.8695 -0.1897
  617MPD2    H2 9145   1.549   2.396  13.518 -1.0417  1.5246  0.4057
  617MPD2    H3 9146   1.493   2.329  13.296  0.7085 -0.3226 -1.4005
  617MPD2     N 9147   1.067   2.227  13.412  0.7939 -0.5152 -0.4809
  617MPD2    H5 9148   1.049   2.193  13.318  0.3856 -1.0461 -0.2071
  617MPD2    N1 9149   1.411   2.404  13.742  0.0060  0.6361  0.4116
  617MPD2    H7 9150   1.510   2.417  13.757  0.4727  0.5214 -2.5784
  618TMC3    C1 9151   1.433   2.382  13.981 -1.0223  0.4997  0.2813
  618TMC3    C2 9152   1.459   2.258  14.037 -0.1888 -0.2640  0.0185
  618TMC3    C3 9153   1.586   2.236  14.088 -1.3102  0.4771 -0.4070
  618TMC3    C4 9154   1.531   2.477  13.985  0.4005  0.0043 -0.1247
  618TMC3    C5 9155   1.647   2.460  14.049 -0.3506 -0.1090 -0.3738
  618TMC3    C6 9156   1.674   2.338  14.113 -0.5091 -0.3150  0.3664
  618TMC3     C 9157   1.343   2.378  13.864  0.1298  0.1782 -0.3026
  618TMC3     O 9158   1.238   2.320  13.879  0.4740 -0.0177  0.5002
  618TMC3     H 9159   1.396   2.170  14.028 -0.7353  0.2698 -1.2770
  618TMC3    H1 9160   1.491   2.571  13.949  3.2084  1.3476  0.2210
  618TMC3    H2 9161   1.765   2.315  14.167 -0.1883 -0.5382 -0.2665
  618TMC3    C7 9162   1.699   2.587  14.096 -0.4050  0.7180 -0.2573
  618TMC3    C8 9163   1.630   2.099  14.087  0.2379  0.0522 -0.0213
  618TMC3    O1 9164   1.613   2.665  14.128 -0.3369 -0.1349 -0.1573
  618TMC3    O2 9165   1.549   2.009  14.089 -0.3003  0.2205 -1.3325
  619MPD2     C 9166   3.012   3.878  13.722 -1.4084  0.1636 -0.5761
  619MPD2    C1 9167   2.914   3.932  13.640  0.0772 -0.1755  0.1617
  619MPD2    C2 9168   2.831   3.848  13.585 -0.4622 -0.4589  0.0467
  619MPD2    C3 9169   2.818   3.711  13.607  0.1468  0.3737 -0.0951
  619MPD2    C4 9170   2.922   3.660  13.683  0.6185  0.7450  1.0342
  619MPD2    C5 9171   3.013   3.743  13.747 -0.2891 -0.0936  0.6478
  619MPD2     H 9172   2.766   3.886  13.507  0.3539 -0.0573 -0.4346
  619MPD2    H1 9173   2.928   3.554  13.705 -0.0510  0.2027 -1.4513
  619MPD2    H2 9174   3.094   3.931  13.769 -1.4111  0.1294 -0.5331
  619MPD2    H3 9175   3.090   3.711  13.816  0.4642 -1.1806 -0.6916
  619MPD2     N 9176   2.731   3.621  13.540  0.4665  0.1965  0.0722
  619MPD2    H5 9177   2.726   3.527  13.578  0.8637  0.0259 -0.2925
  619MPD2    N1 9178   2.891   4.070  13.609  0.2879  0.4858 -0.3023
  619MPD2    H7 9179   2.816   4.094  13.546 -0.1641 -1.4130 -0.4990
  620TMC3    C1 9180   2.934   4.306  13.618  0.5322  0.2093 -0.6415
  620TMC3    C2 9181   2.882   4.321  13.495 -0.4146  0.0851  0.3697
  620TMC3    C3 9182   2.835   4.444  13.470 -0.0337 -0.6975 -0.1552
  620TMC3    C4 9183   2.952   4.407  13.714  0.0442  0.3112 -0.8828
  620TMC3    C5 9184   2.910   4.533  13.682  0.1477  0.1204 -0.9345
  620TMC3    C6 9185   2.853   4.545  13.556  0.4282  0.1275  0.3179
  620TMC3     C 9186   2.952   4.173  13.673  0.0214 -0.4063 -0.0208
  620TMC3     O 9187   3.027   4.170  13.769 -0.1619  1.0086  0.7595
  620TMC3     H 9188   2.843   4.241  13.433  1.3577 -1.3983  1.1947
  620TMC3    H1 9189   2.998   4.399  13.811 -1.0176  2.1228 -0.2392
  620TMC3    H2 9190   2.803   4.636  13.527 -0.9978 -0.1453  1.9092
  620TMC3    C7 9191   2.856   4.616  13.788 -0.5419  0.0239 -1.0114
  620TMC3    C8 9192   2.712   4.444  13.399  0.0880  0.2396 -0.7825
  620TMC3    O1 9193   2.827   0.004  13.742 -0.2735  0.6681 -0.1577
  620TMC3    O2 9194   2.621   4.510  13.447 -0.1264 -0.3401  0.1323
  621MPD2     C 9195   2.930   3.668  10.219  1.1063  0.4504 -0.3814
  621MPD2    C1 9196   3.052   3.607  10.236  0.4905  0.1263 -0.2010
  621MPD2    C2 9197   3.160   3.621  10.150  0.0593 -0.3692 -0.6877
  621MPD2    C3 9198   3.149   3.717  10.053 -0.2784 -0.2045 -0.0345
  621MPD2    C4 9199   3.030   3.786  10.032 -0.0207  0.2279 -0.1638
  621MPD2    C5 9200   2.919   3.753  10.114  0.9378  0.5470  0.5238
  621MPD2     H 9201   3.254   3.568  10.161 -0.3476 -0.8405  0.5101
  621MPD2    H1 9202   3.020   3.863   9.956  1.3450 -0.0355 -0.6020
  621MPD2    H2 9203   2.845   3.657  10.286  0.3869  1.0939 -1.1930
  621MPD2    H3 9204   2.826   3.807  10.103  1.3451  0.5878 -2.6751
  621MPD2     N 9205   3.267   3.744   9.978  0.2893  0.6655  0.1569
  621MPD2    H5 9206   3.355   3.703  10.007 -0.4519  0.5389  2.1905
  621MPD2    N1 9207   3.056   3.514  10.343 -0.5166 -0.2409  0.1581
  621MPD2    H7 9208   2.967   3.498  10.389  0.6852 -1.9650  1.8942
  622TMC3    C1 9209   3.112   3.307  10.433 -0.5850 -0.1438  0.0306
  622TMC3    C2 9210   3.024   3.341  10.532 -0.5820  0.0770  0.7464
  622TMC3    C3 9211   2.961   3.234  10.583  0.2774 -0.1839  0.3185
  622TMC3    C4 9212   3.120   3.182  10.373 -0.2520 -0.3243  0.8524
  622TMC3    C5 9213   3.047   3.080  10.432 -0.3109  1.3841 -0.2971
  622TMC3    C6 9214   2.962   3.109  10.532 -0.4449 -0.4200 -0.8415
  622TMC3     C 9215   3.155   3.422  10.354  0.0558  0.0342  0.2981
  622TMC3     O 9216   3.254   3.401  10.282  0.5133 -0.3695 -0.5927
  622TMC3     H 9217   3.004   3.442  10.564  0.3072  0.3148  0.5485
  622TMC3    H1 9218   3.175   3.164  10.281  0.2486 -1.5115  1.3955
  622TMC3    H2 9219   2.913   3.028  10.584  0.4278 -0.3272  0.1180
  622TMC3    C7 9220   3.034   2.945  10.371  0.7452  0.0423 -0.0991
  622TMC3    C8 9221   2.868   3.238  10.694 -0.6198 -0.4767  0.0817
  622TMC3    O1 9222   2.991   2.857  10.446 -0.1264  0.1294 -0.0614
  622TMC3    O2 9223   2.828   3.134  10.751 -0.4195 -0.2113  0.2261
  623MPD2     C 9224   1.044   4.386  15.710  0.1302 -0.2487  0.5604
  623MPD2    C1 9225   0.970   4.393  15.828 -0.3991  0.3923  0.7914
  623MPD2    C2 9226   1.030   4.352  15.943  0.0056  0.3493  0.7648
  623MPD2    C3 9227   1.162   4.307  15.950 -0.7258 -0.3573 -0.2558
  623MPD2    C4 9228   1.232   4.308  15.836 -0.0968 -0.3837 -0.2589
  623MPD2    C5 9229   1.171   4.342  15.717 -0.0360  0.0816  0.1361
  623MPD2     H 9230   0.967   4.344  16.030 -0.2517  3.5136  0.8536
  623MPD2    H1 9231   1.338   4.283  15.832 -0.7701 -3.2183 -0.2189
  623MPD2    H2 9232   1.000   4.421  15.618 -3.4435 -3.5666  1.0042
  623MPD2    H3 9233   1.230   4.324  15.628 -0.3106 -0.0997 -0.0070
  623MPD2     N 9234   1.208   4.246  16.069  0.0827 -0.3634  0.0066
  623MPD2    H5 9235   1.134   4.216  16.131  0.8443 -0.7156  0.7468
  623MPD2    N1 9236   0.833   4.408  15.816 -0.2348  0.2551  0.3924
  623MPD2    H7 9237   0.799   4.385  15.723  0.6135 -1.6099  0.5503
  624TMC3    C1 9238   1.514   3.988  16.334  0.4469  0.4040  0.2751
  624TMC3    C2 9239   1.410   3.927  16.403  0.3824 -0.9580 -0.3318
  624TMC3    C3 9240   1.288   3.963  16.375 -0.2844  0.8934  0.0354
  624TMC3    C4 9241   1.492   4.082  16.231  0.2073 -0.1375 -0.2260
  624TMC3    C5 9242   1.362   4.115  16.208 -0.0265  0.0199 -0.3865
  624TMC3    C6 9243   1.260   4.058  16.274 -0.6742 -0.2176  1.0322
  624TMC3     C 9244   1.644   3.937  16.373 -0.0809 -0.9942  0.1902
  624TMC3     O 9245   1.654   3.877  16.477 -0.1379 -0.2771 -0.0154
  624TMC3     H 9246   1.428   3.848  16.475 -2.1511  0.0697  1.4281
  624TMC3    H1 9247   1.570   4.131  16.175  2.6344 -2.3041  1.2906
  624TMC3    H2 9248   1.154   4.060  16.248  0.0730 -0.5217 -2.0444
  624TMC3    C7 9249   1.338   4.209  16.097  0.5410 -0.0511 -0.0342
  624TMC3    C8 9250   1.180   3.886  16.433 -0.2562  0.0835  0.6849
  624TMC3    O1 9251   1.430   4.260  16.033 -0.6462 -0.3630  0.0958
  624TMC3    O2 9252   1.205   3.768  16.466  0.6162 -0.5021  0.5063
  625MPD2     C 9253   2.714   0.314   0.358  0.4516  0.1351  0.4016
  625MPD2    C1 9254   2.676   0.336   0.492 -0.1996  0.7928  0.6904
  625MPD2    C2 9255   2.765   0.294   0.586 -0.4678  0.7066 -0.2772
  625MPD2    C3 9256   2.888   0.236   0.553  0.4603  0.2386  0.3327
  625MPD2    C4 9257   2.926   0.218   0.419  0.3872  0.4999 -0.3745
  625MPD2    C5 9258   2.839   0.260   0.321 -0.3942 -0.0879  0.4592
  625MPD2     H 9259   2.743   0.324   0.688  1.2829  0.3410  0.2164
  625MPD2    H1 9260   3.024   0.176   0.398 -0.0879 -0.3841 -0.8095
  625MPD2    H2 9261   2.650   0.340   0.274  1.5485 -0.4121 -0.5949
  625MPD2    H3 9262   2.878   0.252   0.220 -1.8696 -2.0661  0.0610
  625MPD2     N 9263   2.974   0.206   0.662  0.3010  0.5645  0.0030
  625MPD2    H5 9264   2.940   0.216   0.757  1.1507 -0.3885  0.4027
  625MPD2    N1 9265   2.560   0.416   0.528 -0.0072  0.0275 -0.5180
  625MPD2    H7 9266   2.544   0.441   0.625  1.4874  1.2848 -0.6087
  626TMC3    C1 9267   2.365   0.547   0.502  0.9637 -0.0881  0.6934
  626TMC3    C2 9268   2.279   0.609   0.421  0.3174 -0.3238  0.2385
  626TMC3    C3 9269   2.163   0.659   0.466  0.3281 -0.1992 -0.2845
  626TMC3    C4 9270   2.339   0.537   0.632  0.3340 -0.1895  0.4233
  626TMC3    C5 9271   2.225   0.593   0.675 -0.0996  0.3043  0.3326
  626TMC3    C6 9272   2.135   0.662   0.598  0.4470 -0.4443  0.4331
  626TMC3     C 9273   2.477   0.483   0.436  0.3906 -0.5224  1.2640
  626TMC3     O 9274   2.476   0.490   0.312  0.0199  0.4359  0.6446
  626TMC3     H 9275   2.292   0.608   0.313  0.4448 -2.4092  0.2576
  626TMC3    H1 9276   2.400   0.476   0.699  0.0159  0.1683  1.0436
  626TMC3    H2 9277   2.046   0.708   0.642 -0.8084 -0.1504 -2.3931
  626TMC3    C7 9278   2.211   0.584   0.821  0.9063  0.0872  0.3959
  626TMC3    C8 9279   2.060   0.702   0.376  0.6948 -0.1729  0.3766
  626TMC3    O1 9280   2.310   0.566   0.891 -0.1237  0.7387 -1.1790
  626TMC3    O2 9281   2.096   0.759   0.272  0.1199  0.2109 -0.3434
  627MPD2     C 9282   0.421   1.225  14.209  0.2929 -0.1031 -0.5001
  627MPD2    C1 9283   0.550   1.199  14.170  0.3461  0.0772 -0.3227
  627MPD2    C2 9284   0.593   1.074  14.118 -0.4169  0.3998 -0.0962
  627MPD2    C3 9285   0.506   0.967  14.131 -0.5968  0.0705  0.2030
  627MPD2    C4 9286   0.373   0.993  14.162 -0.0619  0.0310 -0.3102
  627MPD2    C5 9287   0.334   1.117  14.202  1.1357  0.0751  0.2525
  627MPD2     H 9288   0.693   1.066  14.077 -0.9489 -0.8687 -1.1469
  627MPD2    H1 9289   0.295   0.917  14.165 -0.3486  0.3508  0.2814
  627MPD2    H2 9290   0.388   1.323  14.241 -0.3953 -0.2369 -0.7980
  627MPD2    H3 9291   0.229   1.130  14.224  1.1588 -1.9843  1.5326
  627MPD2     N 9292   0.558   0.843  14.111  0.1868 -0.1719 -0.4949
  627MPD2    H5 9293   0.657   0.833  14.087 -0.2179 -3.6753 -0.6578
  627MPD2    N1 9294   0.651   1.295  14.185 -0.2614 -0.0244 -0.3515
  627MPD2    H7 9295   0.746   1.260  14.172 -0.5873 -0.1605 -2.3461
  628TMC3    C1 9296   0.769   1.469  14.285  0.3323 -0.9525  0.9539
  628TMC3    C2 9297   0.867   1.377  14.305  0.0852  0.2782  0.1944
  628TMC3    C3 9298   0.997   1.429  14.325  0.6940 -0.0775  0.1669
  628TMC3    C4 9299   0.806   1.599  14.258  0.0702  0.0603  0.0784
  628TMC3    C5 9300   0.936   1.634  14.264  0.1754  0.4006 -0.0004
  628TMC3    C6 9301   1.036   1.558  14.297  0.4222  0.5808 -0.2945
  628TMC3     C 9302   0.643   1.423  14.239  0.1568 -0.0400 -0.0852
  628TMC3     O 9303   0.547   1.488  14.266 -0.0215  0.1016 -0.1940
  628TMC3     H 9304   0.850   1.271  14.323  0.6747  0.4516  1.7643
  628TMC3    H1 9305   0.733   1.679  14.254 -3.0188 -2.9471 -3.0434
  628TMC3    H2 9306   1.136   1.593  14.318  0.3606  2.0286 -2.3715
  628TMC3    C7 9307   0.957   1.771  14.224 -0.1978 -0.0731 -0.8524
  628TMC3    C8 9308   1.102   1.349  14.386 -0.5349  0.1861 -0.3328
  628TMC3    O1 9309   1.076   1.803  14.230  0.5982 -0.3074  0.3515
  628TMC3    O2 9310   1.225   1.383  14.381  0.4676  0.4822 -0.1094
  629MPD2     C 9311   3.122   4.207  16.838  0.7406  0.1543  0.1416
  629MPD2    C1 9312   3.205   4.147  16.745 -0.6245  0.2530  0.5918
  629MPD2    C2 9313   3.147   4.070  16.645 -0.1080 -0.0524  0.1022
  629MPD2    C3 9314   3.012   4.061  16.632  0.2437 -0.0151  0.1438
  629MPD2    C4 9315   2.931   4.129  16.716  0.9131  0.2361 -0.8267
  629MPD2    C5 9316   2.987   4.197  16.818  0.4412  0.3839  0.2140
  629MPD2     H 9317   3.213   4.013  16.580 -1.4583 -0.0770 -1.2560
  629MPD2    H1 9318   2.823   4.122  16.709  0.8793  0.7728 -0.7897
  629MPD2    H2 9319   3.153   4.274  16.917 -1.2672 -0.3249  1.3386
  629MPD2    H3 9320   2.923   4.262  16.876 -1.1650  0.5013 -1.6671
  629MPD2     N 9321   2.964   3.972  16.534 -0.1556  0.4664 -0.0708
  629MPD2    H5 9322   3.033   3.908  16.496 -0.8904 -1.0466  1.1531
  629MPD2    N1 9323   3.340   4.173  16.759 -0.1673 -0.2388 -0.4542
  629MPD2    H7 9324   3.363   4.233  16.837 -1.5481  1.5070 -1.4079
  630TMC3    C1 9325   3.565   4.214  16.708 -0.0042  0.5037 -0.1657
  630TMC3    C2 9326   3.638   4.264  16.606  0.2966 -0.3231 -0.5683
  630TMC3    C3 9327   3.773   4.259  16.630 -0.1052  0.1354  0.3683
  630TMC3    C4 9328   3.616   4.169  16.829 -0.8355  0.0472 -0.3668
  630TMC3    C5 9329   3.743   4.188  16.860  1.0841 -0.0441 -0.3875
  630TMC3    C6 9330   3.826   4.215  16.753 -0.2692 -0.0688 -0.1132
  630TMC3     C 9331   3.439   4.163  16.660  0.4953  0.0957 -0.1123
  630TMC3     O 9332   3.435   4.114  16.546 -0.3158  0.1187  0.7745
  630TMC3     H 9333   3.586   4.296  16.516 -1.4827 -0.8931  0.2571
  630TMC3    H1 9334   3.542   4.157  16.907  0.5274 -0.9401  0.7648
  630TMC3    H2 9335   3.932   4.213  16.777 -0.0879  0.1245 -0.8708
  630TMC3    C7 9336   3.794   4.104  16.962 -0.1921  0.5696  0.3998
  630TMC3    C8 9337   3.855   4.339  16.543 -0.9065 -0.0462 -0.6989
  630TMC3    O1 9338   3.904   4.132  17.000 -0.1980 -0.3314  0.2339
  630TMC3    O2 9339   3.976   4.309  16.560  0.2438 -0.3607  0.1314
  631MPD2     C 9340   1.461   3.690  15.643  0.1041  1.0158  0.0845
  631MPD2    C1 9341   1.569   3.733  15.560  0.3020  0.7161  0.5730
  631MPD2    C2 9342   1.669   3.644  15.541 -0.4602  0.1430  0.0642
  631MPD2    C3 9343   1.675   3.525  15.609 -0.9502 -0.1222  0.3685
  631MPD2    C4 9344   1.580   3.490  15.700 -0.1839 -0.0351  0.0719
  631MPD2    C5 9345   1.474   3.574  15.714  0.3298  0.0699 -0.1964
  631MPD2     H 9346   1.754   3.670  15.479 -1.2289  2.3342 -0.0645
  631MPD2    H1 9347   1.576   3.397  15.756  0.6737 -0.6018 -0.8081
  631MPD2    H2 9348   1.369   3.747  15.646  0.0610  0.9945 -1.0905
  631MPD2    H3 9349   1.403   3.542  15.789  0.6292  0.8186  0.4061
  631MPD2     N 9350   1.787   3.443  15.587  0.0287  0.2785  0.2692
  631MPD2    H5 9351   1.850   3.485  15.519  0.9314 -0.3439  0.7127
  631MPD2    N1 9352   1.558   3.858  15.506 -0.2714 -0.2382  0.3936
  631MPD2    H7 9353   1.482   3.914  15.544  0.3217  0.9104 -0.0964
  632TMC3    C1 9354   1.636   4.054  15.389  0.2849 -0.7069  0.1451
  632TMC3    C2 9355   1.593   4.141  15.487  0.4032 -0.1514  0.4742
  632TMC3    C3 9356   1.597   4.277  15.451 -0.1246 -0.1031 -0.6137
  632TMC3    C4 9357   1.704   4.094  15.276  0.3792 -0.3633  0.2159
  632TMC3    C5 9358   1.709   4.227  15.245 -0.1135  0.1013 -0.0888
  632TMC3    C6 9359   1.645   4.316  15.327  0.3803 -1.2250  0.5979
  632TMC3     C 9360   1.647   3.911  15.418 -0.5188  0.3200 -0.1310
  632TMC3     O 9361   1.714   3.846  15.339  0.2438 -0.1644  0.2771
  632TMC3     H 9362   1.571   4.113  15.590 -0.9677  2.2369  0.8372
  632TMC3    H1 9363   1.746   4.023  15.205  0.6117 -2.3637  2.3593
  632TMC3    H2 9364   1.664   4.421  15.308  2.8172 -1.6264  0.7897
  632TMC3    C7 9365   1.753   4.269  15.121 -0.5062 -0.9427  0.4905
  632TMC3    C8 9366   1.526   4.370  15.531  0.0642 -0.4345  0.1381
  632TMC3    O1 9367   1.724   4.379  15.079 -1.0570 -0.3732 -0.1160
  632TMC3    O2 9368   1.513   4.342  15.649  0.3353  0.0846  0.4499
  633MPD2     C 9369   1.878   2.066  17.390  0.6593  0.0373 -0.0591
  633MPD2    C1 9370   1.868   2.007  17.266  0.3085  0.2843 -0.0613
  633MPD2    C2 9371   1.877   1.871  17.255 -0.4485 -1.0704  0.4108
  633MPD2    C3 9372   1.877   1.786  17.364  0.5006  0.0702 -0.5014
  633MPD2    C4 9373   1.879   1.844  17.488  0.3712  0.0601 -0.0154
  633MPD2    C5 9374   1.876   1.980  17.499  0.4825  0.4658 -0.7364
  633MPD2     H 9375   1.880   1.827  17.156 -0.0805 -1.7140  0.7087
  633MPD2    H1 9376   1.894   1.785  17.578  0.0980  1.1861  0.7662
  633MPD2    H2 9377   1.879   2.173  17.409  1.6430 -0.0059  0.1142
  633MPD2    H3 9378   1.880   2.018  17.600  1.6348 -1.0428 -0.2185
  633MPD2     N 9379   1.899   1.649  17.352 -0.2070  0.3343  0.1205
  633MPD2    H5 9380   1.907   1.590  17.435 -0.2943  3.4616  2.3421
  633MPD2    N1 9381   1.874   2.087  17.154 -0.4948 -0.3280 -0.4373
  633MPD2    H7 9382   1.883   2.035  17.066 -0.4375 -3.1027  1.2082
  634TMC3    C1 9383   1.867   2.278  17.022 -0.1432 -0.0591 -0.1206
  634TMC3    C2 9384   1.963   2.236  16.931 -0.6843  0.1214  0.8105
  634TMC3    C3 9385   1.953   2.291  16.804 -0.1361  0.2443 -0.1068
  634TMC3    C4 9386   1.791   2.387  16.995 -0.8060  0.0304 -0.4218
  634TMC3    C5 9387   1.791   2.447  16.871 -0.2353 -0.1235  0.4465
  634TMC3    C6 9388   1.871   2.391  16.772 -0.1303  0.3443  0.2812
  634TMC3     C 9389   1.874   2.226  17.152  0.2848  0.5711  0.1252
  634TMC3     O 9390   1.851   2.311  17.242 -0.4848  0.3889 -0.7056
  634TMC3     H 9391   2.035   2.157  16.945  0.1289  0.8705  0.8174
  634TMC3    H1 9392   1.711   2.409  17.065 -0.8363 -0.1843 -0.3906
  634TMC3    H2 9393   1.866   2.428  16.670 -0.0760  0.6525  0.3902
  634TMC3    C7 9394   1.676   2.505  16.820 -0.1748 -0.1472 -0.5394
  634TMC3    C8 9395   1.986   2.193  16.693  0.2901 -0.2938  0.0669
  634TMC3    O1 9396   1.650   2.479  16.701 -0.5024 -0.2919 -0.3446
  634TMC3    O2 9397   1.970   2.073  16.708 -1.3745 -0.2141  0.3412
  635TMC3    C1 9398   2.282   3.570   1.160 -0.1293  0.1458 -0.6949
  635TMC3    C2 9399   2.381   3.553   1.257  0.8257  0.4381 -0.2810
  635TMC3    C3 9400   2.347   3.470   1.363 -0.2753 -0.4571 -0.2537
  635TMC3    C4 9401   2.162   3.513   1.158  0.0034  0.1610  1.1644
  635TMC3    C5 9402   2.134   3.425   1.264  0.8626 -0.9157 -0.3198
  635TMC3    C6 9403   2.228   3.403   1.367  0.2148 -0.5817  0.2331
  635TMC3     C 9404   2.327   3.655   1.042  0.5434  0.2629 -0.0056
  635TMC3     O 9405   2.439   3.634   0.997 -0.3362  0.6824 -0.4123
  635TMC3     H 9406   2.479   3.596   1.245  1.3899 -0.6243  0.4651
  635TMC3    H1 9407   2.087   3.541   1.085  1.8345 -2.0982 -1.5707
  635TMC3    H2 9408   2.214   3.332   1.448  2.3507  0.3175  1.3918
  635TMC3    C7 9409   2.027   3.335   1.248 -0.4831  0.7879  0.3055
  635TMC3    C8 9410   2.450   3.430   1.464 -0.1626  0.9266  0.0442
  635TMC3    O1 9411   1.964   3.345   1.143 -0.0717  0.1156  0.1336
  635TMC3    O2 9412   2.423   3.323   1.518 -0.1394 -0.0126 -0.5545
  636MPD2     C 9413   3.237   2.199  15.744 -0.5470  0.8168 -0.3148
  636MPD2    C1 9414   3.127   2.215  15.832  0.2332  0.1221  0.2989
  636MPD2    C2 9415   3.125   2.146  15.951 -0.2919  0.4735 -0.4229
  636MPD2    C3 9416   3.222   2.053  15.983 -0.0844 -0.0160 -0.6008
  636MPD2    C4 9417   3.337   2.046  15.898  0.2689  0.5449  0.0994
  636MPD2    C5 9418   3.340   2.114  15.778  0.8064  0.4418 -0.9293
  636MPD2     H 9419   3.045   2.158  16.023 -0.1508 -1.1645  0.0008
  636MPD2    H1 9420   3.429   1.995  15.924  0.6972  0.5266 -1.4070
  636MPD2    H2 9421   3.239   2.239  15.643  0.3523  0.0166 -0.6172
  636MPD2    H3 9422   3.426   2.104  15.713  1.1189  0.4905 -0.5227
  636MPD2     N 9423   3.207   1.963  16.095 -1.0241  0.5530 -0.3322
  636MPD2    H5 9424   3.139   1.982  16.168 -1.1232 -4.0419  0.7145
  636MPD2    N1 9425   3.022   2.304  15.810 -0.4371 -0.0808 -0.1496
  636MPD2    H7 9426   2.955   2.324  15.885 -0.9817  0.0486 -0.6726
  637TMC3    C1 9427   3.289   1.814  16.257 -0.0456 -0.0583 -0.0918
  637TMC3    C2 9428   3.177   1.840  16.330  0.2086 -0.3294  0.7759
  637TMC3    C3 9429   3.195   1.878  16.463  0.0009  0.1297 -0.0916
  637TMC3    C4 9430   3.417   1.827  16.308  0.2394  0.3287 -0.4010
  637TMC3    C5 9431   3.423   1.875  16.440 -0.1441 -0.3083 -0.3690
  637TMC3    C6 9432   3.317   1.899  16.518  0.3864  0.3349 -0.1410
  637TMC3     C 9433   3.289   1.854  16.118  0.3258  0.5101  0.1353
  637TMC3     O 9434   3.369   1.800  16.039  0.1493  0.1517 -0.3395
  637TMC3     H 9435   3.081   1.861  16.285  1.0664 -0.0586 -0.9280
  637TMC3    H1 9436   3.502   1.803  16.246  0.7226 -0.1514  0.4420
  637TMC3    H2 9437   3.334   1.930  16.621 -0.9925  2.1034 -0.4417
  637TMC3    C7 9438   3.526   1.970  16.471 -0.9660 -0.6218 -0.5402
  637TMC3    C8 9439   3.127   2.004  16.472  0.1480  0.0642 -0.3959
  637TMC3    O1 9440   3.499   2.062  16.547  0.0096  0.2362 -0.1027
  637TMC3    O2 9441   3.112   2.064  16.366 -0.3281  0.4299  0.5137
  638MPD2     C 9442   2.926   1.445  15.144 -0.7283  0.3705 -0.3451
  638MPD2    C1 9443   2.935   1.350  15.052  0.1021  0.6736  0.2604
  638MPD2    C2 9444   2.929   1.217  15.082  0.3651  0.0042 -0.1672
  638MPD2    C3 9445   2.914   1.175  15.210 -0.9764  0.2510 -0.5529
  638MPD2    C4 9446   2.916   1.271  15.304  0.1807 -0.4220 -0.5674
  638MPD2    C5 9447   2.921   1.408  15.278 -0.1138  0.0317  0.5815
  638MPD2     H 9448   2.948   1.142  15.007 -0.7399  0.1549 -0.5954
  638MPD2    H1 9449   2.905   1.241  15.408 -0.5523 -0.6891 -0.7251
  638MPD2    H2 9450   2.945   1.548  15.118 -2.7636  1.2519  1.6001
  638MPD2    H3 9451   2.921   1.476  15.362  0.2115  0.1843  0.4550
  638MPD2     N 9452   2.897   1.041  15.239 -0.1119 -0.1218 -0.8956
  638MPD2    H5 9453   2.894   0.976  15.161 -2.2138 -0.4554 -0.5252
  638MPD2    N1 9454   2.962   1.394  14.920  0.3246 -0.1873 -0.6065
  638MPD2    H7 9455   2.984   1.493  14.910 -0.7367  0.0578 -0.5281
  639TMC3    C1 9456   2.857   0.834  15.337  0.3344  0.3976  0.0619
  639TMC3    C2 9457   2.804   0.788  15.221 -0.1041  0.1632  0.3485
  639TMC3    C3 9458   2.779   0.659  15.196  0.1832  0.0943 -0.0784
  639TMC3    C4 9459   2.901   0.745  15.429 -0.4728  0.0163  0.2273
  639TMC3    C5 9460   2.889   0.609  15.392 -0.5046  0.8945 -0.2668
  639TMC3    C6 9461   2.832   0.565  15.276  0.1683  0.5387  0.6557
  639TMC3     C 9462   2.888   0.979  15.360  0.7491  0.7493  0.0253
  639TMC3     O 9463   2.943   1.018  15.465  0.3175  1.1179 -0.7617
  639TMC3     H 9464   2.753   0.847  15.145 -0.8294  0.1334  0.8126
  639TMC3    H1 9465   2.934   0.774  15.528 -0.7221  1.7480 -0.1916
  639TMC3    H2 9466   2.837   0.461  15.244  2.5800  0.9610 -0.3374
  639TMC3    C7 9467   2.987   0.527  15.437  0.3472  0.4386  0.5198
  639TMC3    C8 9468   2.692   0.623  15.084 -0.0727  0.3227  0.5367
  639TMC3    O1 9469   2.966   0.407  15.451 -0.7716 -0.0710 -0.2656
  639TMC3    O2 9470   2.699   0.682  14.975 -0.0632  0.3307 -0.1321
  640MPD2     C 9471   4.096   4.706  10.126  0.1733 -0.1381  0.5084
  640MPD2    C1 9472   4.146   0.062  10.023  0.2403  0.0281  0.0363
  640MPD2    C2 9473   4.083   0.182   9.982 -0.7028  0.2696 -0.5855
  640MPD2    C3 9474   3.970   0.224  10.057 -0.0815  0.0835  0.0465
  640MPD2    C4 9475   3.929   0.151  10.168 -0.4076 -0.4533  0.1791
  640MPD2    C5 9476   3.986   0.033  10.196  0.6130 -0.2523 -0.0712
  640MPD2     H 9477   4.117   0.238   9.896 -1.2011 -0.2670 -1.1331
  640MPD2    H1 9478   3.843   0.181  10.227  2.2413  1.9451  2.7978
  640MPD2    H2 9479   4.142   4.612  10.154  0.2588  0.1496  1.3430
  640MPD2    H3 9480   3.954   4.695  10.282  0.2971  0.6974  0.4299
  640MPD2     N 9481   3.891   0.334  10.026 -0.4091  0.6567 -0.1835
  640MPD2    H5 9482   3.814   0.355  10.089  0.1016  2.1689 -0.0570
  640MPD2    N1 9483   4.244   4.718   9.948 -0.0448 -0.3460 -0.4181
  640MPD2    H7 9484   4.283   4.633   9.988  1.1833  0.6278  0.4047
  641TMC3    C1 9485   4.395   4.677   9.767 -0.5972  0.5536  0.8620
  641TMC3    C2 9486   4.427   4.553   9.820  0.0539 -0.4975 -0.1117
  641TMC3    C3 9487   4.515   4.483   9.744 -0.1733  0.5305 -0.2172
  641TMC3    C4 9488   4.432   0.002   9.642  0.2060  0.7255 -0.4885
  641TMC3    C5 9489   4.522   4.646   9.576 -0.2130  0.0956 -0.2546
  641TMC3    C6 9490   4.570   4.525   9.630  0.1299  0.0186 -0.3499
  641TMC3     C 9491   4.308   0.048   9.838 -0.5717 -0.1454  0.0299
  641TMC3     O 9492   4.290   0.161   9.791 -0.1882  0.1443  0.2020
  641TMC3     H 9493   4.379   4.509   9.906 -0.3078 -1.7805 -0.9800
  641TMC3    H1 9494   4.395   0.094   9.597 -0.1034 -0.0419 -1.8023
  641TMC3    H2 9495   4.646   4.468   9.578  0.0585  0.9047 -1.4292
  641TMC3    C7 9496   4.600   4.703   9.464 -0.2475  0.1002  0.3421
  641TMC3    C8 9497   4.549   4.349   9.792 -0.3959 -0.3554 -0.5983
  641TMC3    O1 9498   4.713   4.658   9.447  0.0749  0.3363  0.7154
  641TMC3    O2 9499   4.565   4.331   9.913  0.4888 -0.7058  0.1750
  642TMC3    C1 9500   0.630   1.801  12.042  0.1702  0.2811 -1.0642
  642TMC3    C2 9501   0.632   1.850  12.172  0.4991  0.5393  0.1048
  642TMC3    C3 9502   0.675   1.770  12.278 -0.3181 -0.3784 -0.5833
  642TMC3    C4 9503   0.665   1.671  12.023  0.1494 -0.3484 -0.1614
  642TMC3    C5 9504   0.723   1.596  12.122 -0.4617  0.6234  1.0295
  642TMC3    C6 9505   0.740   1.653  12.247 -0.8041 -0.3636  0.9221
  642TMC3     C 9506   0.543   1.857  11.941 -0.2103  0.4821  0.5694
  642TMC3     O 9507   0.571   1.844  11.823  0.1146  1.0083 -0.0945
  642TMC3     H 9508   0.590   1.946  12.199 -0.2119  0.7282 -1.7436
  642TMC3    H1 9509   0.662   1.634  11.921  2.0024 -2.2208  0.4811
  642TMC3    H2 9510   0.758   1.581  12.325 -1.1435 -1.4128  0.0245
  642TMC3    C7 9511   0.691   1.450  12.108  0.5258 -0.5144 -0.5976
  642TMC3    C8 9512   0.573   1.743  12.380 -0.0378  0.1611  0.2208
  642TMC3    O1 9513   0.683   1.407  11.992 -0.1954 -0.3671  0.2762
  642TMC3    O2 9514   0.455   1.724  12.334  0.1396 -0.2708  0.5130
  643TMC3    C1 9515   3.920   0.610   1.028  0.0848  0.7626 -0.0692
  643TMC3    C2 9516   3.784   0.627   1.025 -0.5955  0.5021  0.5289
  643TMC3    C3 9517   3.719   0.608   0.904 -0.2801 -1.0610 -0.0338
  643TMC3    C4 9518   3.989   0.573   0.919  0.1051 -0.0796  0.4135
  643TMC3    C5 9519   3.920   0.552   0.801  0.1279  0.5194 -1.1295
  643TMC3    C6 9520   3.786   0.568   0.791  0.5491 -0.7077 -0.3815
  643TMC3     C 9521   3.979   0.629   1.157  0.1149 -0.6372  0.4590
  643TMC3     O 9522   3.904   0.670   1.244 -0.2014 -0.3931  0.0599
  643TMC3     H 9523   3.735   0.665   1.114 -0.6969 -1.3875  1.2820
  643TMC3    H1 9524   4.098   0.569   0.922  0.2070  1.3556 -1.1373
  643TMC3    H2 9525   3.737   0.545   0.697 -0.0930 -2.5188  0.3985
  643TMC3    C7 9526   3.991   0.548   0.679  0.3411  0.2513 -0.0755
  643TMC3    C8 9527   3.623   0.705   0.869 -0.0770 -0.2247 -0.3770
  643TMC3    O1 9528   3.918   0.565   0.582 -0.2243 -0.5098  0.1627
  643TMC3    O2 9529   3.551   0.733   0.963 -0.1894 -0.3085 -0.2586
  644MPD2     C 9530   0.423   0.808   9.829  0.6536  0.5621  0.1242
  644MPD2    C1 9531   0.303   0.861   9.788  0.3703 -0.1095 -0.5406
  644MPD2    C2 9532   0.277   0.994   9.810  0.3076  0.2011 -0.7865
  644MPD2    C3 9533   0.366   1.071   9.882  0.1447  0.3169 -0.1722
  644MPD2    C4 9534   0.487   1.014   9.919 -0.6474 -0.0798  0.7417
  644MPD2    C5 9535   0.521   0.887   9.885 -0.3704  0.8337  0.2427
  644MPD2     H 9536   0.181   1.037   9.783  0.2310  1.6024  1.7842
  644MPD2    H1 9537   0.555   1.064   9.987 -1.0479  0.1405  0.9755
  644MPD2    H2 9538   0.424   0.700   9.823 -0.5148  0.3813  3.1262
  644MPD2    H3 9539   0.612   0.837   9.918 -0.2625  0.0792 -1.2275
  644MPD2     N 9540   0.331   1.203   9.908 -0.0776  0.6534 -0.6954
  644MPD2    H5 9541   0.243   1.237   9.868  0.6849  0.5676 -2.4761
  644MPD2    N1 9542   0.216   0.773   9.721 -0.2068 -0.3501 -0.1310
  644MPD2    H7 9543   0.255   0.679   9.722 -1.2683 -0.8351 -2.5888
  645TMC3    C1 9544   0.357   1.432   9.972 -0.5269 -0.7303 -0.0170
  645TMC3    C2 9545   0.222   1.452  10.009 -0.1962 -0.7564 -0.3595
  645TMC3    C3 9546   0.184   1.577  10.044  0.6156  0.1236 -0.1705
  645TMC3    C4 9547   0.446   1.536   9.968 -0.5125 -0.1888 -0.3907
  645TMC3    C5 9548   0.403   1.659  10.010 -0.1815 -0.1636 -0.5878
  645TMC3    C6 9549   0.270   1.680  10.049 -0.3655  0.1028  0.0827
  645TMC3     C 9550   0.420   1.308   9.945  1.2591 -0.0776 -0.5478
  645TMC3     O 9551   0.542   1.304   9.968  0.0488 -0.2963  0.2929
  645TMC3     H 9552   0.153   1.370  10.019  1.6197 -2.2918 -0.4261
  645TMC3    H1 9553   0.545   1.513   9.932 -0.5412 -2.0089  0.7180
  645TMC3    H2 9554   0.237   1.775  10.091 -0.5766 -0.0371  0.2300
  645TMC3    C7 9555   0.470   1.764   9.939  0.1526 -0.3956 -0.2414
  645TMC3    C8 9556   0.050   1.599  10.083  0.0518  0.9234 -0.0508
  645TMC3    O1 9557   0.588   1.744   9.910  0.3479 -0.4528  0.7438
  645TMC3    O2 9558   0.029   1.679  10.171  0.4637  0.1748  0.0314
  646MPD2     C 9559   3.133   0.229  14.402 -0.1758 -0.2846  0.6627
  646MPD2    C1 9560   3.045   0.144  14.467  0.9368 -0.1698 -0.0907
  646MPD2    C2 9561   2.906   0.167  14.456  0.0709 -0.0717  0.3341
  646MPD2    C3 9562   2.854   0.285  14.404  0.0088  0.5107 -0.0338
  646MPD2    C4 9563   2.946   0.374  14.353  0.2571 -0.2680 -0.8040
  646MPD2    C5 9564   3.081   0.344  14.345  0.2404  0.0333 -0.5490
  646MPD2     H 9565   2.835   0.094  14.491  0.2547 -1.3117 -1.8676
  646MPD2    H1 9566   2.915   0.468  14.307 -1.2821 -0.0038  0.7799
  646MPD2    H2 9567   3.242   0.226  14.405 -0.1162  2.1112  1.4662
  646MPD2    H3 9568   3.149   0.415  14.299 -1.0616  1.1228 -0.7801
  646MPD2     N 9569   2.713   0.298  14.407 -0.0461  0.0035  0.4885
  646MPD2    H5 9570   2.662   0.213  14.432  1.6895 -0.8294  1.1832
  646MPD2    N1 9571   3.098   0.030  14.526 -0.6523 -0.1064 -0.6531
  646MPD2    H7 9572   3.194   0.004  14.508 -0.5503  1.1671 -1.9170
  647TMC3    C1 9573   3.109   4.570  14.686  0.3013  0.0781 -0.0296
  647TMC3    C2 9574   3.035   4.486  14.771 -0.0010 -0.2902 -1.2411
  647TMC3    C3 9575   3.097   4.380  14.833 -0.1672  0.2188  0.0683
  647TMC3    C4 9576   3.240   4.539  14.661 -0.4245 -0.0614 -0.5573
  647TMC3    C5 9577   3.295   4.423  14.707 -0.6349  0.1319  0.2386
  647TMC3    C6 9578   3.227   4.351  14.797 -0.2548  0.5879 -0.5616
  647TMC3     C 9579   3.032   4.680  14.630 -0.0632 -0.1374 -0.2688
  647TMC3     O 9580   2.914   4.691  14.667  0.3902 -0.3523 -0.2269
  647TMC3     H 9581   2.942   4.524  14.812  1.0274  1.1236 -0.1761
  647TMC3    H1 9582   3.300   4.617  14.615  1.8356 -2.9668 -2.5180
  647TMC3    H2 9583   3.271   4.258  14.832 -1.9325  0.6701  1.7237
  647TMC3    C7 9584   3.430   4.389  14.676 -0.1699 -0.3743  0.4445
  647TMC3    C8 9585   3.016   4.267  14.875  0.3864 -0.8099  0.5631
  647TMC3    O1 9586   3.461   4.271  14.679  0.3541  0.2485 -0.1217
  647TMC3    O2 9587   3.070   4.155  14.889 -0.3788  0.1619 -0.3856
  648TMC3    C1 9588   2.361   2.201  16.201 -0.7745 -0.0899  0.5567
  648TMC3    C2 9589   2.419   2.081  16.168  0.3011  0.4726  0.5202
  648TMC3    C3 9590   2.401   2.036  16.040 -0.3610  0.2067  0.6181
  648TMC3    C4 9591   2.289   2.273  16.113 -0.1891  0.1343  0.1254
  648TMC3    C5 9592   2.283   2.223  15.985 -0.0196  0.0638 -0.0317
  648TMC3    C6 9593   2.334   2.105  15.946 -0.3457  0.2575 -0.3878
  648TMC3     C 9594   2.362   2.249  16.338 -0.4958 -0.0683 -0.5080
  648TMC3     O 9595   2.352   2.369  16.348 -0.5171 -0.0002 -0.7192
  648TMC3     H 9596   2.479   2.018  16.233 -0.3112 -0.7784 -0.1236
  648TMC3    H1 9597   2.270   2.377  16.135 -1.3750 -0.5220  2.1849
  648TMC3    H2 9598   2.319   2.064  15.847  4.3605 -0.2706 -0.8618
  648TMC3    C7 9599   2.192   2.281  15.889  0.1269  0.0194 -0.2334
  648TMC3    C8 9600   2.491   1.933  15.999 -0.2566 -0.2193 -0.0012
  648TMC3    O1 9601   2.184   2.234  15.777  0.4649  1.1748 -0.5860
  648TMC3    O2 9602   2.595   1.928  16.066  0.3225  0.3585 -0.4466
  649TMC3    C1 9603   2.025   3.465  12.589 -1.4963 -0.6779  0.6584
  649TMC3    C2 9604   2.150   3.493  12.628  0.0152 -0.6766  0.6853
  649TMC3    C3 9605   2.178   3.521  12.760  0.2266  0.5176  0.0104
  649TMC3    C4 9606   1.928   3.439  12.683  0.4177 -0.3237  0.0280
  649TMC3    C5 9607   1.963   3.452  12.815 -0.3537 -0.4624  0.0133
  649TMC3    C6 9608   2.088   3.496  12.851  0.2893  0.1736 -0.9088
  649TMC3     C 9609   1.985   3.466  12.450 -0.3163 -0.0172 -0.1465
  649TMC3     O 9610   1.865   3.476  12.431 -0.2606  0.5120  0.5827
  649TMC3     H 9611   2.221   3.511  12.548 -1.2292  1.6115  0.1014
  649TMC3    H1 9612   1.830   3.401  12.655  0.5141 -0.5514 -0.0023
  649TMC3    H2 9613   2.118   3.485  12.955  1.5747 -1.1422 -1.4075
  649TMC3    C7 9614   1.879   3.394  12.918 -0.2045  0.0604  0.3078
  649TMC3    C8 9615   2.298   3.586  12.793 -0.6821  0.3689  0.2776
  649TMC3    O1 9616   1.839   3.472  13.003 -0.0189  0.4452  0.2930
  649TMC3    O2 9617   2.332   3.582  12.907 -0.0666  0.3196  0.3724
  650TMC3    C1 9618   4.131   0.726  12.452  0.6196 -0.2752  0.3657
  650TMC3    C2 9619   4.111   0.859  12.488  0.0452 -0.0227  0.4890
  650TMC3    C3 9620   4.018   0.936  12.420 -0.3542  0.4671  0.3345
  650TMC3    C4 9621   4.049   0.669  12.356  0.3808  0.1173  0.0963
  650TMC3    C5 9622   3.950   0.745  12.299 -0.2932 -0.0936 -0.3265
  650TMC3    C6 9623   3.939   0.879  12.319 -0.4468  0.5142  0.2446
  650TMC3     C 9624   4.214   0.641  12.533 -0.4854 -0.0841  0.0443
  650TMC3     O 9625   4.301   0.693  12.604  0.2949  0.4077  0.3121
  650TMC3     H 9626   4.192   0.902  12.546 -1.0548  3.2378 -0.4102
  650TMC3    H1 9627   4.079   0.573  12.314  0.9608  1.4823 -2.6546
  650TMC3    H2 9628   3.860   0.923  12.258 -0.2193  2.0733  1.0843
  650TMC3    C7 9629   3.895   0.687  12.182  0.3118 -0.0475  0.5151
  650TMC3    C8 9630   4.041   1.077  12.411 -0.0547  0.6364 -0.1715
  650TMC3    O1 9631   3.874   0.569  12.185  0.6365 -0.1527  0.6036
  650TMC3    O2 9632   4.041   1.119  12.296 -0.4938  0.1782  0.3704
  651MPD2     C 9633   2.917   2.276  10.387 -0.2112 -0.5765 -0.6661
  651MPD2    C1 9634   2.921   2.362  10.491  0.1017  0.1888  0.4565
  651MPD2    C2 9635   3.038   2.435  10.508 -0.3605 -0.0292 -0.1857
  651MPD2    C3 9636   3.156   2.412  10.445  0.3421  0.3981 -0.3189
  651MPD2    C4 9637   3.148   2.325  10.343  0.2099  0.3711  0.3737
  651MPD2    C5 9638   3.030   2.262  10.314 -0.1260  0.1625  0.2447
  651MPD2     H 9639   3.029   2.509  10.587  0.6805 -0.0361 -0.0637
  651MPD2    H1 9640   3.228   2.318  10.270 -1.8660 -0.1849 -1.8417
  651MPD2    H2 9641   2.830   2.216  10.365  0.9597 -2.0859 -1.1633
  651MPD2    H3 9642   3.018   2.204  10.224 -3.6344  0.7877  0.3002
  651MPD2     N 9643   3.266   2.498  10.467 -0.3639 -0.3424 -0.8200
  651MPD2    H5 9644   3.253   2.582  10.521 -0.2981 -1.2690  0.6239
  651MPD2    N1 9645   2.809   2.388  10.569  0.5255  0.1566  0.0537
  651MPD2    H7 9646   2.828   2.449  10.648  1.5304  0.4716 -0.4383
  652TMC3    C1 9647   3.670   2.722  10.406  0.6877  0.1966 -0.5579
  652TMC3    C2 9648   3.603   2.604  10.412  0.0752 -0.0705 -0.2972
  652TMC3    C3 9649   3.464   2.606  10.414 -0.4078 -0.1276 -0.0065
  652TMC3    C4 9650   3.601   2.844  10.430  0.6196 -0.3497 -0.0722
  652TMC3    C5 9651   3.465   2.842  10.431  0.3839 -0.2507  0.4351
  652TMC3    C6 9652   3.396   2.725  10.433  0.4172  0.6358  0.8066
  652TMC3     C 9653   3.814   2.716  10.438  0.3305 -0.4086 -0.5981
  652TMC3     O 9654   3.850   2.619  10.500 -0.1328  0.2346  0.2135
  652TMC3     H 9655   3.651   2.508  10.396  0.2344  0.0132 -0.3173
  652TMC3    H1 9656   3.661   2.934  10.436  0.5532 -0.4433  2.1288
  652TMC3    H2 9657   3.290   2.735  10.413  0.6918 -0.3867 -1.1875
  652TMC3    C7 9658   3.393   2.934  10.512 -0.4105 -0.0119  0.1137
  652TMC3    C8 9659   3.390   2.479  10.411 -0.2046  0.0203 -0.3160
  652TMC3    O1 9660   3.288   2.906  10.564  0.6988  0.4978 -0.6190
  652TMC3    O2 9661   3.442   2.382  10.358  0.4701 -0.2497 -0.1746
  653MPD2     C 9662   1.685   2.322   0.203 -0.0300 -0.3773 -0.2879
  653MPD2    C1 9663   1.599   2.390   0.123  0.3634 -0.5978 -0.0582
  653MPD2    C2 9664   1.543   2.336   0.013 -0.3298 -0.4172  0.7587
  653MPD2    C3 9665   1.561   2.200  17.669 -1.0903  0.3434  0.1434
  653MPD2    C4 9666   1.633   2.129   0.090 -0.2686  0.4351  0.0148
  653MPD2    C5 9667   1.703   2.188   0.196 -0.4735  1.1473  0.1519
  653MPD2     H 9668   1.489   2.395  17.617 -0.5580  0.2569  1.4821
  653MPD2    H1 9669   1.639   2.022   0.073 -0.1853 -0.0039  2.7752
  653MPD2    H2 9670   1.740   2.374   0.280 -0.2851 -2.0470  1.0267
  653MPD2    H3 9671   1.755   2.127   0.268  0.0862  1.4004 -0.0426
  653MPD2     N 9672   1.478   2.140  17.570  0.2163  0.3116 -0.3218
  653MPD2    H5 9673   1.426   2.204  17.511  0.6745 -0.5769 -1.6824
  653MPD2    N1 9674   1.574   2.535   0.132  0.0817  0.1271 -0.3607
  653MPD2    H7 9675   1.514   2.569   0.058  1.0236 -0.5770 -1.4447
  654TMC3    C1 9676   1.373   1.980  17.440  0.0332 -0.4983 -0.3239
  654TMC3    C2 9677   1.260   2.059  17.423  0.3698  0.0074  0.7125
  654TMC3    C3 9678   1.167   2.020  17.324 -0.2267  0.1287 -0.4290
  654TMC3    C4 9679   1.387   1.858  17.386  0.2860  0.4484  0.1317
  654TMC3    C5 9680   1.285   1.823  17.304  0.2008 -0.1920 -0.0048
  654TMC3    C6 9681   1.176   1.896  17.273  0.5413 -0.2311  0.6462
  654TMC3     C 9682   1.458   2.004  17.548  0.3883 -0.2974  0.4347
  654TMC3     O 9683   1.514   1.908  17.605  0.0846 -0.3583 -0.2962
  654TMC3     H 9684   1.241   2.153  17.473 -2.5022 -0.3359  0.2813
  654TMC3    H1 9685   1.489   1.822  17.383 -0.1903 -0.8966  0.1096
  654TMC3    H2 9686   1.112   1.873  17.188  0.1823 -1.0610  1.1503
  654TMC3    C7 9687   1.314   1.715  17.214 -0.1436  0.0886 -0.0667
  654TMC3    C8 9688   1.096   2.126  17.262 -0.1270  0.2220 -1.4062
  654TMC3    O1 9689   1.257   1.722  17.105  0.2317  0.6217  0.4395
  654TMC3    O2 9690   1.069   2.223  17.336 -0.3484 -0.0556  0.1960
  655MPD2     C 9691   2.686   2.228  15.893 -0.1483 -0.2909  0.1318
  655MPD2    C1 9692   2.598   2.296  15.813 -0.4329 -0.3313  0.0424
  655MPD2    C2 9693   2.570   2.245  15.696 -0.1391 -0.0521 -0.3202
  655MPD2    C3 9694   2.613   2.126  15.644  0.2428  0.0093  0.9319
  655MPD2    C4 9695   2.707   2.063  15.718 -0.1524 -0.3856  0.0392
  655MPD2    C5 9696   2.740   2.115  15.841 -0.8322  0.9940 -0.4969
  655MPD2     H 9697   2.507   2.300  15.626 -1.6535  1.0336  1.8736
  655MPD2    H1 9698   2.767   1.978  15.688  0.5188 -0.1471  0.6861
  655MPD2    H2 9699   2.717   2.261  15.991  0.3860 -0.1496 -0.0869
  655MPD2    H3 9700   2.816   2.056  15.891  0.8052  3.1116 -0.5307
  655MPD2     N 9701   2.593   2.079  15.512  0.1957 -0.3985  0.5456
  655MPD2    H5 9702   2.645   1.996  15.484  2.1826  0.7643  0.8180
  655MPD2    N1 9703   2.537   2.424  15.851  0.1323 -0.7350  0.3258
  655MPD2    H7 9704   2.470   2.464  15.787 -0.8568 -0.1474  1.7088
  656TMC3    C1 9705   2.457   2.598  15.990  0.4722 -0.0020  0.1309
  656TMC3    C2 9706   2.383   2.606  16.107 -0.0189  0.1182  0.1156
  656TMC3    C3 9707   2.274   2.693  16.112 -0.3615  0.5445 -0.3853
  656TMC3    C4 9708   2.425   2.686  15.880 -0.2540  0.3290 -0.3203
  656TMC3    C5 9709   2.316   2.764  15.899  0.2220  0.3865 -0.4622
  656TMC3    C6 9710   2.237   2.772  16.010 -0.0084  0.8961  0.2203
  656TMC3     C 9711   2.547   2.479  15.982 -0.3239 -0.2537  0.3402
  656TMC3     O 9712   2.617   2.449  16.073  0.1808  0.4883  0.4651
  656TMC3     H 9713   2.412   2.546  16.193 -1.6554  0.7140  1.0915
  656TMC3    H1 9714   2.484   2.693  15.789  0.3655  0.0009  0.0576
  656TMC3    H2 9715   2.153   2.840  16.017  1.1246  2.2035  1.1921
  656TMC3    C7 9716   2.270   2.818  15.767 -0.3773  0.6179  0.0783
  656TMC3    C8 9717   2.162   2.648  16.188 -0.5046  0.6685  0.8017
  656TMC3    O1 9718   2.316   2.771  15.666 -0.2717 -0.0288  0.4741
  656TMC3    O2 9719   2.146   2.526  16.210 -0.1818  0.5690 -0.3413
  657TMC3    C1 9720   1.592   1.420  14.988 -0.0991  0.3434 -0.6277
  657TMC3    C2 9721   1.567   1.342  15.102  0.2758  0.0779  0.1965
  657TMC3    C3 9722   1.450   1.368  15.161 -0.7915  0.1007 -0.0462
  657TMC3    C4 9723   1.518   1.527  14.945  0.1434  0.2012  0.0857
  657TMC3    C5 9724   1.413   1.555  15.027  0.2376  0.4151 -0.2909
  657TMC3    C6 9725   1.373   1.475  15.127  0.5354  0.3076 -0.1742
  657TMC3     C 9726   1.694   1.371  14.894  0.2480  0.1249  0.6732
  657TMC3     O 9727   1.665   1.374  14.778  0.4660  0.2383 -0.0525
  657TMC3     H 9728   1.623   1.250  15.110  0.0649 -0.1954 -1.5384
  657TMC3    H1 9729   1.538   1.570  14.847  0.0327 -2.5056 -1.1090
  657TMC3    H2 9730   1.285   1.496  15.187  0.1538  0.1580 -0.6788
  657TMC3    C7 9731   1.349   1.675  14.995 -0.1401 -0.0434  0.0394
  657TMC3    C8 9732   1.392   1.253  15.233  0.2868 -0.0967 -0.1457
  657TMC3    O1 9733   1.419   1.750  14.928 -0.4664 -0.0054  0.1331
  657TMC3    O2 9734   1.272   1.229  15.226  0.0428 -1.0264 -0.6437
  658MPD2     C 9735   3.011   1.917  15.062 -0.9607 -0.4999 -0.7892
  658MPD2    C1 9736   2.896   1.961  14.999  0.0698  0.1967 -0.5621
  658MPD2    C2 9737   2.914   2.036  14.884 -0.2476 -0.6894 -0.5825
  658MPD2    C3 9738   3.036   2.068  14.839 -0.0280  0.2266 -0.1320
  658MPD2    C4 9739   3.149   2.028  14.900  0.1250 -0.1503  0.1356
  658MPD2    C5 9740   3.134   1.955  15.007  0.1280 -0.2866 -0.0447
  658MPD2     H 9741   2.826   2.074  14.834 -0.0998  1.9110  1.1456
  658MPD2    H1 9742   3.249   2.052  14.865  0.2095 -0.4613  0.1631
  658MPD2    H2 9743   3.013   1.848  15.145 -1.1466 -0.9833 -1.1828
  658MPD2    H3 9744   3.220   1.906  15.053  1.5636  0.7989 -1.5871
  658MPD2     N 9745   3.025   2.167  14.737 -0.1188  0.4854 -0.3740
  658MPD2    H5 9746   2.937   2.216  14.723  0.3527  0.9317 -1.7616
  658MPD2    N1 9747   2.775   1.943  15.062 -0.2347 -0.0124 -0.0522
  658MPD2    H7 9748   2.772   1.905  15.157  0.1850 -1.7156 -0.7164
  659TMC3    C1 9749   2.543   1.969  15.105  0.9496  0.2986 -0.4299
  659TMC3    C2 9750   2.574   2.021  15.230 -0.5675 -0.1522  0.1887
  659TMC3    C3 9751   2.471   2.045  15.314  0.2296  0.7286  0.1770
  659TMC3    C4 9752   2.411   1.955  15.065  0.1504 -0.2887 -0.0122
  659TMC3    C5 9753   2.312   1.977  15.157  0.1932 -0.5978  0.2195
  659TMC3    C6 9754   2.338   2.026  15.279 -0.6464  0.0029  0.3247
  659TMC3     C 9755   2.653   1.968  15.009 -0.1993 -0.3474  0.2966
  659TMC3     O 9756   2.628   1.985  14.889 -0.0958  0.0545 -0.1771
  659TMC3     H 9757   2.674   2.053  15.258 -0.0239 -0.2485 -1.6274
  659TMC3    H1 9758   2.391   1.917  14.965  1.1482 -2.7139  0.7287
  659TMC3    H2 9759   2.255   2.040  15.347 -1.8713  3.5816 -1.9130
  659TMC3    C7 9760   2.171   1.973  15.112  0.5454  0.0481  0.4122
  659TMC3    C8 9761   2.496   2.124  15.432  0.3261  0.4390 -0.4484
  659TMC3    O1 9762   2.092   2.041  15.178  0.2142 -0.7893  0.1167
  659TMC3    O2 9763   2.406   2.207  15.458 -0.2735 -0.2327  0.1226
  660MPD2     C 9764   1.433   0.587  12.453  0.6324  0.8809  0.3575
  660MPD2    C1 9765   1.361   0.698  12.478  0.3241  0.1627 -0.1359
  660MPD2    C2 9766   1.257   0.694  12.573  0.3838  0.5942 -0.5509
  660MPD2    C3 9767   1.217   0.570  12.622 -0.3578  0.0762  0.6460
  660MPD2    C4 9768   1.301   0.462  12.614  0.4090 -0.2433  0.1413
  660MPD2    C5 9769   1.402   0.472  12.523 -0.0829  0.1979 -0.2384
  660MPD2     H 9770   1.188   0.778  12.576 -1.0148 -0.5806 -0.1143
  660MPD2    H1 9771   1.276   0.364  12.652  1.2131 -1.6892 -3.0685
  660MPD2    H2 9772   1.511   0.584  12.378  2.0855 -0.4421  1.9190
  660MPD2    H3 9773   1.456   0.381  12.500  0.6910 -0.4148  3.9476
  660MPD2     N 9774   1.105   0.548  12.703 -0.2478  0.1209  0.5805
  660MPD2    H5 9775   1.101   0.453  12.740  2.8886 -0.0721  0.4048
  660MPD2    N1 9776   1.396   0.813  12.404  0.6890 -0.2108 -0.1552
  660MPD2    H7 9777   1.475   0.812  12.340 -0.7052 -1.4739 -1.8820
  661TMC3    C1 9778   1.379   1.019  12.313 -0.0529  0.3951 -0.3219
  661TMC3    C2 9779   1.388   0.961  12.189 -0.7417 -0.3584  1.1206
  661TMC3    C3 9780   1.348   1.035  12.083  0.0008  0.6896 -0.2623
  661TMC3    C4 9781   1.337   1.153  12.325 -0.1809 -0.0518  0.3711
  661TMC3    C5 9782   1.285   1.214  12.210 -0.5528 -0.0864  0.1789
  661TMC3    C6 9783   1.283   1.154  12.092  0.4362 -0.0188  0.3541
  661TMC3     C 9784   1.333   0.937  12.415  0.0350  0.1617  0.0927
  661TMC3     O 9785   1.254   0.985  12.499  0.2694  0.3645  0.0491
  661TMC3     H 9786   1.440   0.866  12.175 -1.7227 -0.4884 -1.7829
  661TMC3    H1 9787   1.317   1.194  12.423  0.4299 -0.7608  0.7938
  661TMC3    H2 9788   1.279   1.222  12.008  0.3753  0.0934  0.4471
  661TMC3    C7 9789   1.247   1.357  12.219  0.4728 -0.6677  0.2423
  661TMC3    C8 9790   1.393   0.994  11.955  0.0118  0.5604 -0.3993
  661TMC3    O1 9791   1.259   1.421  12.321 -0.3257 -0.0375 -0.0816
  661TMC3    O2 9792   1.512   0.957  11.960 -0.3517 -0.0671  0.2385
  662MPD2     C 9793   0.963   0.605  17.387 -0.5621  0.2356 -0.0227
  662MPD2    C1 9794   0.978   0.584  17.521 -0.8790  0.6364  0.3078
  662MPD2    C2 9795   1.033   0.681  17.601 -0.1746  0.3319  0.0476
  662MPD2    C3 9796   1.079   0.797  17.547  0.3683  0.2588  0.6036
  662MPD2    C4 9797   1.046   0.825  17.414 -0.2258 -0.4651 -0.4283
  662MPD2    C5 9798   1.001   0.724  17.327 -0.5501 -0.6408  0.4015
  662MPD2     H 9799   1.058   0.661   0.028  2.6036 -1.2538 -0.9356
  662MPD2    H1 9800   1.062   0.926  17.380 -0.5501 -0.0471  0.6633
  662MPD2    H2 9801   0.916   0.532  17.321 -0.8609  2.1942 -1.9862
  662MPD2    H3 9802   0.988   0.743  17.221 -1.3809 -2.1547  0.2298
  662MPD2     N 9803   1.128   0.905  17.621 -0.2169  0.3288  0.1300
  662MPD2    H5 9804   1.170   0.978  17.562  2.8389 -0.0287  1.8404
  662MPD2    N1 9805   0.942   0.462  17.575  0.7812 -0.3679  0.0899
  662MPD2    H7 9806   0.964   0.449  17.673 -0.5229  0.0897  0.4450
  663TMC3    C1 9807   0.891   0.238  17.557  1.3435 -0.2059  0.1232
  663TMC3    C2 9808   0.916   0.225   0.010  0.1359  0.5819  0.5284
  663TMC3    C3 9809   0.919   0.101   0.070 -0.1370 -0.1423 -0.0163
  663TMC3    C4 9810   0.888   0.136  17.470  0.0548 -0.0557 -0.0263
  663TMC3    C5 9811   0.912   0.016  17.526  1.2222  0.1069  0.4601
  663TMC3    C6 9812   0.928   4.711  17.664  0.2069 -0.9294 -0.1862
  663TMC3     C 9813   0.872   0.368  17.508 -0.5329  0.1124  0.1906
  663TMC3     O 9814   0.800   0.371  17.414 -1.2434  0.1329  0.0721
  663TMC3     H 9815   0.883   0.305   0.075  0.9334  0.1755  1.4334
  663TMC3    H1 9816   0.886   0.155  17.364 -1.1956  0.4987  0.0993
  663TMC3    H2 9817   0.926   4.616   0.041 -1.4977 -1.0229 -0.4137
  663TMC3    C7 9818   0.928   4.626  17.434 -0.4538 -0.1863 -0.6229
  663TMC3    C8 9819   0.799   0.085   0.154  0.0751 -0.1730  0.2257
  663TMC3    O1 9820   0.949   4.661  17.317  0.0674 -0.3123 -0.0750
  663TMC3    O2 9821   0.736   4.704   0.139 -0.0104  0.0295  0.0877
  664MPD2     C 9822   3.756   3.912   0.445  0.1524  0.2752  0.0211
  664MPD2    C1 9823   3.869   3.989   0.448  0.3317 -0.8079 -0.0555
  664MPD2    C2 9824   3.879   4.084   0.546 -0.4581 -0.0390  0.4823
  664MPD2    C3 9825   3.782   4.101   0.641  0.0575  0.2254  1.1388
  664MPD2    C4 9826   3.669   4.024   0.640 -0.1800  0.4028 -0.3793
  664MPD2    C5 9827   3.656   3.931   0.537 -0.4687  0.3096 -0.2364
  664MPD2     H 9828   3.964   4.151   0.540  0.1912 -0.9434 -0.3838
  664MPD2    H1 9829   3.592   4.024   0.715 -0.6305 -2.5862 -0.8378
  664MPD2    H2 9830   3.737   3.834   0.372 -0.5226  1.0744 -0.6479
  664MPD2    H3 9831   3.567   3.870   0.533 -0.7887  0.6940  1.0094
  664MPD2     N 9832   3.801   4.205   0.729  0.5067 -0.2572  0.4171
  664MPD2    H5 9833   3.876   4.270   0.707 -2.3335  2.2350 -1.8064
  664MPD2    N1 9834   3.953   3.989   0.336  0.4639 -0.3967  0.4100
  664MPD2    H7 9835   4.028   4.057   0.337  0.9208 -0.8662 -4.5257
  665TMC3    C1 9836   3.763   4.381   0.877  0.6552  0.4253  0.8230
  665TMC3    C2 9837   3.665   4.459   0.925 -0.0567 -0.0588 -0.5690
  665TMC3    C3 9838   3.700   4.563   1.008 -0.9871  0.1361 -0.6731
  665TMC3    C4 9839   3.893   4.395   0.901 -0.1086  0.1776 -0.0815
  665TMC3    C5 9840   3.926   4.494   0.994 -0.1745  0.8524  0.1156
  665TMC3    C6 9841   3.832   4.587   1.040 -0.6644  0.2366  0.2070
  665TMC3     C 9842   3.707   4.258   0.820 -0.4489  0.4215 -0.8137
  665TMC3     O 9843   3.589   4.238   0.825 -0.2584 -0.6625 -0.3458
  665TMC3     H 9844   3.561   4.431   0.910  0.0627 -0.2949 -0.9462
  665TMC3    H1 9845   3.961   4.312   0.887 -0.5118 -0.2279  0.3716
  665TMC3    H2 9846   3.854   4.668   1.109 -0.1425 -0.1234  0.4537
  665TMC3    C7 9847   4.061   4.498   1.039 -0.2434  0.9821 -0.0141
  665TMC3    C8 9848   3.596   4.628   1.082  0.2169 -0.2729  0.0217
  665TMC3    O1 9849   4.146   4.425   0.989  0.3096  0.2331 -0.3577
  665TMC3    O2 9850   3.628   4.680   1.189 -0.0506 -0.1011 -0.3521
  666TMC3    C1 9851   3.403   3.858   9.827  0.0476  0.6298 -0.5637
  666TMC3    C2 9852   3.509   3.782   9.856 -0.2820  0.4142 -0.5032
  666TMC3    C3 9853   3.634   3.835   9.833 -0.4754  0.5865  0.2666
  666TMC3    C4 9854   3.419   3.981   9.765 -1.4184 -0.3321 -0.0912
  666TMC3    C5 9855   3.545   4.032   9.750  0.2912  0.4294 -0.1711
  666TMC3    C6 9856   3.658   3.959   9.780 -0.9841 -0.4420  0.4366
  666TMC3     C 9857   3.269   3.830   9.874  0.2603 -0.3279  0.0074
  666TMC3     O 9858   3.184   3.879   9.802 -0.0827 -0.1820 -0.0493
  666TMC3     H 9859   3.493   3.685   9.901  2.3121  1.5817  2.9884
  666TMC3    H1 9860   3.340   4.043   9.726  0.0891  2.4096  1.2204
  666TMC3    H2 9861   3.751   4.012   9.771 -0.2294 -1.5322  1.8277
  666TMC3    C7 9862   3.540   4.175   9.767  0.2114  0.4949 -0.3037
  666TMC3    C8 9863   3.722   3.799   9.941  1.0350  0.1643 -0.1446
  666TMC3    O1 9864   3.440   4.221   9.827 -0.3984 -0.0268  0.4853
  666TMC3    O2 9865   3.657   3.763  10.039 -0.2420  0.1221  0.3125
  667MPD2     C 9866   0.365   3.852  14.365 -0.0153  0.6068 -0.2024
  667MPD2    C1 9867   0.255   3.831  14.448  0.7075  0.0486  0.1906
  667MPD2    C2 9868   0.163   3.735  14.404 -0.1749 -0.3332  0.3247
  667MPD2    C3 9869   0.183   3.654  14.298  0.5088  0.0146  0.0173
  667MPD2    C4 9870   0.299   3.661  14.230  0.0750 -0.2143 -0.3333
  667MPD2    C5 9871   0.387   3.754  14.270  0.0068 -0.0644 -0.3720
  667MPD2     H 9872   0.081   3.715  14.473 -1.5623  0.6661 -1.0275
  667MPD2    H1 9873   0.326   3.593  14.150  0.1965 -1.1700  0.5129
  667MPD2    H2 9874   0.447   3.920  14.388 -0.3270  0.5099  1.2328
  667MPD2    H3 9875   0.482   3.749  14.217 -0.4595  2.2688 -1.4130
  667MPD2     N 9876   0.088   3.549  14.271 -0.1091  0.4739  0.1915
  667MPD2    H5 9877   0.105   3.487  14.192  1.3390 -0.8398  1.5176
  667MPD2    N1 9878   0.234   3.901  14.574 -0.5850  0.3124  0.4812
  667MPD2    H7 9879   0.145   3.876  14.617 -0.2383 -0.6656  0.6458
  668TMC3    C1 9880   0.275   4.030  14.761 -0.1504  0.6568 -0.2154
  668TMC3    C2 9881   0.318   4.160  14.794 -0.1492 -0.5450  0.6219
  668TMC3    C3 9882   0.317   4.182  14.930  0.0731  0.0411  0.3837
  668TMC3    C4 9883   0.232   3.937  14.846  0.0727  0.5440  0.2098
  668TMC3    C5 9884   0.227   3.971  14.976  0.1208 -0.2406 -0.5391
  668TMC3    C6 9885   0.279   4.094  15.027  0.1829 -0.0375  0.4574
  668TMC3     C 9886   0.314   3.998  14.627 -0.4178  0.0423  0.1732
  668TMC3     O 9887   0.406   4.058  14.578  0.5020  0.0197 -0.4113
  668TMC3     H 9888   0.373   4.229  14.731 -0.9868 -1.7923 -1.4728
  668TMC3    H1 9889   0.188   3.844  14.810 -0.3110  0.3033  1.3069
  668TMC3    H2 9890   0.281   4.106  15.134  0.6969  4.1189 -0.0217
  668TMC3    C7 9891   0.151   3.890  15.067  0.2169  0.9852 -0.6206
  668TMC3    C8 9892   0.306   4.323  14.969  0.2326  0.1094  1.1399
  668TMC3    O1 9893   0.174   3.894  15.186  0.3556  0.1741  0.2645
  668TMC3    O2 9894   0.271   4.339  15.084  0.4592 -0.0445  0.2189
  669TMC3    C1 9895   2.726   3.864  14.602  0.1293  0.0480  0.4293
  669TMC3    C2 9896   2.614   3.937  14.581 -0.2361  0.1704 -0.4591
  669TMC3    C3 9897   2.638   4.067  14.553 -0.0915  0.4029 -0.5135
  669TMC3    C4 9898   2.854   3.919  14.613  0.3301 -0.5920  0.1769
  669TMC3    C5 9899   2.873   4.056  14.603 -0.2651  0.1912 -0.2774
  669TMC3    C6 9900   2.760   4.130  14.579 -0.3013  0.3822 -0.0027
  669TMC3     C 9901   2.702   3.722  14.630  0.4843  0.1364  0.3213
  669TMC3     O 9902   2.587   3.693  14.608  0.1327  0.4291  0.7072
  669TMC3     H 9903   2.510   3.905  14.581 -0.2589  0.2481  0.5368
  669TMC3    H1 9904   2.930   3.862  14.664 -0.7840 -2.9743 -0.8054
  669TMC3    H2 9905   2.761   4.238  14.574  0.3172  0.3341 -1.1424
  669TMC3    C7 9906   2.990   4.102  14.532 -0.2433 -0.9560 -0.1099
  669TMC3    C8 9907   2.529   4.142  14.512  0.1003 -0.8349 -0.3950
  669TMC3    O1 9908   2.993   4.224  14.516  1.1479 -0.1022 -0.1491
  669TMC3    O2 9909   2.514   4.245  14.573  0.3614 -0.1495 -0.1884
  670MPD2     C 9910   1.403   1.948  13.261 -0.5072 -0.8091  0.0594
  670MPD2    C1 9911   1.444   1.965  13.391 -0.6018  0.8623  0.4716
  670MPD2    C2 9912   1.362   1.934  13.499  0.0887 -0.2000 -0.3220
  670MPD2    C3 9913   1.229   1.895  13.473  0.8526  0.2588  0.0731
  670MPD2    C4 9914   1.193   1.878  13.338 -0.2239  0.0544 -1.0078
  670MPD2    C5 9915   1.281   1.899  13.238  0.2594 -0.5057  0.1033
  670MPD2     H 9916   1.387   1.941  13.605 -0.0303 -3.0796 -0.1048
  670MPD2    H1 9917   1.095   1.853  13.299 -1.3119  1.4943  0.8268
  670MPD2    H2 9918   1.467   1.980  13.180 -0.5370 -0.6370  0.1041
  670MPD2    H3 9919   1.252   1.883  13.135  0.4149  0.3817 -0.0753
  670MPD2     N 9920   1.141   1.868  13.578  0.9360  0.6379  0.2812
  670MPD2    H5 9921   1.171   1.895  13.671  0.1836  0.6585  0.5141
  670MPD2    N1 9922   1.566   2.020  13.428  0.8777  0.0642  0.6993
  670MPD2    H7 9923   1.581   2.030  13.529 -1.6101 -0.1817  1.0766
  671TMC3    C1 9924   0.962   1.787  13.698 -0.1343 -0.4507  0.1067
  671TMC3    C2 9925   1.037   1.737  13.795 -0.3507  0.6435  0.1136
  671TMC3    C3 9926   0.979   1.665  13.902  0.0899  0.1571  0.4707
  671TMC3    C4 9927   0.830   1.768  13.691 -0.0968 -0.0181  0.6676
  671TMC3    C5 9928   0.776   1.681  13.785 -0.1064  0.0080  1.0414
  671TMC3    C6 9929   0.846   1.634  13.896  0.5280 -0.4463  0.3963
  671TMC3     C 9930   1.020   1.808  13.569  0.0594  0.2152 -0.0963
  671TMC3     O 9931   0.961   1.760  13.475  0.4454  0.9435  0.4103
  671TMC3     H 9932   1.145   1.745  13.788 -0.2686  0.4058  1.0718
  671TMC3    H1 9933   0.771   1.794  13.604  0.0975  2.2829  1.2185
  671TMC3    H2 9934   0.809   1.571  13.975 -2.6813 -0.1131 -0.8371
  671TMC3    C7 9935   0.688   1.587  13.721  0.1501  0.5000  0.8684
  671TMC3    C8 9936   1.061   1.565  13.964  0.9750 -0.6791  0.0399
  671TMC3    O1 9937   0.696   1.578  13.599 -0.4196 -0.0265 -0.2214
  671TMC3    O2 9938   1.003   1.462  13.998  0.3346 -0.0320 -0.4457
  672MPD2     C 9939   0.989   1.630   1.268 -0.6041  0.7252 -0.7976
  672MPD2    C1 9940   1.125   1.638   1.254 -0.1732 -0.6165 -0.5468
  672MPD2    C2 9941   1.195   1.738   1.318 -0.8150  0.0512  0.2884
  672MPD2    C3 9942   1.129   1.829   1.395 -0.2239  0.4380 -0.0971
  672MPD2    C4 9943   0.996   1.822   1.414 -0.6769  0.2226  0.1291
  672MPD2    C5 9944   0.931   1.721   1.349  0.2228 -0.4809  0.4457
  672MPD2     H 9945   1.303   1.751   1.310 -0.7037 -0.9879  0.0942
  672MPD2    H1 9946   0.941   1.896   1.471 -0.7342 -0.6124  1.1725
  672MPD2    H2 9947   0.930   1.546   1.232  0.7537  0.1331 -1.6728
  672MPD2    H3 9948   0.827   1.705   1.374  0.0241  2.0860  1.2359
  672MPD2     N 9949   1.205   1.941   1.457 -0.2155 -0.4777  0.2127
  672MPD2    H5 9950   1.304   1.922   1.470 -0.5925 -1.6426  1.3049
  672MPD2    N1 9951   1.198   1.563   1.157  0.8629 -0.0924  0.0189
  672MPD2    H7 9952   1.299   1.565   1.167  0.3919  4.4554  3.8059
  673TMC3    C1 9953   1.262   1.453   0.963 -0.3290  0.4555  0.0589
  673TMC3    C2 9954   1.355   1.360   1.003  0.1155 -0.0319  0.4364
  673TMC3    C3 9955   1.451   1.326   0.916 -0.1591  0.1909 -0.7871
  673TMC3    C4 9956   1.270   1.513   0.845  0.2165  0.0108  0.1658
  673TMC3    C5 9957   1.360   1.464   0.755  0.5896 -0.5851  0.1866
  673TMC3    C6 9958   1.450   1.368   0.790  0.1025 -0.1752  0.4878
  673TMC3     C 9959   1.153   1.486   1.056 -0.5550  0.2546 -0.2436
  673TMC3     O 9960   1.038   1.473   1.018 -0.2030  0.0399  0.1674
  673TMC3     H 9961   1.337   1.321   1.102  1.8058  1.1265  1.1918
  673TMC3    H1 9962   1.200   1.593   0.820 -1.1763 -1.4367 -0.5531
  673TMC3    H2 9963   1.522   1.332   0.717 -0.8208  0.4468 -0.7427
  673TMC3    C7 9964   1.416   1.553   0.652  0.0087  0.0750 -0.2136
  673TMC3    C8 9965   1.563   1.251   0.969 -0.1014 -0.2012  0.1505
  673TMC3    O1 9966   1.500   1.511   0.571  0.5874  0.4689 -0.3396
  673TMC3    O2 9967   1.631   1.191   0.887 -0.8632 -0.3269 -0.5121
  674MPD2     C 9968   1.362   1.865   0.198 -0.4344 -0.4251  0.2418
  674MPD2    C1 9969   1.292   1.761   0.256 -0.0985  0.3978  0.4269
  674MPD2    C2 9970   1.175   1.792   0.320 -0.6257 -0.0666  0.7583
  674MPD2    C3 9971   1.146   1.926   0.353 -0.1316 -0.8725  0.5188
  674MPD2    C4 9972   1.213   2.030   0.287 -0.0189  0.5888 -0.5194
  674MPD2    C5 9973   1.320   1.996   0.209 -0.1277  0.7287  0.2877
  674MPD2     H 9974   1.134   1.714   0.383 -0.4775 -0.1946  0.6977
  674MPD2    H1 9975   1.186   2.134   0.302 -0.3858 -0.0668  3.3942
  674MPD2    H2 9976   1.457   1.849   0.150 -0.0657  0.5434  0.6537
  674MPD2    H3 9977   1.389   2.068   0.165  0.4696 -0.2918 -0.4452
  674MPD2     N 9978   1.057   1.942   0.458  0.0991 -0.0888 -0.1303
  674MPD2    H5 9979   1.037   1.861   0.516  0.0091 -0.1726 -0.2782
  674MPD2    N1 9980   1.336   1.626   0.267  0.8043  0.6831  0.5333
  674MPD2    H7 9981   1.270   1.560   0.306  2.2559 -0.2530  1.4362
  675TMC3    C1 9982   1.455   1.433   0.214 -0.3261 -0.4364  0.0725
  675TMC3    C2 9983   1.398   1.369   0.321 -0.5950 -0.2671 -0.2356
  675TMC3    C3 9984   1.429   1.237   0.336  0.4729  0.1356 -0.3131
  675TMC3    C4 9985   1.524   1.375   0.110  0.5815  1.0237 -0.4651
  675TMC3    C5 9986   1.536   1.241   0.135  0.1171  0.7857 -0.0800
  675TMC3    C6 9987   1.498   1.170   0.244  0.1004  0.0225  0.4348
  675TMC3     C 9988   1.452   1.578   0.214 -0.5952 -0.1142  0.1127
  675TMC3     O 9989   1.545   1.628   0.152  0.4762 -0.4548  1.0561
  675TMC3     H 9990   1.351   1.431   0.396  0.6655  0.9538 -0.4510
  675TMC3    H1 9991   1.544   1.436   0.022 -1.6880  1.2202 -0.8517
  675TMC3    H2 9992   1.533   1.068   0.255 -0.3641  0.0726  2.4325
  675TMC3    C7 9993   1.620   1.186   0.032 -0.2022 -0.0510 -0.4592
  675TMC3    C8 9994   1.391   1.170   0.459 -0.2958  0.6873  0.5620
  675TMC3    O1 9995   1.597   1.226  17.596 -0.0569  0.1936 -0.2288
  675TMC3    O2 9996   1.457   1.074   0.488  0.1973  0.7752 -0.4702
  676MPD2     C 9997   0.143   0.616  11.177  0.0928  0.2650 -0.7502
  676MPD2    C1 9998   0.009   0.609  11.185 -0.2821  0.2975  0.0847
  676MPD2    C2 9999   4.655   0.549  11.078 -0.7109 -0.2477  0.1461
  676MPD2    C310000   0.007   0.483  10.980 -0.0157 -0.9922  1.1244
  676MPD2    C410001   0.145   0.482  10.980 -0.4053 -0.2024  0.1705
  676MPD2    C510002   0.209   0.548  11.083 -0.5386 -0.3141 -0.8677
  676MPD2     H10003   4.548   0.568  11.071 -0.5585 -0.1515 -1.9404
  676MPD2    H110004   0.207   0.440  10.902 -0.6438  0.0759 -0.1690
  676MPD2    H210005   0.203   0.665  11.253 -2.5435  0.0410  1.4592
  676MPD2    H310006   0.316   0.563  11.077 -0.3653 -0.8918  0.7016
  676MPD2     N10007   4.663   0.418  10.869 -0.0086 -0.2046 -0.3222
  676MPD2    H510008   0.012   0.382  10.803 -0.4973 -0.4460 -0.6907
  676MPD2    N110009   4.654   0.681  11.288  0.3476 -0.5205  0.1236
  676MPD2    H710010   4.554   0.671  11.278  0.0993 -0.4721  2.4311
  677TMC3    C110011   4.609   0.812  11.485  0.2591 -0.1296  0.9053
  677TMC3    C210012   4.475   0.772  11.475  0.0797  0.0253  0.5139
  677TMC3    C310013   4.396   0.806  11.585 -0.4066  0.2938 -0.2132
  677TMC3    C410014   4.657   0.891  11.583 -0.1991 -0.3780  0.0433
  677TMC3    C510015   4.564   0.934  11.684 -0.5526 -0.4268  1.0057
  677TMC3    C610016   4.435   0.893  11.686 -0.1619 -0.0359  0.4874
  677TMC3     C10017   4.705   0.750  11.397  0.2793  0.7560 -0.1049
  677TMC3     O10018   0.099   0.793  11.417  0.0975  0.9636 -0.0778
  677TMC3     H10019   4.438   0.711  11.393 -1.2627  0.6753  0.6369
  677TMC3    H110020   0.045   0.909  11.600 -0.3183 -3.4318  4.0242
  677TMC3    H210021   4.370   0.909  11.772 -0.7098 -0.5545  0.1716
  677TMC3    C710022   4.617   0.974  11.809  0.3261 -0.3786  0.1221
  677TMC3    C810023   4.285   0.718  11.607 -0.3179 -0.1066  1.1426
  677TMC3    O110024   4.536   0.987  11.901 -0.1151 -0.7163  0.0424
  677TMC3    O210025   4.213   0.689  11.511 -0.9288  0.5042 -0.1715
  678MPD2     C10026   0.845   0.331   2.189 -0.6926  0.1056  0.6682
  678MPD2    C110027   0.844   0.345   2.052 -0.4266  0.3130 -0.2422
  678MPD2    C210028   0.727   0.382   1.983  1.0321  0.4919  0.3836
  678MPD2    C310029   0.614   0.413   2.062  0.1776  0.2099 -0.6359
  678MPD2    C410030   0.617   0.382   2.190  0.3265  0.3333  0.1904
  678MPD2    C510031   0.726   0.339   2.257  0.5668  0.5281  0.0269
  678MPD2     H10032   0.733   0.402   1.877  1.2059  0.4343  0.3821
  678MPD2    H110033   0.530   0.382   2.255  1.1236 -2.4231  1.2717
  678MPD2    H210034   0.931   0.293   2.241 -0.3063 -0.5812 -0.4867
  678MPD2    H310035   0.722   0.330   2.365 -4.1073 -0.5468 -0.2385
  678MPD2     N10036   0.499   0.458   1.998  0.0698  0.1586  0.7616
  678MPD2    H510037   0.504   0.454   1.897  1.0104 -1.2580  0.8741
  678MPD2    N110038   0.959   0.326   1.973 -0.6105  0.5391 -0.5586
  678MPD2    H710039   0.962   0.350   1.875  0.5194  0.8476 -0.4514
  679TMC3    C110040   1.294   0.124   1.816 -0.5160  0.1058 -0.2902
  679TMC3    C210041   1.266   0.183   1.931  0.2429 -0.4370  0.8056
  679TMC3    C310042   1.185   0.287   1.918  0.1389  0.8103 -0.2714
  679TMC3    C410043   1.263   0.172   1.692  0.0733 -0.2653 -0.1687
  679TMC3    C510044   1.197   0.292   1.688 -1.0799 -0.5375  0.3159
  679TMC3    C610045   1.158   0.352   1.802  0.4008  0.6442 -0.1594
  679TMC3     C10046   1.375   0.004   1.820  0.0772  0.0527  0.0515
  679TMC3     O10047   1.400   4.662   1.714  0.0279  1.0591  0.4520
  679TMC3     H10048   1.269   0.124   2.022 -0.5384 -0.6985  0.6643
  679TMC3    H110049   1.277   0.111   1.603  1.3985  0.6049 -0.5539
  679TMC3    H210050   1.105   0.446   1.812  0.0768  0.4213  0.2249
  679TMC3    C710051   1.151   0.347   1.565 -0.5999 -0.0075 -0.1296
  679TMC3    C810052   1.082   0.294   2.022 -0.0708 -0.0209  0.3825
  679TMC3    O110053   1.042   0.399   1.569 -0.6707  0.1506  0.0324
  679TMC3    O210054   1.117   0.253   2.131  0.6917 -0.3247  0.3819
  680MPD2     C10055   1.292   3.847  13.198  0.1080  0.2238 -0.4282
  680MPD2    C110056   1.357   3.778  13.298 -0.8678  0.8091  0.7775
  680MPD2    C210057   1.446   3.841  13.379  0.7447  0.0240  0.0564
  680MPD2    C310058   1.463   3.977  13.376 -0.3545 -0.1630  0.1170
  680MPD2    C410059   1.396   4.046  13.278  0.6644 -0.0682 -0.3714
  680MPD2    C510060   1.308   3.980  13.195 -0.3785  0.5290  0.3274
  680MPD2     H10061   1.498   3.785  13.457  0.6269  1.7282  1.3618
  680MPD2    H110062   1.393   4.154  13.280  0.7489 -0.0707 -0.0234
  680MPD2    H210063   1.220   3.796  13.136  1.1585  0.3654 -1.7609
  680MPD2    H310064   1.250   4.045  13.130 -0.4499 -0.1782 -0.3077
  680MPD2     N10065   1.556   4.050  13.458  0.0982  0.8923 -0.5640
  680MPD2    H510066   1.573   4.145  13.426 -0.8552  1.1294 -0.3544
  680MPD2    N110067   1.325   3.636  13.323  0.0129  0.3610 -0.6520
  680MPD2    H710068   1.384   3.586  13.389 -0.2743  0.6134 -0.2015
  681TMC3    C110069   1.201   3.430  13.334  0.1743 -0.2139  0.3342
  681TMC3    C210070   1.088   3.392  13.401  0.3378 -0.1112  0.0877
  681TMC3    C310071   1.063   3.261  13.391  0.3545  0.3682  0.2187
  681TMC3    C410072   1.287   3.357  13.266  0.1918 -0.3282  0.7982
  681TMC3    C510073   1.255   3.224  13.260 -0.0686  0.1175 -0.1279
  681TMC3    C610074   1.138   3.175  13.312  0.4952 -0.5097 -0.0147
  681TMC3     C10075   1.208   3.575  13.301 -0.0121  0.2889  0.0644
  681TMC3     O10076   1.108   3.620  13.253 -0.6073 -0.2057  0.3049
  681TMC3     H10077   1.032   3.453  13.472  2.3767  1.2606  0.5117
  681TMC3    H110078   1.384   3.393  13.232  1.5571 -3.3473  1.4853
  681TMC3    H210079   1.111   3.070  13.317 -0.5657 -0.3170 -1.5503
  681TMC3    C710080   1.350   3.132  13.198  0.5189  0.1655 -0.1495
  681TMC3    C810081   0.944   3.206  13.457 -0.6335 -0.0857 -0.0058
  681TMC3    O110082   1.328   3.011  13.223 -0.5800 -0.3111 -0.3576
  681TMC3    O210083   0.851   3.156  13.390 -0.5944 -0.2080 -0.4340
  682MPD2     C10084   3.654   0.567  10.476  0.6750  0.1509 -0.1183
  682MPD2    C110085   3.615   0.446  10.522 -0.2251  0.0322  0.2068
  682MPD2    C210086   3.607   0.429  10.660  0.5050  0.1042  0.6603
  682MPD2    C310087   3.642   0.536  10.747 -0.3204  0.2339 -0.5460
  682MPD2    C410088   3.677   0.656  10.696  0.2249  0.3970  0.6222
  682MPD2    C510089   3.668   0.672  10.559 -0.0663 -0.0725 -0.6899
  682MPD2     H10090   3.563   0.337  10.698 -0.6965  0.2202 -0.4357
  682MPD2    H110091   3.698   0.744  10.756  1.9021  0.7786 -0.5487
  682MPD2    H210092   3.681   0.587  10.373 -0.7637  0.0565 -0.5123
  682MPD2    H310093   3.698   0.764  10.510  1.5824  0.0877  0.6277
  682MPD2     N10094   3.623   0.536  10.885 -0.0913  0.2907 -0.0942
  682MPD2    H510095   3.633   0.629  10.924  2.3655 -0.0928  0.1714
  682MPD2    N110096   3.573   0.345  10.433 -0.3215 -0.4502 -0.2601
  682MPD2    H710097   3.534   0.261  10.475  0.1731 -0.3810  0.3427
  683TMC3    C110098   3.656   0.585  11.286  0.8767 -0.0581 -0.1385
  683TMC3    C210099   3.685   0.481  11.371  0.5000  1.1066  0.1192
  683TMC3    C310100   3.670   0.353  11.313  0.3878  0.0227 -0.7350
  683TMC3    C410101   3.627   0.576  11.154  0.0123  0.1352  0.3694
  683TMC3    C510102   3.605   0.447  11.104  0.0863 -0.9444 -0.0306
  683TMC3    C610103   3.628   0.334  11.178 -1.0997  0.3371  0.6924
  683TMC3     C10104   3.654   0.718  11.350  0.9741  0.0238 -0.8172
  683TMC3     O10105   3.675   0.708  11.467 -0.3089 -0.5027 -0.0187
  683TMC3     H10106   3.716   0.480  11.475  0.8047  1.4472  0.0279
  683TMC3    H110107   3.600   0.666  11.100  0.9936  0.5627  0.5797
  683TMC3    H210108   3.622   0.235  11.135  0.5917  0.2668  0.6140
  683TMC3    C710109   3.612   0.420  10.960 -0.7771 -0.4247 -0.1515
  683TMC3    C810110   3.726   0.238  11.380 -0.1959 -0.3429  0.1674
  683TMC3    O110111   3.629   0.307  10.922  0.3851  0.2109  0.4417
  683TMC3    O210112   3.805   0.263  11.474 -0.1048  0.0230 -0.0990
  684MPD2     C10113   0.184   4.285  16.385  0.1922 -0.0048  0.5207
  684MPD2    C110114   0.218   4.406  16.321  1.5411  0.5379  0.1207
  684MPD2    C210115   0.226   4.519  16.395 -0.2213  0.0056  0.8107
  684MPD2    C310116   0.198   4.521  16.532 -0.6882 -0.5952 -0.3405
  684MPD2    C410117   0.183   4.398  16.598  0.0201  0.4730 -0.7580
  684MPD2    C510118   0.175   4.282  16.521  0.8177  0.4432  0.1173
  684MPD2     H10119   0.256   4.614  16.354 -1.2031  0.4626  1.1549
  684MPD2    H110120   0.171   4.395  16.706 -0.5064 -3.2247 -0.8968
  684MPD2    H210121   0.177   4.193  16.328 -0.4296  1.4147 -1.6931
  684MPD2    H310122   0.144   4.191  16.571  2.2450  1.0480  2.1056
  684MPD2     N10123   0.211   4.639  16.610  0.4754  0.1283 -0.5114
  684MPD2    H510124   0.215   4.626  16.711 -0.4321 -0.0671 -0.4972
  684MPD2    N110125   0.265   4.396  16.190  0.1749 -0.2423 -0.3977
  684MPD2    H710126   0.256   4.305  16.145  0.5354 -0.4717 -0.0046
  685TMC3    C110127   0.411   4.429  16.009  0.6422  0.2418 -0.1606
  685TMC3    C210128   0.364   4.318  15.938 -0.7248 -0.3736 -0.0795
  685TMC3    C310129   0.441   4.278  15.832 -0.0447 -0.2205 -0.4996
  685TMC3    C410130   0.534   4.482  15.980 -0.2836 -0.0197  0.0605
  685TMC3    C510131   0.610   4.429  15.886 -0.5992 -0.0442 -0.1524
  685TMC3    C610132   0.561   4.329  15.808 -0.0750 -0.7249  1.1737
  685TMC3     C10133   0.346   4.485  16.125  0.0904  0.0816  0.7376
  685TMC3     O10134   0.378   4.596  16.162  0.4546  0.1470  0.2409
  685TMC3     H10135   0.261   4.289  15.951  0.0985 -2.3442  1.9543
  685TMC3    H110136   0.574   4.565  16.037 -0.1912  0.2667 -0.4190
  685TMC3    H210137   0.619   4.282  15.730  1.5381  2.3375  0.5261
  685TMC3    C710138   0.752   4.427  15.921  0.2808  0.6798 -0.5727
  685TMC3    C810139   0.386   4.184  15.732  0.5594  0.1921 -0.5183
  685TMC3    O110140   0.785   4.463  16.032  0.1508  0.4079 -0.7107
  685TMC3    O210141   0.422   4.189  15.616 -0.6674  0.6726  0.0293
  686MPD2     C10142   2.403   3.755  15.462  0.0586  0.3221  0.1279
  686MPD2    C110143   2.285   3.700  15.508 -0.4303  0.1922  0.2294
  686MPD2    C210144   2.253   3.571  15.458  0.3192  0.1277  0.6417
  686MPD2    C310145   2.338   3.495  15.379  0.6338 -0.2857  0.6561
  686MPD2    C410146   2.455   3.554  15.342 -0.1886 -1.4767 -0.0004
  686MPD2    C510147   2.481   3.685  15.378 -0.4233 -0.2774  1.0116
  686MPD2     H10148   2.156   3.527  15.483  0.4247 -0.2277  0.4190
  686MPD2    H110149   2.524   3.503  15.275  0.8580 -1.0703  0.7726
  686MPD2    H210150   2.421   3.856  15.495 -1.7424  0.9684 -0.8385
  686MPD2    H310151   2.577   3.722  15.345 -0.7538  0.0567  0.4085
  686MPD2     N10152   2.299   3.370  15.317 -0.0535 -0.2253 -0.5950
  686MPD2    H510153   2.362   3.343  15.242  1.4921 -2.2938  1.4661
  686MPD2    N110154   2.195   3.774  15.584  0.0424  0.1158 -0.1814
  686MPD2    H710155   2.220   3.868  15.614 -1.6227  0.7828 -0.8426
  687TMC3    C110156   2.141   3.285  15.467  0.5345 -0.3438  0.4077
  687TMC3    C210157   2.006   3.302  15.493 -0.1198  0.2479  0.3984
  687TMC3    C310158   1.971   3.290  15.628  0.6116  0.4532  0.2719
  687TMC3    C410159   2.236   3.260  15.562  0.4991 -0.0489 -0.0084
  687TMC3    C510160   2.197   3.249  15.688  0.8570  0.6663 -1.4805
  687TMC3    C610161   2.069   3.279  15.731  0.1000  0.4528 -0.3573
  687TMC3     C10162   2.187   3.291  15.334  0.4562  0.3563  0.8416
  687TMC3     O10163   2.157   3.194  15.270 -0.5011  0.3214 -0.6177
  687TMC3     H10164   1.927   3.306  15.419  0.8771  1.1452 -0.6231
  687TMC3    H110165   2.335   3.237  15.526 -0.8593 -1.3366 -2.9077
  687TMC3    H210166   2.043   3.279  15.836 -1.6426  1.1924 -0.7898
  687TMC3    C710167   2.302   3.304  15.783 -0.1703 -0.6105 -0.2454
  687TMC3    C810168   1.836   3.331  15.662 -0.0913 -0.5150 -0.9782
  687TMC3    O110169   2.274   3.291  15.904 -0.3458 -0.0802 -0.4939
  687TMC3    O210170   1.783   3.284  15.759  0.4410 -0.4600 -0.1242
  688MPD2     C10171   1.537   3.043  17.313  0.1507  0.5387  0.0842
  688MPD2    C110172   1.627   2.969  17.378 -0.7012 -0.1746 -0.3262
  688MPD2    C210173   1.728   2.922  17.304  0.3181 -0.7130  0.8067
  688MPD2    C310174   1.731   2.926  17.167  0.2788  0.5043  1.1738
  688MPD2    C410175   1.630   2.993  17.102  0.2031 -0.1531  0.7222
  688MPD2    C510176   1.536   3.059  17.180  0.6119  0.7164 -0.6174
  688MPD2     H10177   1.808   2.873  17.359  0.2196 -0.4972  1.1430
  688MPD2    H110178   1.624   3.010  16.995 -0.7974  2.0249  1.1202
  688MPD2    H210179   1.461   3.106  17.360  1.0104 -0.1043  2.3187
  688MPD2    H310180   1.456   3.112  17.130  0.5298  0.1620 -1.0749
  688MPD2     N10181   1.841   2.879  17.084  0.4691  0.5923 -0.6567
  688MPD2    H510182   1.838   2.906  16.986 -0.6282  2.9270  0.0124
  688MPD2    N110183   1.638   2.954  17.515  0.4460  0.1028 -0.1573
  688MPD2    H710184   1.717   2.906  17.557  0.8289  0.2781 -0.6741
  689TMC3    C110185   1.553   2.941   0.061 -0.6418  0.5707 -0.1357
  689TMC3    C210186   1.522   3.021   0.166  0.7349 -0.5448  0.3046
  689TMC3    C310187   1.538   2.965   0.293  0.4158 -0.2587  0.0858
  689TMC3    C410188   1.581   2.807   0.075  0.2483 -0.2575 -0.4693
  689TMC3    C510189   1.601   2.754   0.202  0.4026 -0.7502  0.2614
  689TMC3    C610190   1.580   2.836   0.310 -0.2774  0.2343  0.0457
  689TMC3     C10191   1.547   2.998  17.605  0.0484 -0.6201 -0.0412
  689TMC3     O10192   1.443   3.056  17.581  0.4719  0.3569 -0.2185
  689TMC3     H10193   1.520   3.123   0.129 -0.6734 -0.9435 -0.7014
  689TMC3    H110194   1.615   2.746  17.668  1.3921 -0.6569  0.2893
  689TMC3    H210195   1.604   2.797   0.408  1.9312  1.5736  0.0448
  689TMC3    C710196   1.614   2.613   0.235 -0.5063 -0.3014 -0.9976
  689TMC3    C810197   1.522   3.050   0.415  0.2220  0.1043 -0.8762
  689TMC3    O110198   1.634   2.579   0.353  0.2319  0.2141 -0.0947
  689TMC3    O210199   1.545   2.990   0.523  0.3452  0.0150 -0.0891
  690MPD2     C10200   3.586   0.056  15.406  0.1268 -0.0098 -0.2075
  690MPD2    C110201   3.663   4.672  15.447 -0.3290  0.2297  0.1614
  690MPD2    C210202   3.802   4.695  15.445 -0.3730 -0.6579 -0.4364
  690MPD2    C310203   3.858   0.097  15.398 -1.0067 -0.3410 -0.4121
  690MPD2    C410204   3.773   0.191  15.343 -0.7992  0.2020  0.5848
  690MPD2    C510205   3.638   0.172  15.349 -0.0322  0.2693 -0.3787
  690MPD2     H10206   3.863   4.613  15.482 -2.5251 -1.8495  0.4676
  690MPD2    H110207   3.817   0.275  15.289 -3.1685  1.4329  0.5665
  690MPD2    H210208   3.478   0.053  15.397  0.1442  3.0658 -1.2931
  690MPD2    H310209   3.562   0.244  15.320 -1.4886 -1.4223 -0.7894
  690MPD2     N10210   3.994   0.138  15.401 -0.0422  0.3103 -0.7894
  690MPD2    H510211   4.011   0.221  15.345  0.2311  0.7260 -0.0840
  690MPD2    N110212   3.610   4.549  15.501 -0.0008 -0.4178  0.3527
  690MPD2    H710213   3.671   4.477  15.538  0.1490 -0.4454  0.0487
  691TMC3    C110214   3.447   4.400  15.569  0.0984  0.1570 -0.5766
  691TMC3    C210215   3.340   4.400  15.659  0.0943  0.3428 -0.1856
  691TMC3    C310216   3.292   4.272  15.688 -0.2531  0.5992 -0.6930
  691TMC3    C410217   3.498   4.293  15.498  0.8187  0.3600 -0.1312
  691TMC3    C510218   3.456   4.172  15.539 -0.2839  0.7229 -0.1021
  691TMC3    C610219   3.355   4.153  15.636  0.1120  0.7104 -0.1980
  691TMC3     C10220   3.475   4.528  15.506 -0.9653  0.3273 -0.5574
  691TMC3     O10221   3.373   4.593  15.488 -0.1646 -0.0131 -0.4692
  691TMC3     H10222   3.298   4.491  15.700  1.4598  0.8481  0.1004
  691TMC3    H110223   3.561   4.306  15.411  0.7902 -0.0944 -0.2224
  691TMC3    H210224   3.320   4.051  15.646  2.0229 -0.2059 -2.7790
  691TMC3    C710225   3.492   4.052  15.471 -0.1659 -0.6008  0.4729
  691TMC3    C810226   3.164   4.256  15.759 -0.0730 -0.0113 -0.2860
  691TMC3    O110227   3.608   4.037  15.447 -0.7140 -0.0620 -0.1186
  691TMC3    O210228   3.124   4.145  15.780 -0.1557  0.2314  0.0330
  692TMC3    C110229   0.677   1.115  16.073  0.5965  0.1489  0.5266
  692TMC3    C210230   0.818   1.123  16.053 -0.2286 -0.4715  0.0808
  692TMC3    C310231   0.884   1.020  15.993  0.2407  0.0649  0.3793
  692TMC3    C410232   0.611   1.001  16.063 -0.2272 -0.4876 -0.6794
  692TMC3    C510233   0.685   0.892  16.030 -0.2296  0.0608 -0.4992
  692TMC3    C610234   0.813   0.902  15.995  0.4848  0.2407  0.3147
  692TMC3     C10235   0.616   1.227  16.143 -0.6539  0.0445  0.1760
  692TMC3     O10236   0.496   1.219  16.163  0.1356 -0.3739 -0.0611
  692TMC3     H10237   0.868   1.218  16.036  2.1798 -1.3298  2.3217
  692TMC3    H110238   0.506   0.998  16.092 -0.1378 -0.9928 -0.4053
  692TMC3    H210239   0.860   0.812  15.956 -1.4120  0.3920 -2.2758
  692TMC3    C710240   0.615   0.775  15.992  0.0061  0.0638  0.0224
  692TMC3    C810241   1.003   1.004  16.067 -0.1744  0.7809 -0.2074
  692TMC3    O110242   0.651   0.726  15.887  0.4100  0.2243  0.3653
  692TMC3    O210243   1.084   1.092  16.041  0.1624  0.0123 -0.6295
  693MPD2     C10244   0.622   4.104  10.647 -0.2484  0.6119  0.3133
  693MPD2    C110245   0.601   3.967  10.664 -0.2288  0.0983 -0.0225
  693MPD2    C210246   0.717   3.882  10.663 -0.0446 -0.7034  0.7966
  693MPD2    C310247   0.842   3.936  10.656 -0.2759 -0.1353  0.0101
  693MPD2    C410248   0.856   4.073  10.636  0.3727 -0.0143  0.2922
  693MPD2    C510249   0.748   4.153  10.625  0.1653  0.2423 -0.6476
  693MPD2     H10250   0.695   3.776  10.666 -0.9895 -0.5110  0.6844
  693MPD2    H110251   0.949   4.128  10.623  1.8007 -1.9386  2.4585
  693MPD2    H210252   0.537   4.168  10.630 -0.9411 -0.5786 -0.6769
  693MPD2    H310253   0.766   4.255  10.595 -0.2168  0.2447 -0.8629
  693MPD2     N10254   0.961   3.859  10.656  0.1539  0.0162 -0.3449
  693MPD2    H510255   1.048   3.911  10.659  0.6799 -0.8225 -0.9762
  693MPD2    N110256   0.470   3.922  10.684  0.3756  0.0662  0.2165
  693MPD2    H710257   0.404   3.977  10.738  1.4718  1.2086  0.3927
  694TMC3    C110258   0.282   3.778  10.671  0.0450 -0.4518  0.0484
  694TMC3    C210259   0.183   3.722  10.588 -0.0260 -0.8923  0.4912
  694TMC3    C310260   0.069   3.680  10.648 -0.9097  0.3291  0.0977
  694TMC3    C410261   0.250   3.808  10.801 -0.1830 -1.3035 -0.2538
  694TMC3    C510262   0.139   3.761  10.859 -0.0593  0.1182 -0.3051
  694TMC3    C610263   0.042   3.700  10.782  0.1737 -0.4363  0.3087
  694TMC3     C10264   0.420   3.802  10.639  0.0267  0.0857 -0.4723
  694TMC3     O10265   0.483   3.731  10.563  0.2004  0.1600  0.0680
  694TMC3     H10266   0.214   3.678  10.494 -2.1326  0.2365 -0.7272
  694TMC3    H110267   0.316   3.846  10.878 -1.0830  0.2603 -0.2535
  694TMC3    H210268   4.659   3.686  10.818 -0.1624  0.2043 -0.3615
  694TMC3    C710269   0.129   3.767  11.001 -0.1360  0.3835  0.3640
  694TMC3    C810270   4.671   3.651  10.567 -0.3926 -0.5691 -0.6565
  694TMC3    O110271   0.206   3.847  11.049  0.3221  0.5929  0.2652
  694TMC3    O210272   4.560   3.620  10.611  0.2373  0.4147  0.1876
  695MPD2     C10273   1.245   0.663  13.411  0.3615 -0.6582  0.2675
  695MPD2    C110274   1.169   0.736  13.500  0.0362  0.4339 -0.2495
  695MPD2    C210275   1.050   0.797  13.456  0.2398 -0.3021 -0.1829
  695MPD2    C310276   1.013   0.788  13.321 -0.1034 -0.2163  0.9637
  695MPD2    C410277   1.098   0.718  13.232  0.7032  0.7871  0.7125
  695MPD2    C510278   1.212   0.655  13.279  0.6821  0.2850  0.3475
  695MPD2     H10279   0.994   0.853  13.530 -0.0016 -0.1030 -0.5167
  695MPD2    H110280   1.062   0.705  13.131 -1.8766  0.8369  1.6398
  695MPD2    H210281   1.341   0.615  13.428  0.0122 -1.7276 -0.7550
  695MPD2    H310282   1.270   0.604  13.203  0.7081  0.9018 -0.0457
  695MPD2     N10283   0.905   0.861  13.267 -0.3920 -0.7374 -0.0474
  695MPD2    H510284   0.885   0.854  13.168  0.4091  2.2953 -0.4002
  695MPD2    N110285   1.209   0.754  13.632 -0.2531  0.1809 -1.2850
  695MPD2    H710286   1.140   0.800  13.690  0.3020  0.1208 -0.5671
  696TMC3    C110287   0.699   0.976  13.258  0.5573 -0.2719 -0.1192
  696TMC3    C210288   0.590   1.020  13.321 -0.0544  0.2178 -0.1477
  696TMC3    C310289   0.526   1.137  13.279 -0.0225  0.3708  0.1829
  696TMC3    C410290   0.740   1.040  13.140 -0.3460 -0.2646  0.3024
  696TMC3    C510291   0.668   1.151  13.099  0.6985  0.3868 -0.8435
  696TMC3    C610292   0.555   1.205  13.164  0.0528  0.3379  0.9118
  696TMC3     C10293   0.803   0.918  13.338  0.4686  0.2632 -0.4791
  696TMC3     O10294   0.790   0.923  13.459 -0.4917  0.4085 -0.7015
  696TMC3     H10295   0.570   0.980  13.419 -0.7009  2.3599  0.5992
  696TMC3    H110296   0.847   1.036  13.119 -0.1893 -2.4275  1.5654
  696TMC3    H210297   0.505   1.293  13.126  1.0128  0.1934 -0.7187
  696TMC3    C710298   0.755   1.246  13.029  0.4506  0.1550  0.5254
  696TMC3    C810299   0.505   1.242  13.382  0.3264  0.1488 -0.1024
  696TMC3    O110300   0.840   1.195  12.955  0.0324 -0.1051  0.4894
  696TMC3    O210301   0.537   1.356  13.346  0.0292  0.0388 -0.2697
  697MPD2     C10302   0.166   2.986  15.407  0.6807 -0.0063 -0.8113
  697MPD2    C110303   0.300   2.956  15.392  0.5426  0.3430  0.2131
  697MPD2    C210304   0.390   3.032  15.320 -0.1723 -0.1132 -0.5987
  697MPD2    C310305   0.344   3.153  15.270  0.5063  0.2380 -0.0705
  697MPD2    C410306   0.206   3.188  15.281  0.6953 -0.4487  0.7819
  697MPD2    C510307   0.121   3.102  15.349  0.4753  0.0952  0.1757
  697MPD2     H10308   0.493   2.999  15.309  0.6214  1.6539  1.5604
  697MPD2    H110309   0.164   3.277  15.236 -0.3704 -0.2741  2.1127
  697MPD2    H210310   0.100   2.915  15.457 -0.0679  1.2540 -0.0144
  697MPD2    H310311   0.015   3.121  15.353  0.4878  0.0205  0.9216
  697MPD2     N10312   0.442   3.228  15.202  0.1415 -0.1384 -0.6574
  697MPD2    H510313   0.537   3.194  15.210  0.0697  0.1210  1.2919
  697MPD2    N110314   0.359   2.834  15.450 -0.2249 -0.0947  0.0181
  697MPD2    H710315   0.454   2.809  15.423 -0.2221  1.3197 -1.2682
  698TMC3    C110316   0.538   3.395  15.076 -0.3362  0.4199  0.2168
  698TMC3    C210317   0.606   3.487  15.146  0.4399  0.6016 -0.1575
  698TMC3    C310318   0.711   3.540  15.083  0.1249  0.4069 -0.0659
  698TMC3    C410319   0.577   3.337  14.960 -0.4616  0.0068  0.7715
  698TMC3    C510320   0.693   3.385  14.908 -0.2311 -0.7864  0.4024
  698TMC3    C610321   0.761   3.489  14.965 -0.5025 -0.0224 -0.2452
  698TMC3     C10322   0.416   3.348  15.136  0.5430 -0.0987  0.4428
  698TMC3     O10323   0.314   3.413  15.139  0.2793 -0.0378  0.2395
  698TMC3     H10324   0.567   3.511  15.244 -0.3055 -2.0685  0.2028
  698TMC3    H110325   0.551   3.234  14.940  0.7442 -0.1474 -0.0118
  698TMC3    H210326   0.844   3.525  14.906  0.3605 -1.1231  0.3112
  698TMC3    C710327   0.754   3.323  14.789  0.4075 -0.7157  0.0528
  698TMC3    C810328   0.809   3.604  15.166 -0.4031  0.5847  0.7950
  698TMC3    O110329   0.871   3.352  14.766  0.0132 -0.2397  0.1863
  698TMC3    O210330   0.803   3.580  15.291 -0.0247  0.0810  0.5223
  699TMC3    C110331   0.893   0.609  12.802 -0.2839 -0.4756 -0.3416
  699TMC3    C210332   0.905   0.511  12.897  0.8841  0.7485 -0.0004
  699TMC3    C310333   0.789   0.466  12.958 -0.4539  0.5342  0.8864
  699TMC3    C410334   0.775   0.675  12.782  0.7829 -0.5256 -0.0765
  699TMC3    C510335   0.666   0.630  12.851 -0.0281  0.1869  0.2412
  699TMC3    C610336   0.675   0.529  12.942  0.4261 -0.9930 -0.5325
  699TMC3     C10337   1.003   0.648  12.722  0.4485  0.9534  0.0819
  699TMC3     O10338   1.001   0.764  12.686  0.0680 -0.5259  0.3822
  699TMC3     H10339   1.002   0.483  12.936  0.1463  0.0651  1.3859
  699TMC3    H110340   0.767   0.733  12.691  1.6640  0.0646  0.2219
  699TMC3    H210341   0.594   0.517  13.012  1.5628  1.9048  1.2884
  699TMC3    C710342   0.555   0.716  12.886  0.4804  0.3076  1.0661
  699TMC3    C810343   0.797   0.385  13.077  0.0770  0.3758  0.9672
  699TMC3    O110344   0.452   0.666  12.924  0.1054  0.2230  0.0069
  699TMC3    O210345   0.703   0.380  13.152 -0.2317  0.8658 -0.2001
  700TMC3    C110346   4.230   2.849  17.389 -0.1393  0.4718 -0.2065
  700TMC3    C210347   4.337   2.758  17.383  0.7704  0.7929 -0.6170
  700TMC3    C310348   4.412   2.760  17.490 -0.7054  0.0004 -0.0789
  700TMC3    C410349   4.198   2.935  17.489 -0.1540 -0.4732  0.4942
  700TMC3    C510350   4.280   2.918  17.597  0.1834 -1.3240  0.2284
  700TMC3    C610351   4.396   2.850  17.592  0.3598 -0.1875 -0.5453
  700TMC3     C10352   4.171   2.872  17.257 -0.2886  0.0055  0.0554
  700TMC3     O10353   4.153   2.774  17.187  0.2436  0.3936  0.5006
  700TMC3     H10354   4.366   2.715  17.288 -1.3948 -1.9127 -0.0942
  700TMC3    H110355   4.118   3.008  17.483 -0.5759 -1.1798 -2.3452
  700TMC3    H210356   4.482   2.858  17.658  0.3170  0.5617 -0.5851
  700TMC3    C710357   4.262   3.005   0.037 -0.1195  0.4464  0.6888
  700TMC3    C810358   4.542   2.708  17.464 -0.6505 -0.3888 -0.5632
  700TMC3    O110359   4.350   2.991   0.120 -0.2717 -0.2581  0.1096
  700TMC3    O210360   4.634   2.765  17.521 -0.2412 -0.0830 -0.1671
  701TMC3    C110361   0.007   1.535  15.130  0.2590 -0.0699 -1.2596
  701TMC3    C210362   0.014   1.553  14.996  0.6046 -0.7349 -0.3267
  701TMC3    C310363   0.018   1.681  14.956  0.4846 -0.6133  0.8458
  701TMC3    C410364   0.016   1.636  15.227 -0.1158 -0.0224 -0.3079
  701TMC3    C510365   0.037   1.768  15.174  0.7049  0.0869  0.1599
  701TMC3    C610366   0.036   1.787  15.042 -0.1671  0.1048  0.0913
  701TMC3     C10367   4.664   1.411  15.174 -0.1345 -0.3949  0.3126
  701TMC3     O10368   4.643   1.332  15.086  0.1643  0.1825 -0.2044
  701TMC3     H10369   0.013   1.470  14.927  0.9600  0.9759 -2.3639
  701TMC3    H110370   0.042   1.616  15.330  1.1434 -1.6040 -0.9270
  701TMC3    H210371   0.032   1.890  15.007 -2.3953 -0.3261 -0.8576
  701TMC3    C710372   0.055   1.891  15.255 -0.5793 -0.4601  0.9190
  701TMC3    C810373   4.709   1.720  14.819  0.3614  0.3492  0.2152
  701TMC3    O110374   0.094   1.993  15.201 -0.0388 -0.3712 -0.0506
  701TMC3    O210375   0.064   1.805  14.779  0.1748  0.1617  0.1500
  702MPD2     C10376   0.174   0.098  10.286 -0.0682  1.1585 -0.3364
  702MPD2    C110377   0.184   0.151  10.417  0.6490 -0.4178  0.5512
  702MPD2    C210378   0.295   0.235  10.441 -0.0711 -0.2063 -0.8917
  702MPD2    C310379   0.394   0.259  10.352 -0.4851  0.0283  0.1838
  702MPD2    C410380   0.385   0.197  10.227  0.2478  0.9245 -0.1056
  702MPD2    C510381   0.273   0.128  10.200  0.1535  0.0668 -0.5749
  702MPD2     H10382   0.294   0.275  10.542  0.0124 -1.1474 -0.5160
  702MPD2    H110383   0.463   0.199  10.152  1.3654  0.0826  1.0406
  702MPD2    H210384   0.086   0.045  10.250 -0.1315  2.1420 -1.6385
  702MPD2    H310385   0.266   0.081  10.103 -0.1703  0.8422 -0.9201
  702MPD2     N10386   0.498   0.351  10.367 -0.0708  0.1602  0.2652
  702MPD2    H510387   0.546   0.378  10.281 -1.9801  0.9583 -0.5542
  702MPD2    N110388   0.084   0.154  10.511  0.5856  0.2886  0.0870
  702MPD2    H710389   0.105   0.210  10.593 -0.0520 -0.1822  0.5759
  703TMC3    C110390   0.532   0.576  10.436 -0.2648  0.7422 -0.3340
  703TMC3    C210391   0.436   0.664  10.484 -0.4211  0.4334  1.0267
  703TMC3    C310392   0.429   0.786  10.413  0.0767  1.1967 -0.7863
  703TMC3    C410393   0.614   0.600  10.330  0.2631  0.0499 -0.2571
  703TMC3    C510394   0.609   0.725  10.275 -0.1378  0.5599 -0.0704
  703TMC3    C610395   0.520   0.822  10.319  0.2674 -0.1865  0.0408
  703TMC3     C10396   0.500   0.438  10.472 -0.1282  0.5585  0.1105
  703TMC3     O10397   0.462   0.411  10.585 -0.5016 -0.1205  0.4742
  703TMC3     H10398   0.359   0.628  10.551  0.4783 -3.3553  0.0747
  703TMC3    H110399   0.692   0.526  10.314 -1.5926 -2.4899  2.6066
  703TMC3    H210400   0.525   0.923  10.280 -1.3115 -1.3457 -3.2000
  703TMC3    C710401   0.716   0.762  10.184  0.0564 -0.3129  0.0897
  703TMC3    C810402   0.340   0.892  10.462 -0.5654  0.6589 -0.0623
  703TMC3    O110403   0.738   0.883  10.170  1.0508  0.1829  0.5974
  703TMC3    O210404   0.379   1.007  10.447  0.1795 -0.0242  0.4178
  704TMC3    C110405   2.865   2.861  12.370 -0.2165 -0.2455 -0.3961
  704TMC3    C210406   2.918   2.893  12.248  0.9731 -0.7179  0.4942
  704TMC3    C310407   3.041   2.852  12.217 -0.6678  0.7174  0.4994
  704TMC3    C410408   2.939   2.804  12.471  0.0227  0.8963  0.3040
  704TMC3    C510409   3.069   2.770  12.437  0.7738 -0.1761  0.1461
  704TMC3    C610410   3.120   2.790  12.313  0.6560 -0.0073 -0.3164
  704TMC3     C10411   2.738   2.805  12.357 -1.6567  0.3327 -0.2364
  704TMC3     O10412   2.670   2.789  12.456  0.4940  0.2802 -0.7781
  704TMC3     H10413   2.869   2.969  12.188  1.3020 -0.0103  1.1320
  704TMC3    H110414   2.888   2.779  12.563 -0.9992 -1.4779 -0.9210
  704TMC3    H210415   3.208   2.731  12.288 -0.8750 -2.4441  0.0931
  704TMC3    C710416   3.108   2.646  12.492 -0.2818  1.1931 -0.2756
  704TMC3    C810417   3.042   2.796  12.086  1.2842 -0.1230 -0.5219
  704TMC3    O110418   3.117   2.553  12.410  0.5996 -0.6416  0.4524
  704TMC3    O210419   2.930   2.793  12.037 -0.0235 -0.2493  0.2436
  705MPD2     C10420   0.821   0.529  16.086  0.3520 -0.1321  0.0596
  705MPD2    C110421   0.939   0.599  16.115 -0.2038 -0.1313 -0.1603
  705MPD2    C210422   0.965   0.642  16.244 -0.0416 -0.1048  0.2272
  705MPD2    C310423   0.875   0.610  16.350 -0.6181  0.9302 -0.1151
  705MPD2    C410424   0.771   0.518  16.321 -1.0457  0.4662  0.4473
  705MPD2    C510425   0.752   0.479  16.192 -0.4286 -0.1570  0.1344
  705MPD2     H10426   1.055   0.698  16.267 -0.1436 -0.0513  0.5029
  705MPD2    H110427   0.707   0.469  16.394 -0.5263  0.5863  0.9843
  705MPD2    H210428   0.796   0.501  15.984 -2.4665 -0.0555  0.7253
  705MPD2    H310429   0.686   0.395  16.174  0.4234 -0.4277 -1.7529
  705MPD2     N10430   0.891   0.653  16.483 -0.2755  0.6665 -0.2953
  705MPD2    H510431   0.817   0.623  16.546  1.8421  0.5951  2.1185
  705MPD2    N110432   1.034   0.635  16.016  0.4442  0.5147 -0.2647
  705MPD2    H710433   1.114   0.684  16.054  0.4227  0.2662  0.0973
  706TMC3    C110434   1.334   0.531  15.703  0.0559 -0.4001  0.4662
  706TMC3    C210435   1.421   0.596  15.782 -0.3926 -0.3590 -0.9370
  706TMC3    C310436   1.374   0.703  15.858  0.3195  0.2774 -0.1886
  706TMC3    C410437   1.198   0.541  15.727 -0.7249 -0.7159  0.0609
  706TMC3    C510438   1.153   0.634  15.814  0.3642 -0.1930 -0.2010
  706TMC3    C610439   1.241   0.713  15.884  0.0427  0.0573  0.5757
  706TMC3     C10440   1.388   0.474  15.580  0.5254  0.3352 -0.0010
  706TMC3     O10441   1.511   0.465  15.571  0.2394  0.5507 -0.7695
  706TMC3     H10442   1.528   0.592  15.765 -0.6715 -1.0277 -2.5187
  706TMC3    H110443   1.127   0.471  15.684 -0.2503 -1.3317  0.2821
  706TMC3    H210444   1.208   0.797  15.944  1.5078  0.6440  0.5496
  706TMC3    C710445   1.030   0.603  15.886  0.0586  0.0223 -0.0543
  706TMC3    C810446   1.469   0.767  15.947  0.2290  0.0846 -0.3368
  706TMC3    O110447   0.960   0.524  15.823 -0.1136  0.2387  0.0180
  706TMC3    O210448   1.572   0.712  15.980 -0.0232  0.6700  0.2284
  707TMC3    C110449   2.247   0.193   1.874  0.0395 -0.1057  0.8846
  707TMC3    C210450   2.313   0.259   1.972  0.0045  0.1093 -0.2966
  707TMC3    C310451   2.337   0.188   2.086 -0.1052  0.9220  0.6409
  707TMC3    C410452   2.207   0.061   1.873 -0.2725  0.2950  0.5678
  707TMC3    C510453   2.238   4.713   1.989  0.8214  0.4073  0.0916
  707TMC3    C610454   2.297   0.053   2.093  0.2105  0.0677  0.6557
  707TMC3     C10455   2.235   0.259   1.752  0.3241 -0.4818  0.8516
  707TMC3     O10456   2.310   0.354   1.740  0.5936 -0.3262  0.5748
  707TMC3     H10457   2.336   0.364   1.960  1.1551 -0.0163  0.8697
  707TMC3    H110458   2.203   0.010   1.777 -0.9438 -0.5505  1.0482
  707TMC3    H210459   2.342   0.002   2.177 -0.2493 -3.2426 -1.1030
  707TMC3    C710460   2.230   4.567   2.002 -0.3391 -0.0443 -0.5182
  707TMC3    C810461   2.463   0.215   2.158 -0.4722 -0.3534  0.4646
  707TMC3    O110462   2.271   4.510   2.101 -0.6595 -0.3758  0.0052
  707TMC3    O210463   2.481   0.173   2.273 -0.2167  0.1272 -0.7005
  708MPD2     C10464   4.381   4.390  13.709  0.3343  0.1357  0.6255
  708MPD2    C110465   4.279   4.326  13.764 -0.5658 -0.4508  0.9859
  708MPD2    C210466   4.299   4.208  13.836 -0.1626  0.0705  0.2571
  708MPD2    C310467   4.429   4.155  13.830 -0.1776  0.0456  0.7854
  708MPD2    C410468   4.528   4.225  13.764 -0.6390  0.2396 -0.5744
  708MPD2    C510469   4.508   4.346  13.709  0.5970 -0.0487  0.4187
  708MPD2     H10470   4.217   4.164  13.892 -1.9978 -0.1185 -2.5961
  708MPD2    H110471   4.633   4.195  13.760  0.2033  3.0064  0.9693
  708MPD2    H210472   4.357   4.478  13.651  1.3336  0.3135  0.4806
  708MPD2    H310473   4.588   4.397  13.657 -1.1313  1.7126 -0.5435
  708MPD2     N10474   4.469   4.031  13.892 -0.0509  0.3496  0.1956
  708MPD2    H510475   4.567   4.006  13.901 -0.6481 -1.7570  0.9332
  708MPD2    N110476   4.148   4.371  13.735  0.3680  0.1615  0.0963
  708MPD2    H710477   4.136   4.430  13.653 -2.9576  1.8061  1.7273
  709TMC3    C110478   3.911   4.350  13.736  0.3726  0.6820 -0.0393
  709TMC3    C210479   3.915   4.320  13.606  0.1389  0.4421  0.6761
  709TMC3    C310480   3.814   4.238  13.549  0.6061  0.6608  0.1141
  709TMC3    C410481   3.807   4.306  13.816  0.3270  0.7150  0.1923
  709TMC3    C510482   3.721   4.214  13.765  0.1147 -0.5754 -0.1162
  709TMC3    C610483   3.717   4.185  13.631  0.7365  0.5945 -0.0005
  709TMC3     C10484   4.033   4.319  13.795  0.1485 -0.3305 -0.4045
  709TMC3     O10485   4.019   4.273  13.905 -0.2522 -0.1076  0.6013
  709TMC3     H10486   3.980   4.374  13.538  0.0535  0.9908  1.0274
  709TMC3    H110487   3.807   4.330  13.921  0.3270 -1.0665  0.6068
  709TMC3    H210488   3.644   4.107  13.610 -1.5026  3.2805 -2.0612
  709TMC3    C710489   3.698   4.112  13.867 -0.3282  0.0306  0.7152
  709TMC3    C810490   3.802   4.244  13.406 -0.0647  0.0527 -0.0095
  709TMC3    O110491   3.598   4.048  13.844  0.5279 -0.3775 -0.4163
  709TMC3    O210492   3.849   4.341  13.354 -0.2925 -0.4672  0.2925
  710TMC3    C110493   0.582   0.620   0.990 -0.5908  0.1532 -0.0254
  710TMC3    C210494   0.590   0.574   0.864 -0.3757  0.3009 -0.5704
  710TMC3    C310495   0.703   0.518   0.817  0.2595  0.1268  0.3588
  710TMC3    C410496   0.677   0.596   1.081 -0.2477 -0.4702 -1.0345
  710TMC3    C510497   0.793   0.543   1.029 -1.1571  0.2327  1.0143
  710TMC3    C610498   0.812   0.507   0.898 -0.0672 -0.0128 -0.1531
  710TMC3     C10499   0.491   0.734   1.013  0.1307 -0.0604  0.5423
  710TMC3     O10500   0.391   0.736   0.941  0.1165  0.3851  0.1378
  710TMC3     H10501   0.507   0.604   0.802  0.3860 -0.5984 -2.0344
  710TMC3    H110502   0.662   0.621   1.186  1.1672  0.5977 -1.0993
  710TMC3    H210503   0.895   0.446   0.866  1.3396  1.7017  0.2453
  710TMC3    C710504   0.890   0.518   1.137  0.0689  0.2365  0.1778
  710TMC3    C810505   0.717   0.456   0.694  0.0885 -0.5046 -0.6969
  710TMC3    O110506   0.842   0.479   1.240 -0.0886 -1.0157 -0.0965
  710TMC3    O210507   0.832   0.430   0.664  1.3206  0.2065 -0.0562
  711TMC3    C110508   0.627   1.905  15.315 -0.4757  0.0406  0.9066
  711TMC3    C210509   0.597   2.020  15.386  0.1831  0.1686  0.5138
  711TMC3    C310510   0.690   2.059  15.475  0.8205  0.1997  0.3451
  711TMC3    C410511   0.754   1.863  15.284 -0.5273  0.4323  0.4175
  711TMC3    C510512   0.849   1.945  15.348  0.4743  0.0394 -0.6030
  711TMC3    C610513   0.818   2.023  15.455  0.0944  0.0316  0.0348
  711TMC3     C10514   0.523   1.807  15.276  0.2913  0.6408 -0.1174
  711TMC3     O10515   0.545   1.734  15.179 -0.4667  0.2047 -0.2831
  711TMC3     H10516   0.498   2.063  15.395 -0.0629 -0.0818 -1.0417
  711TMC3    H110517   0.773   1.780  15.217  2.2213  1.4479 -0.0406
  711TMC3    H210518   0.895   2.060  15.522  0.9581 -0.4939 -0.6716
  711TMC3    C710519   0.968   1.866  15.367 -0.0461 -0.0385  0.4730
  711TMC3    C810520   0.640   2.033  15.607  0.0050  0.0795  0.2737
  711TMC3    O110521   0.956   1.745  15.376 -0.2865  0.3106  0.4672
  711TMC3    O210522   0.525   1.992  15.612  0.2462  0.0088  0.2075
  712MPD2     C10523   2.406   2.903  13.805  0.4108  0.4967 -0.3593
  712MPD2    C110524   2.377   2.881  13.672 -0.2102  0.4078 -0.2713
  712MPD2    C210525   2.417   2.969  13.578  0.2442 -0.3412 -0.1196
  712MPD2    C310526   2.487   3.082  13.617  0.9474  0.3060  0.1311
  712MPD2    C410527   2.513   3.107  13.754 -0.2515  0.6636 -0.1091
  712MPD2    C510528   2.470   3.017  13.847 -0.3769  0.1786  0.2604
  712MPD2     H10529   2.409   2.936  13.475  1.5254 -1.6577  0.2045
  712MPD2    H110530   2.571   3.186  13.800 -0.8296  0.3044  1.2352
  712MPD2    H210531   2.374   2.842  13.889 -1.4698  1.2853 -0.5114
  712MPD2    H310532   2.477   3.026  13.955  3.3272 -1.8673  0.1950
  712MPD2     N10533   2.524   3.191  13.529 -0.6584  0.2225  0.2081
  712MPD2    H510534   2.570   3.277  13.558  1.8039 -0.6658 -1.0801
  712MPD2    N110535   2.289   2.775  13.627  0.3644  0.0218 -0.8288
  712MPD2    H710536   2.264   2.791  13.530  0.8369 -1.6062 -1.2156
  713TMC3    C110537   2.526   3.312  13.336 -0.1440  0.0238 -0.4761
  713TMC3    C210538   2.611   3.401  13.405 -0.3982 -0.0623 -0.6489
  713TMC3    C310539   2.570   3.535  13.406  0.1869 -0.4206  0.7346
  713TMC3    C410540   2.410   3.351  13.270 -0.1200 -0.1160 -0.1993
  713TMC3    C510541   2.374   3.481  13.283 -0.0257 -1.1287  0.3168
  713TMC3    C610542   2.448   3.569  13.355 -0.3632  0.1575  0.1105
  713TMC3     C10543   2.512   3.181  13.392  0.7111 -0.3839 -0.3142
  713TMC3     O10544   2.445   3.101  13.325 -0.0024 -0.1131  0.1237
  713TMC3     H10545   2.711   3.366  13.425 -0.0216  1.9078  0.9038
  713TMC3    H110546   2.337   3.281  13.231  0.3637 -1.9905  2.2365
  713TMC3    H210547   2.417   3.673  13.360 -1.5948 -0.2832  1.8135
  713TMC3    C710548   2.233   3.505  13.284  0.2289 -0.4993 -0.2776
  713TMC3    C810549   2.655   3.650  13.432 -0.3789  1.1508 -0.4846
  713TMC3    O110550   2.178   3.445  13.192 -0.4054 -0.3255 -0.4510
  713TMC3    O210551   2.643   3.754  13.374 -0.0718  0.1137 -0.0632
  714MPD2     C10552   4.418   1.327   2.385 -0.2310  0.3637 -0.5947
  714MPD2    C110553   4.445   1.278   2.258  0.4444  0.3215  0.3838
  714MPD2    C210554   4.350   1.279   2.160  1.0884 -0.3677  0.5309
  714MPD2    C310555   4.219   1.313   2.185  0.2196  0.6093 -0.5439
  714MPD2    C410556   4.192   1.366   2.305  0.0377 -0.1419  0.4170
  714MPD2    C510557   4.295   1.381   2.400  0.0310  0.1633  0.0848
  714MPD2     H10558   4.373   1.238   2.062  0.9585  0.0424  0.3283
  714MPD2    H110559   4.096   1.410   2.327  0.0446  0.5985 -1.1023
  714MPD2    H210560   4.483   1.341   2.471 -0.6069  0.5519 -0.3439
  714MPD2    H310561   4.271   1.432   2.493  0.0055  0.0228  0.1558
  714MPD2     N10562   4.129   1.295   2.076  0.1910 -0.1829  0.5993
  714MPD2    H510563   4.161   1.252   1.990 -3.0610 -1.6402  0.1177
  714MPD2    N110564   4.569   1.217   2.236  0.3633  0.1635  0.1958
  714MPD2    H710565   4.641   1.220   2.308 -0.1747 -2.4287  0.8371
  715TMC3    C110566   0.015   1.087   2.126 -0.0148 -0.3421  0.6551
  715TMC3    C210567   0.063   1.055   2.006 -0.8185 -0.2663  0.1377
  715TMC3    C310568   0.176   0.975   1.986 -0.8851  0.2326  0.5149
  715TMC3    C410569   0.076   1.048   2.245 -0.2215 -0.0402 -0.1758
  715TMC3    C510570   0.198   0.976   2.223 -0.3163 -0.3261 -0.6499
  715TMC3    C610571   0.244   0.934   2.102 -0.1591  0.4393 -1.0301
  715TMC3     C10572   4.601   1.144   2.124  0.7983 -0.1120  0.1156
  715TMC3     O10573   4.531   1.104   2.031 -0.4310  0.0880  0.0212
  715TMC3     H10574   0.010   1.096   1.922  0.0795 -1.3258 -0.9378
  715TMC3    H110575   0.044   1.081   2.343  0.8466 -1.0598  0.5135
  715TMC3    H210576   0.326   0.865   2.085 -1.2328 -0.4506 -2.6097
  715TMC3    C710577   0.279   0.932   2.335 -0.2741 -0.0624  0.5937
  715TMC3    C810578   0.194   0.917   1.856  0.3742 -0.6692 -0.0460
  715TMC3    O110579   0.395   0.897   2.321 -0.4318  0.2494 -0.7189
  715TMC3    O210580   0.088   0.891   1.793  0.4291  0.2136  0.1451
  716MPD2     C10581   4.666   4.074   9.814  0.4487 -0.2906 -0.0792
  716MPD2    C110582   4.599   4.125   9.701 -0.2044 -0.4361 -0.6438
  716MPD2    C210583   4.568   4.043   9.600  0.4227  1.0916 -0.2815
  716MPD2    C310584   4.598   3.910   9.595 -0.1639  0.4327 -0.3520
  716MPD2    C410585   4.656   3.859   9.713 -0.0559  0.0725  1.0825
  716MPD2    C510586   4.701   3.943   9.810  0.8620  0.5595  0.6007
  716MPD2     H10587   4.524   4.089   9.512  0.3446  0.5080 -0.5522
  716MPD2    H110588   4.679   3.754   9.730  0.0295  0.1824  1.6723
  716MPD2    H210589   4.703   4.142   9.890  0.6195 -0.2568 -0.1925
  716MPD2    H310590   0.050   3.906   9.886  0.8050 -0.3305  0.2188
  716MPD2     N10591   4.558   3.833   9.482 -0.2835  0.1409 -0.2973
  716MPD2    H510592   4.496   3.878   9.415 -0.6722  0.0041 -0.0290
  716MPD2    N110593   4.560   4.262   9.689 -0.0783  0.0714  0.4895
  716MPD2    H710594   4.525   4.293   9.599  1.2100 -1.9717 -0.7267
  717TMC3    C110595   4.540   3.661   9.334 -0.2133  1.2295  0.2101
  717TMC3    C210596   4.459   3.730   9.253  0.2095 -0.5153  0.0053
  717TMC3    C310597   4.413   3.681   9.133 -0.2229  0.0226  0.0784
  717TMC3    C410598   4.589   3.537   9.297  0.4586  0.0560 -0.0894
  717TMC3    C510599   4.542   3.484   9.178 -0.4107  0.2608 -0.4917
  717TMC3    C610600   4.460   3.554   9.095 -0.0944  0.6364  0.1354
  717TMC3     C10601   4.589   3.704   9.465 -0.8053  0.0616  0.2181
  717TMC3     O10602   4.682   3.644   9.516 -0.2472 -0.1218 -0.1403
  717TMC3     H10603   4.428   3.831   9.276 -0.1362 -0.6799  0.2468
  717TMC3    H110604   4.669   3.493   9.354 -0.7116 -1.2392  0.5513
  717TMC3    H210605   4.427   3.507   9.003  0.9592 -0.3904  0.2808
  717TMC3    C710606   4.560   3.339   9.164  0.1176 -0.1761 -0.2722
  717TMC3    C810607   4.313   3.757   9.057 -0.1448  0.5854 -0.6064
  717TMC3    O110608   4.523   3.291   9.055  0.3226 -0.1855  0.3195
  717TMC3    O210609   4.256   3.847   9.116  0.6357  0.2009 -0.7474
  718MPD2     C10610   4.091   2.944  12.925 -0.3273  0.5883 -0.5300
  718MPD2    C110611   4.102   2.840  12.838 -0.6634 -0.2205  0.3854
  718MPD2    C210612   4.058   2.721  12.877 -0.4311  0.2367  0.3166
  718MPD2    C310613   3.994   2.701  12.998 -0.4041 -0.5503 -0.2767
  718MPD2    C410614   3.982   2.805  13.088  0.8064 -1.0285 -0.1516
  718MPD2    C510615   4.027   2.921  13.043  0.2142 -0.2651 -0.3354
  718MPD2     H10616   4.067   2.638  12.808  0.6923 -0.0213  0.7704
  718MPD2    H110617   3.939   2.794  13.187  0.1336 -0.4213 -0.3712
  718MPD2    H210618   4.139   3.040  12.908  0.3303  0.7442  2.1155
  718MPD2    H310619   4.012   3.006  13.107 -0.7455  0.1421 -1.0890
  718MPD2     N10620   3.955   2.572  13.025 -0.0384 -0.7039 -0.5860
  718MPD2    H510621   3.975   2.505  12.951 -0.1212 -0.6984 -0.6131
  718MPD2    N110622   4.157   2.875  12.713  0.2636 -0.9423  0.7824
  718MPD2    H710623   4.161   2.975  12.697 -1.2440 -0.8237  1.1496
  719TMC3    C110624   4.195   2.859  12.471 -0.1255  0.7823  0.1926
  719TMC3    C210625   4.167   2.769  12.370 -0.3629  0.3895  0.4833
  719TMC3    C310626   4.056   2.800  12.299  0.0007 -1.0124 -0.9001
  719TMC3    C410627   4.141   2.985  12.473  1.0191  0.4965  0.4724
  719TMC3    C510628   4.046   3.008  12.379 -0.0651  0.1935 -0.2372
  719TMC3    C610629   3.998   2.915  12.292 -0.7705  0.4392  0.1600
  719TMC3     C10630   4.171   2.788  12.601  0.4161  0.3355  0.1301
  719TMC3     O10631   4.180   2.671  12.601  0.0989 -0.1637 -0.3733
  719TMC3     H10632   4.192   2.664  12.376 -0.4309  0.3646  0.3476
  719TMC3    H110633   4.174   3.066  12.537  1.6591 -0.5772  1.4887
  719TMC3    H210634   3.915   2.930  12.224 -1.0143  1.5010  0.6910
  719TMC3    C710635   4.044   3.142  12.331 -0.5157 -0.0148 -0.0106
  719TMC3    C810636   3.949   2.699  12.308 -0.1578  0.2419 -0.2420
  719TMC3    O110637   4.146   3.212  12.344 -0.4496 -0.7989 -0.0838
  719TMC3    O210638   3.862   2.706  12.221  0.0551 -0.1585 -0.0566
  720MPD2     C10639   1.574   0.204  13.902  0.3280 -0.1594  0.5354
  720MPD2    C110640   1.698   0.169  13.855 -0.5818 -0.0798  0.4129
  720MPD2    C210641   1.781   0.099  13.939  0.0110  0.6547 -0.9110
  720MPD2    C310642   1.742   0.071  14.066 -0.1907 -0.9918  0.6512
  720MPD2    C410643   1.614   0.097  14.109  0.3601  0.2363  0.1338
  720MPD2    C510644   1.528   0.166  14.025 -0.0341  0.7809  0.0630
  720MPD2     H10645   1.880   0.079  13.901  0.7319  1.1561  0.7040
  720MPD2    H110646   1.578   0.075  14.208  1.8939  0.9200  0.8394
  720MPD2    H210647   1.507   0.274  13.853  0.5458 -0.8680 -0.7657
  720MPD2    H310648   1.428   0.189  14.059 -0.8746 -1.5650 -0.8251
  720MPD2     N10649   1.847   0.016  14.143 -0.1991  0.0531  0.5783
  720MPD2    H510650   1.931   0.000  14.088 -0.8814 -0.4053 -0.3328
  720MPD2    N110651   1.747   0.215  13.732 -0.5752  0.9149 -0.3955
  720MPD2    H710652   1.838   0.176  13.708 -0.1281  0.3669  2.2395
  721TMC3    C110653   1.970   4.649  14.324  0.9449 -0.6541 -0.3652
  721TMC3    C210654   1.969   4.612  14.453  0.6177  0.5171 -0.3667
  721TMC3    C310655   2.084   4.625  14.520 -0.0445 -0.4519 -0.0064
  721TMC3    C410656   2.080   0.011  14.273 -0.4767  0.1584  0.2600
  721TMC3    C510657   2.192   0.022  14.356  0.1130  0.4439 -0.0348
  721TMC3    C610658   2.194   4.702  14.485 -0.3586  0.0958 -0.1775
  721TMC3     C10659   1.844   4.690  14.270 -0.2899  0.3919  0.3612
  721TMC3     O10660   1.754   4.698  14.354 -0.6123  0.2345 -0.3550
  721TMC3     H10661   1.895   4.547  14.498 -2.1132  3.1118 -1.1286
  721TMC3    H110662   2.090   0.040  14.169  2.2260  0.9590  0.7520
  721TMC3    H210663   2.277   4.703  14.554  0.1366  3.7091 -0.8158
  721TMC3    C710664   2.319   0.020  14.286 -0.0779 -0.2545  0.0701
  721TMC3    C810665   2.121   4.519  14.616  1.0026 -0.1923 -0.0132
  721TMC3    O110666   2.330   0.086  14.182  0.1168  0.2088  0.5680
  721TMC3    O210667   2.243   4.503  14.633  0.3884 -0.5530 -0.1173
  722MPD2     C10668   1.142   3.360  12.934 -0.2707 -0.2876  0.1498
  722MPD2    C110669   1.152   3.475  12.861 -0.2849 -0.1147 -0.3044
  722MPD2    C210670   1.031   3.518  12.799 -0.2383  0.7344  0.0057
  722MPD2    C310671   0.908   3.459  12.820 -0.1013 -0.6006  0.3042
  722MPD2    C410672   0.900   3.347  12.891 -0.3226  0.4051 -0.2728
  722MPD2    C510673   1.014   3.295  12.950 -0.2199  0.4808  0.7602
  722MPD2     H10674   1.040   3.601  12.729 -1.9428  0.9975  0.0816
  722MPD2    H110675   0.808   3.290  12.899 -0.2885  0.8057  2.9510
  722MPD2    H210676   1.227   3.324  12.991  0.1235 -0.2400 -0.4078
  722MPD2    H310677   1.012   3.201  13.004 -0.6571  0.1411  0.1542
  722MPD2     N10678   0.799   3.514  12.746  0.2401  0.8972 -0.0756
  722MPD2    H510679   0.809   3.599  12.692  0.6598  1.2621  0.5917
  722MPD2    N110680   1.276   3.535  12.833  0.0488  0.0417 -0.5701
  722MPD2    H710681   1.282   3.616  12.772 -1.2221  0.1484 -0.5645
  723TMC3    C110682   0.597   3.513  12.626  0.4980 -0.2304  0.5198
  723TMC3    C210683   0.485   3.441  12.593 -0.7586  0.1091  0.0230
  723TMC3    C310684   0.373   3.507  12.543 -0.2384  0.6905  0.6626
  723TMC3    C410685   0.595   3.654  12.614 -0.2876 -0.1884 -0.2910
  723TMC3    C510686   0.477   3.714  12.570 -0.2735 -0.0654  0.0068
  723TMC3    C610687   0.363   3.645  12.542  0.0672  0.0175 -0.2158
  723TMC3     C10688   0.674   3.460  12.729  0.0539 -0.2819 -0.9145
  723TMC3     O10689   0.618   3.375  12.800  0.3418  0.1863 -0.3588
  723TMC3     H10690   0.498   3.335  12.606 -0.0750  0.2255  0.3242
  723TMC3    H110691   0.678   3.714  12.648 -0.9454 -0.9507  2.6976
  723TMC3    H210692   0.279   3.704  12.506  2.7707  3.4982 -0.8599
  723TMC3    C710693   0.468   3.863  12.571 -0.4262 -0.0115  0.4502
  723TMC3    C810694   0.253   3.447  12.589 -0.2587 -0.0030  0.3749
  723TMC3    O110695   0.575   3.916  12.546 -0.1304  0.0429 -0.4887
  723TMC3    O210696   0.168   3.515  12.647 -0.5228  0.2693 -0.4081
  724TMC3    C110697   1.818   1.436   9.417 -0.2012  0.3332 -0.3509
  724TMC3    C210698   1.822   1.577   9.415  0.8201 -0.4343 -0.6395
  724TMC3    C310699   1.783   1.634   9.296  0.1737  0.8270  0.0786
  724TMC3    C410700   1.806   1.358   9.305 -0.6079 -0.8813 -0.1164
  724TMC3    C510701   1.774   1.423   9.186  0.2497 -0.5365  0.3529
  724TMC3    C610702   1.770   1.560   9.184 -0.2525  0.7893 -0.1208
  724TMC3     C10703   1.833   1.365   9.545 -0.0977 -0.0522 -0.2396
  724TMC3     O10704   1.820   1.244   9.539 -0.4450 -0.3126  0.3808
  724TMC3     H10705   1.818   1.632   9.508 -1.7787 -0.9248 -0.4673
  724TMC3    H110706   1.789   1.252   9.320 -0.7181 -0.6574  1.3289
  724TMC3    H210707   1.746   1.612   9.092  1.1100  0.7417 -0.4996
  724TMC3    C710708   1.806   1.357   9.065  0.3423 -0.1457  0.7165
  724TMC3    C810709   1.739   1.773   9.286 -0.0978 -0.0129 -0.0932
  724TMC3    O110710   1.904   1.283   9.065  0.5236  0.5755 -0.8447
  724TMC3    O210711   1.665   1.799   9.192  0.0506 -0.3062 -0.3896
  725TMC3    C110712   2.569   0.291  12.623  0.1159  0.1834 -0.0265
  725TMC3    C210713   2.540   0.304  12.489 -0.2275 -0.9226 -0.5470
  725TMC3    C310714   2.580   0.192  12.410 -0.5796 -0.9329 -0.0080
  725TMC3    C410715   2.627   0.178  12.677  1.0041 -0.4217 -0.1113
  725TMC3    C510716   2.652   0.068  12.596  0.0541 -0.1362 -0.4645
  725TMC3    C610717   2.618   0.070  12.464  0.0713 -0.1904  0.1338
  725TMC3     C10718   2.543   0.407  12.707 -0.5992  0.6377 -0.2650
  725TMC3     O10719   2.581   0.514  12.658  0.1705 -0.2003  0.0202
  725TMC3     H10720   2.508   0.397  12.442  1.2638 -0.3719 -0.4916
  725TMC3    H110721   2.647   0.172  12.784 -0.7979 -0.9831  0.1866
  725TMC3    H210722   2.638   4.704  12.399 -1.9938 -1.1319  0.7200
  725TMC3    C710723   2.782   4.718  12.608 -0.0314 -0.0247 -0.2612
  725TMC3    C810724   2.584   0.210  12.259  0.2396 -0.5329  0.0813
  725TMC3    O110725   2.792   4.608  12.560 -0.6431 -0.2268 -0.1905
  725TMC3    O210726   2.593   0.110  12.190 -0.1860 -0.4997 -0.1914
  726MPD2     C10727   1.193   1.893  10.240  1.1581 -0.1890 -0.0813
  726MPD2    C110728   1.200   2.008  10.315 -0.0325 -0.0656 -0.0265
  726MPD2    C210729   1.130   2.003  10.434 -0.1800  0.5731 -0.3685
  726MPD2    C310730   1.085   1.884  10.485  0.0684  0.1098  0.4540
  726MPD2    C410731   1.098   1.766  10.416  0.2955 -0.0322 -0.3251
  726MPD2    C510732   1.141   1.776  10.289 -0.5942 -0.2846  0.4935
  726MPD2     H10733   1.137   2.094  10.493 -1.4041 -0.2664  1.0513
  726MPD2    H110734   1.048   1.679  10.457  0.8458 -0.3271 -0.2904
  726MPD2    H210735   1.242   1.893  10.144 -2.8440 -0.5451 -2.1059
  726MPD2    H310736   1.126   1.697  10.216 -1.2573  1.5154 -1.3534
  726MPD2     N10737   1.006   1.873  10.605  0.1936  0.2853  0.4523
  726MPD2    H510738   0.940   1.796  10.596  2.1064 -1.2629 -0.3346
  726MPD2    N110739   1.257   2.132  10.269  0.2883 -0.2834 -0.5314
  726MPD2    H710740   1.232   2.213  10.325 -1.6144 -0.4241 -1.1788
  727TMC3    C110741   1.312   2.282  10.112  0.2513  0.0236 -0.0503
  727TMC3    C210742   1.343   2.380  10.201  0.3944 -0.0034 -0.1969
  727TMC3    C310743   1.324   2.509  10.161 -0.9314  0.7257 -0.3276
  727TMC3    C410744   1.251   2.310   9.992  0.4433  0.2334  0.0217
  727TMC3    C510745   1.212   2.439   9.967 -0.6744  0.1887  0.0465
  727TMC3    C610746   1.254   2.542  10.053  0.0780 -0.2304 -0.1892
  727TMC3     C10747   1.322   2.148  10.148 -0.1973  0.3969 -0.1678
  727TMC3     O10748   1.377   2.073  10.065 -0.2763  0.0453  0.2581
  727TMC3     H10749   1.408   2.367  10.286  0.3676  0.3088 -0.1279
  727TMC3    H110750   1.230   2.230   9.921  0.8943 -1.0183  1.2859
  727TMC3    H210751   1.246   2.646  10.022 -0.6360 -0.2140  0.0583
  727TMC3    C710752   1.123   2.479   9.860  0.1303 -0.8705  0.1794
  727TMC3    C810753   1.421   2.607  10.195  0.4767 -1.1185 -0.3416
  727TMC3    O110754   1.079   2.593   9.859 -0.2755 -0.1663  0.0028
  727TMC3    O210755   1.542   2.576  10.206  0.3154  0.6829 -0.3037
  728TMC3    C110756   4.225   0.100  15.406 -0.9125 -1.0302  0.0044
  728TMC3    C210757   4.330   0.091  15.500  0.2641  0.0759  0.5609
  728TMC3    C310758   4.454   0.139  15.467  0.3224  0.1285  0.8635
  728TMC3    C410759   4.240   0.179  15.294 -0.4184 -0.3043  0.1907
  728TMC3    C510760   4.365   0.211  15.259 -0.7840  0.4460  0.1935
  728TMC3    C610761   4.472   0.186  15.342 -0.0148 -0.4340 -0.7675
  728TMC3     C10762   4.098   0.074  15.468  0.2609  0.1790 -0.5686
  728TMC3     O10763   4.091   0.001  15.569  0.0110 -0.6231  0.0811
  728TMC3     H10764   4.316   0.049  15.599  0.4702 -1.5871 -0.1233
  728TMC3    H110765   4.154   0.189  15.229 -1.6147  0.7844  1.9272
  728TMC3    H210766   4.573   0.221  15.322  1.1102 -3.7200 -0.8292
  728TMC3    C710767   4.377   0.281  15.140 -0.3803 -0.3431 -0.1565
  728TMC3    C810768   4.558   0.051  15.498  0.4419 -0.6287  0.6818
  728TMC3    O110769   4.290   0.268  15.055 -0.1087  0.2735 -0.1098
  728TMC3    O210770   4.641   0.032  15.409  0.0400 -0.4945 -0.3263
  729MPD2     C10771   1.782   1.287  16.530 -0.0157  0.3357  0.4107
  729MPD2    C110772   1.906   1.337  16.573  0.2859  0.5217  0.9332
  729MPD2    C210773   1.941   1.316  16.708 -0.1204  0.0754  0.3387
  729MPD2    C310774   1.862   1.244  16.796 -0.2788  0.2855  0.3259
  729MPD2    C410775   1.743   1.183  16.752 -0.1938 -0.1907 -0.1797
  729MPD2    C510776   1.708   1.217  16.621  0.5000 -0.1067  0.1161
  729MPD2     H10777   2.030   1.367  16.743  0.3141  0.7287 -1.6836
  729MPD2    H110778   1.669   1.125  16.807 -0.2499  1.3389  1.3667
  729MPD2    H210779   1.739   1.314  16.435 -0.1110 -1.4415 -0.0502
  729MPD2    H310780   1.617   1.169  16.587 -0.0679  1.2042 -0.2123
  729MPD2     N10781   1.914   1.211  16.922  0.4260  0.2744 -0.6566
  729MPD2    H510782   1.841   1.183  16.987  1.7099  1.1303  1.1301
  729MPD2    N110783   1.994   1.395  16.482 -0.0210 -0.3160  0.1237
  729MPD2    H710784   1.956   1.406  16.388  2.1703 -1.1439 -0.8486
  730TMC3    C110785   2.026   1.270  17.114 -0.6585 -0.3073  0.3621
  730TMC3    C210786   2.141   1.261  17.189  0.9481 -0.6968  0.2852
  730TMC3    C310787   2.151   1.338  17.303  0.4202  0.0315 -0.4818
  730TMC3    C410788   1.921   1.354  17.152 -0.2205  0.0919  0.0181
  730TMC3    C510789   1.933   1.439  17.263  0.1046  1.0580  0.3886
  730TMC3    C610790   2.050   1.421  17.341  0.4776 -0.4139 -0.8241
  730TMC3     C10791   2.040   1.237  16.975 -0.2646  0.0059  0.2508
  730TMC3     O10792   2.145   1.265  16.920 -0.2616 -0.1534  0.2682
  730TMC3     H10793   2.228   1.210  17.149 -0.5335 -0.0147 -3.7704
  730TMC3    H110794   1.844   1.373  17.078  1.6476 -1.9443 -2.4497
  730TMC3    H210795   2.073   1.480  17.429  0.6041 -1.7619  0.0325
  730TMC3    C710796   1.899   1.575  17.237  0.2678 -0.1976 -0.7579
  730TMC3    C810797   2.279   1.354  17.380 -0.7036 -0.3075  0.0975
  730TMC3    O110798   1.851   1.603  17.126  0.4242  0.0755 -0.6734
  730TMC3    O210799   2.272   1.309  17.493  0.1134  0.0253  0.4491
  731MPD2     C10800   2.276   4.617  11.975 -0.1318 -0.2348  0.1915
  731MPD2    C110801   2.414   4.612  11.994  0.2251 -0.0265 -0.1567
  731MPD2    C210802   2.453   4.555  12.115  0.5918 -0.4925 -0.1522
  731MPD2    C310803   2.361   4.494  12.198 -0.1357  0.0859 -0.1720
  731MPD2    C410804   2.229   4.500  12.167  1.0286 -0.5024  0.1394
  731MPD2    C510805   2.184   4.572  12.062 -0.3155  0.5382  0.1010
  731MPD2     H10806   2.560   4.544  12.126  0.5516 -1.3689 -0.5621
  731MPD2    H110807   2.157   4.447  12.229  0.7145 -1.0080 -0.6608
  731MPD2    H210808   2.236   4.666  11.887  0.7538 -2.3576 -1.3870
  731MPD2    H310809   2.078   4.584  12.045 -0.9485 -1.7163  2.5486
  731MPD2     N10810   2.405   4.416  12.307 -0.3123  0.4555 -0.2482
  731MPD2    H510811   2.501   4.424  12.339 -0.0457  1.8564 -1.4351
  731MPD2    N110812   2.488   4.653  11.882 -0.4583 -0.8301  0.4632
  731MPD2    H710813   2.435   4.663  11.796  0.1524 -3.0622 -0.1514
  732TMC3    C110814   2.677   4.643  11.735 -0.1176  0.4683  0.1572
  732TMC3    C210815   2.592   4.581  11.644 -0.2991  1.1761 -0.0119
  732TMC3    C310816   2.655   4.526  11.530 -1.0517 -0.1746  0.1910
  732TMC3    C410817   2.814   4.652  11.723 -0.3614 -0.6717  0.1763
  732TMC3    C510818   2.868   4.584  11.614  0.1886  0.6752  0.4641
  732TMC3    C610819   2.789   4.534  11.514  0.1592 -0.1168 -0.7010
  732TMC3     C10820   2.623   4.645  11.872 -0.2135  0.1449 -0.1070
  732TMC3     O10821   2.710   4.632  11.964  0.0892  0.3743 -0.7065
  732TMC3     H10822   2.484   4.577  11.656 -0.2846  0.9320  0.0366
  732TMC3    H110823   2.870   4.692  11.807 -2.2436  3.6955 -0.6591
  732TMC3    H210824   2.838   4.492  11.427  0.0487 -2.6569  0.4516
  732TMC3    C710825   3.011   4.576  11.594 -0.6474  0.3544  0.0323
  732TMC3    C810826   2.586   4.419  11.460  0.1305  0.4525  0.4408
  732TMC3    O110827   3.048   4.571  11.475 -0.3152  0.1699  0.7822
  732TMC3    O210828   2.627   4.390  11.349  0.1920 -0.6296 -0.3838
  733TMC3    C110829   3.689   2.246  13.188  0.5824  0.2146  0.1631
  733TMC3    C210830   3.799   2.323  13.229  0.1262  0.1569 -0.0570
  733TMC3    C310831   3.885   2.365  13.139  0.1263  0.1597 -0.2277
  733TMC3    C410832   3.680   2.192  13.060  0.2722 -0.1322  0.7294
  733TMC3    C510833   3.778   2.232  12.974 -0.4212 -0.2912 -0.1708
  733TMC3    C610834   3.879   2.315  13.020  0.5827  0.6552 -0.0203
  733TMC3     C10835   3.563   2.308  13.236  0.2377 -0.4323 -0.0637
  733TMC3     O10836   3.473   2.319  13.151  0.0751  0.0025  0.6635
  733TMC3     H10837   3.801   2.370  13.327  2.5743 -2.4835  1.1585
  733TMC3    H110838   3.591   2.135  13.039 -0.9802  1.6799  1.0919
  733TMC3    H210839   3.972   2.323  12.964  1.2003  0.3172  0.9718
  733TMC3    C710840   3.733   2.226  12.834 -0.2056  0.9645  0.9808
  733TMC3    C810841   3.909   2.515  13.144  0.2453  0.3023 -0.0979
  733TMC3    O110842   3.620   2.195  12.811  0.3699 -0.1868 -0.0989
  733TMC3    O210843   3.884   2.563  13.251  0.1012  0.0849  0.1678
  734MPD2     C10844   0.551   0.637  12.147  0.1416  0.0350  0.1115
  734MPD2    C110845   0.548   0.565  12.024 -0.5060  0.5114  0.4339
  734MPD2    C210846   0.623   0.620  11.917  0.4706 -0.1102  0.0739
  734MPD2    C310847   0.672   0.747  11.927  0.1863  0.0064 -0.7256
  734MPD2    C410848   0.646   0.829  12.035  0.0317  0.4986  0.0590
  734MPD2    C510849   0.606   0.760  12.150 -0.8947  0.0942 -0.3466
  734MPD2     H10850   0.639   0.565  11.826  0.1129 -0.6534  0.3400
  734MPD2    H110851   0.676   0.932  12.048  1.8021  0.0731 -0.6960
  734MPD2    H210852   0.513   0.591  12.237  1.3695 -0.6806  0.2625
  734MPD2    H310853   0.623   0.802  12.249 -1.1786 -1.0227  0.1764
  734MPD2     N10854   0.738   0.794  11.812 -0.3230 -0.1263  0.6082
  734MPD2    H510855   0.770   0.724  11.745  1.9248  0.6714  0.8355
  734MPD2    N110856   0.476   0.447  12.012  0.3923 -0.1348  0.2565
  734MPD2    H710857   0.440   0.398  12.093  0.6213 -0.9669 -0.1412
  735TMC3    C110858   0.345   0.280  11.903  0.1493  0.4273 -0.1655
  735TMC3    C210859   0.291   0.255  11.783 -0.3456  0.1364 -0.1747
  735TMC3    C310860   0.326   0.141  11.717 -0.5150 -0.6679 -0.1945
  735TMC3    C410861   0.424   0.183  11.962  0.2147  0.1049  0.4448
  735TMC3    C510862   0.435   0.055  11.904  0.3012 -0.1124  0.2696
  735TMC3    C610863   0.384   0.034  11.779 -0.2857  0.9346 -0.6859
  735TMC3     C10864   0.411   0.408  11.889  0.2317 -0.0223 -0.1138
  735TMC3     O10865   0.406   0.466  11.780 -0.6746 -0.4782 -0.1916
  735TMC3     H10866   0.234   0.332  11.733  0.8804  0.4420 -1.0950
  735TMC3    H110867   0.471   0.209  12.056  2.4125  0.2874 -0.6912
  735TMC3    H210868   0.394   4.655  11.732 -0.8117  0.5013  0.0887
  735TMC3    C710869   0.560   4.708  11.930 -0.0507 -0.7081  0.6964
  735TMC3    C810870   0.373   0.160  11.580 -0.9919  0.4664  0.0862
  735TMC3    O110871   0.657   0.053  11.963 -0.0148 -0.3360  0.1606
  735TMC3    O210872   0.404   0.056  11.519 -0.3103  0.1977  0.1199
  736MPD2     C10873   0.620   4.364  11.990 -0.2864  0.8185  0.0353
  736MPD2    C110874   0.658   4.487  11.945 -0.6421  0.6329  0.3721
  736MPD2    C210875   0.791   4.519  11.938 -0.6154  0.6992  0.3972
  736MPD2    C310876   0.883   4.425  11.989 -0.3758  0.0285  0.5612
  736MPD2    C410877   0.841   4.315  12.055  0.3420 -0.8350  0.0253
  736MPD2    C510878   0.708   4.280  12.054 -0.5163 -0.2584  0.0806
  736MPD2     H10879   0.826   4.611  11.891  0.2387  0.1868  0.0233
  736MPD2    H110880   0.915   4.255  12.106  1.4606  1.1801  0.7794
  736MPD2    H210881   0.518   4.328  11.985  0.5158 -1.5464  0.8472
  736MPD2    H310882   0.682   4.180  12.086 -1.2360  0.3983  1.5358
  736MPD2     N10883   1.023   4.448  11.994 -0.3980 -0.4059  0.7346
  736MPD2    H510884   1.076   4.380  12.047 -0.1705 -0.3721  0.5521
  736MPD2    N110885   0.557   4.577  11.906 -0.1371 -0.2510 -0.8828
  736MPD2    H710886   0.466   4.536  11.885 -0.6683  1.0191 -1.0573
  737TMC3    C110887   1.234   4.562  11.955 -0.7405  0.1423 -0.1100
  737TMC3    C210888   1.286   4.686  11.917  0.8002 -0.3638 -0.1624
  737TMC3    C310889   1.389   4.691  11.823  0.6126 -0.0962 -0.3578
  737TMC3    C410890   1.294   4.447  11.897 -1.0663 -0.0965 -0.1774
  737TMC3    C510891   1.392   4.465  11.804 -0.7763  0.1020  0.0407
  737TMC3    C610892   1.450   4.584  11.770 -0.6326 -0.5726 -0.3387
  737TMC3     C10893   1.084   4.561  11.943 -0.2694  0.2225 -0.0729
  737TMC3     O10894   1.046   4.668  11.895  0.1707  0.2923  0.1496
  737TMC3     H10895   1.248   0.062  11.955  0.6655 -1.1191  1.5483
  737TMC3    H110896   1.256   4.349  11.924  0.5084 -0.7328 -0.2663
  737TMC3    H210897   1.549   4.588  11.727  0.1997  0.2176  1.6153
  737TMC3    C710898   1.478   4.340  11.794 -0.0988  0.1136  0.3724
  737TMC3    C810899   1.444   0.103  11.782 -0.4507  0.3900 -0.2867
  737TMC3    O110900   1.475   4.259  11.881 -0.5077  0.3091 -0.0363
  737TMC3    O210901   1.494   0.172  11.868 -0.6030 -0.2740  0.5439
  738MPD2     C10902   1.041   3.735  15.288  0.0824 -0.9007  0.4474
  738MPD2    C110903   1.020   3.725  15.155 -0.4709 -0.6983  0.0772
  738MPD2    C210904   1.116   3.766  15.065  1.0568 -0.5545 -0.3523
  738MPD2    C310905   1.245   3.807  15.117 -0.2456  0.1965 -0.1097
  738MPD2    C410906   1.264   3.791  15.252  0.3262  0.2200  0.2244
  738MPD2    C510907   1.166   3.761  15.334  0.2529  0.7831  0.5570
  738MPD2     H10908   1.080   3.778  14.964  0.5072 -1.1665 -0.2297
  738MPD2    H110909   1.365   3.800  15.291  0.2400  2.4279 -0.0738
  738MPD2    H210910   0.971   3.710  15.367 -0.9063  1.7355  0.4087
  738MPD2    H310911   1.181   3.767  15.441  1.5016  2.3701  0.2899
  738MPD2     N10912   1.351   3.860  15.039 -0.3508  0.1165  0.5794
  738MPD2    H510913   1.437   3.885  15.087  0.8499  0.2331 -1.6774
  738MPD2    N110914   0.905   3.673  15.096  0.2653  0.9432 -0.1025
  738MPD2    H710915   0.889   3.690  14.997  0.5068 -0.4892 -0.3871
  739TMC3    C110916   1.471   3.919  14.844 -0.6727  0.1965 -0.0351
  739TMC3    C210917   1.458   3.967  14.715 -0.2482 -0.5012  0.9097
  739TMC3    C310918   1.583   3.998  14.648 -0.3241  0.2295 -0.2932
  739TMC3    C410919   1.590   3.890  14.910  0.1578  0.4894  0.2875
  739TMC3    C510920   1.702   3.935  14.843 -0.6405  0.2090  0.2391
  739TMC3    C610921   1.700   3.984  14.713 -0.6273  0.2317 -0.9714
  739TMC3     C10922   1.346   3.871  14.907 -0.1257 -0.6046  0.8235
  739TMC3     O10923   1.250   3.873  14.831 -0.6849 -0.0555 -0.0155
  739TMC3     H10924   1.367   3.975  14.656  0.2426  0.9184  0.3564
  739TMC3    H110925   1.595   3.877  15.018 -1.0762 -1.5967  0.0919
  739TMC3    H210926   1.781   4.033  14.661 -0.3917  1.5850  0.6883
  739TMC3    C710927   1.830   3.892  14.893 -0.1826 -0.0059  0.3816
  739TMC3    C810928   1.588   4.024  14.502  0.8277 -0.0301  0.0181
  739TMC3    O110929   1.842   3.868  15.013 -0.3162 -0.4289 -0.0916
  739TMC3    O210930   1.683   4.084  14.450  0.1553 -0.0732 -0.3811
  740TMC3    C110931   1.584   0.340  14.419  0.9012 -1.0501 -0.1754
  740TMC3    C210932   1.620   0.283  14.541 -0.4964  0.0837  0.2249
  740TMC3    C310933   1.748   0.262  14.559  0.1675  0.7420 -0.3632
  740TMC3    C410934   1.671   0.365  14.317  0.0918  0.3429  0.2371
  740TMC3    C510935   1.800   0.328  14.338  0.1393 -0.0979 -0.5690
  740TMC3    C610936   1.839   0.285  14.460  0.1418 -0.3246 -0.7745
  740TMC3     C10937   1.455   0.404  14.405  0.1623  0.0392  0.2234
  740TMC3     O10938   1.435   0.496  14.327  0.0616  0.0364 -0.1039
  740TMC3     H10939   1.548   0.275  14.621 -1.1985 -0.6708 -0.4812
  740TMC3    H110940   1.635   0.402  14.221  0.8681  0.0015 -0.1839
  740TMC3    H210941   1.942   0.250  14.467 -0.2497 -1.3707 -0.2645
  740TMC3    C710942   1.905   0.324  14.236  0.9267 -0.3410  0.6058
  740TMC3    C810943   1.785   0.191  14.675 -0.7526 -0.3730  0.6152
  740TMC3    O110944   2.020   0.300  14.270 -0.1279  0.1557  0.2396
  740TMC3    O210945   1.700   0.120  14.730 -0.9631 -0.0417  0.2919
  741TMC3    C110946   1.206   4.165  14.554 -0.3342 -0.1091  0.7548
  741TMC3    C210947   1.141   4.056  14.500  0.5541  0.4166 -0.2648
  741TMC3    C310948   1.051   3.993  14.580  0.5065  0.3301  0.6326
  741TMC3    C410949   1.199   4.197  14.687  0.2098 -0.1610  0.2954
  741TMC3    C510950   1.099   4.135  14.757  1.2345  0.4222 -0.0944
  741TMC3    C610951   1.019   4.041  14.706  0.5434 -0.4388  0.3701
  741TMC3     C10952   1.299   4.243  14.472  0.0094  0.0518  0.5137
  741TMC3     O10953   1.378   4.316  14.529  0.5471  0.1941 -0.0947
  741TMC3     H10954   1.131   4.055  14.392 -2.5854  1.4474 -0.0028
  741TMC3    H110955   1.244   4.291  14.716 -0.4453  0.1298  0.3614
  741TMC3    H210956   0.936   3.996  14.760 -0.1898 -0.3266 -0.6601
  741TMC3    C710957   1.097   4.183  14.897 -0.1411 -0.0913  0.4641
  741TMC3    C810958   0.939   3.938  14.507 -0.0484  0.2629  0.0863
  741TMC3    O110959   1.177   4.271  14.922 -0.7146  0.1238 -0.5013
  741TMC3    O210960   0.828   3.962  14.551 -0.1527 -0.1106 -0.5889
  742TMC3    C110961   0.832   2.713  15.376  0.9313  0.0116  0.1712
  742TMC3    C210962   0.795   2.735  15.247 -0.2966 -0.2497 -0.0522
  742TMC3    C310963   0.876   2.685  15.150  0.7374 -0.4413  0.6648
  742TMC3    C410964   0.959   2.674  15.414  0.4512  0.7675  0.0074
  742TMC3    C510965   1.039   2.636  15.313  0.4746  0.1313  0.0256
  742TMC3    C610966   1.003   2.639  15.185  0.5620 -0.2129  0.3935
  742TMC3     C10967   0.746   2.754  15.487 -0.0374 -0.4773 -0.4852
  742TMC3     O10968   0.656   2.834  15.458 -0.5649 -0.6098 -0.1020
  742TMC3     H10969   0.693   2.768  15.228 -0.5664  0.4682  2.7261
  742TMC3    H110970   0.984   2.655  15.517  0.6313  0.7971 -0.0304
  742TMC3    H210971   1.069   2.603  15.107  2.6219 -2.5765  3.2349
  742TMC3    C710972   1.148   2.553  15.348  0.2511 -0.0587  0.0397
  742TMC3    C810973   0.845   2.701  15.008  0.1968  0.5846 -0.3741
  742TMC3    O110974   1.170   2.457  15.276 -0.4789  0.3787 -0.8092
  742TMC3    O210975   0.924   2.656  14.925  0.3330  0.0341 -0.2798
  743MPD2     C10976   3.517   0.705   2.065 -0.5052 -0.6496 -0.0702
  743MPD2    C110977   3.542   0.596   1.990  0.0045 -0.0813 -0.1356
  743MPD2    C210978   3.656   0.517   2.021 -0.1298 -0.7198 -0.2820
  743MPD2    C310979   3.747   0.555   2.121 -0.0007 -0.2336  0.3300
  743MPD2    C410980   3.720   0.668   2.189 -0.2112  0.3126  1.2170
  743MPD2    C510981   3.609   0.741   2.159 -0.3428 -0.0190 -0.5765
  743MPD2     H10982   3.676   0.428   1.962 -1.4983  1.3493 -3.8043
  743MPD2    H110983   3.775   0.696   2.278  1.5262 -1.4573  0.7028
  743MPD2    H210984   3.440   0.778   2.045  0.4199  0.1041 -0.9400
  743MPD2    H310985   3.594   0.831   2.218  1.6594 -1.1050  1.5947
  743MPD2     N10986   3.857   0.470   2.152 -0.6025  0.2017  0.2546
  743MPD2    H510987   3.845   0.376   2.116  0.2212 -0.3979  1.5239
  743MPD2    N110988   3.439   0.554   1.898 -0.2238 -0.2881  0.2124
  743MPD2    H710989   3.348   0.599   1.907  0.7721  1.3884  2.0322
  744TMC3    C110990   3.344   0.407   1.721  0.2391 -0.8520  0.2851
  744TMC3    C210991   3.224   0.420   1.783 -0.3332  0.9793 -0.1833
  744TMC3    C310992   3.123   0.348   1.731 -0.0772  0.1092 -0.1587
  744TMC3    C410993   3.376   0.316   1.621 -0.4011 -0.4996 -0.2321
  744TMC3    C510994   3.269   0.248   1.566 -1.0192  0.2729  1.0540
  744TMC3    C610995   3.143   0.262   1.627  0.1363 -0.2840 -0.4463
  744TMC3     C10996   3.455   0.457   1.797 -0.1435  0.1916  0.1345
  744TMC3     O10997   3.559   0.410   1.752 -0.0031  0.4196  0.2070
  744TMC3     H10998   3.213   0.471   1.878  0.3098  2.0456 -0.6779
  744TMC3    H110999   3.475   0.309   1.576  0.5265 -2.9145  2.2481
  744TMC3    H211000   3.064   0.199   1.588  1.8731 -1.6169 -1.8684
  744TMC3    C711001   3.295   0.178   1.435 -0.2231  0.3536 -0.1515
  744TMC3    C811002   2.996   0.347   1.799 -0.1773  0.3352 -0.9655
  744TMC3    O111003   3.417   0.171   1.414  0.3413 -0.1642  0.1029
  744TMC3    O211004   2.907   0.297   1.729 -0.3091  0.5305  0.2824
  745TMC3    C111005   2.130   2.608  13.617 -0.8961  0.8475 -0.3848
  745TMC3    C211006   1.998   2.624  13.664 -0.3266  0.1641  0.1913
  745TMC3    C311007   1.895   2.591  13.581 -0.3816 -0.1335  0.5266
  745TMC3    C411008   2.161   2.563  13.491 -0.2237  0.6203  0.7125
  745TMC3    C511009   2.053   2.520  13.414 -0.4587  0.3553 -0.2783
  745TMC3    C611010   1.920   2.540  13.451 -0.4780 -0.9696 -0.3837
  745TMC3     C11011   2.235   2.670  13.702  0.6658  0.3311  0.2078
  745TMC3     O11012   2.226   2.651  13.821  0.0247 -0.0303 -0.2245
  745TMC3     H11013   1.986   2.648  13.768  2.4173  1.0619  0.3109
  745TMC3    H111014   2.266   2.544  13.473  0.0434  2.6522  0.1842
  745TMC3    H211015   1.840   2.504  13.387 -0.8656 -0.6074 -0.0992
  745TMC3    C711016   2.077   2.515  13.272  0.6180 -0.5079 -0.7430
  745TMC3    C811017   1.753   2.625  13.617 -0.3254  0.4629 -0.0638
  745TMC3    O111018   1.976   2.513  13.195 -0.5160 -0.1878 -0.3221
  745TMC3    O211019   1.668   2.600  13.534  0.5802 -0.2136 -0.8544
  746TMC3    C111020   4.500   0.308  10.742 -0.2935 -0.3099 -0.7211
  746TMC3    C211021   4.596   0.260  10.656 -0.3734 -0.4718 -0.8416
  746TMC3    C311022   4.589   0.138  10.607  0.6639  0.6407 -0.0209
  746TMC3    C411023   4.397   0.227  10.776 -0.3440  0.1294 -0.1537
  746TMC3    C511024   4.398   0.097  10.729 -0.0284  0.1934  0.5717
  746TMC3    C611025   4.498   0.047  10.654  0.4268  0.0992 -0.3144
  746TMC3     C11026   4.534   0.416  10.834 -0.0086 -0.3080  0.0343
  746TMC3     O11027   4.438   0.471  10.887 -0.1084 -0.0191  0.4226
  746TMC3     H11028   4.673   0.330  10.628  0.4181 -0.6949  0.8143
  746TMC3    H111029   4.331   0.261  10.855 -1.4423  0.5756 -1.2638
  746TMC3    H211030   4.509   4.665  10.613  2.4546 -0.4217  1.4819
  746TMC3    C711031   4.305   4.715  10.775 -0.6947 -0.2505  0.1744
  746TMC3    C811032   4.674   0.107  10.490 -0.4952  0.0729 -0.7990
  746TMC3    O111033   4.275   4.629  10.695 -0.4931  0.1331 -0.1890
  746TMC3    O211034   4.632   0.025  10.408 -0.4279  0.0844  0.2310
  747TMC3    C111035   2.187   4.322  11.029 -0.6328 -0.1711 -0.5395
  747TMC3    C211036   2.117   4.226  11.097  0.1384 -0.2152 -0.4641
  747TMC3    C311037   2.094   4.253  11.234 -0.3273  0.2050 -0.0041
  747TMC3    C411038   2.238   4.433  11.093 -0.1678 -0.7597 -0.1615
  747TMC3    C511039   2.213   4.453  11.227 -0.3060 -0.7175  0.5683
  747TMC3    C611040   2.142   4.365  11.302  0.4474 -0.2489  0.4323
  747TMC3     C11041   2.132   4.364  10.895  0.0130 -0.4516 -0.0374
  747TMC3     O11042   2.112   4.484  10.868  0.2322  0.6847  0.2127
  747TMC3     H11043   2.083   4.137  11.046  1.1663  0.3624 -2.1512
  747TMC3    H111044   2.271   4.519  11.035 -1.2611  0.4780  1.0541
  747TMC3    H211045   2.154   4.373  11.410 -0.6228 -0.8600  0.5926
  747TMC3    C711046   2.270   4.558  11.315 -0.2088 -0.7066 -0.2694
  747TMC3    C811047   2.006   4.158  11.314 -0.5414  0.7833 -0.4201
  747TMC3    O111048   2.206   4.602  11.409 -0.2139 -0.0489  0.0852
  747TMC3    O211049   2.001   4.037  11.281  0.2243  0.3425  0.0014
  748MPD2     C11050   2.749   1.128   1.854  0.1219 -0.0498  0.1981
  748MPD2    C111051   2.830   1.031   1.909  0.0027 -0.0227 -0.2963
  748MPD2    C211052   2.969   1.046   1.894 -0.1092  0.0856 -0.6414
  748MPD2    C311053   3.024   1.149   1.827  1.0828 -0.6585 -0.8903
  748MPD2    C411054   2.939   1.239   1.765  0.0826 -0.0781 -0.6138
  748MPD2    C511055   2.801   1.239   1.790  0.1173  0.8748 -0.4230
  748MPD2     H11056   3.031   0.968   1.936 -0.1485  0.0112 -0.7207
  748MPD2    H111057   2.975   1.330   1.718  0.9960 -0.3798 -0.5044
  748MPD2    H211058   2.642   1.122   1.873 -0.1465  0.3896 -1.1440
  748MPD2    H311059   2.737   1.315   1.747 -2.0129 -0.3383  0.5849
  748MPD2     N11060   3.157   1.145   1.793  0.0321  0.3965  0.2175
  748MPD2    H511061   3.205   1.069   1.840 -1.6544  1.2276  3.3356
  748MPD2    N111062   2.764   0.935   1.992  0.1368 -0.2676 -0.0355
  748MPD2    H711063   2.663   0.937   1.986  0.2897 -0.4262 -2.5443
  749TMC3    C111064   3.354   1.205   1.686 -0.1197  0.3268  0.9718
  749TMC3    C211065   3.426   1.160   1.792  0.4132 -0.4887 -0.9942
  749TMC3    C311066   3.558   1.150   1.785  0.6821 -0.2977 -0.0005
  749TMC3    C411067   3.427   1.226   1.570 -0.2959  0.0090  0.2748
  749TMC3    C511068   3.567   1.219   1.576  0.0062 -1.0920 -0.1341
  749TMC3    C611069   3.635   1.174   1.679  0.1333  0.3191 -0.7291
  749TMC3     C11070   3.213   1.217   1.688 -0.2203 -0.7324  0.0646
  749TMC3     O11071   3.165   1.284   1.598 -0.6960  0.0795 -0.1387
  749TMC3     H11072   3.377   1.152   1.888 -0.9073  3.0451 -1.4036
  749TMC3    H111073   3.379   1.265   1.481  0.6023  0.2731 -0.0946
  749TMC3    H211074   3.741   1.191   1.687 -0.0209  0.2980  1.2417
  749TMC3    C711075   3.649   1.233   1.462 -0.6440 -0.3384 -0.8094
  749TMC3    C811076   3.632   1.101   1.899  0.1848 -0.2999  0.6727
  749TMC3    O111077   3.759   1.281   1.480 -0.2354 -0.2507  0.1528
  749TMC3    O211078   3.613   1.145   2.012  0.2722  0.8123 -0.0129
  750MPD2     C11079   0.128   2.050  11.320  0.6576  0.2165  0.5208
  750MPD2    C111080   0.012   1.992  11.352  0.2922 -0.2114  0.2423
  750MPD2    C211081   4.709   1.863  11.313  0.6736 -0.0380 -0.3984
  750MPD2    C311082   0.085   1.791  11.230 -0.3343 -0.9868  0.1958
  750MPD2    C411083   0.207   1.857  11.200  0.2663 -0.0646  0.4500
  750MPD2    C511084   0.223   1.979  11.253  1.0340 -0.3962 -0.3286
  750MPD2     H11085   4.610   1.821  11.323  0.5828  0.3153  0.2201
  750MPD2    H111086   0.281   1.810  11.135 -0.3192  0.0998 -0.3371
  750MPD2    H211087   0.151   2.154  11.340  1.7459  0.1099 -0.1643
  750MPD2    H311088   0.314   2.026  11.217  1.3080 -0.8223 -0.1881
  750MPD2     N11089   0.058   1.661  11.171  1.0676  0.5149  0.2121
  750MPD2    H511090   0.124   1.627  11.102  2.8240 -0.4480  2.3399
  750MPD2    N111091   4.640   2.074  11.410 -0.1768 -0.1646 -0.0748
  750MPD2    H711092   4.663   2.173  11.417 -1.3996  0.1860 -0.9061
  751TMC3    C111093   4.679   1.462  11.111 -0.1140 -1.3227 -0.2437
  751TMC3    C211094   4.559   1.402  11.076 -1.1872  0.1415 -0.2922
  751TMC3    C311095   4.570   1.266  11.054  0.4577  0.5728 -0.4807
  751TMC3    C411096   0.083   1.401  11.108  0.3976 -0.0896  0.3984
  751TMC3    C511097   0.088   1.277  11.049 -0.3398  0.3564  1.1212
  751TMC3    C611098   4.695   1.201  11.043  0.2430  0.7397 -0.1834
  751TMC3     C11099   4.662   1.586  11.190  0.8402  0.0689 -0.2236
  751TMC3     O11100   4.551   1.612  11.237 -0.2646 -0.3019  0.4268
  751TMC3     H11101   4.465   1.457  11.070 -1.7574 -0.8187 -0.2439
  751TMC3    H111102   0.174   1.454  11.136 -0.2789  0.7176  1.0514
  751TMC3    H211103   4.705   1.099  11.007 -0.8261  0.9936 -1.2178
  751TMC3    C711104   0.213   1.230  10.984  0.3370  0.0739  0.2247
  751TMC3    C811105   4.454   1.189  11.016 -0.8460 -0.3809 -0.4165
  751TMC3    O111106   0.291   1.319  10.952  0.6838  0.1704  0.6217
  751TMC3    O211107   4.481   1.076  10.986 -0.5276 -0.0824  0.1005
  752TMC3    C111108   2.791   1.436  17.192 -0.1493 -0.6728  0.4789
  752TMC3    C211109   2.700   1.336  17.166  0.4978  0.0506 -0.6579
  752TMC3    C311110   2.697   1.224  17.247  0.0055 -0.4484  0.1302
  752TMC3    C411111   2.870   1.435  17.308  0.3405  0.0802  0.1154
  752TMC3    C511112   2.864   1.317  17.383 -0.1676  0.7948 -0.1869
  752TMC3    C611113   2.781   1.212  17.356 -0.7102 -0.8227  0.0091
  752TMC3     C11114   2.778   1.564  17.125 -0.9492  0.1890 -0.6136
  752TMC3     O11115   2.820   1.665  17.176  0.6401  0.0759 -0.1123
  752TMC3     H11116   2.630   1.349  17.085  0.8347 -2.5426 -1.3497
  752TMC3    H111117   2.931   1.520  17.335  0.4576 -0.3332  1.1804
  752TMC3    H211118   2.795   1.114  17.399 -2.9307 -0.8675  0.6330
  752TMC3    C711119   2.968   1.292  17.484 -0.0368  0.7163  0.2729
  752TMC3    C811120   2.577   1.138  17.234  0.4346  0.2187  0.1023
  752TMC3    O111121   3.074   1.351  17.461 -0.4423 -0.1749 -0.1602
  752TMC3    O211122   2.514   1.150  17.133 -0.0829  0.0675 -0.1600
  753TMC3    C111123   0.298   2.462  13.004  0.2936 -0.6673  0.0605
  753TMC3    C211124   0.263   2.484  13.130 -0.0847 -0.3664  0.2684
  753TMC3    C311125   0.177   2.403  13.193 -0.1817 -0.0351 -0.2195
  753TMC3    C411126   0.246   2.363  12.926 -0.7587 -0.0769  0.1447
  753TMC3    C511127   0.161   2.276  12.988 -0.0079  0.0054  0.3216
  753TMC3    C611128   0.113   2.306  13.116 -0.6884 -0.3162 -0.0856
  753TMC3     C11129   0.375   2.560  12.940 -0.0382 -0.0222 -0.1499
  753TMC3     O11130   0.450   2.517  12.854 -0.1508 -0.5102  0.0038
  753TMC3     H11131   0.314   2.560  13.189 -0.8252 -0.7110  1.3507
  753TMC3    H111132   0.276   2.350  12.823 -3.3952  1.5182 -0.8142
  753TMC3    H211133   0.040   2.250  13.174 -2.2681 -0.9067 -2.6478
  753TMC3    C711134   0.099   2.177  12.904 -0.0155 -0.0647 -0.1390
  753TMC3    C811135   0.165   2.401  13.342  0.6398 -0.4175  0.4528
  753TMC3    O111136   0.121   2.185  12.786  0.1776 -0.2267 -0.2556
  753TMC3    O211137   0.106   2.307  13.392 -0.1790 -0.4794  0.2819
  754MPD2     C11138   3.470   1.182  12.907 -0.1673 -0.2038 -0.3101
  754MPD2    C111139   3.405   1.072  12.955  0.5376  0.8269  0.5625
  754MPD2    C211140   3.268   1.071  12.965  0.2032  0.4883  0.5886
  754MPD2    C311141   3.196   1.191  12.939 -0.0129  0.2315 -0.1736
  754MPD2    C411142   3.264   1.303  12.896 -0.4760  0.9424  0.1837
  754MPD2    C511143   3.398   1.299  12.884 -0.1843 -0.0934  0.1738
  754MPD2     H11144   3.207   0.999  13.018 -2.3194  0.1577 -2.7738
  754MPD2    H111145   3.207   1.385  12.855 -1.2684  2.0437  3.4969
  754MPD2    H211146   3.573   1.175  12.874  0.3759 -0.1537  1.4070
  754MPD2    H311147   3.460   1.386  12.865 -2.2452  1.5277  0.8278
  754MPD2     N11148   3.053   1.199  12.944 -0.2391 -0.1050 -0.2110
  754MPD2    H511149   3.008   1.285  12.916  0.6852  0.3869 -0.2022
  754MPD2    N111150   3.480   0.955  12.989 -0.4540 -0.1623 -0.2167
  754MPD2    H711151   3.578   0.970  13.009 -0.6628  3.8630 -2.1060
  755MPD2     C11152   2.569   1.810  13.147  0.1599 -0.5465  0.5738
  755MPD2    C111153   2.559   1.721  13.257  0.3313  0.6289  0.8003
  755MPD2    C211154   2.581   1.582  13.226  0.3255  0.0090 -0.8290
  755MPD2    C311155   2.604   1.542  13.095  0.8122  0.0180 -0.1861
  755MPD2    C411156   2.615   1.631  12.999 -0.0485  0.8426 -0.1312
  755MPD2    C511157   2.598   1.763  13.018 -0.4435  0.2116  0.3690
  755MPD2     H11158   2.593   1.514  13.310 -0.3991 -0.0586 -0.7764
  755MPD2    H111159   2.629   1.602  12.895  0.2017  1.1223 -0.1770
  755MPD2    H211160   2.554   1.917  13.153 -4.2063 -1.1249 -0.1364
  755MPD2    H311161   2.614   1.827  12.932 -2.1681 -0.1162 -0.1963
  755MPD2     N11162   2.624   1.412  13.062 -0.1602  0.6904 -0.2074
  755MPD2    H511163   2.651   1.394  12.966  0.4006 -0.1726  0.1078
  755MPD2    N111164   2.523   1.764  13.388 -0.0660 -0.5112  0.7097
  755MPD2    H711165   2.520   1.693  13.461 -0.7503  0.9633  2.1071
  756MPD2     C11166   4.357   2.453   9.235 -0.0999 -0.8469  0.9213
  756MPD2    C111167   4.288   2.350   9.295  0.5558 -0.4173 -0.1413
  756MPD2    C211168   4.217   2.258   9.228 -0.5418 -0.5490  0.3017
  756MPD2    C311169   4.187   2.280   9.097 -0.7196  0.3938  0.1353
  756MPD2    C411170   4.244   2.387   9.035 -0.7164 -0.0616  0.0976
  756MPD2    C511171   4.330   2.471   9.101  0.5084  0.1881 -0.3366
  756MPD2     H11172   4.169   2.181   9.287  1.6583 -1.1608  1.3111
  756MPD2    H111173   4.214   2.406   8.933  0.5988  0.0583 -0.2671
  756MPD2    H211174   4.406   2.534   9.287 -1.4585  0.8944 -0.5199
  756MPD2    H311175   4.375   2.556   9.051  2.9732 -1.0675 -0.2398
  756MPD2     N11176   4.105   2.188   9.021 -0.5741  0.7364 -0.0284
  756MPD2    H511177   4.083   2.206   8.924  0.7767 -0.1012 -0.4863
  756MPD2    N111178   4.311   2.321   9.433 -0.1334 -0.4735  0.0771
  756MPD2    H711179   4.263   2.238   9.464 -1.6423  0.6639  0.7809
  757MPD2     C11180   3.829   1.222   8.868 -0.1197  0.3718 -0.2113
  757MPD2    C111181   3.860   1.266   8.993 -0.1042 -0.1934 -0.1464
  757MPD2    C211182   3.881   1.400   9.016  0.9455 -0.9710  0.1915
  757MPD2    C311183   3.869   1.487   8.910  0.4446 -0.5449  0.6331
  757MPD2    C411184   3.858   1.441   8.783 -0.4002  0.2008 -0.4403
  757MPD2    C511185   3.837   1.306   8.761  0.0871  0.1676 -0.1279
  757MPD2     H11186   3.900   1.441   9.115  0.9270  1.4107 -0.7764
  757MPD2    H111187   3.866   1.509   8.698 -2.5983 -0.4229 -1.1335
  757MPD2    H211188   3.815   1.117   8.844 -0.6859  0.5131 -0.5051
  757MPD2    H311189   3.821   1.265   8.662  1.2760  1.2662 -0.7786
  757MPD2     N11190   3.864   1.627   8.931 -0.0907 -0.9949  0.1868
  757MPD2    H511191   3.897   1.662   9.020  0.0933 -2.2235  0.5990
  757MPD2    N111192   3.838   1.173   9.105 -0.0526 -0.1991 -1.0674
  757MPD2    H711193   3.805   1.084   9.070 -0.1398  0.6864 -3.2289
  758MPD2     C11194   3.506   0.781  16.392 -0.1548 -0.4944 -0.2226
  758MPD2    C111195   3.608   0.763  16.483  0.1219 -0.1745  0.3972
  758MPD2    C211196   3.620   0.841  16.593 -0.3332  0.6569 -0.5152
  758MPD2    C311197   3.527   0.946  16.616  0.4613  0.0287 -0.0238
  758MPD2    C411198   3.421   0.952  16.529  0.2505 -0.0128 -0.2126
  758MPD2    C511199   3.408   0.875  16.415  0.1750 -1.0116 -0.5208
  758MPD2     H11200   3.699   0.825  16.666 -1.1208 -1.2661 -0.0880
  758MPD2    H111201   3.350   1.032  16.547  1.0538  0.2693  1.6664
  758MPD2    H211202   3.475   0.727  16.303  0.8039  0.2401 -0.9928
  758MPD2    H311203   3.327   0.889  16.344 -0.5480 -0.9368  0.3122
  758MPD2     N11204   3.529   1.033  16.725 -0.2427 -0.7551  0.0969
  758MPD2    H511205   3.464   1.111  16.733  0.8132  0.1144  0.1608
  758MPD2    N111206   3.699   0.660  16.454 -0.0625  0.1298 -0.2076
  758MPD2    H711207   3.679   0.608  16.369  0.9851 -1.9186  0.7906
  759MPD2     C11208   2.768   4.427  10.570 -1.5935 -1.1134  0.4272
  759MPD2    C111209   2.695   4.350  10.483 -0.2137  0.1388 -0.0466
  759MPD2    C211210   2.712   4.370  10.345 -0.1462 -0.2776  0.1533
  759MPD2    C311211   2.798   4.469  10.296 -0.5981 -0.2631 -0.1555
  759MPD2    C411212   2.861   4.553  10.390 -0.2968  0.6121 -0.3423
  759MPD2    C511213   2.854   4.530  10.523  0.4710 -0.0915  0.1358
  759MPD2     H11214   2.665   4.308  10.269 -0.5060  1.5726 -1.1280
  759MPD2    H111215   2.915   4.637  10.350 -0.0214  0.8297  0.4895
  759MPD2    H211216   2.754   4.419  10.677 -1.3238 -0.5463  0.5046
  759MPD2    H311217   2.910   4.581  10.601  0.8495  1.0524 -0.8884
  759MPD2     N11218   2.827   4.475  10.155 -0.0050  0.2483 -0.2310
  759MPD2    H511219   2.768   4.414  10.098 -0.3138 -0.5007  0.8926
  759MPD2    N111220   2.611   4.241  10.525  0.1217  0.3591  0.0069
  759MPD2    H711221   2.561   4.197  10.449 -0.1819  0.1573  0.3252
  760MPD2     C11222   2.424   1.227  11.416 -0.1201  0.5229  0.4351
  760MPD2    C111223   2.521   1.307  11.460 -0.0120 -0.1317 -0.1526
  760MPD2    C211224   2.595   1.274  11.571  0.0625  0.1920 -0.0936
  760MPD2    C311225   2.569   1.165  11.643 -0.6168  0.8897  0.6035
  760MPD2    C411226   2.464   1.091  11.602 -0.7869  0.7920 -0.2459
  760MPD2    C511227   2.396   1.109  11.488 -0.3676 -0.0408  0.2646
  760MPD2     H11228   2.686   1.329  11.590  1.7870 -2.2008 -1.5781
  760MPD2    H111229   2.438   1.003  11.661  1.0939  1.6075  1.7729
  760MPD2    H211230   2.367   1.229  11.323 -0.1428 -1.0006  0.4047
  760MPD2    H311231   2.319   1.038  11.461 -1.9446  1.0643  1.8796
  760MPD2     N11232   2.650   1.122  11.753 -0.7784  0.3126 -0.0365
  760MPD2    H511233   2.630   1.028  11.783  0.8587 -0.1670 -0.4380
  760MPD2    N111234   2.551   1.431  11.396  0.2215  0.6820 -0.5353
  760MPD2    H711235   2.617   1.489  11.447  0.9143 -0.3368 -0.2737
  761MPD2     C11236   3.981   1.110  10.886 -0.9064  1.2950 -0.3967
  761MPD2    C111237   4.097   1.048  10.855 -0.0470  0.3554 -0.0345
  761MPD2    C211238   4.210   1.102  10.899  0.1532  0.1665 -0.1192
  761MPD2    C311239   4.209   1.217  10.972  0.1157 -0.5515  0.1825
  761MPD2    C411240   4.092   1.280  11.008  0.7099  0.0625  0.4372
  761MPD2    C511241   3.973   1.227  10.959  0.6604  0.0460  0.4690
  761MPD2     H11242   4.300   1.046  10.878 -0.2717 -0.8578  0.7569
  761MPD2    H111243   4.089   1.369  11.070 -0.0020 -1.8841  3.1929
  761MPD2    H211244   3.882   1.071  10.865 -1.2332  1.9198 -0.0270
  761MPD2    H311245   3.881   1.280  10.978 -0.7863 -2.0757 -0.7350
  761MPD2     N11246   4.334   1.255  11.031  0.2058  0.2151  0.9263
  761MPD2    H511247   4.314   1.342  11.079  0.8676  1.1453 -0.4883
  761MPD2    N111248   4.109   0.932  10.777 -0.1759 -0.6411 -0.4175
  761MPD2    H711249   4.203   0.909  10.746  0.7132  2.0785  0.2845
  762MPD2     C11250   4.605   0.995  10.672  0.2901 -0.2307  0.3871
  762MPD2    C111251   4.593   0.879  10.602  0.3447  0.7453  0.7330
  762MPD2    C211252   4.708   0.820  10.554 -0.1261 -0.0348 -0.8060
  762MPD2    C311253   0.112   0.893  10.555 -0.2935 -0.2298 -0.0890
  762MPD2    C411254   0.121   1.010  10.620  0.0644 -0.2033 -0.0632
  762MPD2    C511255   0.005   1.062  10.675  0.3916 -0.2493  0.3566
  762MPD2     H11256   4.702   0.724  10.505 -0.8278 -0.6447  0.5047
  762MPD2    H111257   0.215   1.059  10.639 -0.9430  1.7023  0.0817
  762MPD2    H211258   4.529   1.034  10.739  0.8817  1.5091  0.0591
  762MPD2    H311259   0.011   1.155  10.731 -0.4596 -0.2979  0.5408
  762MPD2     N11260   0.221   0.832  10.495 -0.2237  0.6933  0.0956
  762MPD2    H511261   0.207   0.735  10.468  1.1453 -0.2090  2.6875
  762MPD2    N111262   4.465   0.820  10.602  0.3552 -0.9682  0.4019
  762MPD2    H711263   4.394   0.869  10.656  0.9415  0.1197  0.1806
  763MPD2     C11264   4.709   0.878  16.190 -0.3588  0.5845 -0.2447
  763MPD2    C111265   0.104   0.923  16.123  0.3018 -0.1791 -0.2388
  763MPD2    C211266   0.182   1.029  16.183  0.9949  0.4344 -0.3218
  763MPD2    C311267   0.149   1.081  16.307 -0.5003  0.1511 -0.5918
  763MPD2    C411268   0.023   1.040  16.363  0.1344  0.2062  0.0981
  763MPD2    C511269   4.672   0.938  16.310  0.1679 -0.3093 -0.0917
  763MPD2     H11270   0.265   1.075  16.130 -1.0106  2.2347 -1.8903
  763MPD2    H111271   4.693   1.077  16.453  0.2504 -3.0245  1.5106
  763MPD2    H211272   4.654   0.795  16.147 -2.9167  1.8628  0.5536
  763MPD2    H311273   4.579   0.912  16.358  0.6938 -0.6986  0.7227
  763MPD2     N11274   0.242   1.172  16.361  0.0900 -0.5260 -0.2338
  763MPD2    H511275   0.316   1.209  16.303 -1.4794  0.6855 -1.4543
  763MPD2    N111276   0.160   0.863  16.013  0.1929 -0.4239  0.5287
  763MPD2    H711277   0.240   0.908  15.972 -0.5015  0.4742  0.1610
  764MPD2     C11278   3.981   1.725   0.051 -0.1137 -0.0665 -0.2816
  764MPD2    C111279   3.872   1.772   0.110 -0.1882  0.0461  0.4922
  764MPD2    C211280   3.841   1.721   0.230 -0.4456 -0.2964 -0.5871
  764MPD2    C311281   3.929   1.639   0.292  0.2579 -1.2814 -0.7972
  764MPD2    C411282   4.048   1.609   0.243  0.0416  0.4407 -0.1560
  764MPD2    C511283   4.070   1.643   0.115 -0.6280  0.0598  0.3697
  764MPD2     H11284   3.753   1.753   0.284  0.0245  1.0141 -0.5819
  764MPD2    H111285   4.125   1.546   0.286 -0.6932  1.3229  2.4420
  764MPD2    H211286   4.015   1.754  17.628  1.1698  1.5936  0.6379
  764MPD2    H311287   4.163   1.624   0.064 -1.3967  0.9708 -1.3587
  764MPD2     N11288   3.879   1.595   0.419  0.4379 -0.3757  0.1449
  764MPD2    H511289   3.791   1.627   0.456  1.1738  1.5286  0.2628
  764MPD2    N111290   3.782   1.869   0.066 -0.3779 -0.0699  1.0523
  764MPD2    H711291   3.714   1.890   0.138  0.6207  0.8578  1.7382
  765MPD2     C11292   2.740   4.511  15.901 -1.0093 -0.2526  0.2941
  765MPD2    C111293   2.838   4.598  15.867  0.1380  0.0804  0.2845
  765MPD2    C211294   2.966   4.552  15.840  0.2778 -0.6769 -0.2140
  765MPD2    C311295   2.989   4.417  15.839  0.2877  0.6514  0.3658
  765MPD2    C411296   2.888   4.332  15.846 -0.5563  0.3024 -0.0890
  765MPD2    C511297   2.766   4.373  15.905  0.2158  0.4762  0.5302
  765MPD2     H11298   3.049   4.618  15.816 -0.1830  1.1817  3.2943
  765MPD2    H111299   2.903   4.225  15.836  0.1454  0.5798 -1.9248
  765MPD2    H211300   2.641   4.545  15.928 -1.1835 -0.5520  0.0338
  765MPD2    H311301   2.695   4.298  15.936  0.5024  0.0232  0.0952
  765MPD2     N11302   3.115   4.377  15.788  0.1303  0.0402 -0.5086
  765MPD2    H511303   3.176   4.458  15.781  3.1106 -2.0443  1.3366
  765MPD2    N111304   2.799   0.013  15.867  0.1218 -0.4864  0.0504
  765MPD2    H711305   2.701   0.036  15.874  0.2093 -0.3104  0.6519
  766MPD2     C11306   2.466   0.043  15.326 -0.2412 -0.7511 -0.3203
  766MPD2    C111307   2.552   0.150  15.343 -0.2796  0.1686  0.0313
  766MPD2    C211308   2.621   0.212  15.240 -0.4134 -0.0288 -0.5910
  766MPD2    C311309   2.592   0.155  15.114  0.0432  0.4998  0.2476
  766MPD2    C411310   2.498   0.054  15.099  0.5022  0.2256 -0.4953
  766MPD2    C511311   2.424   0.003  15.204 -0.4277 -0.2593 -0.3378
  766MPD2     H11312   2.687   0.298  15.249  0.4067 -0.6470 -0.7049
  766MPD2    H111313   2.493   0.001  15.005 -2.3766 -0.0776 -0.1871
  766MPD2    H211314   2.424   4.703  15.407  1.4219  2.2243  2.7158
  766MPD2    H311315   2.357   4.635  15.198  0.4028 -1.1728  3.4263
  766MPD2     N11316   2.675   0.197  15.004  0.3755 -0.3048  0.3764
  766MPD2    H511317   2.636   0.165  14.915  1.3417  1.4596 -0.6741
  766MPD2    N111318   2.566   0.185  15.485  0.1957  0.6359 -0.1414
  766MPD2    H711319   2.525   0.119  15.549 -0.7160  0.4139 -0.9542
  767MPD2     C11320   2.380   0.435  15.134  0.3616 -0.1698  0.6643
  767MPD2    C111321   2.481   0.496  15.067  0.1331 -0.3598  0.8342
  767MPD2    C211322   2.474   0.504  14.927 -0.3255 -0.4202 -0.2835
  767MPD2    C311323   2.367   0.453  14.856 -0.1231  0.6206  0.1426
  767MPD2    C411324   2.263   0.395  14.924  0.5765  0.5881 -0.8957
  767MPD2    C511325   2.276   0.380  15.062  0.2581 -0.6409  0.1169
  767MPD2     H11326   2.551   0.554  14.869 -0.4450 -0.4248 -0.4479
  767MPD2    H111327   2.184   0.346  14.870  1.0310  0.7533 -1.7113
  767MPD2    H211328   2.371   0.427  15.242 -0.1644  0.1298  0.6407
  767MPD2    H311329   2.214   0.322  15.128 -1.5630  2.1978  0.8993
  767MPD2     N11330   2.372   0.454  14.713 -0.3835  0.1402  0.3552
  767MPD2    H511331   2.461   0.487  14.675  0.0358  0.2399  1.4236
  767MPD2    N111332   2.598   0.543  15.140 -0.4444 -0.4104 -0.3379
  767MPD2    H711333   2.603   0.512  15.236  0.4760  0.2356 -0.1860
  768MPD2     C11334   4.319   4.078  10.474  0.9761 -0.3425  0.1664
  768MPD2    C111335   4.276   4.076  10.604 -0.1186 -0.3252  0.4941
  768MPD2    C211336   4.368   4.054  10.703  0.0908 -0.0552  0.3701
  768MPD2    C311337   4.502   4.043  10.676  0.7878 -0.5486 -0.1053
  768MPD2    C411338   4.542   4.057  10.547 -0.0712  0.8327  0.3908
  768MPD2    C511339   4.453   4.069  10.447 -0.0993  0.0292  0.2554
  768MPD2     H11340   4.336   4.042  10.806 -0.4869  1.7463  0.4065
  768MPD2    H111341   4.647   4.050  10.518 -0.1698 -1.8599  0.6599
  768MPD2    H211342   4.263   4.103  10.384 -0.8150 -1.5270  0.9504
  768MPD2    H311343   4.485   4.083  10.344 -0.5506  0.1194  0.1245
  768MPD2     N11344   4.600   4.040  10.782 -0.6442 -0.3800  0.2827
  768MPD2    H511345   4.697   4.046  10.753 -0.7490  1.3871  0.2481
  768MPD2    N111346   4.141   4.087  10.646 -0.8805 -0.3134 -0.0178
  768MPD2    H711347   4.118   4.072  10.744  0.1089  0.1179  0.2826
  769MPD2     C11348   4.496   1.622  14.360 -0.5493 -0.2154 -0.3618
  769MPD2    C111349   4.430   1.540  14.455 -0.1547  0.3793  0.4545
  769MPD2    C211350   4.474   1.553  14.582 -0.0807  0.1865 -0.1288
  769MPD2    C311351   4.587   1.628  14.617  0.1072  0.0064  0.2323
  769MPD2    C411352   4.647   1.709  14.518 -0.4923 -0.0316 -0.4604
  769MPD2    C511353   4.601   1.696  14.391 -0.6293 -0.0052  0.3213
  769MPD2     H11354   4.433   1.487  14.658  1.0436 -0.8697 -0.4309
  769MPD2    H111355   0.013   1.774  14.541 -1.4100  1.7193 -2.0423
  769MPD2    H211356   4.453   1.622  14.260 -3.2425  1.8973  0.8165
  769MPD2    H311357   4.649   1.753  14.312 -0.1374  0.3341  0.8640
  769MPD2     N11358   4.621   1.634  14.756 -0.2012 -0.2350 -0.1070
  769MPD2    H511359   4.562   1.580  14.819  0.3983  1.1179  1.6277
  769MPD2    N111360   4.323   1.454  14.416 -0.5189  0.1076  0.1124
  769MPD2    H711361   4.288   1.459  14.321 -2.3519  1.7089  0.8779
  770MPD2     C11362   3.828   0.675  14.871  0.5026 -0.1537  0.7416
  770MPD2    C111363   3.890   0.780  14.942 -0.2826  0.3580  0.0393
  770MPD2    C211364   3.941   0.887  14.864 -0.3949 -0.5579 -0.3389
  770MPD2    C311365   3.925   0.893  14.725  0.8629 -0.0344 -0.0159
  770MPD2    C411366   3.867   0.782  14.666 -0.4376  0.0933 -0.3729
  770MPD2    C511367   3.820   0.684  14.738 -0.0377  0.3013  0.0252
  770MPD2     H11368   3.984   0.976  14.908 -1.4974 -1.0884  1.8307
  770MPD2    H111369   3.866   0.770  14.559  0.3717 -1.7107 -0.1793
  770MPD2    H211370   3.791   0.581  14.911 -1.5687  0.1065 -0.5591
  770MPD2    H311371   3.771   0.602  14.686 -0.8210  0.7585  0.0544
  770MPD2     N11372   3.968   1.000  14.645 -0.3362 -0.1020  0.4818
  770MPD2    H511373   4.037   1.066  14.679 -0.0045  0.4719 -1.3001
  770MPD2    N111374   3.887   0.772  15.085 -0.2827  0.6100 -0.0271
  770MPD2    H711375   3.830   0.699  15.127 -1.4355  0.6138 -1.5663
  771MPD2     C11376   0.421   4.335  13.702  0.9368  0.4686 -0.2637
  771MPD2    C111377   0.368   4.451  13.663 -0.5991 -0.3683 -0.3384
  771MPD2    C211378   0.252   4.444  13.582 -0.3967 -0.4377  0.8113
  771MPD2    C311379   0.191   4.326  13.542  0.6776 -0.4589  0.0889
  771MPD2    C411380   0.246   4.208  13.596  0.5414  0.8577  0.1865
  771MPD2    C511381   0.365   4.216  13.660 -0.2987 -0.4826 -0.4236
  771MPD2     H11382   0.205   4.532  13.540  1.0336 -0.5710 -1.0793
  771MPD2    H111383   0.208   4.107  13.580  0.6959  0.9841 -0.9107
  771MPD2    H211384   0.497   4.336  13.780 -1.0222  3.3638  1.5961
  771MPD2    H311385   0.401   4.123  13.702 -1.0723 -0.6173 -0.0610
  771MPD2     N11386   0.071   4.334  13.469  0.3276 -0.1548 -0.2261
  771MPD2    H511387   0.023   4.419  13.444  1.1729  1.0800  2.3219
  771MPD2    N111388   0.416   4.575  13.713  0.1005  0.4064 -0.0392
  771MPD2    H711389   0.358   4.654  13.685  1.2593  0.6967 -1.6194
  772MPD2     C11390   0.176   0.495  13.972  0.6502  0.0848  0.3799
  772MPD2    C111391   0.152   0.374  13.913  0.8964  0.5367 -0.0041
  772MPD2    C211392   0.025   0.318  13.932 -0.4231 -0.0896  0.2993
  772MPD2    C311393   4.650   0.375  14.018 -0.0381  0.1132 -0.3181
  772MPD2    C411394   4.687   0.493  14.080  0.2915  0.2148  0.3481
  772MPD2    C511395   0.084   0.559  14.054 -0.2798  0.2819  0.5865
  772MPD2     H11396   4.712   0.226  13.884 -0.8976  0.1186  0.2008
  772MPD2    H111397   4.613   0.545  14.139  0.6484 -0.2075  1.1697
  772MPD2    H211398   0.266   0.552  13.951  1.7859 -1.8187  0.1135
  772MPD2    H311399   0.101   0.659  14.092 -0.2648  0.4768  0.0716
  772MPD2     N11400   4.528   0.315  14.047  0.1469 -0.0126  0.5732
  772MPD2    H511401   4.475   0.368  14.115 -1.0629  0.8765 -1.0747
  772MPD2    N111402   0.252   0.299  13.847 -0.8149  0.3315  0.3947
  772MPD2    H711403   0.232   0.203  13.823  2.1501 -0.4279  0.8680
  773MPD2     C11404   4.292   1.306  17.595  0.2015  0.0556 -0.0944
  773MPD2    C111405   4.242   1.243   0.029 -0.3593 -0.1377 -0.1009
  773MPD2    C211406   4.334   1.179   0.113  0.3390 -0.0868 -0.1886
  773MPD2    C311407   4.470   1.185   0.093  0.3539  0.3312 -0.5494
  773MPD2    C411408   4.512   1.253  17.658  0.6308 -0.2568  0.4546
  773MPD2    C511409   4.426   1.314  17.567  0.3357 -0.6918  0.3785
  773MPD2     H11410   4.298   1.117   0.194 -0.0369 -0.2629 -0.4896
  773MPD2    H111411   4.619   1.247  17.641  0.6018 -1.2231  0.6045
  773MPD2    H211412   4.231   1.357  17.521  2.0992  2.4974  0.0273
  773MPD2    H311413   4.472   1.367  17.485 -0.0987 -1.2063 -0.1914
  773MPD2     N11414   4.557   1.113   0.186 -0.7206 -0.2401 -0.4155
  773MPD2    H511415   4.513   1.063   0.264  0.9930  0.2531  0.8573
  773MPD2    N111416   4.107   1.247   0.049 -0.1362 -0.2928  0.6189
  773MPD2    H711417   4.058   1.299  17.653  1.1353 -0.9266 -0.6888
  774MPD2     C11418   2.946   0.183  13.449 -0.7174  0.2962 -0.4206
  774MPD2    C111419   2.995   0.282  13.538  0.2324  0.0899  1.2018
  774MPD2    C211420   3.080   0.380  13.492  0.1116 -0.4924 -0.3200
  774MPD2    C311421   3.129   0.379  13.361  0.1063 -0.3117 -0.5627
  774MPD2    C411422   3.080   0.284  13.277  0.2802 -0.1376  0.5251
  774MPD2    C511423   2.986   0.188  13.320 -0.7171  0.5406  0.6417
  774MPD2     H11424   3.117   0.459  13.556 -0.0693  0.9935 -2.0298
  774MPD2    H111425   3.126   0.277  13.179  0.5248  0.2687  0.6083
  774MPD2    H211426   2.883   0.103  13.485 -0.7844 -0.0623 -1.3441
  774MPD2    H311427   2.953   0.109  13.253 -0.2456 -0.7416  1.9170
  774MPD2     N11428   3.241   0.464  13.336 -0.4686 -0.3934 -0.5725
  774MPD2    H511429   3.272   0.529  13.408  1.3178 -1.8700  0.0035
  774MPD2    N111430   2.957   0.272  13.668  0.1127  0.2173 -0.1531
  774MPD2    H711431   2.932   0.178  13.698 -1.0840  0.7417  0.4628
  775MPD2     C11432   0.136   1.899  15.994 -0.1382 -0.1625  0.7278
  775MPD2    C111433   0.104   2.028  16.028 -0.3162  0.1636 -0.9344
  775MPD2    C211434   0.151   2.140  15.958  0.4885  0.5659 -0.2478
  775MPD2    C311435   0.226   2.114  15.846  0.4865 -0.1018 -0.4537
  775MPD2    C411436   0.260   1.982  15.816  0.6923  0.6366  0.4667
  775MPD2    C511437   0.220   1.873  15.889  0.6278 -0.0151  0.3567
  775MPD2     H11438   0.133   2.243  15.987  3.1242  0.9422  0.0303
  775MPD2    H111439   0.329   1.959  15.736 -0.0281 -0.1239  0.0678
  775MPD2    H211440   0.103   1.814  16.053 -0.3365 -0.8125 -0.3381
  775MPD2    H311441   0.247   1.769  15.876  2.4390  0.6505 -1.2150
  775MPD2     N11442   0.286   2.210  15.764 -0.1869  0.4526  0.1474
  775MPD2    H511443   0.359   2.182  15.699  0.7445 -0.4255  1.5683
  775MPD2    N111444   0.008   2.032  16.135 -0.6680 -0.3724  0.4131
  775MPD2    H711445   4.682   1.941  16.149 -1.5753 -0.3405 -2.2118
  776MPD2     C11446   4.075   2.657  11.091 -0.1996  0.1954  0.5269
  776MPD2    C111447   4.185   2.640  11.172 -0.1700 -0.0809 -0.1484
  776MPD2    C211448   4.270   2.747  11.186 -0.0113 -0.1336 -0.3067
  776MPD2    C311449   4.251   2.858  11.100  0.9329 -0.4516 -0.9999
  776MPD2    C411450   4.143   2.871  11.016 -0.0974 -0.5627  0.3096
  776MPD2    C511451   4.056   2.767  11.013 -0.2303  0.4273 -0.5170
  776MPD2     H11452   4.360   2.740  11.245  1.0631 -1.3805 -2.1080
  776MPD2    H111453   4.121   2.965  10.967  1.3834  0.3892  1.4641
  776MPD2    H211454   4.005   2.576  11.070 -1.9145  2.0801 -1.0538
  776MPD2    H311455   3.962   2.774  10.961 -1.0260  1.8239  1.0982
  776MPD2     N11456   4.330   2.972  11.104 -0.5004  1.2212  0.1081
  776MPD2    H511457   4.328   3.044  11.033  0.2860  2.0578  0.9179
  776MPD2    N111458   4.203   2.512  11.239  1.0147 -0.6665 -0.7615
  776MPD2    H711459   4.133   2.441  11.221  0.8226 -0.6909  0.0549
  777MPD2     C11460   4.421   0.040   1.314 -0.2722 -0.6434  0.1671
  777MPD2    C111461   4.291   0.069   1.361  0.0638  0.4288  0.3230
  777MPD2    C211462   4.175   0.008   1.308 -0.1880  0.1729  0.4814
  777MPD2    C311463   4.190   4.631   1.205  0.4280 -0.0382  0.1371
  777MPD2    C411464   4.320   4.603   1.163  0.0351 -0.0632 -0.1360
  777MPD2    C511465   4.433   4.662   1.218 -0.5288  0.8385 -0.2710
  777MPD2     H11466   4.078   0.025   1.354  0.3639 -0.7108  1.9795
  777MPD2    H111467   4.342   4.525   1.091  2.1394 -0.3226  0.7777
  777MPD2    H211468   4.501   0.069   1.381  0.7274 -0.7234 -0.9926
  777MPD2    H311469   4.533   4.657   1.176 -0.0256 -2.1302  1.2171
  777MPD2     N11470   4.072   4.586   1.145 -0.7308  0.2065 -0.1802
  777MPD2    H511471   3.988   4.624   1.189 -1.4462 -2.1330  0.4655
  777MPD2    N111472   4.280   0.152   1.476  0.0174 -0.0413 -0.0566
  777MPD2    H711473   4.364   0.181   1.525  1.5916 -0.7808 -2.3299
  778MPD2     C11474   0.264   4.617  14.983 -0.1605  0.6938 -0.5678
  778MPD2    C111475   0.318   4.550  14.877 -0.8899 -0.8143  0.3368
  778MPD2    C211476   0.358   4.619  14.766 -0.1011 -0.4336  0.0811
  778MPD2    C311477   0.361   0.035  14.771  0.0809  0.1143 -0.4775
  778MPD2    C411478   0.315   0.101  14.885  0.8739  0.3571 -0.0801
  778MPD2    C511479   0.269   0.035  14.986  0.9103  0.6813 -0.1829
  778MPD2     H11480   0.388   4.568  14.675 -0.6740 -0.0411 -0.3320
  778MPD2    H111481   0.330   0.207  14.904  1.1038 -0.0945  2.1989
  778MPD2    H211482   0.240   4.566  15.075  2.2663  1.1928  0.3285
  778MPD2    H311483   0.260   0.094  15.076  0.5292  1.4286 -0.7060
  778MPD2     N11484   0.409   0.098  14.656 -0.1021 -0.0580  0.0211
  778MPD2    H511485   0.438   0.044  14.575 -1.2953  2.1658 -1.8687
  778MPD2    N111486   0.346   4.413  14.876  0.1321 -0.2004 -0.1305
  778MPD2    H711487   0.387   4.377  14.791  2.4619 -0.2205  0.9909
  779MPD2     C11488   4.681   3.446  13.844 -0.4251 -0.4265 -0.8470
  779MPD2    C111489   0.093   3.449  13.888  0.0651 -0.1829 -0.0023
  779MPD2    C211490   0.153   3.564  13.918 -0.1305 -0.4326  0.2265
  779MPD2    C311491   0.093   3.690  13.899  0.4328 -0.0400  0.1516
  779MPD2    C411492   4.683   3.694  13.854 -0.1642  0.6288 -0.0963
  779MPD2    C511493   4.618   3.567  13.831 -0.0666  0.6176 -0.1669
  779MPD2     H11494   0.258   3.567  13.943 -0.3509 -0.2611  1.1325
  779MPD2    H111495   4.629   3.784  13.826 -0.1338 -0.2664 -3.0752
  779MPD2    H211496   4.629   3.353  13.826 -0.5609 -0.3937 -0.6269
  779MPD2    H311497   4.515   3.563  13.796  0.5157 -1.2948 -1.6729
  779MPD2     N11498   0.169   3.799  13.933  0.2607 -0.0279  0.4096
  779MPD2    H511499   0.260   3.786  13.978 -0.4841  0.1070  1.9733
  779MPD2    N111500   0.162   3.324  13.887 -0.3603  0.0899 -0.7396
  779MPD2    H711501   0.112   3.245  13.850 -1.0817  0.6878 -1.0424
  780MPD2     C11502   3.398   2.813   0.884  0.0596 -0.6270  0.0188
  780MPD2    C111503   3.498   2.738   0.825  0.2036  0.4802 -0.4296
  780MPD2    C211504   3.619   2.795   0.786 -0.0905 -0.0861  0.1248
  780MPD2    C311505   3.640   2.926   0.811  0.0324 -0.2791 -0.2863
  780MPD2    C411506   3.538   3.002   0.863  0.5492 -0.1643  0.4019
  780MPD2    C511507   3.418   2.949   0.896  0.2359 -0.7710 -0.7811
  780MPD2     H11508   3.697   2.740   0.734 -1.6038 -1.9832 -0.1178
  780MPD2    H111509   3.548   3.108   0.885 -0.8811 -0.1820  1.1715
  780MPD2    H211510   3.305   2.764   0.911 -1.2294  1.9339  0.2792
  780MPD2    H311511   3.342   3.011   0.943  1.2695 -1.0836  1.3059
  780MPD2     N11512   3.762   2.982   0.769  0.7210 -0.3503  0.3098
  780MPD2    H511513   3.824   2.911   0.731  0.9513  0.1792 -0.2849
  780MPD2    N111514   3.469   2.600   0.807  0.4489 -0.0429  0.2161
  780MPD2    H711515   3.379   2.563   0.835 -0.7168  1.0689 -2.0934
  781MPD2     C11516   1.899   0.145  12.070 -0.0022  0.3007  0.8363
  781MPD2    C111517   2.020   0.190  12.125 -0.3638 -0.6332  0.2617
  781MPD2    C211518   2.081   0.300  12.066  0.0878  0.6994  0.2184
  781MPD2    C311519   2.032   0.362  11.952  0.2134  0.0721  0.5134
  781MPD2    C411520   1.918   0.317  11.898 -0.0762 -0.1358  0.2475
  781MPD2    C511521   1.859   0.203  11.953  0.1802 -0.0502 -0.2261
  781MPD2     H11522   2.182   0.322  12.099  0.2491  1.2047 -0.6143
  781MPD2    H111523   1.886   0.366  11.807 -2.0860 -1.8501  0.0162
  781MPD2    H211524   1.842   0.061  12.107 -1.0874  0.7171  0.1233
  781MPD2    H311525   1.780   0.156  11.897 -0.0650  0.4689 -0.3204
  781MPD2     N11526   2.114   0.451  11.885  0.8328 -0.0253 -0.0409
  781MPD2    H511527   2.197   0.480  11.936  1.1593  0.5952 -0.9354
  781MPD2    N111528   2.058   0.121  12.246  0.3763  0.1649  0.1712
  781MPD2    H711529   1.983   0.065  12.286 -2.8513  4.1455 -0.1847
  782MPD2     C11530   0.351   1.486  10.349  0.1948 -0.0433 -0.0840
  782MPD2    C111531   0.488   1.493  10.354 -1.0417  0.2010 -0.5044
  782MPD2    C211532   0.557   1.608  10.398 -0.1245  0.2833  0.9067
  782MPD2    C311533   0.490   1.719  10.445 -0.8205  0.4262  0.5732
  782MPD2    C411534   0.348   1.705  10.458  0.4076 -0.7448  0.0238
  782MPD2    C511535   0.284   1.600  10.398  0.8566 -0.0467  0.5392
  782MPD2     H11536   0.665   1.608  10.401 -0.0574  0.2607 -1.0958
  782MPD2    H111537   0.282   1.775  10.509 -1.6234 -1.2232 -1.9547
  782MPD2    H211538   0.284   1.404  10.322 -0.8690  0.6497  0.4345
  782MPD2    H311539   0.176   1.590  10.405  0.8062  0.7607  0.8505
  782MPD2     N11540   0.563   1.826  10.501  0.7205  0.1509 -0.1701
  782MPD2    H511541   0.664   1.826  10.492  0.7607 -0.3502  0.2134
  782MPD2    N111542   0.552   1.375  10.314 -0.0785  0.6723 -0.9472
  782MPD2    H711543   0.492   1.295  10.298  1.2609 -0.4834 -0.1548
  783MPD2     C11544   0.366   0.902  10.963  0.4896  0.0341 -0.2371
  783MPD2    C111545   0.339   1.026  10.914 -0.4759  0.4698 -0.3370
  783MPD2    C211546   0.422   1.074  10.816 -0.6035 -0.2165  0.0517
  783MPD2    C311547   0.526   0.995  10.763 -0.0901 -0.4557 -0.1364
  783MPD2    C411548   0.551   0.875  10.816 -0.8194  0.1047 -0.6759
  783MPD2    C511549   0.467   0.824  10.914 -0.3795 -0.0368  0.6548
  783MPD2     H11550   0.401   1.175  10.781 -1.8959  0.3735  2.5376
  783MPD2    H111551   0.624   0.808  10.771  1.2258  1.8881 -0.0311
  783MPD2    H211552   0.293   0.867  11.035 -0.6309  1.7939 -0.5045
  783MPD2    H311553   0.487   0.727  10.957 -1.4953 -0.3561  0.4628
  783MPD2     N11554   0.598   1.047  10.649 -0.1002 -0.3558 -0.1342
  783MPD2    H511555   0.570   1.140  10.619 -1.4062 -0.0158  2.1999
  783MPD2    N111556   0.231   1.095  10.982 -0.0855 -0.5553  0.2386
  783MPD2    H711557   0.167   1.035  11.034 -0.3756  0.7772  1.4086
  784MPD2     C11558   1.860   1.057   1.355  0.2530 -0.1043  0.0014
  784MPD2    C111559   1.765   1.141   1.412 -0.5177  0.0760  0.3756
  784MPD2    C211560   1.662   1.186   1.328  0.3140 -0.0472 -0.1113
  784MPD2    C311561   1.656   1.162   1.195 -0.5419  0.6266 -0.5078
  784MPD2    C411562   1.747   1.070   1.145  0.7560 -0.3530  0.3825
  784MPD2    C511563   1.841   1.016   1.224 -0.5958 -0.8073 -0.2685
  784MPD2     H11564   1.580   1.238   1.375  1.8612  2.5982 -0.3254
  784MPD2    H111565   1.750   1.047   1.039  1.1255  0.7641  0.1489
  784MPD2    H211566   1.935   0.999   1.409  2.2132  2.3706 -0.0830
  784MPD2    H311567   1.908   0.947   1.173 -0.5842 -0.1506 -1.1430
  784MPD2     N11568   1.569   1.236   1.113 -1.0286  0.5275  0.0384
  784MPD2    H511569   1.499   1.293   1.161 -1.7037  0.6987 -1.1475
  784MPD2    N111570   1.779   1.177   1.541 -0.8195 -0.5179 -0.1723
  784MPD2    H711571   1.701   1.230   1.580  0.1092 -0.2155  1.2782
  785MPD2     C11572   3.003   4.694  11.043  0.6083 -0.1458  0.4231
  785MPD2    C111573   2.983   0.033  10.921 -0.9530  0.1219 -0.9727
  785MPD2    C211574   2.865   0.010  10.849  0.1228  0.0717  0.3284
  785MPD2    C311575   2.773   4.634  10.898  0.1665 -1.0878 -0.2531
  785MPD2    C411576   2.801   4.561  11.017  0.1348  0.3208 -0.3381
  785MPD2    C511577   2.921   4.587  11.087  0.0439 -0.1840 -1.0924
  785MPD2     H11578   2.836   0.054  10.755 -2.6840  1.4369  1.8315
  785MPD2    H111579   2.752   4.473  11.058  0.9578 -0.1937 -0.4496
  785MPD2    H211580   3.073   0.012  11.117  1.3459  0.7050 -0.6939
  785MPD2    H311581   2.943   4.534  11.179  1.5000  1.4928 -0.4769
  785MPD2     N11582   2.650   4.614  10.830  0.2990 -0.3409  0.7639
  785MPD2    H511583   2.642   4.653  10.737 -0.7108 -0.2258  0.8995
  785MPD2    N111584   3.067   0.132  10.865 -0.8419 -0.3525 -0.2673
  785MPD2    H711585   3.052   0.169  10.771 -0.1513  0.4561 -0.0546
  786MPD2     C11586   0.538   2.850  14.618 -0.1697 -0.5078 -0.4985
  786MPD2    C111587   0.636   2.748  14.623 -0.5668  0.1525  0.1435
  786MPD2    C211588   0.706   2.728  14.743  0.1471 -0.0269 -0.4862
  786MPD2    C311589   0.689   2.812  14.852 -0.0763 -0.1307  0.1636
  786MPD2    C411590   0.595   2.911  14.844 -0.4167  0.0999 -0.1508
  786MPD2    C511591   0.525   2.931  14.724  0.0166  0.4416  0.2183
  786MPD2     H11592   0.777   2.646  14.752  0.8621  0.5677 -0.7183
  786MPD2    H111593   0.571   2.973  14.930 -0.1599  2.3759 -1.7015
  786MPD2    H211594   0.488   2.886  14.529 -1.5515  2.2673  1.4094
  786MPD2    H311595   0.446   3.005  14.723  0.9829  1.4620  0.1990
  786MPD2     N11596   0.750   2.796  14.977  0.2196 -0.1279 -0.2250
  786MPD2    H511597   0.726   2.866  15.047  1.3538 -0.2773  0.3227
  786MPD2    N111598   0.668   2.657  14.514  0.1771 -0.6555 -0.0291
  786MPD2    H711599   0.751   2.599  14.519 -1.4485 -2.9223  0.7059
  787MPD2     C11600   0.549   1.969  14.292  0.1034  0.0088 -0.6326
  787MPD2    C111601   0.665   2.030  14.330  0.1338  0.0899 -0.2297
  787MPD2    C211602   0.738   1.964  14.426  0.1919  0.1943  0.2042
  787MPD2    C311603   0.704   1.841  14.485 -0.3935  0.3900 -0.1180
  787MPD2    C411604   0.584   1.787  14.446 -0.2362  0.6560 -0.0259
  787MPD2    C511605   0.504   1.852  14.348 -0.0257  1.2878  0.2426
  787MPD2     H11606   0.837   2.001  14.451  0.4487 -0.8154  0.6738
  787MPD2    H111607   0.550   1.695  14.492  0.9260 -0.3796 -1.2669
  787MPD2    H211608   0.486   2.025  14.224 -2.1692 -1.0795  0.5355
  787MPD2    H311609   0.413   1.809  14.306  0.7163 -0.8404  0.8219
  787MPD2     N11610   0.807   1.776  14.556  0.5174 -0.6174 -0.0281
  787MPD2    H511611   0.889   1.834  14.571 -0.5119  0.1054  2.7468
  787MPD2    N111612   0.700   2.153  14.270 -0.4362  0.1383  0.5314
  787MPD2    H711613   0.630   2.192  14.208  1.4608  0.2481 -1.5679
  788MPD2     C11614   3.089   0.774   0.867 -0.3815  0.3493  0.8000
  788MPD2    C111615   3.161   0.688   0.788 -0.7872  0.7341  0.1848
  788MPD2    C211616   3.162   0.713   0.649  0.4295  0.1348 -0.1302
  788MPD2    C311617   3.102   0.828   0.592  0.2912 -0.3414 -0.9620
  788MPD2    C411618   3.033   0.917   0.676 -0.4979  0.1454 -0.0350
  788MPD2    C511619   3.028   0.885   0.811 -0.4900  0.1507 -0.0247
  788MPD2     H11620   3.216   0.638   0.592 -0.3374 -0.8303  0.4262
  788MPD2    H111621   2.980   1.005   0.641 -1.1222 -0.1596  0.1399
  788MPD2    H211622   3.108   0.762   0.973 -3.0507  0.7692  1.3316
  788MPD2    H311623   2.987   0.968   0.867 -2.1669 -0.2395 -0.6651
  788MPD2     N11624   3.107   0.856   0.450  0.5229  0.3143 -0.5624
  788MPD2    H511625   3.056   0.936   0.415  0.4678  0.6809  0.3671
  788MPD2    N111626   3.229   0.576   0.838  0.1656 -0.1924 -0.4649
  788MPD2    H711627   3.284   0.521   0.773 -0.6290 -2.9574  1.2432
  789MPD2     C11628   3.122   4.642  16.793  0.2086 -0.1327  0.6041
  789MPD2    C111629   3.016   4.570  16.747 -0.2888 -0.9369  0.6275
  789MPD2    C211630   2.891   4.591  16.804 -0.0485 -0.1754 -0.9313
  789MPD2    C311631   2.873   4.700  16.893 -0.0295  0.0784 -0.2679
  789MPD2    C411632   2.981   0.058  16.927 -0.0897  0.4012 -0.2276
  789MPD2    C511633   3.107   0.031  16.880 -0.6861  0.1102  0.4700
  789MPD2     H11634   2.807   4.524  16.787 -0.7178  0.6836 -1.0017
  789MPD2    H111635   2.984   0.139  16.998 -2.1938  0.6443 -0.4214
  789MPD2    H211636   3.223   4.621  16.762  0.6478  2.8763  0.0559
  789MPD2    H311637   3.191   0.087  16.920  0.7342 -2.2012  0.6970
  789MPD2     N11638   2.752   0.044  16.937  0.2013  0.2492  0.3070
  789MPD2    H511639   2.762   0.132  16.987 -0.6343  0.5671 -0.0693
  789MPD2    N111640   3.026   4.482  16.635  0.1568  0.9854 -0.3408
  789MPD2    H711641   2.934   4.445  16.615 -0.3021  0.0513  3.4810
  790MPD2     C11642   3.830   1.879  13.410  0.7210  0.4053 -0.4124
  790MPD2    C111643   3.947   1.943  13.371 -0.0371  0.4027  0.2376
  790MPD2    C211644   3.977   1.959  13.233  0.5390  0.5034 -0.3204
  790MPD2    C311645   3.878   1.932  13.143  0.1334  0.0719 -0.4927
  790MPD2    C411646   3.764   1.869  13.185  0.2206  0.6000 -0.0504
  790MPD2    C511647   3.736   1.844  13.318 -0.0316 -1.0521  0.5550
  790MPD2     H11648   4.075   1.992  13.203 -0.9530  1.8601 -3.7791
  790MPD2    H111649   3.694   1.822  13.117 -0.3450 -0.3678  1.2019
  790MPD2    H211650   3.810   1.851  13.513 -0.2913  0.4125 -0.6027
  790MPD2    H311651   3.660   1.772  13.348 -3.8542  2.5117 -0.5208
  790MPD2     N11652   3.899   1.936  13.001  0.2553 -0.3004 -0.2216
  790MPD2    H511653   3.825   1.897  12.942 -0.7642 -0.1623  0.9675
  790MPD2    N111654   4.039   1.976  13.477 -0.1124 -0.2035 -0.2650
  790MPD2    H711655   4.020   1.931  13.566 -2.0343 -0.2621 -0.7173
  791MPD2     C11656   3.934   1.493  12.269 -0.0917 -0.3289  0.5952
  791MPD2    C111657   3.879   1.531  12.391 -0.4757  0.0269  0.2616
  791MPD2    C211658   3.762   1.465  12.436 -0.2904  0.0764  0.2470
  791MPD2    C311659   3.715   1.354  12.373 -0.0805  0.3774 -0.2091
  791MPD2    C411660   3.781   1.308  12.257  0.1001  0.6078 -0.2390
  791MPD2    C511661   3.876   1.387  12.200  0.2003  0.2050  0.5243
  791MPD2     H11662   3.716   1.494  12.529 -1.5074  0.3169 -0.4353
  791MPD2    H111663   3.744   1.221  12.204  0.1068 -0.4716  1.5202
  791MPD2    H211664   4.024   1.538  12.229 -0.4564  1.2348  1.5059
  791MPD2    H311665   3.902   1.370  12.096 -2.1919 -0.3807  0.0223
  791MPD2     N11666   3.606   1.284  12.429  0.0457  0.1073 -0.8563
  791MPD2    H511667   3.554   1.327  12.505  0.8675  0.8699 -0.7351
  791MPD2    N111668   3.933   1.637  12.464 -0.3397 -0.5717  0.2938
  791MPD2    H711669   3.995   1.697  12.411 -2.1723 -0.4379 -1.7142
  792MPD2     C11670   4.622   2.114  10.968  0.0660  0.1827  0.4695
  792MPD2    C111671   4.506   2.179  10.941 -0.6222  0.4152  0.2052
  792MPD2    C211672   4.399   2.098  10.902 -0.5735 -0.0832 -0.0058
  792MPD2    C311673   4.414   1.957  10.895 -0.5212  0.2657  0.9712
  792MPD2    C411674   4.529   1.900  10.927  0.2621 -0.5717 -0.8311
  792MPD2    C511675   4.636   1.979  10.967 -0.7272  0.2906 -0.7011
  792MPD2     H11676   4.308   2.143  10.864 -0.2038  0.7148  0.0535
  792MPD2    H111677   4.536   1.792  10.927 -1.3893 -0.6787  0.2097
  792MPD2    H211678   4.715   2.165  10.989 -0.0206  1.5043 -2.3826
  792MPD2    H311679   0.015   1.936  10.989 -0.0602  1.1827 -1.9418
  792MPD2     N11680   4.312   1.866  10.859  0.9389 -0.2999  0.1371
  792MPD2    H511681   4.337   1.768  10.845 -0.3024 -0.3968 -1.4803
  792MPD2    N111682   4.510   2.318  10.935  1.1654  0.1805  0.6105
  792MPD2    H711683   4.595   2.366  10.964  1.0599  1.8749 -1.8882
  793MPD2     C11684   4.005   1.891   9.964  0.3170  0.3840  0.1305
  793MPD2    C111685   4.110   1.958  10.028  0.8313 -0.3063  0.1491
  793MPD2    C211686   4.137   1.919  10.160 -0.2129  0.8606 -0.0962
  793MPD2    C311687   4.066   1.829  10.224 -0.3833  0.2068  0.0335
  793MPD2    C411688   3.952   1.776  10.162  0.0976  0.2174 -0.3750
  793MPD2    C511689   3.919   1.809  10.036  0.0727  0.4456  0.7167
  793MPD2     H11690   4.231   1.952  10.202  0.9653 -3.2247  0.4857
  793MPD2    H111691   3.887   1.710  10.218 -0.1910 -1.8731 -3.1527
  793MPD2    H211692   3.977   1.919   9.863  0.6157  5.5119  1.4781
  793MPD2    H311693   3.837   1.766   9.980 -0.4448  0.2102  1.6532
  793MPD2     N11694   4.090   1.791  10.362 -0.4202 -0.0161 -0.1747
  793MPD2    H511695   4.149   1.852  10.417 -2.8863  0.4282  1.9712
  793MPD2    N111696   4.194   2.050   9.972  0.3761 -0.0109 -1.1111
  793MPD2    H711697   4.272   2.072  10.033  1.3737  2.9175 -3.4408
  794MPD2     C11698   3.581   1.702  17.472  0.0599  0.4559 -0.5240
  794MPD2    C111699   3.679   1.611  17.449 -0.8856 -0.3537 -0.4605
  794MPD2    C211700   3.729   1.606  17.315  0.2510 -0.0690 -0.3695
  794MPD2    C311701   3.670   1.677  17.211  0.8232  0.1369 -0.3362
  794MPD2    C411702   3.564   1.761  17.242  1.2696  0.2005 -0.2183
  794MPD2    C511703   3.523   1.774  17.378 -0.2883  0.5290 -0.3754
  794MPD2     H11704   3.802   1.531  17.285  0.2022 -0.6736  0.9850
  794MPD2    H111705   3.521   1.816  17.159 -0.4649  0.0177  0.5512
  794MPD2    H211706   3.556   1.729  17.573  1.0559 -1.1588  0.1571
  794MPD2    H311707   3.437   1.832  17.407 -0.1130 -0.2712  1.7698
  794MPD2     N11708   3.711   1.667  17.072  0.1698  0.2303 -0.1613
  794MPD2    H511709   3.666   1.723  17.000  1.1290  1.1196 -0.0666
  794MPD2    N111710   3.737   1.525  17.549  0.2312  0.8920  0.8024
  794MPD2    H711711   3.812   1.463  17.523 -1.2489 -0.6695  0.2850
  795MPD2     C11712   1.845   3.817  13.362  0.5512  0.4626  0.0028
  795MPD2    C111713   1.876   3.734  13.250  0.1234 -0.1181 -0.4223
  795MPD2    C211714   1.972   3.632  13.268 -0.0600 -0.5736  0.0407
  795MPD2    C311715   2.060   3.646  13.381  0.1385 -0.2551  0.3508
  795MPD2    C411716   2.025   3.723  13.488 -0.4109 -0.3773 -0.5148
  795MPD2    C511717   1.925   3.812  13.467 -0.3169  0.0094 -0.2481
  795MPD2     H11718   1.998   3.570  13.183  1.2962 -0.2187  0.2101
  795MPD2    H111719   2.092   3.723  13.574 -0.9097 -1.4803 -0.1270
  795MPD2    H211720   1.767   3.892  13.361 -0.2663 -0.3729  1.8454
  795MPD2    H311721   1.907   3.879  13.551 -1.3731 -0.9609  0.2993
  795MPD2     N11722   2.188   3.581  13.384 -0.0052  0.1633  0.1962
  795MPD2    H511723   2.257   3.588  13.458  0.8191 -1.7636 -0.3912
  795MPD2    N111724   1.795   3.727  13.134  0.4149 -0.4355 -0.2326
  795MPD2    H711725   1.811   3.645  13.076 -0.6699 -0.2937 -0.7279
  796MPD2     C11726   0.328   0.374  16.108  0.2418  0.1408 -0.1692
  796MPD2    C111727   0.332   0.461  16.223 -1.2088  0.6825  0.0352
  796MPD2    C211728   0.388   0.591  16.207 -0.3547 -0.2653 -0.1411
  796MPD2    C311729   0.444   0.624  16.084  0.2994  0.2023 -0.7462
  796MPD2    C411730   0.443   0.539  15.982 -0.1234 -1.2473  0.6999
  796MPD2    C511731   0.378   0.416  15.992  0.5543 -0.0342 -0.0872
  796MPD2     H11732   0.393   0.654  16.295  0.7094  0.2236 -0.5487
  796MPD2    H111733   0.489   0.562  15.886 -0.8927 -1.9971  0.1564
  796MPD2    H211734   0.278   0.278  16.116  1.3689 -0.4589 -0.2885
  796MPD2    H311735   0.370   0.342  15.914 -2.6188 -0.3299  0.4993
  796MPD2     N11736   0.516   0.747  16.084 -0.4909  0.1392  0.1803
  796MPD2    H511737   0.508   0.806  16.167 -1.2175 -0.8302  0.7985
  796MPD2    N111738   0.293   0.405  16.346  0.0292  0.3282  0.5779
  796MPD2    H711739   0.253   0.312  16.350  1.0414 -0.1897 -1.0626
  797MPD2     C11740   1.725   4.432  17.039 -0.5074  0.2748 -0.5011
  797MPD2    C111741   1.726   4.516  17.146 -0.0248 -0.2426 -0.7428
  797MPD2    C211742   1.610   4.588  17.175  0.1189  0.2458  0.3377
  797MPD2    C311743   1.490   4.574  17.099 -0.3330 -0.0985 -0.1617
  797MPD2    C411744   1.496   4.492  16.984 -1.0417 -0.5246  0.3102
  797MPD2    C511745   1.614   4.423  16.957  0.1301 -0.1801 -0.2379
  797MPD2     H11746   1.615   4.662  17.254  0.9208 -1.0660  1.5198
  797MPD2    H111747   1.411   4.467  16.921 -1.9224  1.2813  0.7850
  797MPD2    H211748   1.813   4.376  17.010 -0.2819  0.6044 -0.4561
  797MPD2    H311749   1.616   4.360  16.869  2.3176 -0.3547 -0.0613
  797MPD2     N11750   1.360   4.620  17.146  0.5664 -0.1306  0.9059
  797MPD2    H511751   1.280   4.609  17.085  0.2047  1.6882  1.0513
  797MPD2    N111752   1.835   4.526  17.235  0.3626  0.3318 -0.0800
  797MPD2    H711753   1.810   4.558  17.328  2.5476 -0.1076  0.6540
  798MPD2     C11754   1.575   0.372  17.630 -0.1990 -0.7167 -0.0944
  798MPD2    C111755   1.539   0.252  17.565  0.3797 -0.3083  0.0252
  798MPD2    C211756   1.634   0.151  17.553  0.1491 -0.1000 -0.2763
  798MPD2    C311757   1.766   0.182  17.583  1.0615  0.3373  0.2121
  798MPD2    C411758   1.802   0.303  17.637 -0.4457 -0.9056  0.2835
  798MPD2    C511759   1.706   0.397  17.671 -0.0628 -1.1250 -0.6013
  798MPD2     H11760   1.603   0.057  17.508 -3.2155  1.7219 -1.8084
  798MPD2    H111761   1.903   0.336  17.658 -1.0929  0.2546  1.5780
  798MPD2    H211762   1.518   0.460  17.655 -1.3549 -1.5860  0.3330
  798MPD2    H311763   1.739   0.487   0.044 -1.2155 -0.8076 -0.4018
  798MPD2     N11764   1.856   0.080  17.542 -0.3054  0.3247 -0.0618
  798MPD2    H511765   1.818   4.717  17.494  1.4329 -0.5632  0.0890
  798MPD2    N111766   1.412   0.216  17.520 -0.2483 -0.0953  0.0535
  798MPD2    H711767   1.403   0.125  17.476  1.2983 -0.8093  1.1984
  799MPD2     C11768   0.982   2.043  14.109 -0.6529  0.0196 -0.4285
  799MPD2    C111769   0.881   1.952  14.069  0.0497  0.1671 -0.5002
  799MPD2    C211770   0.798   1.979  13.962 -0.1939 -0.0717  0.0174
  799MPD2    C311771   0.825   2.097  13.895 -0.1962  0.6169 -0.1412
  799MPD2    C411772   0.931   2.175  13.925  0.3088 -0.5900 -0.8928
  799MPD2    C511773   1.006   2.156  14.034 -0.5090 -0.3079 -0.0344
  799MPD2     H11774   0.719   1.909  13.936  1.9622 -2.3826 -0.2332
  799MPD2    H111775   0.961   2.260  13.864 -0.4276  1.8329  2.0735
  799MPD2    H211776   1.058   2.024  14.183 -1.5297 -1.0847  0.1849
  799MPD2    H311777   1.100   2.209  14.045  1.0202 -2.6036 -1.8398
  799MPD2     N11778   0.763   2.141  13.777  0.5957 -0.0951 -0.1167
  799MPD2    H511779   0.801   2.219  13.725  0.9546 -0.0266  0.2505
  799MPD2    N111780   0.867   1.827  14.142 -0.2631 -0.0302  0.2523
  799MPD2    H711781   0.782   1.781  14.113  0.9079 -1.5309 -0.8033
  800MPD2     C11782   1.467   2.923  13.918  0.9427  0.1115 -0.1396
  800MPD2    C111783   1.601   2.960  13.935  0.6588  0.4007  0.7315
  800MPD2    C211784   1.691   2.899  13.852  0.1902 -0.2726 -0.1290
  800MPD2    C311785   1.660   2.796  13.766  0.9069 -0.7819 -0.1689
  800MPD2    C411786   1.525   2.771  13.748 -0.5802  0.3121 -0.3630
  800MPD2    C511787   1.432   2.844  13.818  0.0061  0.5328 -0.1298
  800MPD2     H11788   1.797   2.913  13.872 -0.3238  1.5491  1.3402
  800MPD2    H111789   1.491   2.706  13.668  1.8835  0.4754 -1.5365
  800MPD2    H211790   1.391   2.985  13.964 -0.0042 -0.3281 -1.1263
  800MPD2    H311791   1.328   2.819  13.799  0.1613 -0.5795  0.4568
  800MPD2     N11792   1.765   2.723  13.707  0.6744  0.1868 -0.6960
  800MPD2    H511793   1.855   2.768  13.716  0.0428  0.7002  3.1732
  800MPD2    N111794   1.637   3.051  14.039  0.4006 -0.3384 -0.0674
  800MPD2    H711795   1.567   3.071  14.110  1.4333  0.9218  0.6098
  801MPD2     C11796   1.409   3.172  14.714  0.0127  0.2014  0.1528
  801MPD2    C111797   1.408   3.215  14.587  0.5325 -1.0917 -0.5669
  801MPD2    C211798   1.295   3.264  14.531 -1.0365 -0.8344  0.3240
  801MPD2    C311799   1.179   3.290  14.599  0.0011  0.5769 -0.5333
  801MPD2    C411800   1.180   3.255  14.732 -0.0938  0.6586  0.2109
  801MPD2    C511801   1.294   3.197  14.785  0.3016 -0.0689  0.0795
  801MPD2     H11802   1.297   3.291  14.426 -0.0423  1.1572  0.8685
  801MPD2    H111803   1.090   3.269  14.791  1.3648 -0.5223  2.6715
  801MPD2    H211804   1.500   3.136  14.759 -0.4602 -1.7795 -0.4667
  801MPD2    H311805   1.293   3.166  14.889  0.6858 -0.2708  0.0235
  801MPD2     N11806   1.057   3.334  14.546  0.6304 -0.3726 -0.6939
  801MPD2    H511807   0.980   3.345  14.611  0.8582  0.3499 -0.5536
  801MPD2    N111808   1.511   3.195  14.495 -0.1882 -0.1197 -0.1856
  801MPD2    H711809   1.480   3.211  14.400 -1.1820  0.4203  0.2280
  802MPD2     C11810   0.660   3.171   0.714  0.2433 -0.2347  0.1393
  802MPD2    C111811   0.543   3.235   0.670 -0.0406  0.2398  0.4817
  802MPD2    C211812   0.489   3.201   0.549  0.5678 -0.4958 -0.5042
  802MPD2    C311813   0.528   3.085   0.485 -0.1137  0.7750 -0.3388
  802MPD2    C411814   0.632   3.005   0.537 -0.4941 -0.1223  0.4981
  802MPD2    C511815   0.696   3.050   0.652  0.2182 -0.1237 -0.3092
  802MPD2     H11816   0.397   3.254   0.524  1.5191  0.8219 -1.1957
  802MPD2    H111817   0.677   2.920   0.486 -0.3207  1.1164 -1.3954
  802MPD2    H211818   0.703   3.198   0.810  0.8425 -1.0163  0.0920
  802MPD2    H311819   0.773   2.988   0.694  0.5148  0.5385  0.1194
  802MPD2     N11820   0.452   3.049   0.366  0.2579 -0.1458  0.3023
  802MPD2    H511821   0.362   3.093   0.351  0.0048 -0.7852 -0.0632
  802MPD2    N111822   0.470   3.336   0.740 -0.1153  0.2350  0.4791
  802MPD2    H711823   0.384   3.370   0.697 -1.6324 -0.8423  2.6680
  803MPD2     C11824   2.352   2.271  11.926 -0.2713  0.1796  0.3554
  803MPD2    C111825   2.490   2.275  11.934  0.6619 -0.7361  0.4047
  803MPD2    C211826   2.552   2.237  12.048  0.1245  0.5576 -0.2299
  803MPD2    C311827   2.476   2.178  12.148 -0.3474 -0.1189 -0.1354
  803MPD2    C411828   2.341   2.180  12.137  0.2970 -0.1588 -0.4434
  803MPD2    C511829   2.280   2.228  12.027 -0.2301  0.6192  0.2158
  803MPD2     H11830   2.659   2.240  12.065  0.2540 -1.2673 -0.7576
  803MPD2    H111831   2.271   2.147  12.212  2.2414  1.9233  2.2697
  803MPD2    H211832   2.305   2.312  11.838 -0.0612  1.9961  1.0986
  803MPD2    H311833   2.172   2.234  12.020 -0.2133  0.9568  0.2614
  803MPD2     N11834   2.539   2.125  12.269 -0.9627  0.0848  0.8089
  803MPD2    H511835   2.636   2.152  12.285 -1.3323  0.7972  1.8783
  803MPD2    N111836   2.568   2.320  11.819  0.4918 -0.2234  0.0318
  803MPD2    H711837   2.666   2.337  11.839  0.1533  0.4495  1.0888
  804MPD2     C11838   0.954   2.927  16.969  0.2896  0.1825  0.1792
  804MPD2    C111839   1.060   2.964  17.054 -0.1900  0.4145 -0.4749
  804MPD2    C211840   1.099   3.101  17.051 -0.5224  0.4766  0.0789
  804MPD2    C311841   1.038   3.194  16.963 -0.4621 -0.7123 -0.0258
  804MPD2    C411842   0.943   3.148  16.872  1.0491  0.1796 -0.3385
  804MPD2    C511843   0.899   3.020  16.879 -0.2611  0.3731 -1.2636
  804MPD2     H11844   1.176   3.139  17.117 -0.1727 -1.8594  1.0419
  804MPD2    H111845   0.899   3.214  16.799  1.8604  1.0891 -0.0154
  804MPD2    H211846   0.916   2.825  16.970 -1.7971  0.9599 -0.5392
  804MPD2    H311847   0.824   2.978  16.813 -2.2509  0.1248  1.1337
  804MPD2     N11848   1.086   3.327  16.951  0.1549 -0.3221 -0.0476
  804MPD2    H511849   1.185   3.341  16.964  0.0985 -4.0232  4.2819
  804MPD2    N111850   1.110   2.872  17.151  0.3638 -0.3776  0.3662
  804MPD2    H711851   1.176   2.899  17.223  0.0948 -0.8187  0.7703
  805MPD2     C11852   0.627   1.799  15.806  0.0912  0.5458 -0.3799
  805MPD2    C111853   0.731   1.879  15.784 -0.3277 -1.0309 -0.8514
  805MPD2    C211854   0.847   1.847  15.848 -0.1404  0.3773 -0.5620
  805MPD2    C311855   0.860   1.739  15.933 -0.3259 -0.2086  0.0085
  805MPD2    C411856   0.750   1.664  15.970  0.1081 -0.3679 -0.2160
  805MPD2    C511857   0.635   1.701  15.905 -0.2260 -0.5667  0.9280
  805MPD2     H11858   0.940   1.894  15.818  0.9728 -1.4394 -0.0287
  805MPD2    H111859   0.758   1.579  16.037 -1.1831 -0.8172 -0.6381
  805MPD2    H211860   0.530   1.808  15.759  1.7179  1.4234 -3.6175
  805MPD2    H311861   0.543   1.650  15.928 -1.0841  0.4991 -0.1276
  805MPD2     N11862   0.989   1.723  15.995  0.1368 -0.2248 -0.0903
  805MPD2    H511863   1.061   1.793  15.984  0.5265 -0.1550  2.8463
  805MPD2    N111864   0.738   1.985  15.687 -0.0290 -0.3022 -0.4226
  805MPD2    H711865   0.831   2.022  15.674 -0.0437 -0.4520 -0.9775
  806MPD2     C11866   1.096   1.161   0.870  0.4621  0.3208 -0.0451
  806MPD2    C111867   1.208   1.091   0.844  0.1235 -0.4669  0.0669
  806MPD2    C211868   1.269   1.104   0.719 -0.3093 -0.5484  0.0075
  806MPD2    C311869   1.218   1.195   0.629 -0.0051 -0.5708 -0.2470
  806MPD2    C411870   1.094   1.256   0.648 -0.0311  0.2139  0.0548
  806MPD2    C511871   1.035   1.238   0.774 -0.4589 -0.0254 -0.3846
  806MPD2     H11872   1.365   1.057   0.697 -0.6390 -1.7425  1.1068
  806MPD2    H111873   1.055   1.323   0.573 -1.5481 -0.8793 -0.1433
  806MPD2    H211874   1.044   1.150   0.965  1.8532 -1.6325  0.4843
  806MPD2    H311875   0.938   1.284   0.792  0.6510  2.1849  0.0037
  806MPD2     N11876   1.269   1.217   0.503  0.4009  0.2767 -0.0724
  806MPD2    H511877   1.221   1.287   0.448  1.4858 -0.6582 -2.2177
  806MPD2    N111878   1.257   1.017   0.953 -0.4828 -1.2408 -0.5464
  806MPD2    H711879   1.187   1.017   1.026 -0.2403 -2.2550 -0.3190
  807MPD2     C11880   1.008   0.848   1.603 -0.0105  0.1595 -0.6212
  807MPD2    C111881   1.119   0.767   1.600  0.2198 -0.3675 -0.5270
  807MPD2    C211882   1.160   0.708   1.717  0.5164 -0.1332 -0.5957
  807MPD2    C311883   1.102   0.734   1.839 -0.1177 -0.0681 -0.2487
  807MPD2    C411884   0.982   0.800   1.831 -0.1370  0.4463 -0.1314
  807MPD2    C511885   0.941   0.857   1.718 -0.3673 -0.0792  0.0648
  807MPD2     H11886   1.251   0.649   1.717  0.5831 -0.0234  2.3314
  807MPD2    H111887   0.928   0.824   1.922 -1.0342  1.7045 -1.0025
  807MPD2    H211888   0.973   0.902   1.516 -0.4396 -0.9699 -1.1520
  807MPD2    H311889   0.850   0.917   1.725  0.3164  1.0281 -0.5647
  807MPD2     N11890   1.151   0.663   1.957  0.1229  0.3248  0.3414
  807MPD2    H511891   1.244   0.627   1.942  0.0226 -0.8606  2.5277
  807MPD2    N111892   1.202   0.738   1.489  0.6544  0.5338  0.0007
  807MPD2    H711893   1.288   0.684   1.502  0.8605  1.2433  1.5267
  808MPD2     C11894   2.626   2.552   9.919  0.4604  0.0615  0.2723
  808MPD2    C111895   2.521   2.635   9.953  0.4719 -0.1133 -0.3024
  808MPD2    C211896   2.557   2.763   9.992 -0.5961 -0.2552  0.5116
  808MPD2    C311897   2.686   2.811  10.000 -0.3739 -0.6868 -0.3510
  808MPD2    C411898   2.786   2.725   9.958 -0.1829  0.4614  0.7792
  808MPD2    C511899   2.755   2.599   9.916  0.5244 -0.6842 -0.1005
  808MPD2     H11900   2.474   2.832  10.001 -1.1659 -0.7751 -0.8345
  808MPD2    H111901   2.889   2.758   9.948 -0.9756  2.7304  0.3176
  808MPD2    H211902   2.605   2.458   9.870  1.8851 -0.3013  0.3532
  808MPD2    H311903   2.832   2.530   9.882  0.5988 -0.6164 -0.0702
  808MPD2     N11904   2.727   2.937  10.044 -0.0334 -0.0162 -0.2958
  808MPD2    H511905   2.821   2.962  10.014  1.2754 -0.9102  3.1302
  808MPD2    N111906   2.381   2.607   9.931 -0.6628 -0.2960 -0.2440
  808MPD2    H711907   2.313   2.683   9.931 -0.9621 -0.5438  3.2250
  809MPD2     C11908   3.290   3.474   9.610 -0.3168 -0.3199 -0.1550
  809MPD2    C111909   3.280   3.354   9.670  0.1600  0.1253 -0.4155
  809MPD2    C211910   3.189   3.335   9.769  0.3513 -0.1151  0.0236
  809MPD2    C311911   3.102   3.436   9.804  0.0418 -0.3496  0.2905
  809MPD2    C411912   3.107   3.553   9.734  0.6992 -0.3671 -0.6834
  809MPD2    C511913   3.200   3.576   9.633 -0.0661 -0.7770  0.3130
  809MPD2     H11914   3.196   3.244   9.828 -0.3132 -1.7258 -2.4015
  809MPD2    H111915   3.038   3.631   9.764  1.4433  0.2164 -0.4848
  809MPD2    H211916   3.371   3.498   9.542 -0.5674 -0.7741 -0.6110
  809MPD2    H311917   3.207   3.671   9.582  0.5809 -0.5583  0.8062
  809MPD2     N11918   3.011   3.415   9.908 -0.4184  0.2763 -0.4799
  809MPD2    H511919   2.937   3.485   9.905 -0.1001  0.6559  0.4069
  809MPD2    N111920   3.355   3.238   9.632  0.1310 -0.0345  0.1601
  809MPD2    H711921   3.335   3.156   9.689  2.0178  1.1951  2.6213
  810MPD2     C11922   2.516   2.444  10.278 -0.3733 -0.4260  0.2589
  810MPD2    C111923   2.380   2.446  10.276 -0.1252  0.4382  0.2374
  810MPD2    C211924   2.319   2.568  10.270 -0.5764  0.0983  0.3337
  810MPD2    C311925   2.381   2.691  10.285 -0.5317  0.1718 -0.4547
  810MPD2    C411926   2.519   2.681  10.299 -0.1017  0.6041  0.6635
  810MPD2    C511927   2.591   2.562  10.292  0.0848 -0.1832 -0.4360
  810MPD2     H11928   2.213   2.569  10.246 -0.2620  1.0195 -1.0204
  810MPD2    H111929   2.586   2.767  10.306  0.8258 -0.0664  0.1088
  810MPD2    H211930   2.570   2.351  10.270  2.3034  0.9963  2.0732
  810MPD2    H311931   2.698   2.554  10.284  0.5637  2.4773  3.6123
  810MPD2     N11932   2.314   2.817  10.282 -0.1174 -0.3188 -0.0643
  810MPD2    H511933   2.372   2.900  10.286  0.6306 -0.8599  0.2531
  810MPD2    N111934   2.309   2.328  10.255  0.2551 -0.1624  0.1480
  810MPD2    H711935   2.359   2.252  10.210 -0.9540 -0.5635 -0.5180
  811MPD2     C11936   1.526   2.145   9.816  0.9801  0.5209 -0.7274
  811MPD2    C111937   1.611   2.227   9.880  0.2722  0.5383 -0.7500
  811MPD2    C211938   1.610   2.362   9.848 -0.7565 -0.1447  0.1397
  811MPD2    C311939   1.512   2.414   9.766  0.7253  0.6976  0.3449
  811MPD2    C411940   1.432   2.326   9.693 -0.4105 -0.0383  0.5603
  811MPD2    C511941   1.444   2.191   9.717  0.2985  0.2240 -0.1037
  811MPD2     H11942   1.672   2.432   9.904  0.7680 -1.4322  0.0764
  811MPD2    H111943   1.356   2.357   9.622 -0.8344  1.7368  1.7907
  811MPD2    H211944   1.531   2.037   9.826  1.8148  0.7943  1.8772
  811MPD2    H311945   1.399   2.108   9.665  2.7718 -0.6347 -0.9050
  811MPD2     N11946   1.513   2.555   9.753 -0.4018 -0.2421 -0.4545
  811MPD2    H511947   1.566   2.610   9.820  1.1777 -0.9433 -1.1204
  811MPD2    N111948   1.712   2.172   9.970  0.3811 -0.6845  0.2992
  811MPD2    H711949   1.696   2.073   9.987 -1.2041 -0.3908  0.5950
  812MPD2     C11950   0.415   2.308  12.023  0.0779  0.5582 -0.3443
  812MPD2    C111951   0.286   2.263  12.006 -0.2454 -0.1086 -0.0299
  812MPD2    C211952   0.224   2.188  12.103  0.2127 -0.3117 -0.0969
  812MPD2    C311953   0.301   2.142  12.216  0.1842 -0.1290 -0.0242
  812MPD2    C411954   0.430   2.190  12.228 -0.3907 -0.6199 -0.7258
  812MPD2    C511955   0.481   2.274  12.138 -0.0032 -0.0682  0.2022
  812MPD2     H11956   0.123   2.154  12.082  1.1179 -2.0640 -1.6391
  812MPD2    H111957   0.494   2.158  12.310 -1.0082 -1.0220 -0.3944
  812MPD2    H211958   0.471   2.374  11.957 -0.9786 -0.1948 -1.9883
  812MPD2    H311959   0.585   2.299  12.153 -0.4452 -0.0620  3.2485
  812MPD2     N11960   0.243   2.044  12.298 -0.6194  0.1261  0.1310
  812MPD2    H511961   0.153   2.009  12.268  0.0419  1.9067 -3.9476
  812MPD2    N111962   0.220   2.320  11.891  0.1033 -0.3737 -0.0019
  812MPD2    H711963   0.276   2.373  11.826  1.9086 -0.6955  1.3125
  813MPD2     C11964   3.600   4.073  12.472 -0.8014  0.0055  0.4700
  813MPD2    C111965   3.640   4.202  12.494  0.1191 -0.4116  0.0424
  813MPD2    C211966   3.585   4.271  12.599  0.2975  0.1523  0.3279
  813MPD2    C311967   3.502   4.214  12.688  0.1709 -0.4359  1.0677
  813MPD2    C411968   3.476   4.076  12.674  0.4595  0.0541  0.4744
  813MPD2    C511969   3.527   4.008  12.565  0.3874  0.1530  0.6608
  813MPD2     H11970   3.610   4.376  12.607 -0.4591  0.3544  0.0685
  813MPD2    H111971   3.422   4.025  12.753 -0.1808 -1.1010 -0.7102
  813MPD2    H211972   3.639   4.012  12.391 -1.9501 -0.6506  0.4146
  813MPD2    H311973   3.505   3.902  12.556  2.6174 -0.0047 -2.6937
  813MPD2     N11974   3.454   4.297  12.788 -0.5381 -1.0063  0.2964
  813MPD2    H511975   3.497   4.389  12.790 -1.4344 -0.6174  1.3903
  813MPD2    N111976   3.725   4.248  12.394 -0.0836 -0.1655  0.1036
  813MPD2    H711977   3.727   4.193  12.308  2.0607  2.2990 -1.4273
  814MPD2     C11978   0.444   1.059  12.332 -0.4564 -0.0882  0.2340
  814MPD2    C111979   0.458   1.098  12.198 -0.1225  0.3587 -0.1117
  814MPD2    C211980   0.533   1.205  12.157 -0.3247 -0.4734  0.0662
  814MPD2    C311981   0.574   1.288  12.253 -0.4542  0.2392 -0.0511
  814MPD2    C411982   0.537   1.265  12.381 -0.3833  0.0451  0.2339
  814MPD2    C511983   0.483   1.148  12.428 -0.2620  0.5043  0.2782
  814MPD2     H11984   0.549   1.227  12.052  0.2731  1.4411  0.5552
  814MPD2    H111985   0.561   1.341  12.454 -3.8566  0.0546  1.3668
  814MPD2    H211986   0.400   0.966  12.365  1.2836 -0.6564  0.9065
  814MPD2    H311987   0.469   1.124  12.533  1.0383  0.8542  0.5415
  814MPD2     N11988   0.635   1.411  12.227 -0.6279 -0.2312  0.2147
  814MPD2    H511989   0.654   1.465  12.310  1.2260 -0.3245 -0.1397
  814MPD2    N111990   0.401   1.017  12.091 -0.0841  0.3732 -0.0410
  814MPD2    H711991   0.419   1.061  12.001  2.1590 -0.8163 -0.1635
  815MPD2     C11992   0.127   3.403  12.175 -0.4949 -0.4478  0.0672
  815MPD2    C111993   0.135   3.508  12.089  0.3841 -0.0396  0.7009
  815MPD2    C211994   0.033   3.603  12.093  0.2086 -0.0708  0.3134
  815MPD2    C311995   4.650   3.602  12.191  0.4764  0.5105 -0.9171
  815MPD2    C411996   4.654   3.499  12.286 -0.0249  0.1042 -0.4576
  815MPD2    C511997   0.031   3.398  12.268 -0.0405 -0.1197  0.1887
  815MPD2     H11998   0.038   3.672  12.010 -2.8958  1.3721  1.3278
  815MPD2    H111999   4.577   3.490  12.363 -0.0978 -3.2144 -0.9294
  815MPD2    H212000   0.202   3.325  12.172 -0.2354 -0.1908 -0.1971
  815MPD2    H312001   0.035   3.313  12.336 -1.1050  1.3596  2.1043
  815MPD2     N12002   4.540   3.690  12.186  0.1451  0.1033  0.3364
  815MPD2    H512003   4.458   3.672  12.243  0.8318  0.6010  1.4800
  815MPD2    N112004   0.235   3.501  11.984  0.2666  0.4421  0.6374
  815MPD2    H712005   0.303   3.426  11.991  0.8625  0.9393  0.1658
  816MPD2     C12006   4.628   2.419  17.255  0.5479  0.2797 -0.2928
  816MPD2    C112007   4.649   2.534  17.325 -0.1733 -0.0907  0.5338
  816MPD2    C212008   0.056   2.592  17.324  0.1055  0.0897  0.9049
  816MPD2    C312009   0.162   2.522  17.269  0.2388 -0.2824 -0.5151
  816MPD2    C412010   0.147   2.394  17.210 -1.1870 -0.1152 -0.1407
  816MPD2    C512011   0.019   2.346  17.214  0.2682 -0.1543 -0.2013
  816MPD2     H12012   0.086   2.683  17.376  0.5975 -0.5671  1.7820
  816MPD2    H112013   0.227   2.331  17.175 -0.0541  2.3802 -2.0648
  816MPD2    H212014   4.535   2.366  17.243  1.0557 -0.3471 -1.4974
  816MPD2    H312015   0.008   2.256  17.155  0.4873 -2.0984  2.7230
  816MPD2     N12016   0.294   2.580  17.261  0.4810 -0.3006  0.3073
  816MPD2    H512017   0.372   2.529  17.220  0.4445  0.3138 -0.5314
  816MPD2    N112018   4.537   2.586  17.393  0.3295  0.2883 -0.2395
  816MPD2    H712019   4.450   2.535  17.384  0.7180 -0.1048 -1.7562
  817MPD2     C12020   0.012   4.683   9.981  0.4335  0.9078 -0.0922
  817MPD2    C112021   0.098   4.668   9.874  0.7775 -0.6386  1.0787
  817MPD2    C212022   0.104   0.059   9.782  0.0979 -0.2347 -0.1898
  817MPD2    C312023   0.023   0.170   9.792  0.5935 -0.5533 -0.5084
  817MPD2    C412024   4.654   0.172   9.900  0.0405 -0.3276 -0.2949
  817MPD2    C512025   4.650   0.071   9.991  0.5917 -0.5038 -0.0256
  817MPD2     H12026   0.159   0.047   9.690 -1.6299  0.4726 -1.3086
  817MPD2    H112027   4.585   0.253   9.924  0.6310  0.5152 -1.4206
  817MPD2    H212028   4.715   4.603  10.053  0.5852  0.4684 -0.5443
  817MPD2    H312029   4.586   0.081  10.078  1.7076 -0.3210  0.7733
  817MPD2     N12030   0.032   0.276   9.698 -0.6034  0.6616  0.8159
  817MPD2    H512031   0.102   0.271   9.624 -1.4356 -0.3446  0.0990
  817MPD2    N112032   0.168   4.551   9.847 -0.0257 -0.5686  0.0833
  817MPD2    H712033   0.220   4.547   9.759  0.0751  2.9022 -0.0438
  818MPD2     C12034   3.800   4.612   9.816  0.0978 -0.4637 -0.6260
  818MPD2    C112035   3.685   4.571   9.871  0.0015 -0.1791 -0.1337
  818MPD2    C212036   3.629   4.453   9.838 -0.3368 -0.2900 -0.1941
  818MPD2    C312037   3.700   4.360   9.766 -0.8532  0.1019  0.5555
  818MPD2    C412038   3.822   4.399   9.712  0.1448 -0.9936  0.3108
  818MPD2    C512039   3.873   4.531   9.732  0.1049  0.0699 -0.5925
  818MPD2     H12040   3.528   4.442   9.874 -0.3293  2.8928  0.7590
  818MPD2    H112041   3.875   4.325   9.653  0.5587  0.1569 -0.7471
  818MPD2    H212042   3.843   4.704   9.853 -2.4907  0.7494 -0.6293
  818MPD2    H312043   3.966   4.571   9.694 -0.3043  0.3143 -1.3319
  818MPD2     N12044   3.654   4.232   9.737 -0.5605 -0.0263  0.7753
  818MPD2    H512045   3.717   4.179   9.677 -1.0029  0.9563 -0.5675
  818MPD2    N112046   3.603   4.653   9.944 -0.6372 -0.0328 -0.2868
  818MPD2    H712047   3.532   4.605   9.998 -0.5912 -1.9069 -1.9101
  819MPD2     C12048   1.921   1.538  15.859  0.1700 -0.4322 -0.5845
  819MPD2    C112049   1.886   1.410  15.843  0.2934 -0.0326  0.1006
  819MPD2    C212050   1.956   1.308  15.904  0.2380 -0.1331 -0.0309
  819MPD2    C312051   2.066   1.335  15.987  0.4648 -0.2059  0.6633
  819MPD2    C412052   2.106   1.466  16.002 -0.2554 -0.1297  0.2694
  819MPD2    C512053   2.039   1.564  15.932  0.4432 -0.5120 -0.5403
  819MPD2     H12054   1.914   1.208  15.898  4.2774 -1.9298  1.4461
  819MPD2    H112055   2.180   1.503  16.072  0.6356  1.6887 -1.6265
  819MPD2    H212056   1.864   1.627  15.835 -4.3001 -2.4647  2.5062
  819MPD2    H312057   2.069   1.668  15.939  0.4400 -0.3766 -2.4237
  819MPD2     N12058   2.124   1.227  16.047 -0.2374  0.1809 -0.3189
  819MPD2    H512059   2.094   1.133  16.025  1.9268 -0.2781 -1.3260
  819MPD2    N112060   1.770   1.389  15.764 -1.1309  0.1430  0.6580
  819MPD2    H712061   1.736   1.472  15.715  0.5499 -0.6302 -1.8095
  820MPD2     C12062   1.279   2.017  15.455 -0.0772  0.3661  0.5873
  820MPD2    C112063   1.199   1.916  15.419  0.2365  0.6430  1.0038
  820MPD2    C212064   1.252   1.789  15.425  0.4228  0.1359 -0.3543
  820MPD2    C312065   1.375   1.760  15.474 -0.3719  0.4823  0.4845
  820MPD2    C412066   1.455   1.866  15.513  0.4042 -0.0222 -0.2445
  820MPD2    C512067   1.407   1.997  15.502 -0.6513  0.8054 -0.7593
  820MPD2     H12068   1.186   1.709  15.394  0.1268  0.1523  0.2270
  820MPD2    H112069   1.559   1.860  15.541  0.6885  1.2303 -1.0154
  820MPD2    H212070   1.248   2.121  15.448  0.1768  0.3187 -1.4631
  820MPD2    H312071   1.453   2.082  15.550 -0.4711 -0.4784  1.3389
  820MPD2     N12072   1.424   1.630  15.498  0.0664 -0.1944 -0.2546
  820MPD2    H512073   1.516   1.625  15.541  0.0399 -0.0781 -0.1821
  820MPD2    N112074   1.071   1.952  15.385  0.4319  0.5906  0.5502
  820MPD2    H712075   1.051   2.051  15.380  0.3174  0.5980  1.1930
  821MPD2     C12076   2.194   2.565  13.000 -0.0637 -0.4220  0.2451
  821MPD2    C112077   2.266   2.531  13.118  0.0378 -0.5438 -0.9633
  821MPD2    C212078   2.403   2.562  13.129  0.5372  0.1601  0.0873
  821MPD2    C312079   2.471   2.611  13.016 -0.3718  0.4078 -0.1268
  821MPD2    C412080   2.406   2.619  12.897  0.3407 -0.3650  0.0999
  821MPD2    C512081   2.269   2.605  12.894 -0.7622  0.2181  0.4435
  821MPD2     H12082   2.451   2.561  13.226  0.0649 -3.7256  0.2547
  821MPD2    H112083   2.441   2.665  12.805  1.9780 -1.2246  0.2928
  821MPD2    H212084   2.087   2.558  12.983 -0.3070 -0.5184  1.8765
  821MPD2    H312085   2.222   2.626  12.800  1.7717  0.0099 -0.8767
  821MPD2     N12086   2.603   2.648  13.015  0.3136  0.4899 -0.2615
  821MPD2    H512087   2.634   2.691  12.929 -1.2647  2.0096 -0.0534
  821MPD2    N112088   2.205   2.501  13.241 -0.1009  0.1355 -0.1635
  821MPD2    H712089   2.263   2.490  13.324 -2.4041 -1.0523  1.2888
  822MPD2     C12090   2.022   2.493  15.773  0.2062 -0.5370  0.4095
  822MPD2    C112091   2.017   2.462  15.906 -0.4797 -0.8268  0.5292
  822MPD2    C212092   1.938   2.530  15.988 -0.1445 -0.0250 -0.1780
  822MPD2    C312093   1.846   2.632  15.941  0.3538  0.3012  0.2246
  822MPD2    C412094   1.840   2.656  15.809 -0.0768  0.4032 -0.7184
  822MPD2    C512095   1.936   2.593  15.734  0.4128 -0.5240  0.2804
  822MPD2     H12096   1.932   2.501  16.092 -0.0917 -1.9206 -0.6995
  822MPD2    H112097   1.774   2.728  15.761 -0.8315 -1.1331 -2.0063
  822MPD2    H212098   2.092   2.448  15.704  1.4443 -0.4736  1.6033
  822MPD2    H312099   1.950   2.617  15.629  0.7579  0.2814  0.5105
  822MPD2     N12100   1.757   2.704  16.027  0.0754  0.0543 -0.3593
  822MPD2    H512101   1.763   2.674  16.124  0.4381 -4.4002 -1.7284
  822MPD2    N112102   2.098   2.361  15.957 -0.7590  0.7829  0.2948
  822MPD2    H712103   2.114   2.366  16.057 -0.7178  0.1007  0.3214
  823MPD2     C12104   1.402   2.930  16.754 -0.0560 -0.6910 -0.0455
  823MPD2    C112105   1.448   2.844  16.663 -0.0403  0.0041  0.0955
  823MPD2    C212106   1.507   2.729  16.706 -0.1728 -0.1561  0.4033
  823MPD2    C312107   1.527   2.700  16.840  0.1231 -0.5430  0.1377
  823MPD2    C412108   1.458   2.780  16.931  0.2258  0.0481 -0.0771
  823MPD2    C512109   1.399   2.897  16.887 -0.0019 -0.8800 -0.4519
  823MPD2     H12110   1.535   2.653  16.635 -0.9655 -1.2056  1.2017
  823MPD2    H112111   1.463   2.767  17.039 -2.1526  0.8126  0.1305
  823MPD2    H212112   1.365   3.028  16.728  0.3024 -0.3989  0.5425
  823MPD2    H312113   1.354   2.967  16.955  1.2436  0.9497 -1.5210
  823MPD2     N12114   1.608   2.596  16.899  0.3204 -0.3642  0.8887
  823MPD2    H512115   1.626   2.596  16.999 -2.3343 -0.2691  1.3764
  823MPD2    N112116   1.443   2.883  16.523  0.2958  0.6858 -0.2906
  823MPD2    H712117   1.422   2.979  16.498 -1.0102  0.4681 -0.0387
  824MPD2     C12118   2.382   1.627  15.831  0.6161  0.3739 -0.3258
  824MPD2    C112119   2.472   1.713  15.883 -0.4374 -0.0532  0.1787
  824MPD2    C212120   2.609   1.686  15.866 -0.3477  0.0589 -0.4482
  824MPD2    C312121   2.649   1.567  15.813  0.0892  0.5276 -0.4195
  824MPD2    C412122   2.553   1.481  15.760  0.1037  0.3458 -0.0552
  824MPD2    C512123   2.418   1.514  15.768 -0.7905  0.1569  0.4466
  824MPD2     H12124   2.678   1.756  15.912  1.2566 -1.1932 -0.9719
  824MPD2    H112125   2.570   1.388  15.707  0.3027  0.4555 -0.1833
  824MPD2    H212126   2.277   1.649  15.820  0.2445 -1.7191 -1.0188
  824MPD2    H312127   2.348   1.439  15.732 -1.4034  0.6606  0.5950
  824MPD2     N12128   2.784   1.530  15.810  0.3060  0.5761 -0.9606
  824MPD2    H512129   2.849   1.592  15.856 -1.6598  0.0576  2.5124
  824MPD2    N112130   2.420   1.827  15.951 -0.0048  0.0982 -0.0113
  824MPD2    H712131   2.322   1.849  15.961 -0.1134  0.8585 -2.5525
  825MPD2     C12132   3.483   1.586  15.295 -0.4722 -0.4585 -0.3956
  825MPD2    C112133   3.390   1.656  15.370  0.1722  0.1249  0.2451
  825MPD2    C212134   3.364   1.794  15.352  0.3354 -0.5030 -0.6599
  825MPD2    C312135   3.439   1.864  15.259 -0.2938 -0.4268 -0.5818
  825MPD2    C412136   3.535   1.802  15.187  0.1476  0.2489 -0.2574
  825MPD2    C512137   3.557   1.664  15.203  0.5640 -0.0317  0.2081
  825MPD2     H12138   3.282   1.843  15.403  0.5241  1.5652 -2.3554
  825MPD2    H112139   3.601   1.850  15.116  0.2299 -1.1397 -1.1234
  825MPD2    H212140   3.509   1.481  15.306  1.1784  0.0583  0.5714
  825MPD2    H312141   3.633   1.613  15.144 -0.3635 -3.3205  1.8682
  825MPD2     N12142   3.426   2.005  15.240 -0.1068  0.1149  0.0271
  825MPD2    H512143   3.484   2.042  15.165  0.8552 -0.2699  0.5740
  825MPD2    N112144   3.313   1.578  15.464 -0.4410 -0.7410 -0.1167
  825MPD2    H712145   3.326   1.479  15.445  3.9129 -0.3496  0.7977
  826MPD2     C12146   2.967   1.847  13.772  0.1779  0.8190 -0.1757
  826MPD2    C112147   2.928   1.878  13.641 -0.0800 -0.9643  0.2637
  826MPD2    C212148   2.841   1.983  13.620  0.7310  0.5676  0.7985
  826MPD2    C312149   2.782   2.058  13.723 -0.2866  0.4275  0.5789
  826MPD2    C412150   2.829   2.030  13.853 -0.5475 -0.7467 -0.1966
  826MPD2    C512151   2.917   1.929  13.873  0.5766 -0.3458  0.1522
  826MPD2     H12152   2.813   2.015  13.520 -0.1339  0.7352  1.0962
  826MPD2    H112153   2.794   2.093  13.934 -2.1518 -1.1841 -0.5531
  826MPD2    H212154   3.037   1.769  13.801 -2.3054 -1.4100 -0.1960
  826MPD2    H312155   2.941   1.906  13.976  0.3626 -1.5387 -0.0653
  826MPD2     N12156   2.695   2.168  13.702 -0.1315  0.5968  0.0812
  826MPD2    H512157   2.648   2.213  13.780 -1.2309  0.8175 -0.7077
  826MPD2    N112158   2.969   1.785  13.542  0.0902 -0.2977 -0.2806
  826MPD2    H712159   3.021   1.704  13.575  2.5499  0.6255 -1.8975
  827MPD2     C12160   3.879   3.498   9.720  0.3396  0.1760 -0.5757
  827MPD2    C112161   3.921   3.376   9.766 -0.4129 -0.6320 -1.2512
  827MPD2    C212162   3.915   3.265   9.687 -0.1028 -0.7118  0.1749
  827MPD2    C312163   3.864   3.279   9.558  0.5630 -0.1035 -0.9298
  827MPD2    C412164   3.812   3.401   9.519 -0.2195  0.2295  0.3320
  827MPD2    C512165   3.817   3.509   9.600  0.0945 -0.4425 -0.4050
  827MPD2     H12166   3.933   3.168   9.730  0.1124 -1.0509 -0.6853
  827MPD2    H112167   3.746   3.406   9.434  1.2000 -0.4470 -0.8135
  827MPD2    H212168   3.872   3.588   9.779  2.3886  0.3221 -0.5531
  827MPD2    H312169   3.769   3.597   9.558 -1.0264 -0.4124  0.9192
  827MPD2     N12170   3.855   3.167   9.479  0.2879  0.1261 -0.6516
  827MPD2    H512171   3.862   3.079   9.529 -0.2751 -0.3309 -1.3812
  827MPD2    N112172   3.964   3.361   9.906 -0.5330 -0.2905 -0.2123
  827MPD2    H712173   3.990   3.448   9.950 -1.2821  0.2846 -0.9014
  828MPD2     C12174   2.874   3.211  12.359  0.5685 -0.2454 -0.8802
  828MPD2    C112175   2.792   3.223  12.247 -0.4354 -0.3884  0.8038
  828MPD2    C212176   2.854   3.220  12.124 -0.0856  0.1297 -1.1787
  828MPD2    C312177   2.990   3.216  12.117 -0.1952 -0.5932 -0.3063
  828MPD2    C412178   3.069   3.199  12.229 -0.1308  0.0117  0.1857
  828MPD2    C512179   3.010   3.201  12.350  0.1962 -0.0497 -0.4001
  828MPD2     H12180   2.789   3.216  12.038 -1.3259 -0.3692 -0.2211
  828MPD2    H112181   3.175   3.182  12.217  0.3489  1.7225  1.9983
  828MPD2    H212182   2.823   3.214  12.454 -0.3868  0.0927 -1.4054
  828MPD2    H312183   3.067   3.177  12.439  0.2349  0.8331 -0.1817
  828MPD2     N12184   3.058   3.216  11.992  0.0403 -0.1773  0.2486
  828MPD2    H512185   3.159   3.215  12.000  0.0252 -1.3952  0.3005
  828MPD2    N112186   2.651   3.199  12.243  0.2367  0.3258  0.3630
  828MPD2    H712187   2.609   3.217  12.151 -0.2905  1.2636  0.7810
  829MPD2     C12188   2.120   3.093  11.566 -0.2228  0.1836 -0.1216
  829MPD2    C112189   2.044   3.081  11.681  0.2393  0.0319 -0.3499
  829MPD2    C212190   2.104   3.038  11.795  0.3358  0.3837 -0.3128
  829MPD2    C312191   2.246   3.028  11.804 -0.7388  0.8518 -0.3181
  829MPD2    C412192   2.322   3.056  11.690 -0.2083 -0.8090  0.1996
  829MPD2    C512193   2.256   3.088  11.571 -0.0167  0.0754  0.1386
  829MPD2     H12194   2.046   3.027  11.887  1.2068 -1.6552 -0.0192
  829MPD2    H112195   2.429   3.061  11.702 -0.2461  0.8110 -0.1526
  829MPD2    H212196   2.062   3.106  11.475  1.0421  0.1911 -0.9269
  829MPD2    H312197   2.313   3.108  11.481 -0.5218  0.6186 -0.0596
  829MPD2     N12198   2.312   2.999  11.930 -0.2775 -0.5482  0.2238
  829MPD2    H512199   2.412   3.012  11.937  0.2475 -2.6808 -3.0472
  829MPD2    N112200   1.906   3.074  11.666  0.1332  0.1626  0.4940
  829MPD2    H712201   1.872   3.114  11.579  1.2418 -0.3131 -0.1750
  830MPD2     C12202   2.423   0.700  15.670 -0.3063  0.1116  0.3800
  830MPD2    C112203   2.425   0.830  15.717  0.4209 -0.1894  0.6517
  830MPD2    C212204   2.462   0.932  15.628 -0.4716 -0.8861  0.4065
  830MPD2    C312205   2.475   0.917  15.494  0.5913 -0.4907  0.2084
  830MPD2    C412206   2.464   0.790  15.450  0.4531  0.3343 -0.1999
  830MPD2    C512207   2.447   0.684  15.536  0.3572 -0.5610  0.8087
  830MPD2     H12208   2.479   1.028  15.676 -2.5777 -1.4395  2.2730
  830MPD2    H112209   2.474   0.770  15.344 -0.6260 -1.4468  0.0396
  830MPD2    H212210   2.391   0.618  15.733  0.1309  0.1536  0.6585
  830MPD2    H312211   2.440   0.582  15.498  0.5079  0.1791 -1.2254
  830MPD2     N12212   2.493   1.022  15.402  0.8912  0.3645 -0.2795
  830MPD2    H512213   2.496   1.011  15.302  4.1177  2.6979 -0.4468
  830MPD2    N112214   2.398   0.871  15.850 -0.1151 -0.5233  0.4406
  830MPD2    H712215   2.408   0.970  15.873  0.5963  0.1233 -2.6437
  831MPD2     C12216   1.964   2.851  16.416  0.4872 -0.1291  1.7541
  831MPD2    C112217   1.988   2.746  16.334 -0.1171 -0.3386 -0.0652
  831MPD2    C212218   1.902   2.636  16.338 -0.0054 -0.5545 -0.0092
  831MPD2    C312219   1.799   2.629  16.432  0.4947 -0.1048 -0.1360
  831MPD2    C412220   1.794   2.729  16.527 -0.2205 -0.2600 -0.4424
  831MPD2    C512221   1.866   2.845  16.516 -0.0270  0.0698 -0.2989
  831MPD2     H12222   1.929   2.550  16.278  1.4460  0.7307 -1.1978
  831MPD2    H112223   1.721   2.720  16.606  0.6196  1.2051  0.4906
  831MPD2    H212224   2.016   2.946  16.411  0.4689 -0.2570 -0.8524
  831MPD2    H312225   1.844   2.925  16.586 -1.0678  0.6399 -1.2711
  831MPD2     N12226   1.715   2.514  16.442  0.1297  0.5013 -0.0082
  831MPD2    H512227   1.666   2.497  16.529  0.5736  0.3338  0.2091
  831MPD2    N112228   2.107   2.755  16.253  0.4429 -0.3419 -0.7325
  831MPD2    H712229   2.147   2.848  16.245  0.2907 -0.1469  0.6943
  832MPD2     C12230   0.152   3.347  17.420 -0.6293  0.5515  0.1023
  832MPD2    C112231   0.171   3.479  17.388 -0.1874  0.0443  0.4559
  832MPD2    C212232   0.095   3.536  17.286  0.3476 -0.4483 -0.7568
  832MPD2    C312233   4.710   3.465  17.234  0.0786 -1.4076 -0.0746
  832MPD2    C412234   4.692   3.335  17.273 -0.4728 -0.1915  0.2311
  832MPD2    C512235   0.054   3.273  17.364 -0.3352 -0.6615 -0.0937
  832MPD2     H12236   0.113   3.636  17.246  1.3867  0.1599  1.2467
  832MPD2    H112237   4.608   3.286  17.226  0.5268 -0.7563 -0.9597
  832MPD2    H212238   0.222   3.298  17.488 -0.8708 -0.5759 -0.4617
  832MPD2    H312239   0.045   3.170  17.395 -0.0354 -1.2123 -1.8584
  832MPD2     N12240   4.609   3.514  17.143 -0.0448 -0.4585  0.4907
  832MPD2    H512241   4.525   3.460  17.124 -1.6470  2.1363  0.1579
  832MPD2    N112242   0.288   3.544  17.439  0.0867  0.0373  0.1264
  832MPD2    H712243   0.343   3.503  17.513 -0.9978  0.0700  0.9484
  833MPD2     C12244   3.026   0.910  12.225  0.3514  0.1633  0.3449
  833MPD2    C112245   3.021   1.039  12.233  0.1291 -0.8873  0.1706
  833MPD2    C212246   3.139   1.112  12.209  0.3557 -0.0964  0.4252
  833MPD2    C312247   3.259   1.045  12.175  0.0726  0.4941 -0.6013
  833MPD2    C412248   3.258   0.908  12.182 -0.1288 -0.8026 -1.0455
  833MPD2    C512249   3.141   0.838  12.213  0.0473  0.1274 -0.0497
  833MPD2     H12250   3.132   1.218  12.191 -1.5380  0.2024  2.9009
  833MPD2    H112251   3.346   0.847  12.167  1.0465 -0.3400  3.9748
  833MPD2    H212252   2.936   0.851  12.238 -0.4041  1.4802  1.1271
  833MPD2    H312253   3.143   0.732  12.191  1.4845  0.0594  0.4714
  833MPD2     N12254   3.363   1.120  12.121  1.0776  0.1607  0.1484
  833MPD2    H512255   3.356   1.220  12.137  2.3846  0.5941 -2.0642
  833MPD2    N112256   2.895   1.104  12.266 -0.1067  0.0686  0.2883
  833MPD2    H712257   2.818   1.044  12.292  0.5616  0.2865  2.7827
  834MPD2     C12258   3.691   1.055  11.208 -0.1786 -0.6849 -0.4975
  834MPD2    C112259   3.670   0.956  11.305 -0.8049 -0.0735  0.2173
  834MPD2    C212260   3.645   0.988  11.435 -0.1787 -0.3387 -0.9128
  834MPD2    C312261   3.653   1.128  11.468  0.7307 -0.7030 -0.2170
  834MPD2    C412262   3.679   1.225  11.374 -1.0060 -0.2228  0.1605
  834MPD2    C512263   3.698   1.188  11.242 -0.7657 -0.2876  0.5054
  834MPD2     H12264   3.610   0.913  11.504 -0.7435  1.3551  0.6395
  834MPD2    H112265   3.692   1.332  11.392  0.6092 -0.5814  1.0830
  834MPD2    H212266   3.716   1.033  11.105  0.8243 -0.5695 -0.2773
  834MPD2    H312267   3.719   1.270  11.175  0.6755 -1.0355  0.0468
  834MPD2     N12268   3.613   1.167  11.600  0.0539 -0.3694 -0.3034
  834MPD2    H512269   3.586   1.090  11.661 -1.7497  0.5274  0.0251
  834MPD2    N112270   3.658   0.827  11.263 -0.1931  0.0375  0.2671
  834MPD2    H712271   3.666   0.802  11.165  0.4531  0.2461  0.2692
  835MPD2     C12272   3.396   3.222  11.143  0.2415  0.0828  0.1653
  835MPD2    C112273   3.322   3.322  11.197 -0.1144  0.1061  0.3115
  835MPD2    C212274   3.373   3.416  11.284  0.0199 -0.3501  0.7226
  835MPD2    C312275   3.505   3.403  11.328 -0.5782  0.1496 -0.7426
  835MPD2    C412276   3.584   3.291  11.287  0.1901 -0.6603 -0.3469
  835MPD2    C512277   3.532   3.209  11.186  0.3490  0.4097 -0.0622
  835MPD2     H12278   3.309   3.494  11.322  2.3311  3.1995 -2.7126
  835MPD2    H112279   3.684   3.278  11.328 -0.3303 -0.2434  1.0543
  835MPD2    H212280   3.351   3.143  11.084  0.2735 -1.4263  2.1577
  835MPD2    H312281   3.596   3.129  11.152 -2.9245 -0.4696 -4.1109
  835MPD2     N12282   3.567   3.498  11.415 -0.1018 -0.2775 -0.0469
  835MPD2    H512283   3.659   3.471  11.451  0.3617 -1.8726 -2.4428
  835MPD2    N112284   3.183   3.333  11.167 -0.1634 -0.6349 -0.3962
  835MPD2    H712285   3.132   3.408  11.211  2.3758 -0.2279  1.8306
  836MPD2     C12286   3.050   3.607  11.698 -0.3559 -0.3994 -0.0738
  836MPD2    C112287   3.133   3.610  11.809 -0.1011 -0.4343 -0.3534
  836MPD2    C212288   3.078   3.576  11.929 -0.5188  0.5960  0.4821
  836MPD2    C312289   2.937   3.562  11.941  0.1681 -0.0105 -1.0880
  836MPD2    C412290   2.864   3.567  11.824  0.1182  0.1070  0.5543
  836MPD2    C512291   2.918   3.579  11.706  0.0493  0.3064  0.0050
  836MPD2     H12292   3.147   3.570  12.012  0.0147  1.6683  0.1179
  836MPD2    H112293   2.755   3.565  11.825  0.0608  1.7036 -2.0431
  836MPD2    H212294   3.096   3.617  11.601 -2.5217  3.2157 -0.7292
  836MPD2    H312295   2.849   3.583  11.622 -0.5448  0.3231  0.4985
  836MPD2     N12296   2.873   3.560  12.066  0.2708 -0.2424  0.5187
  836MPD2    H512297   2.773   3.575  12.055 -0.0641 -1.5597  1.6827
  836MPD2    N112298   3.273   3.625  11.790 -0.1324 -0.1428 -0.0529
  836MPD2    H712299   3.299   3.640  11.693 -1.5147  0.7400 -0.2988
  837MPD2     C12300   1.967   3.129   9.871 -0.0110  0.0075  0.2847
  837MPD2    C112301   1.832   3.131   9.874 -0.4569 -0.5061  0.8461
  837MPD2    C212302   1.774   3.258   9.875  0.4067  0.8107 -0.7441
  837MPD2    C312303   1.847   3.377   9.872  0.3937 -0.0175  0.1440
  837MPD2    C412304   1.982   3.369   9.852  0.0738 -0.6931 -0.7084
  837MPD2    C512305   2.040   3.245   9.859  0.6833  0.2271  0.1853
  837MPD2     H12306   1.667   3.276   9.876 -0.0680 -2.1911  1.2873
  837MPD2    H112307   2.046   3.455   9.835 -0.7718  0.5335  2.3007
  837MPD2    H212308   2.014   3.032   9.870  0.9101  0.4587 -0.2656
  837MPD2    H312309   2.148   3.242   9.848  0.7499 -2.2673  1.5992
  837MPD2     N12310   1.771   3.496   9.891 -0.3606  0.4888 -0.2148
  837MPD2    H512311   1.677   3.483   9.925  0.9010 -3.7385  1.6024
  837MPD2    N112312   1.760   3.011   9.869 -0.6435  0.2272 -0.1441
  837MPD2    H712313   1.805   2.927   9.904 -0.0355  0.3720 -0.5825
  838MPD2     C12314   0.107   1.288  11.415  0.2814 -0.2816 -0.0146
  838MPD2    C112315   0.024   1.377  11.473  0.0067 -0.0984  0.9893
  838MPD2    C212316   4.605   1.354  11.483  0.3723  0.4023  0.5411
  838MPD2    C312317   4.550   1.237  11.443  1.2798  0.7341  0.4856
  838MPD2    C412318   4.633   1.143  11.388  0.2057  0.1001  0.4997
  838MPD2    C512319   0.050   1.168  11.379  0.1010  0.6474  0.1017
  838MPD2     H12320   4.538   1.429  11.523  0.0733  1.4356 -1.8945
  838MPD2    H112321   4.587   1.051  11.354 -1.2814  1.5432 -1.4279
  838MPD2    H212322   0.214   1.298  11.399  0.2307  0.6103  0.1840
  838MPD2    H312323   0.116   1.091  11.339 -0.1193  0.3152  0.3838
  838MPD2     N12324   4.406   1.234  11.431  0.4003 -0.2139 -0.3692
  838MPD2    H512325   4.364   1.314  11.477  0.5259 -0.6703  0.5501
  838MPD2    N112326   0.082   1.492  11.529  0.2168 -0.7045  0.9183
  838MPD2    H712327   0.183   1.496  11.520 -0.0441  2.1290 -1.0259
  839MPD2     C12328   0.050   1.097  12.033 -0.2249 -0.3712 -0.0354
  839MPD2    C112329   0.078   1.128  11.900  0.3550 -0.0086 -0.9227
  839MPD2    C212330   0.159   1.234  11.862 -0.0686  0.0870 -0.0950
  839MPD2    C312331   0.187   1.326  11.962 -1.0174  0.5504  0.8835
  839MPD2    C412332   0.160   1.295  12.095 -0.1303  0.1885  0.9143
  839MPD2    C512333   0.101   1.180  12.134  0.5526  0.7937  0.3816
  839MPD2     H12334   0.183   1.251  11.758 -2.0426 -1.3721 -0.7778
  839MPD2    H112335   0.202   1.359  12.171 -0.5805 -0.1194  1.4283
  839MPD2    H212336   4.715   1.007  12.059 -1.1051 -0.5594 -2.4996
  839MPD2    H312337   0.095   1.161  12.240 -1.5297  0.0269  0.1344
  839MPD2     N12338   0.259   1.449  11.931  0.2264 -0.2176  0.2412
  839MPD2    H512339   0.268   1.525  11.997  0.0626 -0.3531  0.4179
  839MPD2    N112340   0.019   1.049  11.801  0.2329  0.6411  0.5272
  839MPD2    H712341   0.050   1.070  11.707 -0.0619  0.8433  0.4737
  840MPD2     C12342   4.448   3.693  10.090 -0.3646 -0.0134 -0.2419
  840MPD2    C112343   4.414   3.614  10.201  0.1142  0.3869  0.3003
  840MPD2    C212344   4.495   3.628  10.318  0.4796  0.2498  0.4563
  840MPD2    C312345   4.609   3.704  10.327  0.5604  0.5507 -0.1035
  840MPD2    C412346   4.641   3.779  10.215  0.1192 -0.6952  0.4785
  840MPD2    C512347   4.568   3.761  10.100  0.1686  0.1206  0.3087
  840MPD2     H12348   4.466   3.566  10.401  0.2559  2.0290  1.6996
  840MPD2    H112349   0.013   3.840  10.220 -0.7734  0.5434  1.2976
  840MPD2    H212350   4.383   3.701  10.004 -0.4662 -0.5080 -0.2151
  840MPD2    H312351   4.603   3.816  10.013  2.4534 -0.5973  0.7822
  840MPD2     N12352   4.689   3.719  10.445  0.0564  0.5444 -0.2489
  840MPD2    H512353   0.059   3.770  10.450  1.2805 -1.6131 -0.1798
  840MPD2    N112354   4.299   3.538  10.192  0.1971 -0.2697 -0.0613
  840MPD2    H712355   4.246   3.548  10.106  1.1401  1.6687 -0.4133
  841MPD2     C12356   3.809   3.120  14.310 -0.3501  0.4653  0.3286
  841MPD2    C112357   3.886   3.054  14.219  0.1266 -0.3962 -1.0615
  841MPD2    C212358   4.008   3.108  14.182  0.5805 -0.0051  0.0945
  841MPD2    C312359   4.051   3.225  14.225  0.0340 -0.1836 -0.3702
  841MPD2    C412360   3.968   3.296  14.310 -0.8448 -0.7670 -1.4326
  841MPD2    C512361   3.847   3.245  14.348 -0.5467 -0.1097  0.7327
  841MPD2     H12362   4.064   3.044  14.114  0.1943  0.5455 -0.7549
  841MPD2    H112363   4.004   3.387  14.357 -0.6918 -1.1782 -0.7437
  841MPD2    H212364   3.711   3.090  14.343 -0.1719 -0.6436 -0.1677
  841MPD2    H312365   3.788   3.301  14.420 -3.1281 -1.4540 -0.3383
  841MPD2     N12366   4.176   3.271  14.182  0.2197  0.4142 -0.0188
  841MPD2    H512367   4.217   3.209  14.113 -0.8416  0.8471 -1.0328
  841MPD2    N112368   3.856   2.916  14.178 -0.8336 -0.1288  0.2999
  841MPD2    H712369   3.917   2.883  14.103 -0.0661 -0.2971  0.9986
  842MPD2     C12370   3.681   3.765  17.056 -0.0949 -0.6902  0.0725
  842MPD2    C112371   3.748   3.888  17.072  0.0035 -0.1640 -0.2941
  842MPD2    C212372   3.846   3.897  17.170  0.0930 -0.6179  0.1396
  842MPD2    C312373   3.859   3.802  17.265 -0.7774  0.4414 -0.1002
  842MPD2    C412374   3.803   3.675  17.245  0.3192 -0.3173 -0.2553
  842MPD2    C512375   3.715   3.658  17.138 -0.3333 -0.2241  0.8800
  842MPD2     H12376   3.892   3.993  17.188  0.5004 -0.3402 -2.3699
  842MPD2    H112377   3.812   3.589  17.310  0.9891 -0.4153 -0.4831
  842MPD2    H212378   3.608   3.749  16.978 -2.6956  1.0709  2.1553
  842MPD2    H312379   3.667   3.564  17.112  1.7320 -0.4318 -2.0516
  842MPD2     N12380   3.930   3.827  17.382 -0.4079 -0.8123 -0.2892
  842MPD2    H512381   3.927   3.747  17.445  2.7967 -1.4355 -0.9386
  842MPD2    N112382   3.717   3.994  16.984  0.3272  0.5566  0.0313
  842MPD2    H712383   3.627   3.990  16.936  0.0054 -0.8942  0.7583
  843MPD2     C12384   2.180   4.307   0.502  0.1834  0.1256 -0.0678
  843MPD2    C112385   2.312   4.289   0.529  0.7203  0.0777 -0.4381
  843MPD2    C212386   2.410   4.353   0.450 -0.6559  0.3006  0.5559
  843MPD2    C312387   2.367   4.418   0.333 -0.2092 -0.0698  0.0792
  843MPD2    C412388   2.235   4.430   0.302 -0.3712 -0.4424 -0.0507
  843MPD2    C512389   2.145   4.376   0.389 -0.4624 -0.2661  0.8971
  843MPD2     H12390   2.513   4.362   0.482  0.3020  0.3107 -2.5009
  843MPD2    H112391   2.207   4.489   0.216  1.1447  1.9078  1.0312
  843MPD2    H212392   2.097   4.272   0.561  1.7516 -0.7886  1.5866
  843MPD2    H312393   2.042   4.391   0.358  0.4330 -3.2837 -3.5849
  843MPD2     N12394   2.462   4.469   0.237 -0.1969 -0.6159  0.1969
  843MPD2    H512395   2.414   4.520   0.163 -1.2319 -0.9769  0.6167
  843MPD2    N112396   2.345   4.221   0.651  0.6076  0.3322  0.1570
  843MPD2    H712397   2.268   4.191   0.709  0.9545 -2.0919 -0.6556
  844MPD2     C12398   4.455   3.127  16.490  0.0360  0.0884 -0.0658
  844MPD2    C112399   4.560   3.051  16.538 -0.1787  0.6539  0.1256
  844MPD2    C212400   4.655   3.113  16.617  0.2421  0.7111  0.8911
  844MPD2    C312401   4.654   3.251  16.635 -0.1152  0.3846  0.4921
  844MPD2    C412402   4.542   3.324  16.593 -0.5032  0.1555  0.0349
  844MPD2    C512403   4.448   3.260  16.518 -0.0825  0.8518 -0.3743
  844MPD2     H12404   0.023   3.060  16.656 -0.2581 -0.7320  0.0419
  844MPD2    H112405   4.531   3.431  16.601 -0.4092  0.1700 -0.0264
  844MPD2    H212406   4.374   3.093  16.428 -0.9013  1.8779  0.1813
  844MPD2    H312407   4.361   3.321  16.495 -0.5824  0.2217 -0.1575
  844MPD2     N12408   0.035   3.318  16.715  0.1049  0.0192 -0.1447
  844MPD2    H512409   0.105   3.247  16.734  1.3829  1.2229 -0.3192
  844MPD2    N112410   4.588   2.922  16.494 -0.2763  0.4551  0.6436
  844MPD2    H712411   4.670   2.875  16.530 -0.2799 -0.8718 -1.1008
  845MPD2     C12412   0.623   4.175  17.082 -0.0537  0.3722 -0.5277
  845MPD2    C112413   0.541   4.148  17.185  0.3328 -0.5755  0.3059
  845MPD2    C212414   0.470   4.023  17.184 -0.1491  0.0490 -0.4472
  845MPD2    C312415   0.468   3.939  17.077  0.7259 -1.3780  0.1702
  845MPD2    C412416   0.552   3.971  16.976  0.0496 -0.1700  0.6402
  845MPD2    C512417   0.637   4.083  16.975  0.1182  0.2002  1.1423
  845MPD2     H12418   0.408   4.009  17.272  3.2670  0.3257  1.9910
  845MPD2    H112419   0.567   3.904  16.892 -2.5250 -2.2969  1.8836
  845MPD2    H212420   0.688   4.262  17.084 -1.3197  1.3853 -2.9190
  845MPD2    H312421   0.695   4.093  16.884 -2.9396  1.5723 -0.6757
  845MPD2     N12422   0.392   3.824  17.073  0.6263 -0.4833  0.2886
  845MPD2    H512423   0.354   3.795  17.163  0.1947  1.4721  0.7251
  845MPD2    N112424   0.534   4.245  17.293 -0.3665  0.1401  0.1070
  845MPD2    H712425   0.577   4.332  17.265  0.2330  0.1426  1.0475
  846MPD2     C12426   2.121   0.384  13.770  0.1923 -0.1773  0.2562
  846MPD2    C112427   2.001   0.452  13.777  0.3366 -0.4793  0.7942
  846MPD2    C212428   1.930   0.449  13.895  0.4906 -0.3401  0.3062
  846MPD2    C312429   1.964   0.383  14.008  0.3193  0.1301 -0.1636
  846MPD2    C412430   2.091   0.329  14.004 -0.0683 -0.2743 -0.0995
  846MPD2    C512431   2.166   0.323  13.884 -0.2233  0.1170  0.0410
  846MPD2     H12432   1.836   0.503  13.904  0.1854 -1.2000  2.1499
  846MPD2    H112433   2.138   0.282  14.089  2.6161  0.0834 -1.3802
  846MPD2    H212434   2.188   0.398  13.686 -1.6048  1.4157 -0.9195
  846MPD2    H312435   2.267   0.286  13.880 -0.0445  0.7147 -1.0220
  846MPD2     N12436   1.873   0.378  14.120 -0.0382 -0.2228  0.1937
  846MPD2    H512437   1.774   0.399  14.106 -0.3389 -0.5851  1.7364
  846MPD2    N112438   1.959   0.546  13.677 -0.0700 -0.1349 -0.4175
  846MPD2    H712439   1.871   0.594  13.692 -0.0462  0.7160 -2.9194
  847MPD2     C12440   1.921   1.175  14.261 -0.2237  0.4466 -0.7910
  847MPD2    C112441   2.050   1.211  14.297 -1.0880  0.0768 -0.1448
  847MPD2    C212442   2.127   1.121  14.364  0.1820  0.6345 -0.8527
  847MPD2    C312443   2.084   0.997  14.398  0.3144  0.6238  0.3991
  847MPD2    C412444   1.957   0.960  14.362  1.0383  0.3763 -0.4300
  847MPD2    C512445   1.876   1.049  14.294 -0.2444  0.4454 -0.2967
  847MPD2     H12446   2.229   1.150  14.386  0.6081 -1.0259 -0.6233
  847MPD2    H112447   1.929   0.855  14.370 -0.6008  0.8435 -0.0276
  847MPD2    H212448   1.854   1.240  14.207 -1.8195 -0.4063  0.1750
  847MPD2    H312449   1.779   1.021  14.253 -1.4328  3.4681  0.4728
  847MPD2     N12450   2.174   0.922  14.478 -0.0568  0.3707 -0.5108
  847MPD2    H512451   2.263   0.969  14.489 -0.7456  1.4613  0.5357
  847MPD2    N112452   2.103   1.337  14.285  0.8622 -0.2757  0.4706
  847MPD2    H712453   2.199   1.352  14.312  1.3951 -0.0282 -1.5879
  848MPD2     C12454   4.494   3.884  16.465  0.6903 -0.3466  0.1242
  848MPD2    C112455   4.467   3.940  16.593  0.4450  0.2029 -0.1475
  848MPD2    C212456   4.494   4.078  16.606 -0.5879  0.5908 -0.2387
  848MPD2    C312457   4.533   4.153  16.494 -0.1267 -0.6989 -0.4999
  848MPD2    C412458   4.555   4.087  16.377 -0.4212 -0.3086 -0.5668
  848MPD2    C512459   4.540   3.956  16.360  0.5291  0.4275  0.5705
  848MPD2     H12460   4.477   4.126  16.702 -3.0818 -0.1047 -0.3295
  848MPD2    H112461   4.585   4.140  16.287  1.2902 -1.4263 -0.6603
  848MPD2    H212462   4.472   3.781  16.438 -2.7383  0.4357 -0.1103
  848MPD2    H312463   4.559   3.906  16.265  0.5432  0.4385  0.5674
  848MPD2     N12464   4.546   4.293  16.494  0.6122 -0.2509 -0.3646
  848MPD2    H512465   4.561   4.330  16.400  0.5399 -0.1301 -0.3281
  848MPD2    N112466   4.411   3.866  16.699  0.1829 -0.1554 -0.1333
  848MPD2    H712467   4.427   3.908  16.790 -0.6122 -1.6977  0.7287
  849MPD2     C12468   3.727   3.908  14.094  0.3789 -0.8856 -0.3438
  849MPD2    C112469   3.827   3.982  14.038  0.9638 -0.9415  0.0010
  849MPD2    C212470   3.958   3.958  14.083 -0.3313  0.3764 -0.2284
  849MPD2    C312471   3.983   3.850  14.163 -0.3502  0.3688 -0.1001
  849MPD2    C412472   3.885   3.775  14.220  0.3896  0.2623  0.2385
  849MPD2    C512473   3.759   3.809  14.187  0.5755  0.2949 -0.4027
  849MPD2     H12474   4.038   4.024  14.049  0.6973 -0.2459  0.9664
  849MPD2    H112475   3.912   3.698  14.291 -2.0446 -0.0067  0.8807
  849MPD2    H212476   3.624   3.918  14.062  0.6185  0.3573 -0.7159
  849MPD2    H312477   3.680   3.756  14.239  0.0805  3.5359  2.1757
  849MPD2     N12478   4.117   3.808  14.158  0.3052 -0.2802 -0.5484
  849MPD2    H512479   4.173   3.861  14.091  0.0571  2.2435  1.2326
  849MPD2    N112480   3.811   4.090  13.944 -0.8345 -0.1726 -0.5713
  849MPD2    H712481   3.888   4.156  13.934  0.8220 -2.1715 -0.8790
  850MPD2     C12482   1.775   1.736  14.871  0.0756 -0.2681 -0.4456
  850MPD2    C112483   1.776   1.846  14.956 -0.3921  0.3334 -0.3091
  850MPD2    C212484   1.898   1.895  14.999 -0.3930  0.1393  0.4772
  850MPD2    C312485   2.017   1.833  14.975 -0.0462  0.7485  0.3737
  850MPD2    C412486   2.010   1.714  14.906 -0.0475 -0.1294  0.0364
  850MPD2    C512487   1.894   1.671  14.853  0.0644 -0.2678 -0.3987
  850MPD2     H12488   1.904   1.985  15.060  3.4426  0.4260 -0.3027
  850MPD2    H112489   2.097   1.658  14.876 -1.2260 -1.2494 -1.2958
  850MPD2    H212490   1.687   1.698  14.820  1.2428 -1.8972 -1.2484
  850MPD2    H312491   1.893   1.578  14.797  1.2960 -0.5404  0.0324
  850MPD2     N12492   2.145   1.878  15.018  0.1550 -0.2520  0.3186
  850MPD2    H512493   2.220   1.818  14.986  0.1182 -0.3173  0.3557
  850MPD2    N112494   1.648   1.893  15.003  0.2228 -0.0595  0.0154
  850MPD2    H712495   1.572   1.832  14.974  2.3358 -2.3779 -0.6695
  851MPD2     C12496   2.236   1.911  15.595  0.1021  0.1145  0.0579
  851MPD2    C112497   2.165   1.838  15.501 -0.7608 -0.0437  0.1873
  851MPD2    C212498   2.234   1.750  15.426  0.6429  0.0387 -0.1948
  851MPD2    C312499   2.369   1.717  15.449 -0.1932 -0.2701  0.1319
  851MPD2    C412500   2.438   1.788  15.543  0.4021  0.1684 -0.1005
  851MPD2    C512501   2.363   1.880  15.611 -0.2555 -0.5533  0.3759
  851MPD2     H12502   2.185   1.702  15.342  1.4264 -1.1032  0.0066
  851MPD2    H112503   2.543   1.769  15.561  0.0387 -2.2328 -0.5680
  851MPD2    H212504   2.183   1.985  15.654 -0.1436  1.0351 -1.3247
  851MPD2    H312505   2.422   1.935  15.683 -1.5555  1.9962 -0.5037
  851MPD2     N12506   2.422   1.612  15.372 -0.0248  0.4244  0.0898
  851MPD2    H512507   2.356   1.558  15.318 -0.7222  0.6487  0.7253
  851MPD2    N112508   2.028   1.880  15.486  0.7062  0.2871 -0.8163
  851MPD2    H712509   2.000   1.967  15.530 -1.0655 -1.3105  1.2214
  852MPD2     C12510   2.407   4.621  10.141 -1.0917 -0.3811 -0.3702
  852MPD2    C112511   2.494   4.691  10.211 -0.5473 -0.1480 -0.4720
  852MPD2    C212512   2.600   0.033  10.157 -0.0852  0.0073  0.4186
  852MPD2    C312513   2.611   0.030  10.015  0.2446 -0.0950  0.3990
  852MPD2    C412514   2.514   4.686   9.939  0.4132 -0.0599  0.8889
  852MPD2    C512515   2.415   4.619  10.001 -0.0316  0.3367  0.3428
  852MPD2     H12516   2.672   0.091  10.214 -0.2583  0.1963  0.4472
  852MPD2    H112517   2.523   4.685   9.831 -1.7145  2.4107  0.6941
  852MPD2    H212518   2.320   4.567  10.178 -0.9983 -0.0103  0.3805
  852MPD2    H312519   2.339   4.572   9.940 -0.8458  0.7534  1.0340
  852MPD2     N12520   2.720   0.099   9.957 -0.0988 -0.5271 -0.2790
  852MPD2    H512521   2.794   0.132  10.018  0.2817  2.5549 -2.4145
  852MPD2    N112522   2.488   4.693  10.353  0.0470 -0.4643  0.1085
  852MPD2    H712523   2.543   0.046  10.400 -3.1814  1.3908  1.0691
  853MPD2     C12524   4.272   0.154  12.280  0.5089 -0.7554 -0.6656
  853MPD2    C112525   4.179   0.184  12.185 -0.0435  0.0792  0.0772
  853MPD2    C212526   4.225   0.223  12.062  0.1549 -0.6211  0.0798
  853MPD2    C312527   4.358   0.231  12.033 -0.3816  0.2208  1.1354
  853MPD2    C412528   4.450   0.204  12.131  0.0749 -0.1536  0.3238
  853MPD2    C512529   4.407   0.170  12.259 -0.0579 -0.9845  0.1472
  853MPD2     H12530   4.150   0.255  11.990  0.5780 -1.0523 -0.5577
  853MPD2    H112531   4.554   0.202  12.101  0.1986  1.7894  0.6281
  853MPD2    H212532   4.232   0.109  12.370  0.8061 -1.0387 -0.6750
  853MPD2    H312533   4.475   0.136  12.336  0.1180  2.7702  1.6768
  853MPD2     N12534   4.407   0.262  11.903  0.3168 -0.1488 -0.3185
  853MPD2    H512535   4.508   0.262  11.891  0.1374  1.3720 -1.8094
  853MPD2    N112536   4.044   0.183  12.223 -0.3260  0.9373  0.4066
  853MPD2    H712537   4.013   0.152  12.315 -3.3795  1.2088 -0.5248
  854MPD2     C12538   0.998   4.285  12.494 -0.5634 -0.0879  0.5188
  854MPD2    C112539   1.048   4.408  12.474  0.6185 -0.0734 -0.3784
  854MPD2    C212540   1.180   4.427  12.512 -0.0765 -0.2242  0.0118
  854MPD2    C312541   1.253   4.331  12.591  0.2790 -0.9894  0.2268
  854MPD2    C412542   1.191   4.216  12.615 -0.0468 -0.1296 -0.2763
  854MPD2    C512543   1.071   4.197  12.562  0.2818  0.0141  0.0186
  854MPD2     H12544   1.230   4.518  12.480 -0.5319  0.0177 -0.0174
  854MPD2    H112545   1.249   4.143  12.671 -1.9950 -1.1120  0.4590
  854MPD2    H212546   0.908   4.252  12.444 -1.5579  4.4041 -0.5997
  854MPD2    H312547   1.023   4.100  12.574 -1.6448  0.8226 -1.0576
  854MPD2     N12548   1.378   4.355  12.648 -0.0362 -0.0806 -0.1014
  854MPD2    H512549   1.414   4.277  12.702 -0.4340  0.4343  0.8988
  854MPD2    N112550   0.960   4.508  12.417  0.3841 -0.2284 -0.9155
  854MPD2    H712551   0.865   4.482  12.394  0.3212 -0.2130 -0.6738
  855MPD2     C12552   1.626   0.010  13.492  0.1368  0.6555 -0.2036
  855MPD2    C112553   1.692   4.616  13.443 -0.6988 -0.2501  0.3402
  855MPD2    C212554   1.711   4.606  13.309 -0.7202 -0.0237  0.0308
  855MPD2    C312555   1.646   4.694  13.219  0.2569  0.5670 -0.5686
  855MPD2    C412556   1.570   0.080  13.270 -0.2804  0.2244 -0.2439
  855MPD2    C512557   1.570   0.103  13.406  0.2680 -0.6970 -0.4194
  855MPD2     H12558   1.760   4.515  13.276 -2.2228 -0.3961 -1.1718
  855MPD2    H112559   1.517   0.151  13.207 -0.0391 -0.3329 -1.0835
  855MPD2    H212560   1.609   0.026  13.598 -0.3358 -1.4454  0.0351
  855MPD2    H312561   1.514   0.184  13.450 -0.2770 -1.2429 -0.1043
  855MPD2     N12562   1.651   4.671  13.081  0.4325  0.0076 -0.5970
  855MPD2    H512563   1.583   4.713  13.018  1.1062  1.4058 -0.4071
  855MPD2    N112564   1.726   4.504  13.522  0.0166  0.5581  0.2562
  855MPD2    H712565   1.764   4.431  13.462 -0.4643  0.3525  0.2055
  856MPD2     C12566   3.207   1.058  14.071  0.5477  0.2331 -0.4152
  856MPD2    C112567   3.226   1.193  14.035  0.4145  0.2576 -0.5311
  856MPD2    C212568   3.109   1.270  14.030  0.4485  0.5438  0.0069
  856MPD2    C312569   2.983   1.220  14.051  0.0217  0.0322 -0.3387
  856MPD2    C412570   2.965   1.085  14.092 -0.4753  0.1510 -0.1163
  856MPD2    C512571   3.079   1.014  14.098  0.0570 -0.6639  0.5992
  856MPD2     H12572   3.118   1.375  14.006 -0.8218  0.3803 -1.1942
  856MPD2    H112573   2.870   1.038  14.113 -1.7966  2.7051 -0.3492
  856MPD2    H212574   3.291   0.990  14.081  0.7134  0.6195  0.7774
  856MPD2    H312575   3.066   0.910  14.123 -0.5610  0.1164  3.4679
  856MPD2     N12576   2.877   1.311  14.033  0.5356  0.2913 -0.5224
  856MPD2    H512577   2.902   1.405  14.005  1.7346 -0.0928 -0.7492
  856MPD2    N112578   3.350   1.252  13.996  0.4117 -0.2574 -0.2942
  856MPD2    H712579   3.344   1.347  13.960  1.0935 -0.1677 -0.1687
  857MPD2     C12580   0.077   3.002  12.780 -0.7927  0.3319  0.9901
  857MPD2    C112581   0.150   2.971  12.662 -0.4800  0.0038 -0.2708
  857MPD2    C212582   0.189   3.082  12.591 -0.7486 -0.2348  0.1371
  857MPD2    C312583   0.172   3.212  12.630  0.3211 -0.8952  0.1568
  857MPD2    C412584   0.091   3.236  12.741  0.1887 -0.5782  0.5668
  857MPD2    C512585   0.052   3.131  12.815 -0.0986  0.7795  0.3424
  857MPD2     H12586   0.253   3.065  12.505  0.3712 -0.8358  1.0846
  857MPD2    H112587   0.079   3.337  12.778  0.5956 -0.1512 -0.4560
  857MPD2    H212588   0.043   2.923  12.846  0.9841 -0.7742  0.5755
  857MPD2    H312589   0.010   3.150  12.913 -0.2480  0.1095  0.4068
  857MPD2     N12590   0.253   3.308  12.566  0.1663 -0.3990  0.2788
  857MPD2    H512591   0.311   3.264  12.495 -1.5792  0.3818 -1.6317
  857MPD2    N112592   0.194   2.837  12.640 -0.8629  0.2663 -0.0757
  857MPD2    H712593   0.165   2.764  12.706  0.9151  0.6108  1.0923
  858MPD2     C12594   0.176   1.761  16.905  1.0437 -0.7571  0.8234
  858MPD2    C112595   0.308   1.723  16.886  0.8647 -0.4055 -0.6311
  858MPD2    C212596   0.407   1.800  16.946  0.0943  0.0474 -0.5228
  858MPD2    C312597   0.381   1.913  17.020 -0.1303  0.0224 -0.1280
  858MPD2    C412598   0.251   1.961  17.020 -0.0126 -0.6797  0.0992
  858MPD2    C512599   0.152   1.885  16.965  0.3643  0.4213  0.3362
  858MPD2     H12600   0.506   1.758  16.958 -0.4111 -1.1035 -0.4602
  858MPD2    H112601   0.224   2.057  17.063  0.8787  1.0135 -3.1107
  858MPD2    H212602   0.094   1.709  16.857 -0.5700  1.8758  0.7465
  858MPD2    H312603   0.053   1.927  16.975  0.5557  0.8732  0.3365
  858MPD2     N12604   0.479   1.977  17.097 -0.2583 -0.3071 -0.0442
  858MPD2    H512605   0.444   2.043  17.166 -0.3900 -0.7587  0.3194
  858MPD2    N112606   0.338   1.609  16.801  0.6054 -0.4999  0.5816
  858MPD2    H712607   0.254   1.562  16.770 -1.1733  2.8258  0.3788
  859MPD2     C12608   3.715   3.531  14.689  0.7109  0.1314 -0.3512
  859MPD2    C112609   3.845   3.520  14.660  0.3221 -0.5287 -0.1168
  859MPD2    C212610   3.914   3.396  14.654 -0.6310  0.8280  0.8203
  859MPD2    C312611   3.845   3.278  14.674  0.4111  0.5053  0.4180
  859MPD2    C412612   3.711   3.296  14.696  0.2965 -0.6017  0.0882
  859MPD2    C512613   3.646   3.415  14.715 -0.1600  0.1364  0.6910
  859MPD2     H12614   4.017   3.395  14.622 -1.1821  0.1174 -0.9522
  859MPD2    H112615   3.638   3.215  14.694 -0.4403  0.0654 -0.1215
  859MPD2    H212616   3.667   3.626  14.711  0.7229  0.1037 -0.2019
  859MPD2    H312617   3.539   3.426  14.714 -0.3096 -1.4036 -0.6832
  859MPD2     N12618   3.903   3.152  14.669 -0.5759 -0.2090 -0.3762
  859MPD2    H512619   3.836   3.075  14.662  0.1452 -0.7052 -1.8651
  859MPD2    N112620   3.928   3.629  14.638  0.0201  0.2589 -1.0685
  859MPD2    H712621   4.026   3.609  14.619  0.5753 -0.2047  2.2967
  860MPD2     C12622   2.418   4.176  11.413 -0.8478  0.7805  0.4165
  860MPD2    C112623   2.396   4.260  11.514  0.6170 -0.3570  0.8231
  860MPD2    C212624   2.300   4.234  11.598 -0.4532 -0.1792 -0.1327
  860MPD2    C312625   2.218   4.124  11.590 -0.1220 -0.3847 -0.3275
  860MPD2    C412626   2.236   4.035  11.489 -1.3518 -0.1697 -0.5944
  860MPD2    C512627   2.342   4.058  11.406  0.1530 -0.6703 -0.0634
  860MPD2     H12628   2.284   4.307  11.676 -0.2823  0.9050 -1.1171
  860MPD2    H112629   2.182   3.941  11.485 -0.7484 -0.5220 -0.4533
  860MPD2    H212630   2.495   4.180  11.337  0.1586 -0.1232  1.3999
  860MPD2    H312631   2.353   3.982  11.328 -0.2950  0.2125 -0.9879
  860MPD2     N12632   2.131   4.111  11.704 -0.4353  0.0769 -0.0576
  860MPD2    H512633   2.127   4.181  11.777 -4.6064 -0.9617  0.7522
  860MPD2    N112634   2.484   4.366  11.544  0.5335 -0.3186 -0.3887
  860MPD2    H712635   2.488   4.404  11.638  0.5495  1.9524 -1.2969
  861MPD2     C12636   1.070   2.837  10.987 -0.0811  0.1311 -0.1667
  861MPD2    C112637   0.947   2.827  11.053 -0.2921  0.4052 -0.4967
  861MPD2    C212638   0.832   2.871  10.993 -0.1401 -0.0139  0.1423
  861MPD2    C312639   0.840   2.919  10.862  0.3574  0.4886 -0.0502
  861MPD2    C412640   0.964   2.922  10.790 -0.2867  0.3605 -0.1447
  861MPD2    C512641   1.073   2.880  10.856  0.3866  0.1413 -0.6453
  861MPD2     H12642   0.738   2.866  11.046  1.0707  0.9618  2.3555
  861MPD2    H112643   0.964   2.953  10.686 -0.9670 -1.4175 -0.6742
  861MPD2    H212644   1.164   2.817  11.037 -0.4428 -3.9524 -1.1465
  861MPD2    H312645   1.168   2.879  10.803  1.2426 -3.1347  0.9607
  861MPD2     N12646   0.728   2.975  10.794  0.0559  0.4068 -0.4559
  861MPD2    H512647   0.743   3.013  10.701 -0.7948  0.5392 -0.5381
  861MPD2    N112648   0.933   2.770  11.183 -0.0433 -0.6482 -0.1464
  861MPD2    H712649   0.836   2.764  11.213  0.2926 -1.7660  0.7319
  862MPD2     C12650   0.402   3.134  10.156 -0.4595 -0.0463 -0.1691
  862MPD2    C112651   0.488   3.066  10.242 -0.3915 -0.5246  0.1336
  862MPD2    C212652   0.559   2.952  10.196 -0.9746 -0.7938 -0.1090
  862MPD2    C312653   0.534   2.903  10.069 -0.3944 -0.4372 -0.6956
  862MPD2    C412654   0.446   2.968   9.981  0.3373  1.0396  0.1784
  862MPD2    C512655   0.378   3.077  10.030 -0.8802  0.4382 -0.4081
  862MPD2     H12656   0.619   2.891  10.263 -2.0003 -1.4309  0.2305
  862MPD2    H112657   0.423   2.936   9.880 -1.3388 -0.9365  1.1884
  862MPD2    H212658   0.343   3.222  10.179 -1.7049 -0.7068 -0.8054
  862MPD2    H312659   0.319   3.127   9.955  0.3627  0.0368 -1.6569
  862MPD2     N12660   0.597   2.781  10.029 -0.2665  0.1683 -0.4262
  862MPD2    H512661   0.579   2.743   9.937 -0.2534 -1.9979  0.4736
  862MPD2    N112662   0.516   3.104  10.378 -0.6203 -0.4491 -0.4496
  862MPD2    H712663   0.563   3.040  10.441  0.2601 -0.5579 -1.2190
  863MPD2     C12664   3.508   1.209  17.524 -0.5024  0.6792  0.1091
  863MPD2    C112665   3.610   1.206  17.431 -0.4369  0.1215 -0.1775
  863MPD2    C212666   3.713   1.120  17.449  0.2785  0.4166 -0.4527
  863MPD2    C312667   3.726   1.048  17.567  0.2589  0.3977 -0.5054
  863MPD2    C412668   3.636   1.062  17.667 -0.4210 -0.2975 -0.0791
  863MPD2    C512669   3.520   1.134  17.645  0.0484  0.4396  0.0290
  863MPD2     H12670   3.780   1.108  17.364  1.1993  2.8228 -0.0854
  863MPD2    H112671   3.649   1.018   0.089 -1.3647  1.8088  0.9990
  863MPD2    H212672   3.413   1.258  17.507 -1.8264 -1.8318  0.3137
  863MPD2    H312673   3.439   1.136   0.041  0.0476  3.0909 -0.0165
  863MPD2     N12674   3.843   0.975  17.593  0.3036  0.4858  1.2140
  863MPD2    H512675   3.854   0.912  17.671 -2.0101 -0.8013  0.4799
  863MPD2    N112676   3.587   1.267  17.304 -0.1842 -0.4756 -0.3355
  863MPD2    H712677   3.493   1.302  17.291 -1.1560 -3.5016 -1.4575
  864MPD2     C12678   3.974   2.294  17.406  0.9461  0.1530  0.4430
  864MPD2    C112679   4.024   2.224  17.297 -0.0332  0.4466  0.4106
  864MPD2    C212680   4.063   2.293  17.186  0.5170 -0.0138 -0.0370
  864MPD2    C312681   4.062   2.429  17.180 -0.6229 -0.2960 -0.3115
  864MPD2    C412682   4.015   2.502  17.289  0.0977 -0.6151  0.0073
  864MPD2    C512683   3.979   2.428  17.398  0.2442  0.0946  0.0177
  864MPD2     H12684   4.093   2.231  17.102  0.7574 -0.7367  0.5794
  864MPD2    H112685   4.003   2.609  17.280  0.4629 -0.4224  1.8010
  864MPD2    H212686   3.943   2.238  17.494 -0.9411 -1.4176 -1.1914
  864MPD2    H312687   3.935   2.489  17.476 -0.4309  2.6119 -2.3404
  864MPD2     N12688   4.118   2.500  17.077  0.1101 -0.7815 -0.3528
  864MPD2    H512689   4.105   2.600  17.075  0.7442 -0.7280 -2.2673
  864MPD2    N112690   4.046   2.085  17.314 -0.0275  0.2472 -0.1696
  864MPD2    H712691   4.036   2.044  17.406 -0.7283 -1.3368 -0.9581
  865MPD2     C12692   3.953   2.414  16.484  0.2386  0.0042 -0.4572
  865MPD2    C112693   4.089   2.445  16.489  0.6477  0.2924 -0.0931
  865MPD2    C212694   4.127   2.573  16.529  0.8544  0.8027 -0.4044
  865MPD2    C312695   4.037   2.663  16.579 -0.4360  0.6413  0.3094
  865MPD2    C412696   3.904   2.630  16.576 -0.2334 -0.7395 -0.2953
  865MPD2    C512697   3.862   2.509  16.521 -0.1642  0.0953 -0.9306
  865MPD2     H12698   4.231   2.604  16.528  1.2639 -0.6122 -0.7026
  865MPD2    H112699   3.826   2.701  16.602  0.2386 -0.7954  1.2782
  865MPD2    H212700   3.918   2.316  16.452  1.9322 -0.2875 -1.3856
  865MPD2    H312701   3.757   2.482  16.512 -0.5286  0.4708  2.1890
  865MPD2     N12702   4.072   2.795  16.619  0.1981 -0.4272  0.0656
  865MPD2    H512703   4.006   2.872  16.615  1.6725  0.6409 -3.3280
  865MPD2    N112704   4.182   2.354  16.431 -0.4150  0.8325 -0.0355
  865MPD2    H712705   4.152   2.263  16.397 -1.3776  0.5565  1.5407
  866MPD2     C12706   1.036   2.930  11.636 -0.2791 -0.2665  0.0095
  866MPD2    C112707   1.116   2.965  11.527 -0.8804 -0.2122  0.4377
  866MPD2    C212708   1.076   3.073  11.455 -0.0162 -0.1108 -0.2362
  866MPD2    C312709   0.970   3.155  11.490  0.2059 -0.0231 -0.3048
  866MPD2    C412710   0.899   3.120  11.602 -0.1921 -0.1457  0.0188
  866MPD2    C512711   0.930   3.007  11.675  0.2717  0.4971 -0.9045
  866MPD2     H12712   1.124   3.092  11.360  0.4386  3.7793  0.8043
  866MPD2    H112713   0.810   3.171  11.638 -1.1855 -2.0085  0.1942
  866MPD2    H212714   1.068   2.841  11.688  0.8033  0.4392  0.5364
  866MPD2    H312715   0.869   2.985  11.761  1.7111 -0.3182 -0.0761
  866MPD2     N12716   0.914   3.256  11.412  0.0135  1.1503  0.0506
  866MPD2    H512717   0.834   3.307  11.446 -1.8174 -1.0551 -0.9646
  866MPD2    N112718   1.219   2.873  11.499 -0.6818 -0.5842 -0.1023
  866MPD2    H712719   1.232   2.793  11.559  1.5315 -0.5474 -0.5293
  867MPD2     C12720   3.806   2.245  16.851  0.2294 -0.6840  0.0109
  867MPD2    C112721   3.747   2.127  16.892  0.4038  0.3859  0.0185
  867MPD2    C212722   3.683   2.128  17.011  0.8790  0.3036 -0.0162
  867MPD2    C312723   3.691   2.241  17.094  0.6942 -0.9975  0.2000
  867MPD2    C412724   3.749   2.356  17.049  0.0678 -0.2817  0.3656
  867MPD2    C512725   3.807   2.362  16.927  0.2771  0.3037  1.0596
  867MPD2     H12726   3.628   2.038  17.037  0.2287  0.2975 -1.4188
  867MPD2    H112727   3.766   2.439  17.116  1.7853  1.0058 -1.6867
  867MPD2    H212728   3.861   2.248  16.758  2.8209 -1.8130  1.4769
  867MPD2    H312729   3.850   2.455  16.890 -2.6000  1.0470 -0.4050
  867MPD2     N12730   3.650   2.239  17.228  0.1624 -0.1033  0.4569
  867MPD2    H512731   3.679   2.315  17.288  1.2763  0.3179 -0.5980
  867MPD2    N112732   3.746   1.997  16.819 -0.5019  0.0348  0.7140
  867MPD2    H712733   3.675   1.930  16.848 -2.1644  0.6061 -1.9660
  868MPD2     C12734   0.511   1.076  12.821 -0.3356 -0.2227 -0.0971
  868MPD2    C112735   0.490   0.956  12.884 -0.3152 -0.6499  0.4177
  868MPD2    C212736   0.377   0.954  12.964  0.3795  0.2368 -0.7667
  868MPD2    C312737   0.307   1.067  13.004 -0.2522 -0.3651  0.6670
  868MPD2    C412738   0.341   1.182  12.938 -0.3559  0.0623  0.4905
  868MPD2    C512739   0.444   1.188  12.852 -0.4356 -0.3482 -0.2505
  868MPD2     H12740   0.343   0.873  13.029  0.3604  0.4724 -0.4809
  868MPD2    H112741   0.291   1.276  12.957  2.4634  1.9540 -1.4438
  868MPD2    H212742   0.596   1.078  12.753 -1.2514 -0.1923 -1.2373
  868MPD2    H312743   0.473   1.279  12.800 -1.5240 -0.0764 -0.3823
  868MPD2     N12744   0.207   1.053  13.097  0.3121 -0.2533  0.2651
  868MPD2    H512745   0.168   0.961  13.118  0.5590 -0.4346 -0.0677
  868MPD2    N112746   0.577   0.850  12.852  0.1331  0.1598 -0.6078
  868MPD2    H712747   0.665   0.866  12.805  0.9956 -0.9757  0.6365
  869MPD2     C12748   2.006   3.632   2.294 -0.1452  0.8258 -0.4725
  869MPD2    C112749   1.949   3.561   2.194  0.6019  0.6197 -0.2355
  869MPD2    C212750   1.881   3.637   2.100  0.3397  0.1501 -0.4993
  869MPD2    C312751   1.880   3.781   2.099  0.0243 -0.0148 -0.0139
  869MPD2    C412752   1.924   3.845   2.202 -0.9153 -0.1639 -0.1716
  869MPD2    C512753   1.977   3.764   2.305 -0.2369 -0.8277 -0.1822
  869MPD2     H12754   1.845   3.589   2.010 -1.4644 -0.5105  0.5841
  869MPD2    H112755   1.912   3.952   2.219  0.5600 -0.1685  0.9836
  869MPD2    H212756   2.063   3.585   2.375  0.3213 -0.8083 -1.7449
  869MPD2    H312757   1.998   3.808   2.402  0.8719 -1.4314 -0.1461
  869MPD2     N12758   1.834   3.866   1.995 -0.5256 -0.5905 -0.0641
  869MPD2    H512759   1.858   3.964   2.000 -1.0627 -0.3617 -1.9665
  869MPD2    N112760   1.966   3.420   2.184 -0.2382 -0.0228  0.4444
  869MPD2    H712761   2.027   3.368   2.246  0.7284 -0.8239 -1.1730
  870MPD2     C12762   0.820   2.805   2.064 -0.1812  0.2619 -0.2990
  870MPD2    C112763   0.929   2.831   1.981 -0.3951  0.4927  0.2990
  870MPD2    C212764   0.913   2.915   1.880  0.0289 -0.4727 -0.7369
  870MPD2    C312765   0.792   2.965   1.844 -0.4885 -0.6937  0.5814
  870MPD2    C412766   0.685   2.935   1.921  0.2004 -0.1116  0.0213
  870MPD2    C512767   0.700   2.867   2.038 -0.6593 -0.8474 -0.1039
  870MPD2     H12768   0.986   2.920   1.800  2.6783 -1.1682  1.6283
  870MPD2    H112769   0.584   2.967   1.897  0.1017  0.9371  1.8496
  870MPD2    H212770   0.822   2.724   2.136 -0.4107 -0.4860 -1.1356
  870MPD2    H312771   0.613   2.840   2.096 -1.4012  0.8370 -0.4567
  870MPD2     N12772   0.785   3.024   1.718 -0.1185  0.4714  0.1066
  870MPD2    H512773   0.870   3.024   1.661 -1.1088  0.7446 -1.3731
  870MPD2    N112774   1.050   2.757   1.999 -0.7896  0.0055  0.2592
  870MPD2    H712775   1.051   2.687   2.072 -0.6199  3.3484  3.4405
  871MPD2     C12776   1.998   2.267  16.328  0.3910 -0.0546  0.2004
  871MPD2    C112777   2.011   2.184  16.441  0.7831  0.4211  0.0045
  871MPD2    C212778   2.024   2.048  16.423  0.4658 -0.1810 -0.2364
  871MPD2    C312779   2.037   1.999  16.299 -0.1822 -1.0758  0.0707
  871MPD2    C412780   2.017   2.076  16.188 -0.2349 -0.4683  0.0067
  871MPD2    C512781   1.985   2.204  16.205  0.8734  0.4038 -0.1834
  871MPD2     H12782   2.004   1.976  16.502  0.0684  1.8653  1.5503
  871MPD2    H112783   2.036   2.039  16.088 -1.6048 -0.1206 -0.3891
  871MPD2    H212784   1.989   2.375  16.339 -1.1430 -0.1753  0.1740
  871MPD2    H312785   1.957   2.266  16.121  1.5587 -0.1355 -0.8066
  871MPD2     N12786   2.077   1.862  16.290 -0.0845 -0.1005  0.2283
  871MPD2    H512787   2.063   1.815  16.379 -0.6180  0.1131  0.2547
  871MPD2    N112788   1.994   2.255  16.566  0.0850  0.3003  0.6284
  871MPD2    H712789   2.013   2.354  16.564  1.3498  0.0759  1.6255
  872MPD2     C12790   2.809   4.575  14.312  0.2686 -1.0094  0.3203
  872MPD2    C112791   2.759   4.676  14.238  0.5039 -0.3093  0.6600
  872MPD2    C212792   2.625   4.703  14.253 -0.0557  0.4134 -0.2831
  872MPD2    C312793   2.542   4.621  14.327  0.0688 -0.1260 -0.2493
  872MPD2    C412794   2.596   4.510  14.390  0.1060 -0.6410 -0.4582
  872MPD2    C512795   2.723   4.482  14.368  0.5438  0.4322 -0.3837
  872MPD2     H12796   2.589   0.072  14.200 -0.0820  1.6617  1.8182
  872MPD2    H112797   2.534   4.440  14.443  0.1675  0.3864  0.9693
  872MPD2    H212798   2.913   4.549  14.298 -0.4409 -1.9588 -3.1794
  872MPD2    H312799   2.760   4.387  14.406  1.2376  1.0234  0.4285
  872MPD2     N12800   2.403   4.651  14.351  0.2893  0.0768 -0.5946
  872MPD2    H512801   2.351   4.584  14.407 -0.1922  0.4757 -0.5660
  872MPD2    N112802   2.832   0.038  14.143  0.2249 -0.0229  0.3146
  872MPD2    H712803   2.788   0.115  14.094  1.1517 -0.2580 -0.8959
  873MPD2     C12804   0.423   0.148   1.496  0.1442  0.6207 -0.1012
  873MPD2    C112805   0.296   0.187   1.536 -0.8447  0.3795  0.9156
  873MPD2    C212806   0.184   0.105   1.505  0.3752  0.1936  0.2440
  873MPD2    C312807   0.204   4.699   1.443 -0.4261  0.0319  0.2469
  873MPD2    C412808   0.326   4.679   1.390 -0.8456 -0.7000 -0.2107
  873MPD2    C512809   0.438   0.036   1.421 -0.4545  0.4355 -0.2640
  873MPD2     H12810   0.088   0.141   1.540  0.6434  2.2836 -1.1345
  873MPD2    H112811   0.355   4.585   1.345  0.4114 -1.1284  1.5195
  873MPD2    H212812   0.510   0.212   1.507 -0.1966  0.7164  2.0360
  873MPD2    H312813   0.533   0.010   1.375 -1.1819 -0.3562 -1.3135
  873MPD2     N12814   0.101   4.605   1.425  0.1668  0.2396 -0.2165
  873MPD2    H512815   0.116   4.534   1.354 -2.4588  1.0231 -1.5856
  873MPD2    N112816   0.292   0.310   1.598 -0.3490  0.6640 -0.3304
  873MPD2    H712817   0.383   0.347   1.624 -0.2056 -0.1852  0.3963
  874MPD2     C12818   3.821   4.678  16.396  0.4344 -0.1129  0.1454
  874MPD2    C112819   3.877   4.556  16.422  0.7515  0.3722  0.3273
  874MPD2    C212820   4.017   4.550  16.402  0.2395  1.1005  0.1247
  874MPD2    C312821   4.097   4.656  16.367 -0.4579  0.1388 -0.1261
  874MPD2    C412822   4.041   0.064  16.356  0.6678 -0.4759 -0.9592
  874MPD2    C512823   3.903   0.074  16.378 -0.3081 -0.5739 -0.0289
  874MPD2     H12824   4.072   4.459  16.423 -1.5742 -0.4477 -1.9087
  874MPD2    H112825   4.097   0.156  16.348 -0.3544  0.2740  0.4429
  874MPD2    H212826   3.716   4.692  16.416  0.5517  1.8939 -0.7441
  874MPD2    H312827   3.861   0.172  16.359 -0.9285 -0.4303  2.1472
  874MPD2     N12828   4.244   4.642  16.373  0.1840  0.4763  0.1957
  874MPD2    H512829   4.276   4.547  16.389 -1.1260 -0.3897 -2.2951
  874MPD2    N112830   3.798   4.448  16.472  0.1437  0.0218  0.5729
  874MPD2    H712831   3.697   4.463  16.469 -0.2709 -2.5175  2.0448
  875MPD2     C12832   0.779   3.031  14.382  0.6658  0.1669 -0.0191
  875MPD2    C112833   0.653   3.083  14.381 -0.1069  1.3212  0.4363
  875MPD2    C212834   0.616   3.167  14.491  0.3464  0.3887  0.6986
  875MPD2    C312835   0.701   3.177  14.601 -0.1998 -0.6109 -0.3136
  875MPD2    C412836   0.820   3.102  14.609 -1.0821  0.5314  0.1622
  875MPD2    C512837   0.856   3.025  14.498  0.1856  0.0598 -0.3159
  875MPD2     H12838   0.524   3.224  14.499 -0.1070  0.0457 -2.3412
  875MPD2    H112839   0.888   3.116  14.692  0.0481 -1.0764 -0.4976
  875MPD2    H212840   0.818   2.975  14.298  1.0528  1.3538 -0.6284
  875MPD2    H312841   0.952   2.975  14.494 -1.0398 -2.2064 -1.7578
  875MPD2     N12842   0.665   3.266  14.705  0.2635 -0.4538  0.0668
  875MPD2    H512843   0.567   3.290  14.718  0.3867 -0.4614  0.9787
  875MPD2    N112844   0.566   3.074  14.272  0.0352  0.0998 -0.4174
  875MPD2    H712845   0.474   3.116  14.282  0.0135  0.3893 -1.9314
  876MPD2     C12846   4.308   3.930  16.060 -0.0435 -0.0631  0.5882
  876MPD2    C112847   4.301   3.873  15.937 -0.3425 -0.6770 -0.2888
  876MPD2    C212848   4.239   3.750  15.916  0.1065 -0.3623  0.1216
  876MPD2    C312849   4.191   3.679  16.016  0.3144  0.6439 -0.4195
  876MPD2    C412850   4.226   3.720  16.147  0.2753  0.6687 -0.0093
  876MPD2    C512851   4.268   3.854  16.167 -0.2504 -0.6500 -0.4901
  876MPD2     H12852   4.239   3.706  15.817  0.5367 -1.4968  0.6383
  876MPD2    H112853   4.201   3.659  16.233  2.9663  0.4480  0.6163
  876MPD2    H212854   4.350   4.029  16.067  0.2183 -0.3624  3.0006
  876MPD2    H312855   4.279   3.898  16.265 -1.1491 -2.0101  0.2182
  876MPD2     N12856   4.135   3.551  15.997 -0.3079  0.5923  0.1353
  876MPD2    H512857   4.125   3.518  15.902 -1.0289  2.4217 -0.4294
  876MPD2    N112858   4.349   3.955  15.832  0.0660 -0.1185  0.0256
  876MPD2    H712859   4.382   4.046  15.860 -1.0587  0.1691  0.4066
  877MPD2     C12860   4.155   4.452  15.328  0.0918  0.4000  0.4547
  877MPD2    C112861   4.291   4.462  15.309  0.2973 -0.0162  0.0975
  877MPD2    C212862   4.340   4.519  15.193 -0.5327 -0.0796 -0.4209
  877MPD2    C312863   4.255   4.571  15.090  0.5734  0.6441 -0.0373
  877MPD2    C412864   4.119   4.556  15.114 -0.5406 -0.1148  0.1071
  877MPD2    C512865   4.074   4.503  15.232 -0.1185 -1.1516  0.2033
  877MPD2     H12866   4.448   4.525  15.184 -0.3532 -3.3752 -0.5677
  877MPD2    H112867   4.057   4.603  15.038  1.2777 -0.2613 -1.4514
  877MPD2    H212868   4.116   4.394  15.411  2.0562 -1.4975  0.0639
  877MPD2    H312869   3.966   4.512  15.237  0.0385  0.6606  0.2648
  877MPD2     N12870   4.298   4.641  14.978 -0.1146  0.0055 -0.9236
  877MPD2    H512871   4.225   4.675  14.916  0.2502 -0.2229 -1.4788
  877MPD2    N112872   4.384   4.396  15.392  0.4782 -0.6459  0.0204
  877MPD2    H712873   4.478   4.393  15.352  0.9177 -1.4361  1.1317
  878MPD2     C12874   3.694   4.042  12.951 -0.0501  0.0617 -0.2716
  878MPD2    C112875   3.761   4.160  12.980 -0.3033  0.0505  0.4506
  878MPD2    C212876   3.773   4.198  13.114  0.4216 -0.0976 -0.4754
  878MPD2    C312877   3.720   4.120  13.218  0.8633 -0.9372 -0.4976
  878MPD2    C412878   3.645   4.009  13.182  0.2675 -0.7449  0.5126
  878MPD2    C512879   3.638   3.966  13.050 -0.0253  0.3176 -0.1464
  878MPD2     H12880   3.806   4.296  13.146  0.7980 -0.8253  1.3577
  878MPD2    H112881   3.574   3.967  13.252 -1.6445 -1.4490 -1.8543
  878MPD2    H212882   3.678   4.013  12.847 -2.3799  2.9215 -0.7178
  878MPD2    H312883   3.571   3.886  13.020 -1.1680  0.4298  2.0968
  878MPD2     N12884   3.722   4.148  13.357 -0.3187 -0.6813 -0.5837
  878MPD2    H512885   3.685   4.079  13.421  0.7700  0.2512  1.0521
  878MPD2    N112886   3.807   4.234  12.866 -1.4387  0.1510  0.2010
  878MPD2    H712887   3.774   4.200  12.777 -0.4949  0.9766 -0.4656
  879MPD2     C12888   0.021   0.877  17.084  0.4089 -0.0919 -0.3742
  879MPD2    C112889   0.100   0.798  17.164 -0.5583 -0.6342  0.1719
  879MPD2    C212890   0.033   0.707  17.245  0.6921  0.8579  0.0753
  879MPD2    C312891   4.610   0.703  17.238  0.3694  0.0434 -0.1091
  879MPD2    C412892   4.538   0.799  17.169  0.4708 -0.7474 -0.3759
  879MPD2    C512893   4.602   0.886  17.089  0.0671  0.3828 -0.0574
  879MPD2     H12894   0.090   0.640  17.309  0.0854  0.6334  0.3859
  879MPD2    H112895   4.432   0.777  17.175  0.1335  0.8993 -0.2978
  879MPD2    H212896   0.063   0.948  17.013 -0.3149 -0.1934 -0.8997
  879MPD2    H312897   4.537   0.944  17.024  0.0401  2.4246  1.7989
  879MPD2     N12898   4.531   0.610  17.313  0.0708  0.4175  0.0765
  879MPD2    H512899   4.430   0.609  17.303  0.2200 -0.1288 -1.3119
  879MPD2    N112900   0.243   0.796  17.153  0.1749  0.1565 -0.0736
  879MPD2    H712901   0.273   0.851  17.073 -1.1564  3.1501  1.5008
  880MPD2     C12902   1.564   2.021   0.478 -0.7503  0.4062 -0.1029
  880MPD2    C112903   1.469   2.031   0.576  0.6904 -0.3071  0.5239
  880MPD2    C212904   1.411   1.918   0.638  0.9237 -0.1310  0.0093
  880MPD2    C312905   1.445   1.793   0.600  0.2480  0.7213  0.0064
  880MPD2    C412906   1.540   1.781   0.494  0.6854 -0.1706 -0.0747
  880MPD2    C512907   1.597   1.893   0.440  0.2724 -0.9668 -0.4676
  880MPD2     H12908   1.334   1.927   0.713  0.2233  1.2208 -0.8634
  880MPD2    H112909   1.573   1.687   0.453  2.0848 -0.0510  0.7594
  880MPD2    H212910   1.614   2.107   0.437  0.4509 -0.3599 -0.2525
  880MPD2    H312911   1.667   1.887   0.357 -2.1900  0.9204 -2.6868
  880MPD2     N12912   1.383   1.687   0.665 -0.2159 -0.4622 -0.0418
  880MPD2    H512913   1.315   1.719   0.734  0.3810  0.4129  0.1340
  880MPD2    N112914   1.426   2.165   0.605  0.6041 -0.0137  0.0989
  880MPD2    H712915   1.472   2.239   0.553 -0.6562 -1.3827 -2.9296
  881MPD2     C12916   1.158   2.967   0.103  0.6321 -0.1142 -0.4522
  881MPD2    C112917   1.207   2.844   0.078  0.5208 -0.4607 -0.6657
  881MPD2    C212918   1.230   2.766   0.188 -0.4856  0.4483 -0.0909
  881MPD2    C312919   1.224   2.815   0.316 -0.1900  0.6225  0.9683
  881MPD2    C412920   1.179   2.948   0.337  0.5097 -0.2196  0.7035
  881MPD2    C512921   1.148   3.021   0.226  0.2137 -0.4315  0.3821
  881MPD2     H12922   1.275   2.669   0.171 -2.9277 -0.8170  0.6183
  881MPD2    H112923   1.166   2.988   0.437  3.4134  1.2839  0.4637
  881MPD2    H212924   1.118   3.020   0.017  2.2021  2.9804  0.7315
  881MPD2    H312925   1.117   3.123   0.243 -0.8297 -0.6340 -0.3159
  881MPD2     N12926   1.261   2.736   0.428  0.2927 -0.1342 -0.1859
  881MPD2    H512927   1.274   2.783   0.517 -0.3100  1.3887 -0.8866
  881MPD2    N112928   1.209   2.791  17.620 -0.5355  0.1308 -0.0886
  881MPD2    H712929   1.178   2.853  17.545  0.9271 -1.4484 -1.9689
  882MPD2     C12930   4.304   4.565  14.160 -0.7056 -0.2081 -0.3981
  882MPD2    C112931   4.248   4.618  14.276 -0.6342 -0.3830 -0.7961
  882MPD2    C212932   4.115   4.657  14.271  0.1987  0.0599 -0.1969
  882MPD2    C312933   4.031   4.630  14.163  0.2328 -0.4928 -1.1709
  882MPD2    C412934   4.091   4.573  14.050  0.4924  0.7451 -0.4544
  882MPD2    C512935   4.220   4.551  14.045 -0.0965  0.0870  0.3797
  882MPD2     H12936   4.075   4.698  14.363 -0.8195  1.1012 -1.1047
  882MPD2    H112937   4.055   4.579  13.948 -1.5737  0.5500  0.2580
  882MPD2    H212938   4.407   4.532  14.151 -0.6272  0.0951 -0.6465
  882MPD2    H312939   4.261   4.513  13.952 -1.0319 -1.6652  0.6829
  882MPD2     N12940   3.893   4.647  14.171  0.1781 -0.1148 -0.0683
  882MPD2    H512941   3.859   4.680  14.261  0.2312  0.4486 -0.2587
  882MPD2    N112942   4.329   4.615  14.394 -0.1684 -0.1191 -0.8385
  882MPD2    H712943   4.418   4.567  14.386 -0.6069 -0.6984 -2.2576
  883MPD2     C12944   1.454   0.136  16.663  0.5586 -0.9350  0.2586
  883MPD2    C112945   1.478   0.039  16.564  0.1206  0.0119  0.4227
  883MPD2    C212946   1.588   4.677  16.575 -0.0666  0.0550 -0.0220
  883MPD2    C312947   1.669   4.685  16.682  0.1476  0.4732  0.4090
  883MPD2    C412948   1.641   0.052  16.785 -0.2322  0.0898 -0.1705
  883MPD2    C512949   1.530   0.142  16.777 -0.2167  0.3791 -0.1659
  883MPD2     H12950   1.616   4.608  16.496 -1.5110  0.3314 -0.7667
  883MPD2    H112951   1.697   0.041  16.878 -0.9532  1.2479  0.4013
  883MPD2    H212952   1.366   0.199  16.662  1.2710  0.0679 -0.2501
  883MPD2    H312953   1.506   0.199  16.867  0.7013 -0.8948  0.8932
  883MPD2     N12954   1.783   4.594  16.674  0.1154 -0.0855 -0.1582
  883MPD2    H512955   1.798   4.543  16.587  1.6508 -1.5239  0.9437
  883MPD2    N112956   1.400   0.013  16.445  0.3262 -0.1406  0.3792
  883MPD2    H712957   1.431   4.656  16.385  1.0141  0.4460  0.0087
  884MPD2     C12958   3.484   0.453  15.517 -0.4606 -0.1825 -0.1356
  884MPD2    C112959   3.472   0.577  15.462  0.4084 -0.7594 -0.3867
  884MPD2    C212960   3.342   0.619  15.431  0.9154  0.3986  0.6147
  884MPD2    C312961   3.234   0.534  15.450  0.2624  0.8806  0.0652
  884MPD2    C412962   3.254   0.404  15.499 -0.0103  0.1176  0.3438
  884MPD2    C512963   3.385   0.360  15.515 -0.6187  0.1050  0.4999
  884MPD2     H12964   3.308   0.717  15.400 -2.8089 -1.1168 -0.1033
  884MPD2    H112965   3.173   0.334  15.513 -1.8074  1.2709 -4.2391
  884MPD2    H212966   3.582   0.411  15.534  0.0838  1.3492  0.4521
  884MPD2    H312967   3.409   0.259  15.545  3.0648  0.1158 -2.4755
  884MPD2     N12968   3.105   0.595  15.432  0.0540  0.4807 -0.1282
  884MPD2    H512969   3.094   0.692  15.403 -0.3546  0.8178  1.1556
  884MPD2    N112970   3.585   0.660  15.432 -0.1357 -0.0903 -0.4419
  884MPD2    H712971   3.572   0.748  15.384  0.3979  0.3806  0.2760
  885MPD2     C12972   1.692   0.688   0.423 -0.0110  0.1763  0.6252
  885MPD2    C112973   1.811   0.708   0.357 -0.0206 -0.2322 -0.1630
  885MPD2    C212974   1.809   0.756   0.228 -0.5328  0.2705  0.4054
  885MPD2    C312975   1.689   0.781   0.168 -0.4533  0.2742 -0.0966
  885MPD2    C412976   1.576   0.758   0.233 -0.7517  0.2417 -0.5721
  885MPD2    C512977   1.572   0.715   0.360  0.2391 -0.5579  0.5138
  885MPD2     H12978   1.898   0.773   0.168 -3.0863  1.5551 -3.0444
  885MPD2    H112979   1.478   0.787   0.196  0.5129  1.5927 -2.8411
  885MPD2    H212980   1.688   0.648   0.524  1.6244 -1.3168  0.0905
  885MPD2    H312981   1.477   0.699   0.411 -0.8716  1.0238 -1.0961
  885MPD2     N12982   1.694   0.811   0.030  0.1181  0.8417 -0.1471
  885MPD2    H512983   1.783   0.790  17.663  1.0078  1.6833  1.2776
  885MPD2    N112984   1.935   0.678   0.429 -0.8762 -0.0111 -0.3660
  885MPD2    H712985   1.922   0.628   0.516 -2.1033 -0.2296 -0.6763
  886MPD2     C12986   2.575   3.994  14.910 -0.3676 -0.4997  0.3661
  886MPD2    C112987   2.706   3.963  14.938  0.3370 -0.0609 -0.1048
  886MPD2    C212988   2.801   4.061  14.930 -0.1375 -0.3257 -0.5021
  886MPD2    C312989   2.777   4.197  14.893  0.2364 -0.5677  0.0851
  886MPD2    C412990   2.641   4.224  14.866 -0.0337  0.4619  0.0451
  886MPD2    C512991   2.545   4.124  14.875 -0.1658 -0.1449  0.2915
  886MPD2     H12992   2.903   4.027  14.944  0.9594  3.6100  0.8504
  886MPD2    H112993   2.597   4.320  14.845  0.8216  1.0384  0.8745
  886MPD2    H212994   2.493   3.926  14.931  1.3717 -2.6792  0.2298
  886MPD2    H312995   2.441   4.154  14.871  0.4990  2.1981  0.9796
  886MPD2     N12996   2.877   4.296  14.865 -0.1244  0.3240  0.0804
  886MPD2    H512997   2.850   4.389  14.834 -0.4517 -0.3103 -1.5483
  886MPD2    N112998   2.757   3.835  14.971  0.7892  0.8442 -0.1023
  886MPD2    H712999   2.857   3.819  14.974  0.3655 -1.8569 -0.7513
  887MPD2     C13000   3.359   3.588  15.288  0.3319  0.2293  0.3604
  887MPD2    C113001   3.245   3.664  15.304  0.6903 -0.0123  0.3313
  887MPD2    C213002   3.268   3.790  15.357 -0.3231  0.3994 -0.2057
  887MPD2    C313003   3.386   3.849  15.381 -0.3835 -0.3055 -0.3792
  887MPD2    C413004   3.497   3.765  15.383 -0.0353  0.6415  0.1489
  887MPD2    C513005   3.481   3.633  15.333 -0.4530 -0.0960  0.2441
  887MPD2     H13006   3.179   3.849  15.379  0.5283  1.3998  0.5554
  887MPD2    H113007   3.598   3.791  15.411  0.6362 -0.5623 -1.1705
  887MPD2    H213008   3.358   3.490  15.243  1.1767  0.2109  0.3728
  887MPD2    H313009   3.567   3.568  15.320  0.7080  1.3324  0.6394
  887MPD2     N13010   3.381   3.980  15.436 -0.1719  0.1413  0.6720
  887MPD2    H513011   3.290   4.021  15.453 -0.7483 -0.8385 -0.0577
  887MPD2    N113012   3.116   3.626  15.264  0.2787  0.5252  0.4137
  887MPD2    H713013   3.051   3.693  15.303 -0.4450  0.5533 -0.8537
  888MPD2     C13014   0.603   4.012  14.986 -0.4811 -0.2746 -0.0418
  888MPD2    C113015   0.599   4.085  15.099 -0.2659 -0.6037  0.6973
  888MPD2    C213016   0.635   4.216  15.088  0.0299  0.5328 -0.1421
  888MPD2    C313017   0.680   4.272  14.971  0.0065  0.0607  0.2075
  888MPD2    C413018   0.673   4.200  14.852 -0.9977 -0.1540 -0.4001
  888MPD2    C513019   0.640   4.072  14.866 -0.7942  0.2736  0.3588
  888MPD2     H13020   0.649   4.275  15.178  1.1803 -1.0732  0.7217
  888MPD2    H113021   0.671   4.246  14.754  1.2736 -0.4581 -0.5828
  888MPD2    H213022   0.559   3.913  14.977 -1.3888  0.2178 -1.0663
  888MPD2    H313023   0.605   4.029  14.774  0.7010  1.2656 -0.6666
  888MPD2     N13024   0.709   4.414  14.978  0.5547  0.1959 -0.4967
  888MPD2    H513025   0.729   4.455  15.068  2.9523 -2.0181 -0.0212
  888MPD2    N113026   0.569   4.029  15.224  0.9866  0.4454 -0.1609
  888MPD2    H713027   0.574   4.095  15.301 -0.9100  1.7907 -1.1921
  889MPD2     C13028   0.363   4.135  12.567  0.3675 -1.1586  1.0807
  889MPD2    C113029   0.321   4.035  12.653 -0.0740  1.0465 -0.2322
  889MPD2    C213030   0.218   4.060  12.738  0.0688  0.2184 -0.1706
  889MPD2    C313031   0.177   4.186  12.777 -0.0771  0.4820 -0.8643
  889MPD2    C413032   0.210   4.286  12.694  1.1710  0.8217  0.2716
  889MPD2    C513033   0.300   4.252  12.594  1.1553 -0.0644 -0.8799
  889MPD2     H13034   0.195   3.980  12.808  0.4419 -0.6073 -0.9878
  889MPD2    H113035   0.187   4.391  12.708 -1.6031  0.3543 -0.9040
  889MPD2    H213036   0.418   4.124  12.475 -3.4745  1.5664 -1.5221
  889MPD2    H313037   0.325   4.329  12.523 -0.3081  1.4747  0.2668
  889MPD2     N13038   0.094   4.211  12.889  0.1926 -0.1307  0.2748
  889MPD2    H513039   0.094   4.138  12.960  1.7682  0.3810  0.8004
  889MPD2    N113040   0.354   3.899  12.629  0.0186 -0.1238  0.6338
  889MPD2    H713041   0.295   3.829  12.673 -0.7504  0.9884  1.3792
  890MPD2     C13042   4.619   0.605  14.831  0.5632  0.0180 -0.8478
  890MPD2    C113043   4.657   0.634  14.960 -0.4132 -0.3816 -0.7290
  890MPD2    C213044   4.599   0.562  15.066 -0.7935 -0.1794  0.3029
  890MPD2    C313045   4.514   0.455  15.042  0.2766 -0.1991  0.5409
  890MPD2    C413046   4.491   0.424  14.913  0.6122 -0.2372 -0.0506
  890MPD2    C513047   4.536   0.495  14.810  0.2252  0.0760  0.5360
  890MPD2     H13048   4.624   0.590  15.167  0.7618 -1.3265  0.2302
  890MPD2    H113049   4.418   0.347  14.891  1.0762 -0.5223 -0.5942
  890MPD2    H213050   4.663   0.653  14.744  0.9684  0.2390 -0.5209
  890MPD2    H313051   4.507   0.459  14.712  1.6382 -1.1515  0.5501
  890MPD2     N13052   4.472   0.380  15.149  0.0489 -0.5940  0.1716
  890MPD2    H513053   4.525   0.387  15.235  0.7949 -0.1052 -0.3292
  890MPD2    N113054   0.020   0.748  14.979 -0.4284  0.0543  0.0574
  890MPD2    H713055   0.067   0.788  14.898 -0.4000 -1.3356 -0.6072
  891MPD2     C13056   1.947   3.993  16.193  0.1713  0.4319 -0.2260
  891MPD2    C113057   1.868   3.924  16.280  0.1591 -0.2342 -0.0298
  891MPD2    C213058   1.919   3.848  16.378  0.4664  0.3700 -0.2423
  891MPD2    C313059   2.049   3.822  16.389 -0.1888 -0.3290  0.0435
  891MPD2    C413060   2.135   3.879  16.295  0.1257 -0.3397 -0.9971
  891MPD2    C513061   2.082   3.960  16.194 -0.3421 -0.2136 -0.2620
  891MPD2     H13062   1.865   3.804  16.460  0.1920  1.7456  0.3148
  891MPD2    H113063   2.239   3.850  16.292 -0.1631 -1.3384 -1.3748
  891MPD2    H213064   1.909   4.067  16.125  1.6902  1.2377 -0.1929
  891MPD2    H313065   2.145   4.004  16.118  0.0271  3.5030  2.2103
  891MPD2     N13066   2.096   3.741  16.493 -0.3915 -0.0853 -0.2970
  891MPD2    H513067   2.023   3.703  16.554  1.1415 -0.2744  1.4292
  891MPD2    N113068   1.731   3.952  16.272 -0.5943  0.2340  0.1737
  891MPD2    H713069   1.696   3.991  16.185  0.3324  0.3364 -0.1529
  892MPD2     C13070   3.445   0.530  14.567 -0.0545  0.5204  0.4789
  892MPD2    C113071   3.375   0.419  14.605 -1.1413  0.1589  0.1301
  892MPD2    C213072   3.425   0.294  14.576 -0.7008  0.4450 -0.4458
  892MPD2    C313073   3.542   0.281  14.505  0.0522 -0.3420  0.2621
  892MPD2    C413074   3.618   0.396  14.485 -0.7223 -0.0275 -0.7808
  892MPD2    C513075   3.566   0.523  14.510 -0.4299  0.6762  0.6339
  892MPD2     H13076   3.365   0.207  14.602  0.0758 -0.2264 -0.8705
  892MPD2    H113077   3.713   0.393  14.433 -0.1182  0.3042  0.3022
  892MPD2    H213078   3.408   0.631  14.582  1.3403  1.3395 -1.5447
  892MPD2    H313079   3.622   0.610  14.478 -1.9757  0.4884 -2.5422
  892MPD2     N13080   3.579   0.163  14.444  0.4632 -0.1095  0.2602
  892MPD2    H513081   3.668   0.167  14.395 -0.1930 -2.4290 -1.0923
  892MPD2    N113082   3.252   0.434  14.675  0.2430 -0.0405 -0.5059
  892MPD2    H713083   3.205   0.524  14.665  0.5260  0.5504  3.5758
  893MPD2     C13084   0.383   3.099   2.614  0.4606 -0.3330 -0.0452
  893MPD2    C113085   0.462   3.006   2.545  0.0437  0.5327  0.2293
  893MPD2    C213086   0.454   2.871   2.591 -0.3742  0.3390  0.0633
  893MPD2    C313087   0.357   2.827   2.677  0.2097 -0.1537 -0.1127
  893MPD2    C413088   0.273   2.919   2.740  0.3409 -0.0734  0.0936
  893MPD2    C513089   0.290   3.047   2.708 -0.3012 -0.5817 -0.3698
  893MPD2     H13090   0.517   2.797   2.543  0.5027 -0.2255  2.0756
  893MPD2    H113091   0.200   2.896   2.817 -0.3528  0.6557 -0.3453
  893MPD2    H213092   0.385   3.205   2.592 -1.6390  0.1317  1.9169
  893MPD2    H313093   0.229   3.115   2.767  0.3578 -0.7193  0.4681
  893MPD2     N13094   0.351   2.695   2.707 -0.1741 -0.8750  0.7204
  893MPD2    H513095   0.279   2.680   2.777 -0.9791 -1.3852 -0.2137
  893MPD2    N113096   0.541   3.051   2.438  0.0968 -1.1033 -0.6606
  893MPD2    H713097   0.530   3.150   2.415  0.7421 -0.5017  1.5671
  894MPD2     C13098   3.161   1.530   1.896  0.2785  0.3877  0.2961
  894MPD2    C113099   3.228   1.444   1.984  0.2294  0.7477 -0.3754
  894MPD2    C213100   3.368   1.434   1.982 -0.2767 -0.4727 -0.0446
  894MPD2    C313101   3.437   1.502   1.884 -0.0202  0.5103 -0.1418
  894MPD2    C413102   3.370   1.582   1.796 -0.2280  0.0750 -0.3589
  894MPD2    C513103   3.231   1.595   1.794 -0.1107  1.0074  0.7107
  894MPD2     H13104   3.410   1.358   2.047  0.6402 -0.0038 -0.0975
  894MPD2    H113105   3.416   1.637   1.715  2.7147 -1.4984  0.2417
  894MPD2    H213106   3.053   1.542   1.903  0.2097 -0.1687  0.2466
  894MPD2    H313107   3.177   1.656   1.723  0.4946 -0.6272 -1.1418
  894MPD2     N13108   3.579   1.479   1.888 -0.0218 -0.1050  0.1505
  894MPD2    H513109   3.619   1.424   1.964 -1.5547  1.3269  2.0136
  894MPD2    N113110   3.166   1.359   2.088 -0.2649 -1.2540 -0.2246
  894MPD2    H713111   3.224   1.295   2.141 -0.4011  1.1128  2.7601
  895MPD2     C13112   2.388   4.454  13.899 -0.1090 -0.3198 -0.3877
  895MPD2    C113113   2.439   4.521  13.788 -0.4837  0.3585  0.2769
  895MPD2    C213114   2.573   4.553  13.785  0.2502  0.4618 -0.5251
  895MPD2    C313115   2.657   4.522  13.887 -0.0402  0.0236 -0.2373
  895MPD2    C413116   2.607   4.463  14.002 -0.2387 -0.6167  0.7477
  895MPD2    C513117   2.475   4.422  14.005  0.5575 -0.2140  0.3671
  895MPD2     H13118   2.619   4.581  13.691 -1.0496 -1.4603 -1.7290
  895MPD2    H113119   2.668   4.433  14.086  0.7439 -1.7571 -0.3549
  895MPD2    H213120   2.297   4.395  13.893 -0.2630  0.0252 -1.3167
  895MPD2    H313121   2.430   4.362  14.083 -1.9918  1.1733 -0.0404
  895MPD2     N13122   2.796   4.535  13.877 -0.3611 -0.2878  0.6234
  895MPD2    H513123   2.853   4.478  13.939  1.2765  1.7914  1.0563
  895MPD2    N113124   2.375   4.525  13.663 -0.6390 -0.0905 -0.2006
  895MPD2    H713125   2.439   4.543  13.587  0.1840  0.2250  0.5638
  896MPD2     C13126   0.165   2.112   2.115 -0.3585  0.1781 -0.2634
  896MPD2    C113127   0.193   2.016   2.022 -0.3016 -0.3399  0.3903
  896MPD2    C213128   0.093   1.917   2.011  0.3139 -0.0296  0.3574
  896MPD2    C313129   4.703   1.902   2.096 -0.0109 -0.9475  0.3193
  896MPD2    C413130   4.681   2.002   2.193  0.0161  0.4027  0.8174
  896MPD2    C513131   0.053   2.107   2.196  0.4877 -0.6901 -0.3381
  896MPD2     H13132   0.114   1.834   1.945 -1.3727 -0.2884  0.1325
  896MPD2    H113133   4.594   2.005   2.256 -0.6502 -0.3656 -0.0669
  896MPD2    H213134   0.217   2.205   2.137  1.1815 -0.5781 -0.7325
  896MPD2    H313135   0.038   2.187   2.267  0.5853  1.4143 -2.6868
  896MPD2     N13136   4.617   1.790   2.080 -0.2068  0.0368  0.0379
  896MPD2    H513137   4.627   1.726   2.003 -1.8270  1.6193 -1.4841
  896MPD2    N113138   0.307   2.031   1.945 -0.8272  0.1507 -1.1186
  896MPD2    H713139   0.376   2.096   1.981 -2.5158  2.5473 -2.2673
  897MPD2     C13140   1.793   3.322  10.486  0.4450 -0.4998 -0.3851
  897MPD2    C113141   1.753   3.437  10.424 -0.0991 -1.0084 -0.4446
  897MPD2    C213142   1.622   3.483  10.464  0.2831 -0.3834 -0.8648
  897MPD2    C313143   1.541   3.406  10.552  0.2410  0.0523 -0.9968
  897MPD2    C413144   1.576   3.273  10.588  0.2202  0.5038 -0.0180
  897MPD2    C513145   1.703   3.238  10.552 -0.9664 -0.2052 -0.0681
  897MPD2     H13146   1.598   3.585  10.436 -0.0493  0.4512  2.4500
  897MPD2    H113147   1.524   3.209  10.657  1.5487  1.4524  1.8562
  897MPD2    H213148   1.891   3.277  10.479  0.7427  0.2487 -1.0445
  897MPD2    H313149   1.731   3.136  10.572  0.7084  0.4714  1.0397
  897MPD2     N13150   1.420   3.466  10.596  0.3171  0.0424  0.3265
  897MPD2    H513151   1.395   3.556  10.557 -1.4005 -1.4062 -1.9583
  897MPD2    N113152   1.840   3.508  10.338 -0.5745  0.8290 -0.0882
  897MPD2    H713153   1.937   3.478  10.336 -1.1241 -1.3113  3.9745
  898MPD2     C13154   3.282   4.063   0.091  0.3485 -0.0956 -0.4740
  898MPD2    C113155   3.206   4.170   0.119  0.1173 -0.1805 -0.2984
  898MPD2    C213156   3.138   4.220   0.010 -0.0878 -0.8163 -0.0149
  898MPD2    C313157   3.143   4.160  17.557  0.2170 -0.3867  0.5757
  898MPD2    C413158   3.219   4.043  17.544  0.0212  0.5762 -0.0453
  898MPD2    C513159   3.300   4.007  17.650  0.0906 -0.7877 -0.2317
  898MPD2     H13160   3.087   4.315   0.021 -0.3378 -1.0280  0.6880
  898MPD2    H113161   3.254   3.997  17.452 -0.9403  1.3579 -0.7900
  898MPD2    H213162   3.345   4.032   0.174  1.2464 -0.4704 -1.2972
  898MPD2    H313163   3.362   3.918  17.650  1.7223  0.3448  0.1572
  898MPD2     N13164   3.086   4.222  17.447  0.6078  0.1969 -0.5612
  898MPD2    H513165   3.044   4.313  17.464 -0.4555 -0.0164 -1.9765
  898MPD2    N113166   3.209   4.233   0.244 -0.3417  0.5225  0.1828
  898MPD2    H713167   3.280   4.205   0.310 -0.0417 -0.2331 -0.4525
  899MPD2     C13168   4.406   0.526   0.374  0.2820 -0.1193  0.0163
  899MPD2    C113169   4.284   0.589   0.353 -0.3124  0.8590 -0.3280
  899MPD2    C213170   4.196   0.571   0.457 -0.1469  0.6361 -1.2633
  899MPD2    C313171   4.214   0.502   0.579  0.5140  0.0899  0.0577
  899MPD2    C413172   4.333   0.435   0.596 -0.5318  0.5972 -0.9757
  899MPD2    C513173   4.431   0.455   0.496  0.0152  0.3073 -0.7781
  899MPD2     H13174   4.100   0.621   0.447  0.5198  1.8437 -1.7050
  899MPD2    H113175   4.361   0.367   0.676 -0.0377  0.8216 -0.9555
  899MPD2    H213176   4.487   0.518   0.302 -0.9013  0.2072 -1.3486
  899MPD2    H313177   4.529   0.412   0.511 -0.6407 -0.2169  2.0297
  899MPD2     N13178   4.125   0.510   0.689  0.0383  0.6955  0.0349
  899MPD2    H513179   4.162   0.487   0.781 -0.6858  1.1636  0.4477
  899MPD2    N113180   4.260   0.653   0.233 -0.2368  0.6142 -0.1423
  899MPD2    H713181   4.339   0.653   0.169  1.0236  1.7163  1.4142
  900MPD2     C13182   3.999   2.093  12.259  0.0996  0.4651 -0.0238
  900MPD2    C113183   4.017   2.022  12.141  0.6209  0.2005 -0.3907
  900MPD2    C213184   3.921   2.024  12.045  0.1869 -0.0873 -0.1370
  900MPD2    C313185   3.811   2.113  12.066 -0.2594  0.7251 -0.4278
  900MPD2    C413186   3.793   2.192  12.182 -0.3187 -0.4143  0.4101
  900MPD2    C513187   3.891   2.179  12.276 -0.3330  0.0647  0.2112
  900MPD2     H13188   3.931   1.958  11.960  0.5309  1.3320 -1.2017
  900MPD2    H113189   3.702   2.243  12.214 -0.0922  0.5149 -0.3945
  900MPD2    H213190   4.074   2.085  12.338  1.2268  1.1293 -1.0299
  900MPD2    H313191   3.896   2.228  12.372 -0.6011  1.4204 -0.4592
  900MPD2     N13192   3.709   2.120  11.960 -0.1470 -0.2663 -0.3938
  900MPD2    H513193   3.734   2.066  11.878  1.0993 -0.8957  0.3968
  900MPD2    N113194   4.134   1.949  12.126 -0.1001 -0.4698  0.5218
  900MPD2    H713195   4.201   1.956  12.202  0.9272  3.2418 -0.7241
  901MPD2     C13196   4.133   1.308  12.686 -0.6837 -0.1257  0.5230
  901MPD2    C113197   4.116   1.262  12.558 -0.1812  0.8134  0.7066
  901MPD2    C213198   4.153   1.347  12.457  0.5529 -0.1837  0.3460
  901MPD2    C313199   4.218   1.464  12.490 -0.1770 -0.5455 -0.0988
  901MPD2    C413200   4.243   1.502  12.618  0.8767 -0.5763 -0.0931
  901MPD2    C513201   4.194   1.418  12.714  0.5023  0.5940 -0.2111
  901MPD2     H13202   4.160   1.319  12.352  1.0393 -2.9046  1.1032
  901MPD2    H113203   4.299   1.591  12.647  0.4477 -0.9752  1.9585
  901MPD2    H213204   4.114   1.247  12.773 -1.1307 -0.6680  0.0510
  901MPD2    H313205   4.217   1.434  12.819 -1.8500 -2.3293  0.7475
  901MPD2     N13206   4.270   1.537  12.375  0.9310 -0.0421  0.0701
  901MPD2    H513207   4.229   1.510  12.287  0.6404 -0.7978  0.4332
  901MPD2    N113208   4.072   1.129  12.533 -0.4611  0.0736  0.0089
  901MPD2    H713209   4.070   1.064  12.611 -1.8651  1.7563  1.3963
  902MPD2     C13210   3.081   0.142  12.757  0.2872  0.0447 -0.6228
  902MPD2    C113211   3.005   0.047  12.684 -0.3247  0.1455 -0.0282
  902MPD2    C213212   3.065   4.648  12.633 -0.0144  0.1191  0.2181
  902MPD2    C313213   3.201   4.633  12.650  0.3478  0.0376  0.2044
  902MPD2    C413214   3.273   0.014  12.717 -0.1375 -0.8700  1.2547
  902MPD2    C513215   3.215   0.128  12.761 -0.4693  0.1988 -0.0106
  902MPD2     H13216   3.008   4.577  12.574  0.2532 -0.1806  0.3241
  902MPD2    H113217   3.381   0.013  12.715 -0.1368  0.5216  1.0569
  902MPD2    H213218   3.038   0.232  12.799  1.2121 -0.8706  2.2743
  902MPD2    H313219   3.280   0.200  12.810 -2.6285  3.6033 -2.2140
  902MPD2     N13220   3.269   4.527  12.584 -0.0667  0.1924 -0.6723
  902MPD2    H513221   3.369   4.524  12.568 -0.0886  0.6040 -0.8987
  902MPD2    N113222   2.872   0.079  12.671  1.0022 -0.0792  0.9158
  902MPD2    H713223   2.847   0.172  12.704 -1.0606 -0.0363 -0.7787
  903MPD2     C13224   3.464   4.434  11.790 -0.5014  0.0637 -0.1454
  903MPD2    C113225   3.383   4.470  11.892 -0.4224 -0.2110  0.2384
  903MPD2    C213226   3.262   4.531  11.865  0.1414  0.0590 -0.3263
  903MPD2    C313227   3.215   4.550  11.735 -0.9830  0.1210  0.2069
  903MPD2    C413228   3.294   4.508  11.629  0.3709 -0.0406 -0.2319
  903MPD2    C513229   3.418   4.457  11.659 -0.3216 -0.7641 -0.3050
  903MPD2     H13230   3.192   4.549  11.946  0.3049 -0.7625 -0.0054
  903MPD2    H113231   3.265   4.513  11.525 -1.4259  0.6848  0.3097
  903MPD2    H213232   3.559   4.385  11.811 -0.0022  1.6335  1.1908
  903MPD2    H313233   3.474   4.430  11.570 -0.2295  2.5873 -1.2330
  903MPD2     N13234   3.077   4.583  11.714 -0.0157  0.4458  0.4480
  903MPD2    H513235   3.021   4.571  11.797  1.5306 -1.0863  1.2579
  903MPD2    N113236   3.434   4.435  12.015 -0.1247  0.4977 -0.2672
  903MPD2    H713237   3.527   4.396  12.025 -0.4999  0.1770  2.0896
  904MPD2     C13238   2.539   4.055  13.718 -0.1876 -0.2786 -0.2846
  904MPD2    C113239   2.562   3.940  13.786  0.7216 -0.2857  0.3107
  904MPD2    C213240   2.660   3.944  13.889  0.2988  0.0189  0.6167
  904MPD2    C313241   2.723   4.065  13.921 -0.6128 -0.3412 -0.1741
  904MPD2    C413242   2.682   4.175  13.852 -0.3857  0.4751 -0.1104
  904MPD2    C513243   2.597   4.170  13.749  0.3575  0.5316  0.1248
  904MPD2     H13244   2.695   3.862  13.951  1.1778 -0.1700 -0.1260
  904MPD2    H113245   2.737   4.267  13.868 -0.4456  0.2856  1.1787
  904MPD2    H213246   2.468   4.054  13.636 -0.4030  0.4461 -0.1093
  904MPD2    H313247   2.579   4.265  13.700  0.7544  0.1548 -0.7435
  904MPD2     N13248   2.824   4.063  14.020  0.0158 -0.3608 -0.1625
  904MPD2    H513249   2.848   3.975  14.065 -1.9056 -0.6310  0.3350
  904MPD2    N113250   2.504   3.815  13.761  0.2009  0.1798  0.6552
  904MPD2    H713251   2.553   3.739  13.807  0.9268 -0.1169 -0.6343
  905MPD2     C13252   2.465   4.085  13.133  0.2157  1.1834 -0.2619
  905MPD2    C113253   2.425   4.163  13.240 -0.5057  0.1074 -0.1007
  905MPD2    C213254   2.499   4.278  13.277  0.9701 -0.6176 -0.1875
  905MPD2    C313255   2.620   4.302  13.216 -0.0627 -0.8936  0.0334
  905MPD2    C413256   2.657   4.220  13.113  0.0958 -0.0678 -0.1338
  905MPD2    C513257   2.585   4.118  13.066  0.6235  0.4067  0.0061
  905MPD2     H13258   2.454   4.341  13.352  3.2659  0.1500  0.5595
  905MPD2    H113259   2.746   4.239  13.054 -0.6256  2.5329 -0.3685
  905MPD2    H213260   2.423   3.988  13.109 -2.2154  1.4835  2.7546
  905MPD2    H313261   2.624   4.055  12.987 -1.6270 -1.6586  0.5293
  905MPD2     N13262   2.724   4.385  13.271  0.5688 -0.0912 -0.4994
  905MPD2    H513263   2.815   4.365  13.230 -0.1213  2.0199 -3.0658
  905MPD2    N113264   2.319   4.116  13.322  0.1821  0.8445  0.1944
  905MPD2    H713265   2.280   4.025  13.299 -1.5516  1.6391 -0.0235
  906MPD2     C13266   0.066   3.762  11.300  0.3686 -0.5569  0.4097
  906MPD2    C113267   4.706   3.702  11.194  0.0081 -0.2490 -0.5406
  906MPD2    C213268   4.595   3.632  11.237 -0.1026  0.1733  0.0640
  906MPD2    C313269   4.556   3.626  11.366 -0.3313 -0.3337  0.2859
  906MPD2    C413270   4.639   3.679  11.466  0.8014  0.1049 -0.4442
  906MPD2    C513271   0.030   3.749  11.430  0.1665  0.1294 -0.0825
  906MPD2     H13272   4.535   3.578  11.165 -2.0944  1.0680  1.0646
  906MPD2    H113273   4.611   3.672  11.571  1.0705  3.0782 -0.1689
  906MPD2    H213274   0.161   3.805  11.271 -0.3949  2.6754  2.6415
  906MPD2    H313275   0.090   3.787  11.512 -0.4654  0.2488  0.3184
  906MPD2     N13276   4.437   3.558  11.399  0.3059 -0.0571  0.0559
  906MPD2    H513277   4.421   3.526  11.494  1.0415 -0.0178  0.1939
  906MPD2    N113278   0.032   3.687  11.058 -0.1907 -0.0043  0.1401
  906MPD2    H713279   4.699   3.623  10.998 -0.8379 -0.1494  0.8468
  907MPD2     C13280   3.170   2.753  15.565 -0.0645 -0.2222  0.1843
  907MPD2    C113281   3.233   2.636  15.594 -0.4894  0.0826 -0.0210
  907MPD2    C213282   3.248   2.605  15.726  0.2737  0.2101 -0.5214
  907MPD2    C313283   3.209   2.690  15.832 -0.6987 -0.8345  0.0343
  907MPD2    C413284   3.135   2.805  15.794 -0.0268  0.5586  0.1976
  907MPD2    C513285   3.114   2.833  15.662 -0.6954  0.3928  0.0093
  907MPD2     H13286   3.295   2.511  15.751  0.7205 -0.3649 -3.4406
  907MPD2    H113287   3.103   2.877  15.869  0.9227 -0.0373  1.1752
  907MPD2    H213288   3.158   2.779  15.461  1.5723  1.4144  0.3995
  907MPD2    H313289   3.041   2.911  15.645 -1.0760 -0.6534 -3.1886
  907MPD2     N13290   3.249   2.660  15.967  0.3940 -0.4655 -0.3289
  907MPD2    H513291   3.316   2.584  15.976 -1.7150 -2.2696  0.0379
  907MPD2    N113292   3.266   2.542  15.491  0.0007 -0.7480 -0.1078
  907MPD2    H713293   3.293   2.448  15.517 -0.7460 -1.7244 -2.7732
  908MPD2     C13294   2.510   3.387   9.684  0.2762  0.2002  0.7951
  908MPD2    C113295   2.455   3.306   9.786  0.8781  1.1917 -0.2828
  908MPD2    C213296   2.373   3.371   9.879 -0.3020  0.3041 -0.1686
  908MPD2    C313297   2.337   3.506   9.873  0.1955  0.2065  0.0036
  908MPD2    C413298   2.406   3.584   9.777 -0.0344  0.6771  0.1923
  908MPD2    C513299   2.484   3.522   9.682 -0.2113  0.2041 -0.0671
  908MPD2     H13300   2.327   3.307   9.954  1.3527 -0.6378  0.0460
  908MPD2    H113301   2.384   3.689   9.766  0.7276  0.9906  1.6671
  908MPD2    H213302   2.565   3.351   9.598 -1.8086 -0.3992 -0.2934
  908MPD2    H313303   2.510   3.591   9.603  0.4240  0.6936  0.5721
  908MPD2     N13304   2.249   3.563   9.963 -1.1126 -0.0530  0.7870
  908MPD2    H513305   2.221   3.508  10.044  1.9127  0.5704  2.2642
  908MPD2    N113306   2.476   3.170   9.771  0.3592  0.1412 -0.2056
  908MPD2    H713307   2.553   3.141   9.712  1.1878  1.5214  0.1981
  909MPD2     C13308   1.538   1.298  11.467  0.3749  0.3525 -0.3517
  909MPD2    C113309   1.600   1.428  11.456  0.6538 -0.3923 -0.0427
  909MPD2    C213310   1.583   1.522  11.556  0.5303  0.1276 -0.3420
  909MPD2    C313311   1.510   1.484  11.672  1.1585  0.0453  0.0786
  909MPD2    C413312   1.464   1.351  11.680 -1.2832  0.4491 -0.9130
  909MPD2    C513313   1.469   1.266  11.575  0.4238 -0.2107 -0.6519
  909MPD2     H13314   1.614   1.625  11.544  2.8234 -0.9346 -3.4232
  909MPD2    H113315   1.410   1.313  11.766 -1.0067 -0.7808 -1.2813
  909MPD2    H213316   1.544   1.226  11.387  1.3274  0.7276 -0.6232
  909MPD2    H313317   1.424   1.168  11.578 -0.9667  0.4374 -0.5303
  909MPD2     N13318   1.501   1.575  11.777 -0.6132  0.4580  0.4024
  909MPD2    H513319   1.545   1.665  11.757  3.8365 -1.2627  2.3541
  909MPD2    N113320   1.674   1.466  11.343  0.1362  0.8550 -0.7819
  909MPD2    H713321   1.703   1.563  11.341 -0.3911  1.0382  0.9212
  910MPD2     C13322   2.456   2.421  15.246 -0.4299  0.3096  0.7825
  910MPD2    C113323   2.492   2.540  15.307  0.2637 -0.0787  0.1448
  910MPD2    C213324   2.442   2.657  15.265 -0.4733 -0.1809 -0.2319
  910MPD2    C313325   2.347   2.648  15.162  0.4493 -0.3318  0.0867
  910MPD2    C413326   2.299   2.524  15.110  0.1849 -0.1834 -0.3347
  910MPD2    C513327   2.355   2.412  15.163 -1.1090 -0.9704 -0.0661
  910MPD2     H13328   2.469   2.752  15.309 -1.6704  0.0192  0.0942
  910MPD2    H113329   2.230   2.507  15.028  2.7320 -0.3318 -2.4413
  910MPD2    H213330   2.509   2.329  15.269 -0.0678  0.1994 -0.4831
  910MPD2    H313331   2.329   2.311  15.133 -2.2876 -1.2704  2.0002
  910MPD2     N13332   2.306   2.769  15.096 -0.7055  0.0972  0.0151
  910MPD2    H513333   2.233   2.771  15.025  0.0786  2.1128 -0.7279
  910MPD2    N113334   2.602   2.526  15.396  0.1204  0.3073  0.9053
  910MPD2    H713335   2.639   2.435  15.420  1.3558 -0.3615 -3.5203
  911MPD2     C13336   0.288   3.023  16.291 -0.0347 -0.9958 -0.6477
  911MPD2    C113337   0.308   3.132  16.377 -0.2567  0.3651  0.9028
  911MPD2    C213338   0.213   3.235  16.380 -0.0873 -0.3614  1.0428
  911MPD2    C313339   0.111   3.233  16.283  0.3878  0.4967  0.5969
  911MPD2    C413340   0.085   3.123  16.209 -0.0324  0.3727 -0.8159
  911MPD2    C513341   0.179   3.018  16.212 -0.6079  0.2575  0.6182
  911MPD2     H13342   0.212   3.315  16.454 -1.1828 -1.6038  2.3701
  911MPD2    H113343   4.717   3.112  16.144 -2.1213  2.0219  1.6798
  911MPD2    H213344   0.354   2.939  16.276 -1.2351 -2.2110  0.8201
  911MPD2    H313345   0.170   2.928  16.152 -1.1001 -0.2526  1.4672
  911MPD2     N13346   0.017   3.340  16.276 -0.0353  0.3605 -0.1558
  911MPD2    H513347   4.661   3.312  16.213  2.0566 -0.7820 -2.1154
  911MPD2    N113348   0.435   3.131  16.450 -0.2454  0.0591 -0.2008
  911MPD2    H713349   0.500   3.058  16.423 -1.8179 -2.2467  2.2892
  912MPD2     C13350   4.605   3.184  15.766 -0.3558  0.4067 -0.0922
  912MPD2    C113351   4.553   3.199  15.893  0.8516  0.0524  0.3387
  912MPD2    C213352   4.543   3.088  15.974  0.0741  0.6174 -0.2551
  912MPD2    C313353   4.579   2.962  15.932  0.2382 -0.4307 -0.1584
  912MPD2    C413354   4.635   2.952  15.809 -0.2616  0.4214  0.4005
  912MPD2    C513355   4.641   3.059  15.728 -0.3647  0.6847 -0.1056
  912MPD2     H13356   4.507   3.098  16.076  0.7122  1.6074 -0.1239
  912MPD2    H113357   4.655   2.853  15.771 -0.1175  0.5468  0.1567
  912MPD2    H213358   4.605   3.268  15.698  0.2272 -0.1636 -0.7923
  912MPD2    H313359   4.692   3.044  15.634  0.9490  2.8233  0.2594
  912MPD2     N13360   4.560   2.850  16.013 -0.2154 -0.4217 -0.0670
  912MPD2    H513361   4.520   2.876  16.102  1.8850  1.8063  0.2372
  912MPD2    N113362   4.531   3.329  15.940 -0.0090  0.0523 -0.0486
  912MPD2    H713363   4.555   3.400  15.871  0.5555  0.2365  0.3376
  913MPD2     C13364   1.318   4.697  10.586 -0.4345 -0.0851 -0.4346
  913MPD2    C113365   1.440   0.017  10.633 -0.3249  0.4343  0.0078
  913MPD2    C213366   1.495   0.133  10.578 -0.2184  0.3964 -0.2119
  913MPD2    C313367   1.431   0.210  10.482  0.2855 -0.0950 -0.5428
  913MPD2    C413368   1.299   0.173  10.455  0.5661  0.1180  0.0215
  913MPD2    C513369   1.250   0.058  10.501  0.2010 -0.3807 -0.8872
  913MPD2     H13370   1.593   0.163  10.613 -0.9221  0.2439  1.9027
  913MPD2    H113371   1.243   0.232  10.383 -0.1189  0.1905  0.6077
  913MPD2    H213372   1.273   4.609  10.631 -0.7532  0.4459  0.2852
  913MPD2    H313373   1.149   0.031  10.473 -0.3257  1.4772 -0.7393
  913MPD2     N13374   1.493   0.319  10.417  0.4134 -0.4152  0.2005
  913MPD2    H513375   1.445   0.372  10.345  1.2022 -0.4532 -0.3544
  913MPD2    N113376   1.505   4.653  10.720 -0.5575  0.0872 -0.1113
  913MPD2    H713377   1.457   4.566  10.739 -2.1303  0.4644 -2.3646
  914MPD2     C13378   3.927   0.663  11.669  0.5764  0.1898 -0.3297
  914MPD2    C113379   3.921   0.799  11.707 -0.5217 -0.0502  0.3243
  914MPD2    C213380   3.915   0.824  11.842 -0.6438  0.0000  0.2672
  914MPD2    C313381   3.903   0.723  11.934 -0.5189  0.3954 -0.0987
  914MPD2    C413382   3.906   0.594  11.896  0.0285 -0.0563  0.0346
  914MPD2    C513383   3.915   0.568  11.760 -0.0929  0.0353 -0.5369
  914MPD2     H13384   3.900   0.923  11.883 -2.0159 -0.7948  1.6744
  914MPD2    H113385   3.907   0.506  11.959  1.9495 -1.7167 -2.2960
  914MPD2    H213386   3.958   0.636  11.568 -0.7807 -4.1609  0.4001
  914MPD2    H313387   3.936   0.468  11.723  1.5334  0.2064 -0.0554
  914MPD2     N13388   3.896   0.765  12.071  0.4356  0.2295  0.3024
  914MPD2    H513389   3.922   0.863  12.077  0.0773  0.3408  0.0354
  914MPD2    N113390   3.951   0.893  11.603  0.0384 -0.3639 -0.2697
  914MPD2    H713391   3.985   0.865  11.512 -0.2282 -1.7722  0.0550
  915MPD2     C13392   1.384   0.471  15.068  0.0954 -0.4754  0.3811
  915MPD2    C113393   1.254   0.461  15.107 -0.5030  0.1735 -0.1368
  915MPD2    C213394   1.220   0.452  15.240  0.0837 -0.8253 -0.3369
  915MPD2    C313395   1.319   0.448  15.342 -0.7812 -0.3588  0.0038
  915MPD2    C413396   1.447   0.449  15.293  0.1042 -0.0409 -0.7416
  915MPD2    C513397   1.480   0.474  15.164  0.1239  0.0991  0.2881
  915MPD2     H13398   1.115   0.448  15.267 -0.1237 -3.2416 -1.5009
  915MPD2    H113399   1.532   0.442  15.360 -1.8214 -1.3160  1.5300
  915MPD2    H213400   1.414   0.483  14.965 -2.0353  2.1615  0.0645
  915MPD2    H313401   1.585   0.473  15.136  0.0571 -1.2520  0.0667
  915MPD2     N13402   1.288   0.470  15.484 -0.3542  0.8007  0.3640
  915MPD2    H513403   1.188   0.463  15.504 -0.1703  1.6611  1.5969
  915MPD2    N113404   1.160   0.483  15.008  0.0265 -0.6805  0.1082
  915MPD2    H713405   1.188   0.539  14.928  0.4083 -0.9720  0.0393
  916MPD2     C13406   4.319   3.274  15.513  0.5366  0.4632  0.3166
  916MPD2    C113407   4.299   3.163  15.588 -0.7984 -0.8117  0.0591
  916MPD2    C213408   4.347   3.038  15.548 -0.4838 -0.7639  0.6247
  916MPD2    C313409   4.426   3.030  15.438 -0.4651 -0.3457 -0.2768
  916MPD2    C413410   4.450   3.147  15.362 -0.1385  0.0127  0.6799
  916MPD2    C513411   4.400   3.265  15.405 -0.8206  0.2480 -0.3633
  916MPD2     H13412   4.333   2.945  15.601  1.5172 -2.0104 -1.0521
  916MPD2    H113413   4.523   3.143  15.282 -2.6457  4.9007 -1.8287
  916MPD2    H213414   4.295   3.374  15.547 -0.4178  0.1849  0.4669
  916MPD2    H313415   4.435   3.352  15.350 -0.0217  0.1693  0.0268
  916MPD2     N13416   4.488   2.903  15.408  0.0834  0.7800 -0.0864
  916MPD2    H513417   4.467   2.825  15.470  1.8292  0.5771  0.2449
  916MPD2    N113418   4.221   3.179  15.702 -0.3148  0.2309  0.5168
  916MPD2    H713419   4.185   3.273  15.711 -1.4884 -0.1338 -0.4698
  917MPD2     C13420   1.016   1.581  10.925  0.7545 -0.0690 -0.3199
  917MPD2    C113421   1.030   1.674  11.026 -0.4286 -0.1318  0.1477
  917MPD2    C213422   1.125   1.774  11.002 -0.0532  0.5503 -0.1998
  917MPD2    C313423   1.210   1.781  10.887  0.1763 -0.1315  0.1810
  917MPD2    C413424   1.186   1.693  10.793  0.7528  0.7425 -0.2040
  917MPD2    C513425   1.097   1.593  10.812  1.1507 -0.2674  0.2753
  917MPD2     H13426   1.131   1.851  11.078 -0.9331  0.6067 -0.1933
  917MPD2    H113427   1.243   1.693  10.702 -0.3003  0.5160 -0.8721
  917MPD2    H213428   0.948   1.498  10.942  1.1002  0.1244  2.0029
  917MPD2    H313429   1.084   1.512  10.741  0.2586  0.3453 -0.2619
  917MPD2     N13430   1.302   1.892  10.865  0.8362  0.3766 -0.6059
  917MPD2    H513431   1.339   1.890  10.771  2.1662 -0.2210 -0.0705
  917MPD2    N113432   0.958   1.655  11.145 -1.0327  0.9963  0.2649
  917MPD2    H713433   0.902   1.570  11.144 -2.6374  2.0451  0.9700
  918MPD2     C13434   1.157   1.647  12.155  0.0049 -0.4561 -0.3057
  918MPD2    C113435   1.119   1.528  12.089  0.0142  0.2417 -0.2913
  918MPD2    C213436   1.031   1.540  11.980 -0.2211 -0.1441 -0.2419
  918MPD2    C313437   0.993   1.660  11.933  0.2560 -0.4383  0.4569
  918MPD2    C413438   1.022   1.773  12.012 -0.1853 -0.3194  0.1877
  918MPD2    C513439   1.101   1.768  12.125 -0.0854 -0.1990 -0.4795
  918MPD2     H13440   1.016   1.454  11.916 -0.3348 -0.8449  0.7381
  918MPD2    H113441   0.995   1.874  11.984 -0.6264 -0.7986 -1.0948
  918MPD2    H213442   1.222   1.637  12.241 -2.2846  4.3118  1.9229
  918MPD2    H313443   1.136   1.855  12.179 -4.2399  1.0583  0.1541
  918MPD2     N13444   0.922   1.661  11.808 -0.3724  0.3490 -0.3340
  918MPD2    H513445   0.898   1.572  11.766 -1.0578  0.8350 -0.9720
  918MPD2    N113446   1.169   1.401  12.109  0.0017 -0.2616 -0.0534
  918MPD2    H713447   1.145   1.328  12.042 -1.1342  0.8364 -0.8279
  919MPD2     C13448   1.615   0.300  11.636 -0.3910 -0.1443  0.5294
  919MPD2    C113449   1.545   0.200  11.577  0.0124 -0.0847  0.1654
  919MPD2    C213450   1.549   0.197  11.439 -0.4608  0.6113  1.4576
  919MPD2    C313451   1.626   0.286  11.365 -0.0080 -0.3789 -0.3191
  919MPD2    C413452   1.720   0.356  11.430 -0.3984  0.5502 -0.0459
  919MPD2    C513453   1.699   0.371  11.562 -0.0220  0.5213  0.5829
  919MPD2     H13454   1.469   0.138  11.396 -0.9838  0.2304  2.9570
  919MPD2    H113455   1.813   0.396  11.390  1.2716 -2.1880  1.0536
  919MPD2    H213456   1.612   0.310  11.744 -0.3075  1.2639  0.4054
  919MPD2    H313457   1.771   0.433  11.614  0.4985 -0.8584  1.4882
  919MPD2     N13458   1.615   0.302  11.224 -0.0978 -0.6101 -0.7887
  919MPD2    H513459   1.672   0.378  11.188 -0.1126 -0.9378 -1.4959
  919MPD2    N113460   1.462   0.106  11.645 -0.1792  0.5376  0.3431
  919MPD2    H713461   1.415   0.029  11.599  1.1927  1.1188 -2.0416
  920MPD2     C13462   1.823   0.878  10.432 -0.1627 -0.0052 -0.3774
  920MPD2    C113463   1.685   0.855  10.416  0.5358  0.1907  0.1920
  920MPD2    C213464   1.621   0.764  10.494 -0.1949 -0.1092 -0.1481
  920MPD2    C313465   1.694   0.696  10.580  0.8984  0.2493  0.2736
  920MPD2    C413466   1.833   0.717  10.602 -0.3277  0.4077  0.0714
  920MPD2    C513467   1.893   0.811  10.526  0.0634 -0.2984 -0.1073
  920MPD2     H13468   1.513   0.763  10.481 -0.0717  0.3916 -1.1867
  920MPD2    H113469   1.896   0.652  10.662 -0.2269 -0.6946 -1.2221
  920MPD2    H213470   1.881   0.935  10.361  1.5317  1.5376  2.2286
  920MPD2    H313471   1.999   0.829  10.541 -0.0121 -0.9442  1.1925
  920MPD2     N13472   1.626   0.601  10.656 -0.1925 -0.1086  0.1997
  920MPD2    H513473   1.530   0.599  10.623 -0.2940 -1.1520  0.5560
  920MPD2    N113474   1.603   0.909  10.317  0.2497  0.1441 -0.3239
  920MPD2    H713475   1.501   0.901  10.318  0.1102  2.0306 -0.6266
  921MPD2     C13476   0.850   4.007  16.549 -0.8772  0.5591 -0.0326
  921MPD2    C113477   0.946   3.918  16.499 -0.0733  0.1067  0.1091
  921MPD2    C213478   0.918   3.781  16.514  0.9609  0.1004  0.1034
  921MPD2    C313479   0.812   3.735  16.585 -0.3358  0.1068 -0.4764
  921MPD2    C413480   0.722   3.823  16.639 -0.3222 -0.4037 -0.3638
  921MPD2    C513481   0.738   3.958  16.610  1.3529  0.1482  0.0247
  921MPD2     H13482   0.984   3.705  16.474  1.3089  2.5050 -3.8274
  921MPD2    H113483   0.640   3.791  16.702  0.0628  0.5292  0.6071
  921MPD2    H213484   0.866   4.114  16.544 -0.1448  0.6459  3.7294
  921MPD2    H313485   0.666   4.024  16.658  1.2473  0.0720 -0.0294
  921MPD2     N13486   0.782   3.600  16.605 -0.5108 -0.4919  0.0360
  921MPD2    H513487   0.689   3.573  16.633 -1.6102  2.1683 -1.0693
  921MPD2    N113488   1.070   3.959  16.446  0.5260  0.2814  0.2163
  921MPD2    H713489   1.076   4.055  16.414 -1.4884  0.0943 -0.7138
  922MPD2     C13490   2.665   1.658  17.523  0.1488 -0.4898 -0.3365
  922MPD2    C113491   2.621   1.543  17.584  0.6402 -0.0575  0.1796
  922MPD2    C213492   2.522   1.466  17.517 -0.5885 -0.0928 -0.4446
  922MPD2    C313493   2.470   1.519  17.401 -0.8285  0.6610  0.5857
  922MPD2    C413494   2.513   1.635  17.343 -0.2845  0.0792  0.2294
  922MPD2    C513495   2.604   1.703  17.409  0.3854  0.1471 -0.7012
  922MPD2     H13496   2.495   1.370  17.558 -1.5802  0.2134 -0.3768
  922MPD2    H113497   2.470   1.678  17.253  0.8804  1.3671  0.2933
  922MPD2    H213498   2.741   1.714  17.576 -1.2828 -0.3024  1.5197
  922MPD2    H313499   2.645   1.788  17.356  0.2054  0.6207 -0.0840
  922MPD2     N13500   2.362   1.454  17.332  0.1857 -0.3963  0.1973
  922MPD2    H513501   2.332   1.492  17.243 -2.0195 -0.9155  0.7205
  922MPD2    N113502   2.672   1.495   0.033  0.5801 -0.6169  0.0158
  922MPD2    H713503   2.608   1.429   0.074 -0.3820  0.3612  0.0810
  923MPD2     C13504   3.945   3.743   8.727 -0.5677  0.0390  0.3816
  923MPD2    C113505   3.946   3.796   8.853 -0.1514 -0.2594 -0.3357
  923MPD2    C213506   4.058   3.781   8.929  0.2231  0.1167  0.2754
  923MPD2    C313507   4.165   3.709   8.873 -0.3474  0.0156 -0.4528
  923MPD2    C413508   4.160   3.668   8.741  0.0960  0.4883 -0.0018
  923MPD2    C513509   4.048   3.683   8.668  0.6286  0.1541 -0.4249
  923MPD2     H13510   4.064   3.815   9.032  2.3469 -2.5740  1.0361
  923MPD2    H113511   4.241   3.615   8.694 -0.8177 -0.2060 -0.7783
  923MPD2    H213512   3.862   3.748   8.657  0.0296  1.7207 -0.1939
  923MPD2    H313513   4.042   3.639   8.569 -0.0177 -0.9615  0.1099
  923MPD2     N13514   4.282   3.689   8.942  0.8983  0.5232  0.8872
  923MPD2    H513515   4.346   3.621   8.901 -0.7578 -0.1569 -0.5569
  923MPD2    N113516   3.828   3.859   8.902  0.2128 -0.3211  0.2057
  923MPD2    H713517   3.747   3.854   8.841  0.2197 -1.2623  0.2742
  924MPD2     C13518   3.763   2.072  16.208 -0.0401 -0.2568  1.0255
  924MPD2    C113519   3.672   2.088  16.310  0.4114 -0.1124  0.2118
  924MPD2    C213520   3.630   2.217  16.341 -0.2976  0.1409 -0.1260
  924MPD2    C313521   3.672   2.333  16.268  0.0453  0.4417 -0.9191
  924MPD2    C413522   3.758   2.311  16.165  0.5397 -0.6070  0.4013
  924MPD2    C513523   3.799   2.183  16.138  0.2661  0.7382  0.3049
  924MPD2     H13524   3.565   2.225  16.427 -0.1091  0.5075 -0.0172
  924MPD2    H113525   3.788   2.387  16.094 -3.5949 -0.3088 -0.9629
  924MPD2    H213526   3.808   1.981  16.170 -2.4024  0.2093 -2.8274
  924MPD2    H313527   3.862   2.167  16.051  0.4261  1.0395  0.3650
  924MPD2     N13528   3.607   2.459  16.267  0.0150  0.5782  0.3650
  924MPD2    H513529   3.642   2.538  16.213  2.1154 -0.1702  0.6481
  924MPD2    N113530   3.622   1.972  16.379  0.4680 -0.3130  0.6655
  924MPD2    H713531   3.646   1.884  16.334  3.4896  0.9822 -0.2670
  925MPD2     C13532   2.152   4.270  14.767  0.3880  1.1164  0.6216
  925MPD2    C113533   2.034   4.350  14.776 -0.0168  0.5529  0.5712
  925MPD2    C213534   1.941   4.333  14.886  0.1798 -0.4998  0.0559
  925MPD2    C313535   1.960   4.237  14.984  0.2481  0.0673 -0.3225
  925MPD2    C413536   2.074   4.165  14.976 -0.2478 -0.0010  0.8280
  925MPD2    C513537   2.169   4.183  14.874  0.0703 -0.7145 -0.4110
  925MPD2     H13538   1.854   4.397  14.883 -0.4833 -1.3307  1.9780
  925MPD2    H113539   2.082   4.098  15.061 -0.6472  0.3530  1.1414
  925MPD2    H213540   2.226   4.277  14.688 -0.9500  0.7338 -0.6676
  925MPD2    H313541   2.243   4.104  14.868  0.1695 -0.7881  1.5944
  925MPD2     N13542   1.868   4.199  15.088  0.2150 -0.1668  0.1023
  925MPD2    H513543   1.899   4.123  15.148 -2.2455 -1.5875 -0.4224
  925MPD2    N113544   2.015   4.460  14.689  0.4714 -0.1045 -0.3104
  925MPD2    H713545   1.924   4.504  14.678 -0.2245 -1.0356  1.6818
  926MPD2     C13546   1.586   3.007  13.072 -0.3359 -0.0453 -0.0270
  926MPD2    C113547   1.566   3.142  13.075 -0.3366 -0.0034 -0.0211
  926MPD2    C213548   1.655   3.230  13.020 -0.0064  0.2068 -0.9972
  926MPD2    C313549   1.764   3.181  12.962 -0.3816  0.0468  0.0207
  926MPD2    C413550   1.782   3.041  12.946 -0.7557 -0.2074  0.5826
  926MPD2    C513551   1.690   2.955  13.000 -0.3406  0.0194  0.3700
  926MPD2     H13552   1.630   3.335  13.030  2.9667  0.6165  2.2695
  926MPD2    H113553   1.866   2.997  12.894 -0.7754 -0.6329  0.9088
  926MPD2    H213554   1.507   2.948  13.116  1.4087  0.3349  3.5812
  926MPD2    H313555   1.703   2.854  12.964 -1.8545 -1.0609  2.8468
  926MPD2     N13556   1.865   3.258  12.904 -0.6213 -0.0808  0.5043
  926MPD2    H513557   1.939   3.207  12.857  0.5205  3.0911 -1.0957
  926MPD2    N113558   1.447   3.197  13.132  0.3966 -0.0126 -0.2797
  926MPD2    H713559   1.439   3.299  13.131  0.9815  0.0412  0.2968
  927MPD2     C13560   0.462   0.252   0.515 -0.5532 -0.0013 -0.7449
  927MPD2    C113561   0.589   0.317   0.531  0.2036 -0.0805  0.5707
  927MPD2    C213562   0.692   0.292   0.443  0.4260  0.0639 -0.0602
  927MPD2    C313563   0.681   0.197   0.341 -0.3185  0.0015 -0.1021
  927MPD2    C413564   0.561   0.132   0.329 -1.1853 -0.7210 -0.1059
  927MPD2    C513565   0.449   0.161   0.410  0.5937 -0.8772  0.0866
  927MPD2     H13566   0.790   0.325   0.473  0.1633  1.3211 -0.5849
  927MPD2    H113567   0.541   0.066   0.245 -2.0179 -0.0788 -0.4191
  927MPD2    H213568   0.380   0.265   0.584  1.6624 -1.4461  2.1106
  927MPD2    H313569   0.363   0.099   0.389 -0.8595  0.7372  1.3396
  927MPD2     N13570   0.788   0.178   0.253  0.2008 -0.3295  0.0611
  927MPD2    H513571   0.872   0.230   0.277 -0.5457  0.4547  0.9973
  927MPD2    N113572   0.604   0.395   0.648 -0.7394  0.0645 -0.1829
  927MPD2    H713573   0.524   0.405   0.709 -0.2904  1.0615  0.2472
  928MPD2     C13574   3.107   0.036   1.161 -0.3374 -0.0126  0.5111
  928MPD2    C113575   3.217   0.059   1.237  0.6385  0.3013 -0.0292
  928MPD2    C213576   3.340   0.023   1.188 -0.1181  1.2123  0.6089
  928MPD2    C313577   3.345   4.668   1.070  0.3520 -0.2363  0.7138
  928MPD2    C413578   3.234   4.642   0.998  0.0368  0.2387 -0.2543
  928MPD2    C513579   3.115   4.679   1.042 -0.0936 -0.2098 -0.2814
  928MPD2     H13580   3.434   0.066   1.220  0.0239  0.5928  1.0256
  928MPD2    H113581   3.228   4.581   0.909 -2.0325 -1.8895  1.3438
  928MPD2    H213582   3.008   0.064   1.195 -0.9372 -0.5585 -0.8010
  928MPD2    H313583   3.025   4.649   0.988  1.2429  0.9406 -3.1245
  928MPD2     N13584   3.471   4.625   1.014  0.1792  0.3162  0.1584
  928MPD2    H513585   3.471   4.591   0.918 -1.7706 -0.0207  0.2699
  928MPD2    N113586   3.193   0.131   1.360 -0.4658  0.5907  0.4628
  928MPD2    H713587   3.097   0.144   1.391  0.3729  0.2797  3.1861
  929MPD2     C13588   4.143   3.861  10.216  0.5940  0.6407  0.7000
  929MPD2    C113589   4.020   3.811  10.255 -0.0464 -0.3517 -0.0028
  929MPD2    C213590   3.924   3.810  10.155 -0.1042  0.7041  0.4201
  929MPD2    C313591   3.943   3.863  10.028 -0.4203  0.2417 -0.1653
  929MPD2    C413592   4.061   3.926   9.996  1.0451 -0.1464 -0.3928
  929MPD2    C513593   4.162   3.916  10.091  0.4454 -0.1812 -0.2061
  929MPD2     H13594   3.827   3.779  10.193 -0.5342 -1.1062 -2.1719
  929MPD2    H113595   4.078   3.978   9.902  0.0357 -3.7936 -2.6229
  929MPD2    H213596   4.219   3.869  10.292  2.2836  1.2922 -1.0624
  929MPD2    H313597   4.252   3.971  10.065 -0.7936  1.6687 -0.5866
  929MPD2     N13598   3.845   3.857   9.933  0.1832 -0.0300  0.1228
  929MPD2    H513599   3.873   3.888   9.840 -0.1823  1.0074  0.3529
  929MPD2    N113600   3.996   3.785  10.392  0.6501  0.7579  0.3000
  929MPD2    H713601   4.069   3.790  10.461 -0.5234  3.7135  1.3129
  930MPD2     C13602   0.439   1.360  13.883  0.1581  0.3437 -0.2265
  930MPD2    C113603   0.515   1.422  13.780  0.1610 -0.2334 -0.5041
  930MPD2    C213604   0.523   1.361  13.650 -0.4305  0.1292 -0.6838
  930MPD2    C313605   0.437   1.252  13.618  0.3227  0.1009  0.0601
  930MPD2    C413606   0.364   1.194  13.719  0.0580 -0.1574  0.3467
  930MPD2    C513607   0.365   1.248  13.847 -0.6381  0.0952 -0.3103
  930MPD2     H13608   0.591   1.393  13.572 -0.1660 -0.5896 -0.7454
  930MPD2    H113609   0.311   1.101  13.697 -1.5503  0.6497  0.8511
  930MPD2    H213610   0.428   1.396  13.985  1.2310  0.6104 -0.2051
  930MPD2    H313611   0.307   1.198  13.924  0.7500 -0.9860  0.0318
  930MPD2     N13612   0.446   1.186  13.497 -0.5141  0.1455 -0.3026
  930MPD2    H513613   0.413   1.090  13.502  3.4257 -1.1803 -0.3320
  930MPD2    N113614   0.599   1.539  13.806 -0.0670 -0.2488  0.1184
  930MPD2    H713615   0.620   1.576  13.898  3.3964 -1.5709 -0.1144
  931MPD2     C13616   1.244   0.496   1.092 -0.2677  0.1728 -0.1263
  931MPD2    C113617   1.134   0.496   1.166  0.4635  0.0964  0.5776
  931MPD2    C213618   1.127   0.440   1.289  0.7944  0.2517 -0.1824
  931MPD2    C313619   1.242   0.392   1.346  0.1250  0.7964 -0.8012
  931MPD2    C413620   1.357   0.407   1.281  0.0238  0.0484  0.2002
  931MPD2    C513621   1.356   0.446   1.149  0.6671  0.3041 -0.9470
  931MPD2     H13622   1.036   0.455   1.347  1.7566 -1.6357  1.8044
  931MPD2    H113623   1.450   0.384   1.332 -0.0484  0.0989  0.3556
  931MPD2    H213624   1.256   0.543   0.995  2.8337  0.0449  0.1965
  931MPD2    H313625   1.443   0.447   1.084  0.6509 -1.4895 -1.0207
  931MPD2     N13626   1.248   0.337   1.473 -0.9142 -0.2034 -0.6544
  931MPD2    H513627   1.335   0.289   1.489 -2.4490 -3.2193 -1.3007
  931MPD2    N113628   1.020   0.534   1.094  0.2205  0.2118 -0.0620
  931MPD2    H713629   1.034   0.580   1.004 -0.9788  3.0060  1.1844
  932MPD2     C13630   3.861   4.694  11.442  0.4914  0.9002  0.1799
  932MPD2    C113631   3.744   4.711  11.370 -0.7645  0.3058  0.2465
  932MPD2    C213632   3.668   4.600  11.337  0.6429 -0.0432  0.8523
  932MPD2    C313633   3.701   4.470  11.381  0.3045 -0.5310 -0.3265
  932MPD2    C413634   3.819   4.460  11.462  0.4475 -0.2733  0.0068
  932MPD2    C513635   3.898   4.569  11.489  0.4254  0.1727  0.2176
  932MPD2     H13636   3.570   4.612  11.291  1.9500 -0.2719 -1.9686
  932MPD2    H113637   3.854   4.364  11.499 -1.0285 -0.5155  0.7513
  932MPD2    H213638   3.928   0.058  11.463 -0.4236  1.8561 -0.6448
  932MPD2    H313639   3.990   4.567  11.547 -1.2292  2.7184  2.9149
  932MPD2     N13640   3.633   4.348  11.362  0.2008 -0.3713 -0.2936
  932MPD2    H513641   3.670   4.260  11.397 -1.0090 -0.9714 -0.5283
  932MPD2    N113642   3.696   0.120  11.328 -0.9198  0.0825  0.1819
  932MPD2    H713643   3.608   0.109  11.278 -0.8638 -1.0327  0.3215
  933MPD2     C13644   2.951   0.357   2.166  1.0467  0.5446  0.2879
  933MPD2    C113645   2.911   0.360   2.033  0.3472 -0.0075  0.0838
  933MPD2    C213646   2.777   0.330   2.001  0.0348 -0.3980 -0.8725
  933MPD2    C313647   2.687   0.310   2.104 -0.2128  0.8849 -0.7686
  933MPD2    C413648   2.728   0.313   2.231 -0.2933 -0.1803  1.1124
  933MPD2    C513649   2.857   0.339   2.263  0.4699  0.0698 -0.0713
  933MPD2     H13650   2.733   0.315   1.902  1.1941  3.0174 -1.8857
  933MPD2    H113651   2.655   0.310   2.311 -2.1817  0.6584 -0.5866
  933MPD2    H213652   3.054   0.371   2.195  0.9778 -0.2873  0.9120
  933MPD2    H313653   2.885   0.345   2.368 -1.2458  1.4437  0.3109
  933MPD2     N13654   2.552   0.282   2.075  0.1229  0.1621  0.0624
  933MPD2    H513655   2.522   0.281   1.978 -0.9933  1.0603  0.4125
  933MPD2    N113656   3.006   0.380   1.929 -0.1564  0.2631  0.3126
  933MPD2    H713657   3.100   0.396   1.963 -1.1964  0.6316  3.0560
  934MPD2     C13658   0.364   0.823   2.832  0.5748 -0.8687 -0.3789
  934MPD2    C113659   0.449   0.850   2.722  0.0254  0.3402 -0.0578
  934MPD2    C213660   0.398   0.882   2.598 -0.0994 -0.1635  0.1896
  934MPD2    C313661   0.260   0.887   2.574 -0.3603 -0.0091  0.4925
  934MPD2    C413662   0.177   0.862   2.679 -0.1590 -0.0244  0.2570
  934MPD2    C513663   0.228   0.828   2.805  0.6731 -0.0434  0.2621
  934MPD2     H13664   0.469   0.911   2.520 -0.4037 -1.0353 -0.4073
  934MPD2    H113665   0.070   0.852   2.667 -0.3522  2.1843  0.0171
  934MPD2    H213666   0.397   0.798   2.932  1.3530 -0.8271 -0.6242
  934MPD2    H313667   0.157   0.808   2.884 -1.1814 -2.7716 -2.1170
  934MPD2     N13668   0.200   0.922   2.450 -0.0138 -0.2043 -0.0615
  934MPD2    H513669   0.099   0.919   2.443 -0.0092 -0.0792 -0.1789
  934MPD2    N113670   0.588   0.843   2.733 -0.0503  0.3695  0.5140
  934MPD2    H713671   0.641   0.852   2.647 -0.0932  0.7115  0.5252
  935MPD2     C13672   0.484   0.722   1.485 -0.0686 -0.4363  0.1490
  935MPD2    C113673   0.352   0.712   1.499 -0.7249  0.1079 -0.2075
  935MPD2    C213674   0.289   0.773   1.610 -0.0960  0.2842  0.0692
  935MPD2    C313675   0.375   0.827   1.712 -0.0574  0.1376  0.3637
  935MPD2    C413676   0.509   0.822   1.698 -0.8142  0.2846 -0.1135
  935MPD2    C513677   0.562   0.772   1.584  0.1767  0.3308 -0.3445
  935MPD2     H13678   0.180   0.767   1.610 -0.0566 -0.4950 -0.9712
  935MPD2    H113679   0.575   0.839   1.782  0.8111 -1.0654 -1.1200
  935MPD2    H213680   0.532   0.669   1.404 -1.5682 -0.0655 -0.9842
  935MPD2    H313681   0.669   0.778   1.570  0.1735 -1.2156 -1.0180
  935MPD2     N13682   0.331   0.897   1.826 -0.0552 -0.2713 -0.5722
  935MPD2    H513683   0.403   0.936   1.887  0.1739 -0.8443 -0.4718
  935MPD2    N113684   0.270   0.638   1.411  0.0953 -0.0793 -0.1505
  935MPD2    H713685   0.172   0.661   1.418 -0.2979 -1.3873 -1.3931
  936MPD2     C13686   3.667   2.339  12.552  0.2524  0.3489 -0.1547
  936MPD2    C113687   3.779   2.368  12.630 -0.0975  0.3664 -0.2482
  936MPD2    C213688   3.869   2.461  12.586  0.4565  0.3451  0.6771
  936MPD2    C313689   3.854   2.530  12.467  1.1082 -0.2680 -0.3092
  936MPD2    C413690   3.745   2.492  12.395 -0.4424 -0.2290  0.3358
  936MPD2    C513691   3.651   2.400  12.436 -0.3999  0.2053  0.0741
  936MPD2     H13692   3.961   2.485  12.638 -1.3307  1.8571  3.1717
  936MPD2    H113693   3.715   2.537  12.301  0.9515 -1.2511 -0.5886
  936MPD2    H213694   3.593   2.268  12.587  0.8924  1.0245  2.5826
  936MPD2    H313695   3.568   2.379  12.369 -0.7408  0.6392  0.3594
  936MPD2     N13696   3.956   2.618  12.419 -0.1573  0.3633 -0.4304
  936MPD2    H513697   4.036   2.626  12.481  0.1502 -3.1790 -0.3433
  936MPD2    N113698   3.810   2.311  12.753  0.6290 -0.3073  0.3064
  936MPD2    H713699   3.898   2.347  12.788 -0.2350  1.2082  0.9409
  937MPD2     C13700   1.629   4.127  11.668  0.0770 -0.0720 -0.3527
  937MPD2    C113701   1.659   4.258  11.651  0.1976 -0.6054  0.5983
  937MPD2    C213702   1.750   4.284  11.550 -0.5608 -0.1496  0.3113
  937MPD2    C313703   1.819   4.188  11.479  0.1743 -0.0332  0.7817
  937MPD2    C413704   1.780   4.055  11.505 -0.1281  0.0323 -0.6525
  937MPD2    C513705   1.699   4.030  11.603  0.1984 -0.0481  0.1356
  937MPD2     H13706   1.767   4.390  11.540 -2.6056 -0.1835 -3.7553
  937MPD2    H113707   1.826   3.972  11.454  0.7705  0.5870 -0.7461
  937MPD2    H213708   1.548   4.084  11.726  0.0242 -0.5483 -0.7898
  937MPD2    H313709   1.679   3.924  11.615  2.0456 -0.4752 -0.4546
  937MPD2     N13710   1.922   4.231  11.389 -0.3813 -0.2551  0.7194
  937MPD2    H513711   1.921   4.331  11.376 -1.2551 -0.1446  1.6433
  937MPD2    N113712   1.566   4.355  11.692 -0.2496  0.8817 -0.2974
  937MPD2    H713713   1.573   4.443  11.643 -1.9265  1.2055  0.0498
  938MPD2     C13714   3.751   1.059   1.004 -0.9048 -0.1022  0.0802
  938MPD2    C113715   3.832   1.093   1.104  0.2423  0.6879 -0.2460
  938MPD2    C213716   3.781   1.149   1.216 -0.3388  0.0975 -0.0232
  938MPD2    C313717   3.640   1.156   1.228 -0.0813  0.4094  0.7696
  938MPD2    C413718   3.555   1.113   1.127 -0.0664  1.0396  1.1306
  938MPD2    C513719   3.612   1.073   1.011  0.1850  0.2529  0.5311
  938MPD2     H13720   3.837   1.177   1.304 -1.2629 -0.0664  0.6206
  938MPD2    H113721   3.447   1.116   1.141 -0.2736  0.0880 -0.2924
  938MPD2    H213722   3.786   1.028   0.906 -0.3971 -1.0923  0.5707
  938MPD2    H313723   3.545   1.049   0.929  0.2384 -1.0193  0.8642
  938MPD2     N13724   3.580   1.185   1.350  0.0591  0.2160 -1.1208
  938MPD2    H513725   3.482   1.161   1.358  0.4820 -0.6978  1.3592
  938MPD2    N113726   3.973   1.077   1.095  0.2163  0.0318  0.0100
  938MPD2    H713727   4.030   1.107   1.173  0.7649 -0.7565 -0.0799
  939MPD2     C13728   0.115   1.926   1.364 -0.0128  0.3645 -0.3308
  939MPD2    C113729   0.015   1.982   1.285 -0.0805 -0.1893 -0.5864
  939MPD2    C213730   0.022   1.962   1.154 -0.1102 -0.0738 -0.1485
  939MPD2    C313731   0.131   1.896   1.095 -0.1970  0.1478 -0.9186
  939MPD2    C413732   0.228   1.841   1.174 -0.1209 -0.8009 -0.0650
  939MPD2    C513733   0.217   1.857   1.309  0.7352  0.6186 -0.9478
  939MPD2     H13734   4.666   1.985   1.079  0.1399  0.6648 -0.1626
  939MPD2    H113735   0.311   1.776   1.146 -0.1874 -0.6020 -0.7061
  939MPD2    H213736   0.112   1.948   1.470 -0.3047  0.0908 -0.2825
  939MPD2    H313737   0.290   1.807   1.372 -1.7517 -1.6337  0.0994
  939MPD2     N13738   0.144   1.894   0.953 -0.7482  0.1822 -0.1958
  939MPD2    H513739   0.064   1.926   0.900  0.1116  0.6352 -1.2286
  939MPD2    N113740   4.625   2.039   1.360  0.6584  0.1698 -0.1818
  939MPD2    H713741   4.640   2.050   1.459  1.3075 -0.3536 -0.2239
  940MPD2     C13742   4.395   3.245  12.725 -0.8969  0.7800 -0.5981
  940MPD2    C113743   4.426   3.125  12.783  0.0506  0.4844  0.1910
  940MPD2    C213744   4.473   3.030  12.694  0.4285  0.0414 -0.1510
  940MPD2    C313745   4.503   3.052  12.556 -0.0103  0.5810 -0.4007
  940MPD2    C413746   4.489   3.180  12.510  0.1300 -0.1539 -0.3976
  940MPD2    C513747   4.430   3.271  12.596 -0.6204 -0.4803 -0.0269
  940MPD2     H13748   4.495   2.930  12.729 -2.9122 -0.7372 -0.3159
  940MPD2    H113749   4.510   3.201  12.406  0.4057 -2.8831 -0.8860
  940MPD2    H213750   4.337   3.317  12.782  2.9189  3.4996 -0.1489
  940MPD2    H313751   4.401   3.367  12.556 -1.7205 -0.8518 -0.1141
  940MPD2     N13752   4.554   2.950  12.465 -0.1767 -0.0267  0.3973
  940MPD2    H513753   4.577   2.982  12.371 -0.4504 -0.8486  0.0541
  940MPD2    N113754   4.400   3.085  12.919  0.1151 -0.4786 -0.2269
  940MPD2    H713755   4.409   2.985  12.937  1.7085 -0.3986 -0.5587
  941MPD2     C13756   3.545   2.186   9.020  0.5141  0.1753  0.6938
  941MPD2    C113757   3.625   2.128   9.114  1.2137 -0.4536 -0.1370
  941MPD2    C213758   3.617   1.992   9.134  1.0740 -0.2641 -0.0273
  941MPD2    C313759   3.520   1.916   9.075 -0.0525 -0.1570 -0.8984
  941MPD2    C413760   3.438   1.980   8.980 -0.4301  0.6025 -0.5000
  941MPD2    C513761   3.446   2.114   8.960 -0.4504  0.2010  0.1148
  941MPD2     H13762   3.690   1.956   9.205  0.4218  0.4935  1.0315
  941MPD2    H113763   3.367   1.922   8.922  1.0609 -0.3154 -1.4059
  941MPD2    H213764   3.544   2.293   9.005 -3.2301  0.1031  0.4554
  941MPD2    H313765   3.379   2.161   8.889  1.2350  0.3339 -1.3910
  941MPD2     N13766   3.500   1.776   9.092 -0.5331 -1.0127  0.7768
  941MPD2    H513767   3.423   1.724   9.051 -1.0017  0.8399 -0.6747
  941MPD2    N113768   3.723   2.189   9.185  0.0897  0.5878 -0.9045
  941MPD2    H713769   3.774   2.136   9.255 -2.0788 -1.6118 -1.0123
  942MPD2     C13770   2.441   3.036   9.347 -0.4605  0.0609 -0.4602
  942MPD2    C113771   2.456   3.171   9.356  0.3872 -0.5315  0.1476
  942MPD2    C213772   2.577   3.222   9.314 -0.6535 -0.3803  0.2831
  942MPD2    C313773   2.693   3.139   9.289 -0.4517 -0.2825 -0.3043
  942MPD2    C413774   2.674   2.998   9.298  0.5140 -0.0022  0.3422
  942MPD2    C513775   2.545   2.953   9.311  0.2978 -0.4647  0.1336
  942MPD2     H13776   2.576   3.327   9.289  1.1627 -0.8862 -1.8998
  942MPD2    H113777   2.758   2.930   9.286  1.7427  1.5033  0.4344
  942MPD2    H213778   2.349   2.985   9.374 -0.0698 -0.6221 -0.4364
  942MPD2    H313779   2.527   2.846   9.313  0.8141 -0.5391  1.1921
  942MPD2     N13780   2.818   3.189   9.250 -0.1777  0.6525 -0.5934
  942MPD2    H513781   2.888   3.128   9.209  1.1208  1.4489  0.4175
  942MPD2    N113782   2.345   3.251   9.396  0.1631  0.2770 -0.3209
  942MPD2    H713783   2.357   3.352   9.395 -4.0614  0.7642 -1.1393
  943MPD2     C13784   2.795   0.787   9.079 -0.0371  0.7396 -0.1201
  943MPD2    C113785   2.667   0.827   9.118 -0.5412 -0.9925  0.0411
  943MPD2    C213786   2.562   0.839   9.024  0.2503 -0.4366  0.7144
  943MPD2    C313787   2.588   0.814   8.892  0.1451  0.3462 -0.0472
  943MPD2    C413788   2.709   0.763   8.860  0.5202 -0.1588 -0.3086
  943MPD2    C513789   2.811   0.766   8.947  0.2099 -0.2708 -0.6254
  943MPD2     H13790   2.463   0.877   9.048  0.7142 -0.0387  2.0089
  943MPD2    H113791   2.728   0.726   8.760  2.7088 -1.2692  0.5072
  943MPD2    H213792   2.877   0.782   9.149 -1.3627  0.6356  1.4301
  943MPD2    H313793   2.905   0.727   8.911  0.5176 -0.2516  0.1436
  943MPD2     N13794   2.496   0.819   8.786  0.4695 -0.3820 -0.2075
  943MPD2    H513795   2.526   0.798   8.691 -2.5998 -1.2508 -0.9857
  943MPD2    N113796   2.641   0.849   9.255 -0.1787  0.1042  0.5437
  943MPD2    H713797   2.721   0.846   9.318 -0.2918  0.6886  0.7075
  944MPD2     C13798   2.692   0.796  11.364 -0.4821  0.5376 -0.3135
  944MPD2    C113799   2.623   0.818  11.250  0.4491 -0.1916 -1.0264
  944MPD2    C213800   2.486   0.805  11.247 -0.3199  0.1713  0.2158
  944MPD2    C313801   2.414   0.777  11.366  0.0793  0.0171  0.5839
  944MPD2    C413802   2.484   0.759  11.482 -0.5924 -0.1032  0.5831
  944MPD2    C513803   2.622   0.766  11.477  0.1151 -0.0048  0.1588
  944MPD2     H13804   2.426   0.843  11.165  0.8994 -0.1954 -0.8465
  944MPD2    H113805   2.428   0.736  11.572 -1.0876  0.1570  0.3446
  944MPD2    H213806   2.800   0.805  11.365 -0.2451 -2.5729  0.4996
  944MPD2    H313807   2.667   0.761  11.576 -1.8880 -0.8933  1.0259
  944MPD2     N13808   2.273   0.771  11.358  0.3837 -0.0908  0.3259
  944MPD2    H513809   2.235   0.774  11.264 -0.4392 -0.6104  0.6397
  944MPD2    N113810   2.704   0.832  11.133  0.3603 -0.4936 -0.8248
  944MPD2    H713811   2.804   0.815  11.144  0.1990 -0.3270  0.9514
    1TCq1    O113812   3.718   1.808  14.334  0.3305  0.0621 -0.0227
    1TCq1    C113813   3.851   1.793  14.314  0.6108  0.3453 -1.1705
    1TCq1    O213814   3.920   1.839  14.220 -0.1985  0.2410  0.0625
    1TCq1    C213815   3.907   1.743  14.441  0.2403 -0.5540 -0.1354
    1TCq1    C313816   3.841   1.640  14.509  0.0081 -0.0030  0.4462
    1TCq1    C413817   3.902   1.574  14.607 -0.0983 -0.5401 -0.3567
    1TCq1    C513818   4.033   1.603  14.635  0.1018  0.1582  0.5253
    1TCq1    C613819   4.099   1.694  14.557 -0.1399  0.0670 -0.5111
    1TCq1    C713820   4.039   1.769  14.459 -0.5101 -0.1034  0.6407
    1TCq1    C813821   4.212   1.766  14.618 -0.2410 -0.4107  0.0756
    1TCq1    O413822   4.232   1.747  14.737 -0.0752  0.0524 -0.1455
    1TCq1    C913823   3.842   1.465  14.672 -0.3497 -0.1285 -0.3373
    1TCq1    O513824   3.717   1.444  14.647  0.7054 -0.4525 -0.3882
    1TCq1    O613825   3.914   1.396  14.750  0.1458 -0.0353 -0.6970
    1TCq1    H113826   3.690   1.795  14.428  0.1931  0.1641 -0.0490
    1TCq1    H213827   3.739   1.604  14.494  0.6951 -1.4854 -0.6424
    1TCq1    H313828   4.082   1.548  14.715 -1.0359 -1.5843  0.0276
    1TCq1    H413829   4.076   1.855  14.403 -1.9782  0.4675  0.5464
    2MPD2     C13830   4.536   2.164  14.630 -0.5991  0.0094  0.0007
    2MPD2    C113831   4.466   2.174  14.505 -0.0716  0.3900  0.1681
    2MPD2    C213832   4.380   2.070  14.473 -0.1193  0.1913 -0.1318
    2MPD2    C313833   4.361   1.967  14.570  0.5368  0.1406 -1.2011
    2MPD2    C413834   4.434   1.959  14.683 -0.5782 -0.3125  0.0108
    2MPD2    C513835   4.516   2.063  14.721 -0.0185 -0.0891 -0.7358
    2MPD2     H13836   4.318   2.079  14.384 -1.1709 -0.2065  0.5672
    2MPD2    H113837   4.425   1.872  14.747 -1.0927  0.5067  1.0469
    2MPD2    H213838   4.601   2.245  14.658 -2.4387  1.5865 -0.2619
    2MPD2    H313839   4.561   2.068  14.819 -1.8583  0.6786  0.0589
    2MPD2     N13840   4.268   1.868  14.534  0.6622 -0.2293 -0.3199
    2MPD2    H513841   4.242   1.869  14.436 -0.0726 -1.0661 -0.1311
    2MPD2    N113842   4.500   2.293  14.432  0.1125 -0.7299  0.0817
    2MPD2    H713843   4.564   2.360  14.475  0.3548 -1.5545  1.0172
    3TMC2    C113844   4.481   2.459  14.258 -0.0177 -0.6129  0.2966
    3TMC2    C213845   4.536   2.555  14.342 -0.3351  0.8919 -0.8231
    3TMC2    C313846   4.577   2.672  14.281 -0.6322  0.6362  0.7402
    3TMC2    C413847   4.481   2.473  14.123  0.0357 -0.2311  0.6042
    3TMC2    C513848   4.518   2.593  14.071 -0.3634 -0.9309 -0.4230
    3TMC2    C613849   4.553   2.699  14.148 -0.4461  0.3066 -0.2706
    3TMC2     C13850   4.441   2.326  14.313 -0.7666  0.5956  0.0959
    3TMC2     O13851   4.356   2.266  14.251 -0.2525 -0.3799  0.0956
    3TMC2     H13852   4.504   2.562  14.445  3.1372  1.5303  0.2114
    3TMC2    H113853   4.437   2.395  14.062 -1.0992  0.1849  0.9015
    3TMC2    H213854   4.586   2.794  14.106  1.0687 -0.2555 -0.3688
    3TMC2    C713855   4.504   2.606  13.933 -0.3230 -0.3038 -0.3328
    3TMC2    C813856   4.650   2.778  14.357 -0.0431  0.1587 -0.5908
    3TMC2    O113857   4.412   2.539  13.885 -0.1511 -0.2238  0.2620
    3TMC2    O213858   4.672   2.893  14.322 -0.2298 -0.2128  0.0929
    3TMC2    O513859   0.006   2.712  14.452 -0.5665  0.4188 -0.0423
    3TMC2    H513860   4.715   2.615  14.462  1.4895 -0.0527 -2.7592
    4MPD2     C13861   4.440   3.921  13.508  0.1228  0.4604 -0.3520
    4MPD2    C113862   4.386   3.806  13.454 -0.2767  0.5825 -0.8073
    4MPD2    C213863   4.472   3.697  13.445  0.4072  0.1559 -0.4167
    4MPD2    C313864   4.599   3.697  13.500 -0.7574  0.5888 -0.1046
    4MPD2    C413865   4.648   3.813  13.554 -0.0610 -0.0307  0.5459
    4MPD2    C513866   4.566   3.925  13.553  0.2930  0.6907  0.4002
    4MPD2     H13867   4.446   3.600  13.405  3.4882 -0.4687 -0.8525
    4MPD2    H113868   0.031   3.829  13.590  0.0112  0.5129  0.0904
    4MPD2    H213869   4.377   4.007  13.525  0.8046  0.8709  0.0631
    4MPD2    H313870   4.609   4.016  13.593 -2.6749  2.3029 -0.0999
    4MPD2     N13871   4.675   3.581  13.490 -0.3689  0.5950  0.3928
    4MPD2    H513872   4.632   3.498  13.451 -2.7632  0.1812  3.9576
    4MPD2    N113873   4.256   3.795  13.392  0.4303  0.3015  0.2468
    4MPD2    H713874   4.234   3.709  13.343 -2.0135 -0.6751  3.0309
    5TCq2    C113875   0.094   3.566  13.523  0.2156  0.2478 -0.9733
    5TCq2    O213876   0.184   3.642  13.548 -0.1491 -0.0737  0.5755
    5TCq2    C213877   0.133   3.434  13.498 -0.3143  0.3101 -0.1041
    5TCq2    C313878   0.261   3.416  13.454 -0.5099 -0.6286 -0.1713
    5TCq2    C413879   0.313   3.286  13.436 -0.2158 -0.0038  0.0695
    5TCq2    C513880   0.235   3.183  13.467 -0.1023  0.0813  0.0010
    5TCq2    C613881   0.116   3.205  13.527 -0.1382 -0.5370 -0.0011
    5TCq2    C713882   0.062   3.330  13.543 -0.4201 -0.5068 -0.9861
    5TCq2    C813883   0.051   3.094  13.605 -0.1618 -0.5935  0.1657
    5TCq2    O413884   0.017   3.124  13.716 -0.0728  0.5813  0.5418
    5TCq2    C913885   0.445   3.270  13.367 -0.5572  0.0836 -0.1158
    5TCq2    O513886   0.503   3.158  13.364  0.2211  0.1913 -0.3698
    5TCq2    O613887   0.488   3.381  13.327 -0.3768 -0.2045 -0.0042
    5TCq2    H213888   0.311   3.506  13.419 -1.4516 -0.6050 -1.4690
    5TCq2    H313889   0.270   3.084  13.439  0.2570 -0.1643  1.3168
    5TCq2    H413890   4.687   3.342  13.598  0.8776 -1.3357  1.4162
    6MPD1     C13891   3.119   4.610  13.141 -0.6837  0.8528  0.0698
    6MPD1    C113892   3.132   4.533  13.256  0.0929 -0.3427  0.0082
    6MPD1    C213893   3.104   4.399  13.237  0.2486 -0.0140 -0.0240
    6MPD1    C313894   3.061   4.348  13.117 -0.6093 -0.6917 -0.0172
    6MPD1    C413895   3.045   4.424  13.002 -0.0915  0.9410 -0.0623
    6MPD1    C513896   3.070   4.559  13.022  0.1770 -0.4382  0.1795
    6MPD1     H13897   3.137   4.337  13.320  0.7444  1.8576  1.1893
    6MPD1    H113898   3.015   4.384  12.907  1.0101  0.5430 -0.2463
    6MPD1    H213899   3.149   4.714  13.144  0.2304  0.5163  3.0408
    6MPD1    H313900   3.064   4.626  12.937 -0.2135 -0.5445  0.1249
    6MPD1     N13901   3.049   4.204  13.094 -0.5123 -0.3616  0.4290
    6MPD1    H513902   3.043   4.188  12.994  1.6414 -1.4340  0.4667
    6MPD1    N113903   3.165   4.590  13.382 -0.0378  0.4007 -0.0856
    6MPD1    H613904   3.182   4.520  13.454  1.9846  1.1253  0.1333
    6MPD1    H713905   3.249   4.647  13.385  1.0447 -1.2048 -0.0433
    7MPD2     C13906   3.249   3.544  13.545  0.0679 -0.1220 -0.3730
    7MPD2    C113907   3.281   3.658  13.469 -0.1137 -0.0427 -0.3072
    7MPD2    C213908   3.409   3.708  13.481  0.6612 -0.6158 -0.0833
    7MPD2    C313909   3.504   3.637  13.552 -0.4991  0.5307  0.6830
    7MPD2    C413910   3.471   3.533  13.630  0.5726 -0.4869  0.1419
    7MPD2    C513911   3.345   3.483  13.622 -0.0449  0.0476 -0.4393
    7MPD2     H13912   3.435   3.787  13.411  0.5080 -2.1641 -1.8739
    7MPD2    H113913   3.547   3.477  13.682 -0.7899  0.3902  3.0697
    7MPD2    H213914   3.153   3.494  13.540  0.2762 -0.2633 -2.8070
    7MPD2    H313915   3.321   3.392  13.676  2.1629 -1.0073 -1.2617
    7MPD2     N13916   3.644   3.664  13.543 -0.2977 -0.3240 -0.1644
    7MPD2    H513917   3.701   3.585  13.572 -1.3095 -1.0265 -0.1023
    7MPD2    N113918   3.190   3.723  13.387  0.4111 -0.5183 -0.0917
    7MPD2    H713919   3.222   3.815  13.358 -0.1158 -0.5473 -0.7726
    8TMC3    C113920   3.831   3.753  13.438  0.6002 -0.4837 -0.1081
    8TMC3    C213921   3.928   3.850  13.440  0.5448  0.1443 -0.3709
    8TMC3    C313922   4.031   3.842  13.354  0.5845  0.5114  0.9098
    8TMC3    C413923   3.839   3.651  13.353  0.2237  0.0885  0.1172
    8TMC3    C513924   3.935   3.654  13.251 -0.8749 -0.5043 -0.2220
    8TMC3    C613925   4.038   3.745  13.260 -0.1304 -0.5994 -0.7131
    8TMC3     C13926   3.701   3.782  13.494  0.4215 -0.1268  0.1701
    8TMC3     O13927   3.651   3.893  13.475  0.3638  0.0725 -0.1137
    8TMC3     H13928   3.924   3.930  13.512 -0.7769  0.9346 -1.3234
    8TMC3    H113929   3.764   3.574  13.349  0.4487 -0.0526 -1.8247
    8TMC3    H213930   4.121   3.745  13.191  0.7788  0.3265  0.3663
    8TMC3    C713931   3.881   3.638  13.116 -0.1526  0.4063 -0.4566
    8TMC3    C813932   4.160   3.893  13.399 -0.5331 -0.1305  0.7483
    8TMC3    O113933   3.958   3.649  13.023 -0.0960 -0.3989  0.0075
    8TMC3    O213934   4.160   3.994  13.469  0.2804 -0.6788 -0.0059
    9TMC3    C113935   3.057   3.967  13.151 -0.2713 -0.3001 -0.1974
    9TMC3    C213936   3.094   3.927  13.030  0.3146  0.2625 -0.2522
    9TMC3    C313937   3.111   3.792  13.023 -0.5042  0.1134 -0.7672
    9TMC3    C413938   3.024   3.880  13.252  0.2570 -0.0700  0.1565
    9TMC3    C513939   3.026   3.747  13.236 -0.4186  0.0385 -0.5144
    9TMC3    C613940   3.072   3.702  13.119 -0.2320  0.1240 -0.6575
    9TMC3     C13941   3.067   4.106  13.191 -0.1379  0.0142 -0.3203
    9TMC3     O13942   3.063   4.126  13.313 -0.2754 -0.4888  0.4679
    9TMC3     H13943   3.121   3.995  12.950 -0.2671  1.9587  1.0052
    9TMC3    H113944   2.997   3.919  13.350 -1.3715  0.2395 -0.4124
    9TMC3    H213945   3.075   3.594  13.114 -0.3049 -0.1056  4.1475
    9TMC3    C713946   3.067   3.672  13.346 -0.2390  0.3780 -0.4208
    9TMC3    C813947   3.205   3.739  12.932  0.4848 -0.3880 -0.8148
    9TMC3    O113948   3.014   3.563  13.370  0.0902 -0.3618 -0.2099
    9TMC3    O213949   3.205   3.792  12.818 -0.1429 -0.8640 -0.1609
   10MPD2     C13950   3.702   3.652  12.885 -0.3313  0.3219 -0.5920
   10MPD2    C113951   3.661   3.625  13.018  0.5071 -0.0468 -0.4284
   10MPD2    C213952   3.526   3.614  13.046  0.4384 -0.1802 -0.0408
   10MPD2    C313953   3.435   3.644  12.950 -0.8510 -0.2368 -0.5647
   10MPD2    C413954   3.474   3.676  12.816 -0.2165 -0.7593 -0.1815
   10MPD2    C513955   3.609   3.679  12.787 -0.2394  1.0055  0.2596
   10MPD2     H13956   3.500   3.607  13.151  2.4150  1.1502  0.5308
   10MPD2    H113957   3.404   3.692  12.736  0.5630 -0.1812 -0.7523
   10MPD2    H213958   3.807   3.651  12.860 -0.4615 -1.4719 -1.0970
   10MPD2    H313959   3.650   3.691  12.687  1.4685 -1.6816  0.6311
   10MPD2     N13960   3.296   3.651  12.990 -0.2845  0.7765 -0.1387
   10MPD2    H513961   3.285   3.624  13.087  0.7623 -0.4740 -0.3662
   10MPD2    N113962   3.748   3.606  13.121 -0.4451  0.2519  0.6979
   10MPD2    H713963   3.703   3.562  13.201  1.1299  0.0521  1.4565
   11MPD2     C13964   4.559   2.633  13.651 -0.1748 -0.1005 -0.1587
   11MPD2    C113965   4.597   2.725  13.743 -0.3166  0.1188  0.4739
   11MPD2    C213966   4.668   2.839  13.705 -0.0738  0.3030  0.0119
   11MPD2    C313967   4.693   2.861  13.573  0.6835 -0.4814 -0.3402
   11MPD2    C413968   4.661   2.762  13.486 -0.9840 -0.3376 -0.4930
   11MPD2    C513969   4.594   2.656  13.517 -0.0772 -0.2218  0.0797
   11MPD2     H13970   4.708   2.901  13.784  0.6735 -0.3712  0.1642
   11MPD2    H113971   4.697   2.762  13.384  1.0291  0.2123  0.2156
   11MPD2    H213972   4.510   2.538  13.668 -2.6163  0.3852 -4.2559
   11MPD2    H313973   4.579   2.581  13.440  1.8402  0.1142 -0.6262
   11MPD2     N13974   0.040   2.982  13.526  0.1279 -0.2008  0.0944
   11MPD2    H513975   0.086   2.973  13.435 -0.7594  0.4763 -0.4230
   11MPD2    N113976   4.583   2.705  13.880 -0.2732  0.0830 -0.0653
   11MPD2    H713977   4.643   2.759  13.941 -0.5221  1.9258 -1.4622
    1MPD1     C13978   1.969   4.226  17.628 -0.6602 -0.1505 -0.1182
    1MPD1    C113979   1.833   4.227  17.599 -0.2116 -0.3450  0.6536
    1MPD1    C213980   1.797   4.179  17.474  0.1140  0.7347  0.5379
    1MPD1    C313981   1.891   4.126  17.390  0.7322 -0.5465 -0.4638
    1MPD1    C413982   2.023   4.110  17.433  0.7237 -0.1683  0.1543
    1MPD1    C513983   2.060   4.164  17.550 -0.5661 -0.1547 -0.2068
    1MPD1     H13984   1.696   4.198  17.442 -0.0898 -0.8392  0.2596
    1MPD1    H113985   2.100   4.055  17.379  0.7894 -1.3550  1.4562
    1MPD1    H213986   2.011   4.283   0.034  0.6429  0.8028 -1.4449
    1MPD1    H313987   2.165   4.171  17.575 -0.5517  1.5490 -0.7505
    1MPD1     N13988   1.868   4.101  17.252 -0.6762  0.0228 -0.0826
    1MPD1    H513989   1.947   4.061  17.202 -1.7602 -1.9382 -0.2295
    1MPD1    N113990   1.741   4.299   0.002 -0.0599 -0.6180 -0.6713
    1MPD1    H613991   1.778   4.290   0.096  2.0378 -0.1696 -1.4417
    1MPD1    H713992   1.643   4.274  17.668 -0.4380 -0.1175  1.8209
    2MPD1     C13993   2.517   3.913  16.743 -0.0155  0.9149 -0.8372
    2MPD1    C113994   2.474   3.862  16.859 -0.0714 -0.3839  0.1616
    2MPD1    C213995   2.341   3.888  16.901  1.1634 -0.4820  0.5718
    2MPD1    C313996   2.246   3.950  16.819  0.1204  0.6825 -0.5720
    2MPD1    C413997   2.299   3.985  16.694  0.1149 -0.3179  0.1747
    2MPD1    C513998   2.426   3.962  16.653 -0.0937 -0.2666  0.2755
    2MPD1     H13999   2.316   3.863  17.004  0.5762 -0.3723  0.4516
    2MPD1    H114000   2.240   4.033  16.616  0.2050 -2.1322 -1.0015
    2MPD1    H214001   2.623   3.908  16.721  0.3100  0.8125  0.7502
    2MPD1    H314002   2.465   4.007  16.562 -2.5947  1.6494  0.1500
    2MPD1     N14003   2.115   3.979  16.855 -0.0992 -0.0129  0.0456
    2MPD1    H514004   2.087   3.958  16.950  0.8056 -1.9594 -0.1062
    2MPD1    N114005   2.568   3.821  16.952  0.5676  0.1861 -0.2116
    2MPD1    H614006   2.540   3.749  17.019 -1.2535  2.1643  1.1684
    2MPD1    H714007   2.644   3.778  16.900  1.3824  1.1615  0.1694
    3TMC3    C114008   1.889   4.031  16.853 -0.9222  0.3136 -0.4186
    3TMC3    C214009   1.770   4.012  16.778  0.2313 -0.6406  0.2957
    3TMC3    C314010   1.649   4.035  16.846 -0.1799 -0.3392  0.5584
    3TMC3    C414011   1.889   4.058  16.984 -0.5972 -0.5071  0.4345
    3TMC3    C514012   1.764   4.077  17.047 -0.8478  0.3984  0.7666
    3TMC3    C614013   1.646   4.062  16.979 -0.1057  0.3793 -0.3025
    3TMC3     C14014   2.012   4.013  16.774 -0.3261 -0.0732  0.4324
    3TMC3     O14015   2.002   4.015  16.655 -0.0482  0.9896 -0.6285
    3TMC3     H14016   1.783   3.985  16.674 -0.4578 -0.6348  0.2079
    3TMC3    H114017   1.980   4.089  17.035 -1.5790  1.9468  0.7100
    3TMC3    H214018   1.553   4.076  17.034 -0.1069  1.3568 -0.5685
    3TMC3    C714019   1.751   4.110  17.187  0.2742  1.0055 -0.4032
    3TMC3    C814020   1.533   4.086  16.774  0.3265 -0.2523 -0.9443
    3TMC3    O114021   1.641   4.143  17.233 -0.1710 -0.0602  0.0254
    3TMC3    O214022   1.422   4.049  16.813 -0.2176  0.4015  0.0633
    4MPD1     C14023   1.317   4.396  16.421 -0.4830 -0.3051  0.1750
    4MPD1    C114024   1.451   4.378  16.395 -0.2677 -0.4420  0.8327
    4MPD1    C214025   1.534   4.311  16.481 -0.6694 -0.0362 -0.5284
    4MPD1    C314026   1.481   4.230  16.579 -0.2623  0.1575  0.8809
    4MPD1    C414027   1.351   4.246  16.607 -0.1062 -0.5617  0.8473
    4MPD1    C514028   1.266   4.329  16.531 -0.7453 -0.5439  0.5429
    4MPD1     H14029   1.639   4.323  16.456 -0.9274 -0.5081 -1.8236
    4MPD1    H114030   1.305   4.200  16.693  2.0635  1.2563  3.0043
    4MPD1    H214031   1.250   4.454  16.359 -0.5628 -0.8928 -0.2891
    4MPD1    H314032   1.166   4.355  16.564 -1.1282 -0.3594 -0.7668
    4MPD1     N14033   1.569   4.152  16.662 -0.1421  0.0612 -0.2640
    4MPD1    H514034   1.666   4.162  16.633 -0.2717  1.4452 -0.2161
    4MPD1    N114035   1.510   4.443  16.286 -0.4992  0.0198  0.4926
    4MPD1    H614036   1.597   4.397  16.263 -1.9695 -1.7137 -1.5305
    4MPD1    H714037   1.448   4.441  16.205 -0.2156  2.8976  0.1825
    1TCq1    O114038   4.395   4.382  10.935  0.2537 -0.2716  0.0892
    1TCq1    C114039   4.309   4.288  10.984 -0.4513  0.0116 -0.4831
    1TCq1    O214040   4.233   4.219  10.920  0.5404  0.1590  0.0709
    1TCq1    C214041   4.306   4.295  11.130  0.5011  0.1619  0.2815
    1TCq1    C314042   4.401   4.369  11.194 -0.0783  0.4152 -0.0686
    1TCq1    C414043   4.387   4.405  11.324 -0.6356  0.2954  0.2650
    1TCq1    C514044   4.279   4.363  11.393 -0.0391  0.5491 -0.3880
    1TCq1    C614045   4.180   4.294  11.323 -0.0712  0.2626  0.4854
    1TCq1    C714046   4.196   4.260  11.193  0.7669  0.5058  0.4743
    1TCq1    C814047   4.064   4.238  11.395  0.4557 -0.0645 -0.4335
    1TCq1    O414048   3.977   4.188  11.325  0.0082  0.1591 -0.3156
    1TCq1    C914049   4.502   4.436  11.402  0.2696  0.0329 -0.1863
    1TCq1    O514050   4.486   4.466  11.520  0.5413  0.1233  0.3659
    1TCq1    O614051   4.617   4.422  11.355 -0.4936  0.0403  0.4144
    1TCq1    H114052   4.417   4.450  11.002 -2.1924  0.7048 -0.1242
    1TCq1    H214053   4.503   4.382  11.158  0.8008 -4.7148  0.5713
    1TCq1    H314054   4.253   4.409  11.488 -1.4838 -0.3082 -0.3659
    1TCq1    H414055   4.121   4.204  11.138  0.4475  1.2635  0.1403
    2MPD1     C14056   3.809   4.144  11.833 -0.0813 -0.6471 -0.4088
    2MPD1    C114057   3.930   4.202  11.865  0.2932 -0.7718  0.2725
    2MPD1    C214058   4.018   4.231  11.765 -0.4347  0.2207 -0.4217
    2MPD1    C314059   3.990   4.202  11.635 -0.5116  0.3044 -0.7142
    2MPD1    C414060   3.870   4.143  11.601  0.5499 -0.3185  0.1416
    2MPD1    C514061   3.778   4.118  11.700  0.1893  0.0452  0.1395
    2MPD1     H14062   4.112   4.275  11.795  0.9850 -2.2806 -1.1762
    2MPD1    H114063   3.854   4.104  11.501  0.7633  3.6835 -1.4539
    2MPD1    H214064   3.731   4.115  11.902 -0.3133  0.2757 -0.2820
    2MPD1    H314065   3.680   4.077  11.679 -0.0085  0.5511  0.0827
    2MPD1     N14066   4.080   4.244  11.534 -0.1115 -1.0110 -0.1118
    2MPD1    H514067   4.172   4.275  11.564 -0.0715 -1.1483 -0.0934
    2MPD1    N114068   3.953   4.234  12.001 -0.2200 -0.1532 -0.1030
    2MPD1    H614069   4.052   4.249  12.022 -0.3878  0.3862  0.2991
    2MPD1    H714070   3.915   4.155  12.053 -1.4782  1.5018  1.5017
    1TCq1    O114071   1.295   3.489  17.250  0.6187  0.8314  0.5589
    1TCq1    C114072   1.374   3.393  17.199  0.1809  0.5448 -0.4417
    1TCq1    O214073   1.348   3.330  17.095 -0.0748  0.0257  0.0123
    1TCq1    C214074   1.508   3.424  17.247  0.0066  0.0755  0.6794
    1TCq1    C314075   1.530   3.434  17.378 -0.2515 -0.8192 -0.4594
    1TCq1    C414076   1.661   3.432  17.419 -0.3606  0.7985  0.1578
    1TCq1    C514077   1.762   3.391  17.335  0.8223 -0.2524  0.3400
    1TCq1    C614078   1.732   3.362  17.208 -0.7120  0.0331  0.6811
    1TCq1    C714079   1.606   3.373  17.158 -0.0215 -0.1295  0.0480
    1TCq1    C814080   1.836   3.313  17.120  1.4174 -0.1878 -0.0202
    1TCq1    O414081   1.813   3.316  17.000 -0.4737 -0.0186  0.2133
    1TCq1    C914082   1.694   3.425  17.561  0.2087 -0.2226 -0.2262
    1TCq1    O514083   1.812   3.394  17.596 -0.3386 -0.0573  0.3364
    1TCq1    O614084   1.592   3.419  17.636  0.2922  0.0729 -0.2223
    1TCq1    H114085   1.336   3.546  17.319  1.8706  1.0478 -0.3521
    1TCq1    H214086   1.465   3.468  17.458  0.1536 -1.0533 -0.0311
    1TCq1    H314087   1.862   3.399  17.377  0.3042 -2.5791  2.0131
    1TCq1    H414088   1.583   3.366  17.052 -0.0726  0.4344  0.0204
    2MPD1     C14089   2.262   3.076  17.031 -0.4078  0.0216  0.0574
    2MPD1    C114090   2.224   3.037  17.156  0.2645 -0.1647  0.0125
    2MPD1    C214091   2.122   3.111  17.215  0.5451  0.4396 -0.6280
    2MPD1    C314092   2.045   3.197  17.135  0.1787  0.3671  0.4051
    2MPD1    C414093   2.085   3.218  17.005  0.4656  0.0552  0.5863
    2MPD1    C514094   2.193   3.159  16.949 -0.9945 -0.4594  0.7308
    2MPD1     H14095   2.089   3.097  17.317 -0.4571  1.9124 -0.7579
    2MPD1    H114096   2.034   3.287  16.939 -0.8673  0.1467  1.7238
    2MPD1    H214097   2.346   3.029  16.981 -0.5664 -0.1702 -0.0311
    2MPD1    H314098   2.212   3.171  16.843  1.0505  2.3617  1.4091
    2MPD1     N14099   1.928   3.252  17.196  0.7927  0.1173  0.8135
    2MPD1    H514100   1.911   3.229  17.293  0.5236 -1.5966  0.3587
    2MPD1    N114101   2.298   2.940  17.228  0.7319 -0.0090 -0.3269
    2MPD1    H614102   2.358   2.884  17.167 -0.8267  0.2849 -2.1323
    2MPD1    H714103   2.243   2.873  17.282  0.3702 -1.1977 -2.1530
    1MPD1     C14104   0.319   4.061  11.342  0.0904 -0.0654 -0.1841
    1MPD1    C114105   0.385   4.115  11.238 -0.0103  0.1656 -0.0511
    1MPD1    C214106   0.435   4.242  11.255  0.3246  0.2122  1.0119
    1MPD1    C314107   0.411   4.315  11.365 -0.2370 -0.3213 -0.2580
    1MPD1    C414108   0.320   4.276  11.460  0.4594 -0.3159 -0.3170
    1MPD1    C514109   0.289   4.143  11.454 -0.4094 -0.2162 -0.7425
    1MPD1     H14110   0.499   4.280  11.177 -0.0958 -2.4017 -0.6220
    1MPD1    H114111   0.310   4.328  11.555  4.1441 -1.9158  0.9143
    1MPD1    H214112   0.296   3.956  11.353 -1.7184  0.7323  3.6755
    1MPD1    H314113   0.231   4.093  11.531  0.8937 -2.1105 -0.9905
    1MPD1     N14114   0.493   4.427  11.386 -0.1687 -0.3092 -0.1436
    1MPD1    H514115   0.550   4.455  11.307 -0.8606 -1.8774 -1.1985
    1MPD1    N114116   0.417   4.030  11.134 -0.1026  0.0221  0.6408
    1MPD1    H614117   0.421   4.076  11.043 -1.4934  0.7982  0.9664
    1MPD1    H714118   0.345   3.958  11.122 -0.7357  0.8966 -0.8639
    2MPD1     C14119   0.639   4.644   9.837  0.2000 -0.7224 -0.1274
    2MPD1    C114120   0.763   4.632   9.900  0.7266  0.4049 -0.3746
    2MPD1    C214121   0.764   4.644  10.036 -0.2333 -0.6820 -0.4372
    2MPD1    C314122   0.645   4.666  10.105  0.2049 -0.0823  0.0023
    2MPD1    C414123   0.523   4.653  10.039 -0.0038  0.2777  0.2621
    2MPD1    C514124   0.519   4.648   9.906 -0.0330 -0.3988  0.2165
    2MPD1     H14125   0.860   4.637  10.085  0.3237  0.9345 -1.2625
    2MPD1    H114126   0.433   4.633  10.096  0.7265  1.0260  1.6689
    2MPD1    H214127   0.635   4.636   9.729 -0.6304  2.7029 -0.3758
    2MPD1    H314128   0.425   4.624   9.860 -0.1131  2.6085 -1.1897
    2MPD1     N14129   0.639   4.684  10.249 -0.8081 -0.6485  1.0256
    2MPD1    H514130   0.554   4.665  10.301 -2.7615  1.8170 -1.2478
    2MPD1    N114131   0.886   4.638   9.828  0.4127 -0.4587 -0.4298
    2MPD1    H614132   0.864   4.615   9.732 -0.0076  3.5484 -1.3193
    2MPD1    H714133   0.955   4.577   9.869 -1.1197 -2.0730 -0.2456
    3MPD1     C14134   4.705   4.527  10.787  0.6446  0.4478 -0.6726
    3MPD1    C114135   0.025   4.480  10.658 -0.5207 -0.3246  0.0936
    3MPD1    C214136   0.158   4.516  10.618  0.4589 -0.2793  0.1594
    3MPD1    C314137   0.226   4.614  10.686 -0.6770  0.1203 -0.0154
    3MPD1    C414138   0.168   4.675  10.795  0.3364  0.0355  0.4742
    3MPD1    C514139   0.048   4.632  10.843  0.5044 -0.0477 -0.0961
    3MPD1     H14140   0.201   4.476  10.528  2.1956  1.2829  0.2797
    3MPD1    H114141   0.222   0.035  10.846  1.4276 -0.2671 -0.2269
    3MPD1    H214142   4.635   4.471  10.849 -0.0064 -0.2615 -2.0648
    3MPD1    H314143   0.020   4.656  10.945 -0.2196 -0.3804 -0.2153
    3MPD1     N14144   0.356   4.637  10.636 -0.2182 -0.5483  0.3737
    3MPD1    H514145   0.381   4.587  10.551 -2.0364 -0.2095 -0.3566
    3MPD1    N114146   4.677   4.369  10.602 -0.7718 -0.5471 -0.2317
    3MPD1    H614147   4.579   4.389  10.622 -0.9010 -2.3009  0.8375
    3MPD1    H714148   4.678   4.382  10.500 -0.4650 -0.2375 -0.1921
    4MPD2     C14149   1.006   0.004  11.029 -0.1379 -0.8364 -0.4186
    4MPD2    C114150   1.030   4.661  11.146  0.7453 -0.1801  0.7022
    4MPD2    C214151   1.132   4.566  11.162  0.0886  0.5705 -0.4594
    4MPD2    C314152   1.222   4.538  11.063  0.1887  0.6180  0.3273
    4MPD2    C414153   1.198   4.605  10.944 -0.2635  0.3509 -0.1856
    4MPD2    C514154   1.102   4.708  10.929 -0.1331  1.0399 -1.1177
    4MPD2     H14155   1.146   4.504  11.250 -0.8034  1.1408  0.0808
    4MPD2    H114156   1.276   4.603  10.869  0.7635 -1.0087  0.9189
    4MPD2    H214157   0.916   0.057  10.999  0.6844  0.2406 -0.9642
    4MPD2    H314158   1.102   0.041  10.834  0.1862  1.4156 -0.9137
    4MPD2     N14159   1.323   4.444  11.083  0.1416 -0.1937  0.3957
    4MPD2    H514160   1.328   4.408  11.178 -0.3725  0.5425  0.7016
    4MPD2    N114161   0.952   4.678  11.259  0.7526  0.1852  0.8908
    4MPD2    H714162   0.988   4.639  11.346  1.3285 -2.2455 -0.4171
    5TMC3    C114163   0.777   0.008  11.389  0.6537  0.2801 -1.5701
    5TMC3    C214164   0.660   4.657  11.391 -0.5238  0.4920  0.0231
    5TMC3    C314165   0.646   4.564  11.489 -0.4882  0.4479  0.6862
    5TMC3    C414166   0.874   4.714  11.487 -0.1146  1.0590 -0.0989
    5TMC3    C514167   0.863   4.608  11.575 -0.3063  0.4733  0.6098
    5TMC3    C614168   0.746   4.537  11.578 -0.0395  0.3947  0.3931
    5TMC3     C14169   0.833   0.026  11.258  0.5433  0.8018  0.6858
    5TMC3     O14170   0.756   0.052  11.165  0.3512  0.4537  0.5281
    5TMC3     H14171   0.576   4.661  11.321 -0.9980  0.9934  0.6252
    5TMC3    H114172   0.964   0.056  11.482  0.6738  0.0420  1.8196
    5TMC3    H214173   0.735   4.456  11.650 -1.5244 -2.0887 -2.5883
    5TMC3    C714174   0.989   4.532  11.580 -0.0738 -0.3158 -0.1578
    5TMC3    C814175   0.525   4.493  11.503  0.6229 -0.7144  0.2483
    5TMC3    O114176   1.075   4.570  11.502 -0.4751 -0.2460  0.5526
    5TMC3    O214177   0.489   4.472  11.621  0.1482  0.3025  0.1780
    6TMC3    C114178   0.723   4.670  10.478  0.7924 -1.0324  0.0025
    6TMC3    C214179   0.599   4.697  10.519  1.1552  0.4631 -0.1484
    6TMC3    C314180   0.580   4.678  10.653  0.5426 -0.8843 -0.2182
    6TMC3    C414181   0.826   4.620  10.555  0.1170 -0.4130 -0.8456
    6TMC3    C514182   0.797   4.590  10.686  0.2531 -0.9755  0.2920
    6TMC3    C614183   0.675   4.623  10.738 -0.0104  0.3274  0.2633
    6TMC3     C14184   0.750   4.687  10.335  0.3091 -0.0236 -0.0617
    6TMC3     O14185   0.867   4.707  10.306  0.2963 -0.3985  0.1845
    6TMC3     H14186   0.530   0.028  10.452 -0.4644 -0.2161  1.0135
    6TMC3    H114187   0.917   4.593  10.502  1.2591  0.6846  0.5710
    6TMC3    H214188   0.642   4.613  10.841  0.8949 -0.1069  0.5108
    6TMC3    C714189   0.885   4.502  10.756 -0.4522  0.3729 -0.0903
    6TMC3    C814190   0.454   4.702  10.708 -0.0282 -0.1453 -0.3452
    6TMC3    O114191   0.996   4.484  10.706 -0.5275 -0.1254  0.0125
    6TMC3    O214192   0.446   0.052  10.811 -0.6125 -0.0022  0.2449
    7MPD2     C14193   1.222   4.082  11.655 -0.6514  0.3592  0.0208
    7MPD2    C114194   1.247   4.181  11.559  0.1986 -0.5204 -0.1452
    7MPD2    C214195   1.168   4.302  11.562 -0.3791 -1.2135 -0.8164
    7MPD2    C314196   1.063   4.310  11.652 -0.3296  0.6284  0.3158
    7MPD2    C414197   1.036   4.205  11.741  0.3815 -0.3088 -0.0900
    7MPD2    C514198   1.127   4.107  11.750 -0.1298 -0.4749 -0.0996
    7MPD2     H14199   1.183   4.376  11.484  0.6520  0.1464  0.6688
    7MPD2    H114200   0.962   4.219  11.819  0.8218  0.0021  0.2720
    7MPD2    H214201   1.284   3.993  11.662  0.4683  1.1491  0.2440
    7MPD2    H314202   1.114   4.037  11.832  0.7187 -0.8672 -0.3087
    7MPD2     N14203   0.971   4.415  11.654  0.6504  0.5702 -0.6813
    7MPD2    H514204   0.892   4.410  11.717  1.3891 -0.6398  0.1493
    7MPD2    N114205   1.335   4.147  11.449  0.4113 -0.4501  0.3388
    7MPD2    H714206   1.358   4.049  11.436 -1.1492 -0.6265 -1.0775
    8TMC3    C114207   1.464   4.184  11.254  0.3448 -0.3489 -0.5290
    8TMC3    C214208   1.401   4.071  11.207 -0.2841  0.2898  0.0531
    8TMC3    C314209   1.373   4.061  11.070  0.1466 -0.7445 -0.1614
    8TMC3    C414210   1.493   4.284  11.168  0.4831  0.3784  0.3725
    8TMC3    C514211   1.467   4.270  11.033 -0.1673 -0.3841  0.8314
    8TMC3    C614212   1.419   4.154  10.982  0.5853 -0.2655  0.3641
    8TMC3     C14213   1.381   4.239  11.359  0.4167 -0.0628 -0.1954
    8TMC3     O14214   1.375   4.360  11.373  0.0926  0.8864 -0.0657
    8TMC3     H14215   1.355   3.995  11.269  1.3366 -0.8809 -0.1705
    8TMC3    H114216   1.544   4.373  11.202  0.8072  0.3040  0.0881
    8TMC3    H214217   1.400   4.140  10.876  0.6166 -0.3555  0.3705
    8TMC3    C714218   1.400   4.387  10.983  0.6680 -0.0727  0.6154
    8TMC3    C814219   1.233   4.045  11.060 -0.8419 -0.0259  0.5677
    8TMC3    O114220   1.383   4.395  10.860 -0.1979 -0.0841  0.1369
    8TMC3    O214221   1.182   3.954  11.119  0.4983 -0.5277 -0.3328
    9MPD2     C14222   0.943   4.083  11.037 -0.0769  0.0798  0.3125
    9MPD2    C114223   1.041   4.171  10.984 -0.2917 -0.3272 -0.2647
    9MPD2    C214224   1.005   4.292  10.925 -0.1824  0.8656 -0.4967
    9MPD2    C314225   0.867   4.312  10.913 -0.7184 -0.1091 -0.3944
    9MPD2    C414226   0.776   4.227  10.970  0.1841 -0.3295 -0.0710
    9MPD2    C514227   0.815   4.117  11.034  0.7031  0.0383 -0.0458
    9MPD2     H14228   1.078   4.363  10.886 -0.6272  2.0086  0.7386
    9MPD2    H114229   0.672   4.232  10.938  0.0519  0.4226  0.4748
    9MPD2    H214230   0.959   3.987  11.086  0.7031 -0.2689 -0.6118
    9MPD2    H314231   0.736   4.044  11.049 -0.1945  0.7370 -1.4201
    9MPD2     N14232   0.812   4.420  10.837 -0.8208 -0.1609  0.0470
    9MPD2    H514233   0.710   4.421  10.839 -0.7907  0.6544  1.5882
    9MPD2    N114234   1.180   4.150  10.994 -0.1962 -0.0089  0.6907
    9MPD2    H714235   1.238   4.214  10.941  0.1030 -2.0125 -1.4071
    1MPD1     C14236   4.056   3.816  16.918 -0.9220 -0.4359  0.1408
    1MPD1    C114237   3.972   3.771  16.821 -0.1146 -0.1027 -0.2266
    1MPD1    C214238   3.983   3.826  16.692 -0.1322  0.1287 -0.4639
    1MPD1    C314239   4.057   3.948  16.674 -0.7925 -0.1593  0.2414
    1MPD1    C414240   4.119   4.002  16.783  0.6203 -0.2249  0.2218
    1MPD1    C514241   4.134   3.928  16.898 -0.4200 -0.1220 -0.2709
    1MPD1     H14242   3.925   3.778  16.614 -0.2675  0.3919 -0.5261
    1MPD1    H114243   4.176   4.092  16.765  0.7529 -0.3566 -0.0290
    1MPD1    H214244   4.065   3.759  17.010 -0.9707 -2.0115 -0.8211
    1MPD1    H314245   4.212   3.959  16.966 -1.8657 -0.1990  1.4086
    1MPD1     N14246   4.060   4.013  16.545 -0.4132 -0.1042  0.2498
    1MPD1    H514247   4.130   4.084  16.523 -0.0580 -0.1267  1.3333
    1MPD1    N114248   3.901   3.648  16.842  0.1967 -0.4165  0.3649
    1MPD1    H614249   3.875   3.645  16.941 -1.8845 -1.2813 -0.2037
    1MPD1    H714250   3.829   3.625  16.774 -1.3928  3.5227  0.7345
    2MPD1     C14251   3.867   3.699  15.617 -0.2638 -0.6762  0.3048
    2MPD1    C114252   3.834   3.651  15.736 -0.1041  0.1346 -0.9699
    2MPD1    C214253   3.874   3.730  15.850 -0.6135 -0.5783  0.6096
    2MPD1    C314254   3.932   3.851  15.837 -0.7204  0.0968  0.6789
    2MPD1    C414255   3.951   3.900  15.707 -0.0431  0.2380  0.2502
    2MPD1    C514256   3.927   3.822  15.603 -0.0729  0.2365  0.1966
    2MPD1     H14257   3.867   3.697  15.953 -1.0592 -0.7432  0.5263
    2MPD1    H114258   4.021   3.981  15.690  0.2830  0.0840  0.8411
    2MPD1    H214259   3.846   3.637  15.531  0.1185 -1.2746  0.6451
    2MPD1    H314260   3.961   3.853  15.505  0.4358  0.4451  0.4396
    2MPD1     N14261   3.963   3.931  15.946 -0.2042 -0.9932 -0.0768
    2MPD1    H514262   3.954   3.891  16.039  2.0765 -0.1148  0.5207
    2MPD1    N114263   3.784   3.512  15.749 -0.7207  0.0724  0.6112
    2MPD1    H614264   3.726   3.488  15.669  2.9655 -1.3146 -1.6298
    2MPD1    H714265   3.715   3.498  15.823  0.6158 -1.7145  1.5112
    3TCq2    C114266   3.983   4.067  15.947  0.3601 -0.0568  0.4615
    3TCq2    O214267   3.993   4.149  15.862  0.4760 -0.0382  0.2442
    3TCq2    C214268   4.008   4.112  16.086 -0.1208 -0.6857  0.1355
    3TCq2    C314269   4.105   4.212  16.095  0.7910 -1.4142 -0.1949
    3TCq2    C414270   4.157   4.234  16.218  0.0580  0.0201  0.3345
    3TCq2    C514271   4.121   4.159  16.329  0.4706 -0.4265  0.4693
    3TCq2    C614272   4.024   4.063  16.313  0.4376  0.1498  0.2176
    3TCq2    C714273   3.966   4.037  16.193 -0.0974 -0.9390  0.4294
    3TCq2    C814274   3.998   3.972  16.427 -0.0802 -1.2261 -0.4708
    3TCq2    O414275   3.917   3.879  16.412 -0.3682  0.2929  0.2748
    3TCq2    C914276   4.264   4.332  16.235 -0.7226  0.3330 -0.6090
    3TCq2    O514277   4.325   4.376  16.136  0.9152 -0.2226  0.1711
    3TCq2    O614278   4.287   4.370  16.350  0.3770  0.7601  0.0716
    3TCq2    H214279   4.146   4.256  16.004  2.0240 -1.3682  0.3785
    3TCq2    H314280   4.170   4.189  16.421  0.4250 -0.2893  0.4479
    3TCq2    H414281   3.887   3.963  16.182 -0.7502 -0.1847  0.1181
    1TCq1    O114282   3.410   2.394  12.907 -0.1034 -0.2422 -0.6743
    1TCq1    C114283   3.334   2.353  12.801 -0.5724  0.2744  0.1474
    1TCq1    O214284   3.349   2.396  12.686  0.2386  0.5061  0.2969
    1TCq1    C214285   3.284   2.215  12.828  0.0105  0.2731  0.6727
    1TCq1    C314286   3.267   2.141  12.718  0.5204  0.4370 -0.2667
    1TCq1    C414287   3.240   2.013  12.734 -0.6141 -0.3649  0.0530
    1TCq1    C514288   3.219   1.955  12.853  0.0647 -0.1548  0.3669
    1TCq1    C614289   3.256   2.029  12.960 -0.7315 -0.9829 -0.2312
    1TCq1    C714290   3.293   2.158  12.950  0.5210 -0.3803 -0.1975
    1TCq1    C814291   3.290   1.948  13.078  0.4635 -0.0812 -0.4220
    1TCq1    O414292   3.327   1.833  13.055 -0.6096 -0.5443  0.0050
    1TCq1    C914293   3.205   1.944  12.608  0.0080  0.0233  0.4065
    1TCq1    O514294   3.146   1.832  12.613  0.0594 -0.2730  0.0444
    1TCq1    O614295   3.244   1.990  12.496  0.1200  0.8778  0.2596
    1TCq1    H114296   3.406   2.333  12.983 -0.6873  0.6623  0.0147
    1TCq1    H214297   3.259   2.178  12.616  1.1377 -1.5895 -1.0540
    1TCq1    H314298   3.204   1.847  12.858  0.6266 -0.3383 -1.6683
    1TCq1    H414299   3.327   2.211  13.038 -0.6101 -1.3937  0.8498
    2MPD2     C14300   3.358   1.875  13.350  0.4275  0.5750 -0.2427
    2MPD2    C114301   3.302   2.000  13.327  0.2156  0.6993  0.6969
    2MPD2    C214302   3.275   2.092  13.424 -0.1907  0.1320  0.1795
    2MPD2    C314303   3.283   2.053  13.553  0.2620 -0.1813  0.1074
    2MPD2    C414304   3.328   1.921  13.581 -1.3069 -0.0327  0.2199
    2MPD2    C514305   3.374   1.833  13.481 -0.4326  0.2617  0.7225
    2MPD2     H14306   3.236   2.190  13.401  0.1314  0.2254  0.0411
    2MPD2    H114307   3.339   1.883  13.682  1.6230  0.5346  0.1280
    2MPD2    H214308   3.391   1.815  13.266 -1.8443  1.3597 -1.6977
    2MPD2    H314309   3.404   1.731  13.504 -2.4364 -0.3131  0.7252
    2MPD2     N14310   3.221   2.138  13.652 -0.5722 -0.2695 -0.2897
    2MPD2    H514311   3.170   2.217  13.614 -2.3356 -0.9734  0.6244
    2MPD2    N114312   3.272   2.027  13.193  0.0173  0.1768  0.5747
    2MPD2    H714313   3.239   2.121  13.174  0.4003  0.0814 -0.5479
    3TCq1    O114314   2.842   2.558  13.849 -0.0161  0.2084  0.1671
    3TCq1    C114315   2.868   2.439  13.787 -0.6559  0.3766 -0.4296
    3TCq1    O214316   2.860   2.435  13.664  0.3903  0.0250 -0.0794
    3TCq1    C214317   2.980   2.383  13.867 -0.1834 -0.6321 -0.3172
    3TCq1    C314318   2.943   2.363  13.998  0.1220 -0.2437  0.3262
    3TCq1    C414319   3.012   2.263  14.061  0.2289 -0.0375 -0.2357
    3TCq1    C514320   3.104   2.187  13.998 -0.3713  0.4159  0.0512
    3TCq1    C614321   3.146   2.214  13.869 -0.2908  0.7399 -0.5654
    3TCq1    C714322   3.086   2.319  13.803  0.1042  0.2664  0.3249
    3TCq1    C814323   3.223   2.118  13.795  0.3000 -0.2992 -0.4780
    3TCq1    O414324   3.272   2.024  13.856 -0.5783  0.0961  0.2992
    3TCq1    C914325   2.978   2.226  14.193  0.6658  0.6957  0.6328
    3TCq1    O514326   3.059   2.150  14.257 -0.3379 -0.1040 -0.2919
    3TCq1    O614327   2.882   2.286  14.241  0.1095  0.4258 -0.0045
    3TCq1    H114328   2.876   2.562  13.941  0.2141 -0.4258  0.1097
    3TCq1    H214329   2.858   2.406  14.050  0.9320  1.2671  0.3895
    3TCq1    H314330   3.135   2.094  14.045 -0.3384  1.3271  1.7954
    3TCq1    H414331   3.115   2.344  13.702  1.1793  0.7910  0.7619
    1MPD2     C14332   1.743   2.559  14.671 -0.4879 -1.1389 -0.3441
    1MPD2    C114333   1.866   2.589  14.731 -0.0427  0.0583  0.0072
    1MPD2    C214334   1.986   2.549  14.669  0.4975  0.5799 -0.6500
    1MPD2    C314335   1.976   2.475  14.551  0.0271  0.2796  0.6672
    1MPD2    C414336   1.854   2.449  14.496 -0.2732 -0.4280 -0.1361
    1MPD2    C514337   1.740   2.485  14.560 -0.6338 -0.1197  0.4410
    1MPD2     H14338   2.084   2.563  14.713 -0.0259 -0.8371  0.9709
    1MPD2    H114339   1.845   2.380  14.414 -1.5190 -1.0348  0.5020
    1MPD2    H214340   1.652   2.606  14.706  1.7647  0.4742  3.4388
    1MPD2    H314341   1.651   2.455  14.506  2.1465 -1.7557 -3.2680
    1MPD2     N14342   2.084   2.406  14.495 -0.3574 -0.0736 -0.2649
    1MPD2    H514343   2.059   2.344  14.419 -2.9351  0.1883  0.3829
    1MPD2    N114344   1.857   2.652  14.861 -0.3095 -0.5411 -0.2381
    1MPD2    H714345   1.764   2.678  14.892 -0.2211 -1.3785  0.7297
    2TMC3    C114346   1.913   2.699  15.081 -0.1902  0.1097  0.5696
    2TMC3    C214347   1.926   2.586  15.157  0.1853  0.9385 -0.1719
    2TMC3    C314348   1.814   2.537  15.218  0.2817  0.1141  0.2852
    2TMC3    C414349   1.800   2.775  15.107  0.1198  0.1402 -0.2475
    2TMC3    C514350   1.705   2.735  15.195  0.9589  0.2924  0.4742
    2TMC3    C614351   1.702   2.612  15.246 -0.4054  0.2093 -0.1890
    2TMC3     C14352   1.961   2.679  14.945  0.3614  0.0508 -0.2949
    2TMC3     O14353   2.079   2.649  14.927  0.2536  0.0425 -0.4195
    2TMC3     H14354   2.016   2.531  15.132  0.4540  2.3781 -2.4395
    2TMC3    H114355   1.792   2.872  15.058 -0.2571  0.3599  0.2488
    2TMC3    H214356   1.619   2.573  15.304 -1.8049  2.7510 -0.4799
    2TMC3    C714357   1.588   2.813  15.220 -0.2413  0.2716  0.1476
    2TMC3    C814358   1.763   2.428  15.142 -0.0573 -0.0790  0.0012
    2TMC3    O114359   1.489   2.757  15.267 -0.1693  0.4825 -0.4348
    2TMC3    O214360   1.643   2.411  15.137  0.3488 -0.0142 -0.2023
    3TCq1    O114361   1.127   3.714  14.638 -0.3586  0.0810  0.4748
    3TCq1    C114362   1.201   3.627  14.563  0.0688  0.6038  0.5572
    3TCq1    O214363   1.207   3.640  14.442 -0.0735  0.3287 -0.4210
    3TCq1    C214364   1.306   3.588  14.654  0.5586 -0.3695 -0.4335
    3TCq1    C314365   1.440   3.598  14.614 -0.1359  0.0745  0.6575
    3TCq1    C414366   1.532   3.567  14.714 -0.1294 -0.8220 -0.4053
    3TCq1    C514367   1.503   3.537  14.843  0.2620 -0.2477 -0.5314
    3TCq1    C614368   1.371   3.541  14.882  0.0600  0.2068  0.0239
    3TCq1    C714369   1.267   3.561  14.787 -0.7597 -0.3459 -0.0877
    3TCq1    C814370   1.336   3.470  14.999  0.3122  0.4039 -0.9276
    3TCq1    O414371   1.220   3.470  15.032 -0.0296 -0.2662 -0.4543
    3TCq1    C914372   1.670   3.550  14.676 -0.8703 -0.2442  0.5641
    3TCq1    O514373   1.746   3.497  14.763  0.7016  0.0108  0.2327
    3TCq1    O614374   1.707   3.571  14.554 -0.3344 -0.0900 -0.7139
    3TCq1    H114375   1.153   3.730  14.731 -1.2538 -1.6348  1.0189
    3TCq1    H214376   1.465   3.605  14.509  1.4875 -0.6208  0.9910
    3TCq1    H314377   1.587   3.539  14.912 -2.1973  3.3979  2.3687
    3TCq1    H414378   1.165   3.531  14.807 -1.1624 -0.1298 -1.7684
    4MPD2     C14379   1.299   3.250  15.198  0.2600  0.9464 -0.3955
    4MPD2    C114380   1.404   3.263  15.111  0.1681 -0.3344  0.3111
    4MPD2    C214381   1.500   3.164  15.110  0.1005  0.7896 -0.2080
    4MPD2    C314382   1.482   3.037  15.175  0.3813 -0.1986 -0.4039
    4MPD2    C414383   1.364   3.021  15.245  0.2160  0.5478 -0.1800
    4MPD2    C514384   1.272   3.126  15.253  0.0098  0.6602 -0.6174
    4MPD2     H14385   1.588   3.180  15.049  1.2781 -3.1585  0.4709
    4MPD2    H114386   1.347   2.940  15.314  0.3766  1.3984  0.8468
    4MPD2    H214387   1.224   3.327  15.217  2.0187  1.9222  2.5843
    4MPD2    H314388   1.194   3.118  15.328  2.9054 -1.7605  2.0932
    4MPD2     N14389   1.592   2.942  15.166  0.6814 -0.5955 -0.7042
    4MPD2    H514390   1.679   2.982  15.133 -0.1294  1.9698  0.2958
    4MPD2    N114391   1.428   3.371  15.023  0.2924  0.1212  0.0327
    4MPD2    H714392   1.508   3.365  14.961  1.2821 -3.0204  1.5895
    5TMC2    C114393   2.248   2.071  14.635  0.2395  0.8499 -0.4473
    5TMC2    C214394   2.365   2.079  14.696 -0.1030  0.3710 -0.3559
    5TMC2    C314395   2.444   2.193  14.671 -0.0338  0.5880 -1.1704
    5TMC2    C414396   2.210   2.163  14.538  0.0626 -0.5477 -0.4092
    5TMC2    C514397   2.283   2.275  14.520  0.5140 -0.1142 -0.6176
    5TMC2    C614398   2.411   2.283  14.572 -0.9436  0.5146 -0.1800
    5TMC2     C14399   2.157   2.081  14.746  0.1386  0.0717  0.7700
    5TMC2     O14400   2.213   2.128  14.844  0.1098  0.8136 -0.5914
    5TMC2     H14401   2.394   2.015  14.778  0.7027 -0.5447 -1.3564
    5TMC2    H114402   2.110   2.162  14.497  0.0832 -3.1359 -0.3701
    5TMC2    H214403   2.458   2.380  14.572  1.3273 -0.6010  0.7256
    5TMC2    C714404   2.213   2.407  14.543  0.1797  0.0668 -0.4120
    5TMC2    C814405   2.524   2.243  14.785  0.3422 -0.5778 -0.2521
    5TMC2    O114406   2.268   2.496  14.608 -0.1806 -0.6208  0.1502
    5TMC2    O214407   2.627   2.302  14.760 -0.2455 -0.3514 -0.0820
    5TMC2    O514408   2.435   2.275  14.877 -0.5112 -0.1262  0.3814
    5TMC2    H514409   2.357   2.217  14.869 -0.6731 -0.1164  1.9427
    6MPD2     C14410   1.708   2.287  14.881  0.7806  0.4381  0.1043
    6MPD2    C114411   1.828   2.295  14.949  0.6470  0.5545 -0.2368
    6MPD2    C214412   1.940   2.226  14.891 -0.4212  0.1304 -0.4363
    6MPD2    C314413   1.921   2.144  14.780 -0.1031  0.3403  0.1231
    6MPD2    C414414   1.795   2.135  14.722 -0.4193  0.3965  0.5077
    6MPD2    C514415   1.693   2.205  14.777  0.0242 -0.2273 -0.0543
    6MPD2     H14416   2.040   2.241  14.928 -0.1915  1.0201 -1.3979
    6MPD2    H114417   1.780   2.067  14.639  1.1892 -0.7676  1.1770
    6MPD2    H214418   1.621   2.344  14.913  1.0683  0.3602  1.0320
    6MPD2    H314419   1.593   2.192  14.737 -0.3443 -2.4626  1.5791
    6MPD2     N14420   2.025   2.079  14.714 -0.5119 -0.1623  0.7097
    6MPD2    H514421   2.003   2.044  14.621 -0.3125 -0.4964  0.7878
    6MPD2    N114422   1.856   2.374  15.063 -0.2223 -0.1166 -0.3670
    6MPD2    H714423   1.951   2.382  15.097 -1.1517  2.3976  1.6378
  945NH4     N114424   4.029   4.375  17.043  0.7966 -0.5140  0.4465
  945NH4     H214425   3.971   4.439  16.984 -1.3350 -2.4808  0.4279
  945NH4     H314426   4.049   4.436  17.126 -0.2398 -2.2142  1.9406
  945NH4     H414427   4.117   4.347  16.996  0.3061  1.0526 -1.3865
  945NH4     H514428   3.968   4.295  17.068 -1.1277  0.8625  0.1182
  946SOD     NA14429   2.478   1.209  10.015  0.6104 -0.3501  0.4009
  947SOD     NA14430   3.946   2.062  14.164 -0.3977  0.2738  0.7245
  948SOD     NA14431   0.126   1.989   0.060 -0.1323 -0.5551  0.1429
  949SOD     NA14432   3.505   2.994   7.933  0.3476  0.5007 -0.1084
  950SOD     NA14433   0.958   0.279   3.275 -0.2028 -0.2660 -0.3573
  951SOD     NA14434   3.872   2.204   9.859 -0.5255  0.1278  0.1253
  952SOD     NA14435   3.413   2.107  14.528  0.3631 -0.2016  0.5450
  953SOD     NA14436   4.490   2.522  15.824 -0.2519 -0.2187  0.7758
  954SOD     NA14437   4.706   4.530  11.550  0.7432  0.0625  0.2381
  955SOD     NA14438   0.193   1.466   1.843  0.0331  0.1141 -0.7928
  956SOD     NA14439   1.585   2.716  10.959  0.3726  0.4525  0.1279
  957SOD     NA14440   1.138   0.989  10.899  0.2905  0.1537  0.3534
  958SOD     NA14441   1.696   0.341  15.609  0.2249 -0.3119 -0.3561
  959SOD     NA14442   2.532   0.519   7.526  0.2978 -0.2027 -0.5790
  960SOD     NA14443   1.880   3.359  15.108  0.2729  0.0814 -0.1070
  961SOD     NA14444   3.993   0.708   4.170  0.1150 -0.1524 -0.0742
  962SOD     NA14445   1.367   1.504   2.875 -0.1395 -0.0463  0.2321
  963SOD     NA14446   0.512   2.994   3.220 -0.0313 -0.1626 -0.1069
  964SOD     NA14447   3.384   1.373  10.709 -0.1543 -0.0542 -0.2933
  965SOD     NA14448   3.216   1.797  12.402 -0.1166 -0.6911  0.0069
  966SOD     NA14449   0.463   1.595  13.408  0.2221 -0.3521  0.1341
  967SOD     NA14450   2.386   2.173  13.251  0.0218 -0.1633  0.1146
  968SOD     NA14451   3.782   2.230  11.354 -0.1861 -0.2750 -0.1701
  969SOD     NA14452   2.369   3.510  10.354  0.5468 -0.0464 -0.4310
  970SOD     NA14453   2.311   4.180   9.746 -0.5635 -0.4491 -0.1090
  971SOD     NA14454   1.753   2.541  10.103 -0.3952  0.2148 -0.2196
  972SOD     NA14455   4.148   2.309  14.127  0.2497 -0.0031  0.0156
  973SOD     NA14456   2.011   1.678   3.627  0.0468 -0.0847  0.1637
  974SOD     NA14457   3.078   3.880  10.954 -0.8717  0.1954 -0.0163
  975SOD     NA14458   1.979   2.285  11.463 -0.0702  0.4712  0.0525
  976SOD     NA14459   1.798   2.731  11.904 -0.0323  0.5422  0.3824
  977SOD     NA14460   4.169   0.277  14.596  0.1901  0.3078  0.1423
  978SOD     NA14461   3.531   0.464  11.797 -0.2898 -0.2716  0.5487
  979SOD     NA14462   3.106   0.780  12.882 -0.0535  0.2458  0.4110
  980SOD     NA14463   1.073   1.275  15.174 -0.3222 -0.6042  0.5151
  981SOD     NA14464   3.464   2.301  11.273 -0.0528 -0.5534 -0.2179
  982SOD     NA14465   1.478   1.453  13.280  0.1202  0.5601  0.0275
  983SOD     NA14466   3.668   3.167   2.308  0.0895 -0.2967 -0.4993
  984SOD     NA14467   4.383   2.593   2.163  0.2461 -0.5305 -0.2742
  985SOD     NA14468   4.490   3.030   0.340 -0.1453  0.1429 -0.1612
  986SOD     NA14469   1.931   3.389  14.695  0.3238 -0.3642 -0.2038
  987SOD     NA14470   0.091   3.081  14.892 -0.2136 -0.4008 -0.0597
  988SOD     NA14471   2.702   2.655  14.802 -0.2236 -0.2152 -0.1985
  989SOD     NA14472   3.042   1.094   9.506  0.7247  0.0167 -0.4211
  990SOD     NA14473   1.460   1.578   4.493 -0.2333 -0.2754  0.2264
  991SOD     NA14474   0.521   2.831   7.387  0.2498 -0.3544 -0.3643
  992SOD     NA14475   1.301   0.394  13.662  0.4372 -0.0610  0.5422
  993SOD     NA14476   1.547   4.440  14.639  0.1009 -0.3951  0.1237
  994SOD     NA14477   1.273   2.398  15.083 -0.1794  0.2625  0.6592
  995SOD     NA14478   3.213   1.002  11.239 -0.2378 -0.4547 -0.2352
  996SOD     NA14479   2.208   3.069  12.946 -0.0673  0.0817 -0.0500
  997SOD     NA14480   4.659   1.272   0.695  0.1488 -0.1929  0.0186
  998SOD     NA14481   0.399   2.442   8.770  0.4012 -0.1475 -0.2848
  999SOD     NA14482   2.777   3.688   0.809 -0.1648  0.2397  0.2598
 1000SOD     NA14483   2.854   2.791  10.820  0.4462  0.3537  0.6114
 1001SOD     NA14484   0.663   3.044  13.277  0.8213 -0.2182 -0.0921
 1002SOD     NA14485   1.639   3.665   1.108  0.0779  0.3079 -0.1463
 1003SOD     NA14486   1.964   0.117   4.792 -0.0490 -0.4403  0.3439
 1004SOD     NA14487   3.967   2.572  14.910 -0.2453 -0.2820 -0.0401
 1005SOD     NA14488   4.081   4.470   0.099  0.2330 -0.0436 -0.0070
 1006SOD     NA14489   2.207   3.441  11.412  0.4890  0.1456  0.6138
 1007SOD     NA14490   2.490   0.126   2.513  0.0809 -0.0910 -0.0614
 1008SOD     NA14491   2.512   1.527  10.799 -0.1934 -0.1506  0.0449
 1009SOD     NA14492   4.467   3.547  10.807  1.1126 -0.2501 -0.1549
 1010SOD     NA14493   2.839   1.368   9.558 -0.4670 -0.1317 -0.0383
 1011SOL     OW14494   4.358   2.863   8.112 -0.6924  0.1945  0.2292
 1011SOL    HW114495   4.347   2.794   8.177  1.9065  0.8259  1.3190
 1011SOL    HW214496   4.385   2.808   8.039  1.2259  0.7407  0.5437
 1012SOL     OW14497   1.253   1.638   8.947 -0.3079  0.3921  0.4156
 1012SOL    HW114498   1.165   1.620   8.915 -0.2907  0.6037  0.2488
 1012SOL    HW214499   1.251   1.731   8.971  0.7325  0.3778  0.5730
 1013SOL     OW14500   2.203   0.437   3.279  0.1217 -0.1678  0.7179
 1013SOL    HW114501   2.150   0.463   3.354  0.7669  1.3701  0.6293
 1013SOL    HW214502   2.130   0.414   3.220  0.1154  0.8580  0.3347
 1014SOL     OW14503   1.672   2.855   6.139 -0.1478  0.1558 -0.3530
 1014SOL    HW114504   1.623   2.803   6.202 -0.8642  0.8870 -0.3086
 1014SOL    HW214505   1.657   2.940   6.180  2.0431  0.4694 -0.1826
 1015SOL     OW14506   1.845   2.750  13.169 -0.2204  0.0289  0.0161
 1015SOL    HW114507   1.893   2.671  13.194 -3.6420 -2.2672 -0.6958
 1015SOL    HW214508   1.756   2.726  13.195  0.5141  1.4889  3.9089
 1016SOL     OW14509   2.236   4.427   5.569 -0.2288 -0.7748  0.0940
 1016SOL    HW114510   2.210   4.339   5.599  0.3825 -0.5977  1.1363
 1016SOL    HW214511   2.299   4.395   5.505 -1.8197 -1.9070 -0.9247
 1017SOL     OW14512   0.862   1.766   7.485 -0.2540 -0.5181 -0.0808
 1017SOL    HW114513   0.867   1.746   7.578 -0.6097  1.8523  0.4346
 1017SOL    HW214514   0.829   1.855   7.483 -0.3347 -0.5230  0.8827
 1018SOL     OW14515   3.729   4.562   5.347 -0.0577 -0.2462 -0.2563
 1018SOL    HW114516   3.658   4.500   5.328 -1.8799  1.7586 -0.0473
 1018SOL    HW214517   3.748   4.591   5.257 -0.6936 -0.6891 -0.5380
 1019SOL     OW14518   1.532   2.951   4.743  0.2603  0.5083  0.8212
 1019SOL    HW114519   1.593   2.984   4.676  1.0052 -2.0903  0.2011
 1019SOL    HW214520   1.583   2.956   4.824 -0.9617  1.1689  1.5424
 1020SOL     OW14521   4.110   2.941   8.060  0.4326  0.1205  0.4258
 1020SOL    HW114522   4.188   2.914   8.108  0.1078 -2.3348 -0.4290
 1020SOL    HW214523   4.046   2.895   8.115  1.4320 -0.8593  0.7721
 1021SOL     OW14524   1.492   3.616   8.848 -0.5229  0.3417 -0.0897
 1021SOL    HW114525   1.443   3.688   8.888 -0.0053  0.0874  1.0086
 1021SOL    HW214526   1.443   3.543   8.886 -0.7906 -0.5773 -2.1894
 1022SOL     OW14527   4.583   1.002   4.520 -0.6156  0.0603  0.2423
 1022SOL    HW114528   4.634   0.951   4.456 -2.1384 -0.9801 -0.1467
 1022SOL    HW214529   4.625   0.980   4.603  1.1030  0.8435 -0.4346
 1023SOL     OW14530   4.558   2.753   1.706  0.6819  0.0357  0.3101
 1023SOL    HW114531   4.596   2.666   1.718  0.5660  0.4181  3.3921
 1023SOL    HW214532   4.511   2.744   1.623  2.2159 -1.7190 -0.3823
 1024SOL     OW14533   4.574   2.494   6.370 -0.1484 -0.0916  0.2750
 1024SOL    HW114534   4.492   2.539   6.353 -1.0487 -1.5358  0.8030
 1024SOL    HW214535   4.554   2.454   6.455 -3.0887  1.2828  0.1884
 1025SOL     OW14536   3.949   3.661   6.205 -0.1945 -0.3348  0.2850
 1025SOL    HW114537   4.008   3.591   6.232  0.2167  0.7851  2.2883
 1025SOL    HW214538   3.937   3.649   6.111  2.1588 -0.0010 -0.0650
 1026SOL     OW14539   3.536   0.499   8.031  0.6171  0.5673 -0.1309
 1026SOL    HW114540   3.541   0.527   7.939  1.0313  1.2134  0.0877
 1026SOL    HW214541   3.442   0.501   8.051  0.6609 -3.8897  0.4845
 1027SOL     OW14542   1.531   1.631  16.731 -0.6002 -0.3861  0.1946
 1027SOL    HW114543   1.462   1.694  16.752  0.4455  1.2051 -1.1493
 1027SOL    HW214544   1.597   1.657  16.795 -0.8993 -1.5614  0.9916
 1028SOL     OW14545   3.153   2.796  16.847 -0.0173 -0.4694  0.0449
 1028SOL    HW114546   3.115   2.804  16.760 -1.2261 -1.3896  0.4916
 1028SOL    HW214547   3.245   2.777  16.828  0.0230 -0.5122  0.2845
 1029SOL     OW14548   3.886   2.392   0.733  0.5475  0.4773  0.3227
 1029SOL    HW114549   3.887   2.383   0.638  0.2031 -2.3928  0.6056
 1029SOL    HW214550   3.824   2.464   0.745 -0.9799 -0.5345 -1.5829
 1030SOL     OW14551   0.547   0.492   4.223 -0.4968 -0.1308 -0.0896
 1030SOL    HW114552   0.459   0.521   4.248 -0.7544 -1.9897  1.2070
 1030SOL    HW214553   0.591   0.517   4.304 -0.7950  2.1638 -0.6454
 1031SOL     OW14554   1.173   1.888   2.585  0.2919  0.7314  0.7637
 1031SOL    HW114555   1.197   1.908   2.494  1.5075 -2.5918  0.3596
 1031SOL    HW214556   1.212   1.801   2.599 -3.0072 -0.9028 -0.0756
 1032SOL     OW14557   2.476   4.355   3.988  0.0508  0.2892 -0.4030
 1032SOL    HW114558   2.380   4.354   3.982  0.1663  0.9043 -2.6431
 1032SOL    HW214559   2.497   4.279   4.042 -0.2729 -1.0369 -2.1249
 1033SOL     OW14560   4.288   1.458   6.322  0.1586  0.4702 -0.1395
 1033SOL    HW114561   4.218   1.398   6.297  1.4445 -0.1786 -2.1357
 1033SOL    HW214562   4.245   1.531   6.369  2.1471  0.9121  0.9922
 1034SOL     OW14563   2.496   2.380   2.324  0.2413 -0.0737  0.1364
 1034SOL    HW114564   2.570   2.440   2.311 -0.0332  0.1574 -0.3789
 1034SOL    HW214565   2.433   2.452   2.325 -1.9113 -1.9834 -0.3093
 1035SOL     OW14566   4.484   2.288   4.292 -0.2836 -0.6949  0.6810
 1035SOL    HW114567   4.579   2.279   4.285 -0.5006 -2.1214 -0.3270
 1035SOL    HW214568   4.461   2.231   4.219  2.0920 -1.0805  0.2164
 1036SOL     OW14569   4.589   2.151  15.127 -0.2626  0.3342 -0.1601
 1036SOL    HW114570   4.632   2.205  15.060  2.4244 -2.2369 -0.5031
 1036SOL    HW214571   4.661   2.095  15.156  0.3429  0.5019 -1.3203
 1037SOL     OW14572   2.116   3.336   4.736  0.0714  0.9906 -0.0876
 1037SOL    HW114573   2.151   3.282   4.807 -1.6043  0.5296  0.3919
 1037SOL    HW214574   2.025   3.307   4.727  0.4703 -0.9128  2.0629
 1038SOL     OW14575   4.418   0.176  11.086  0.1524  0.4762  0.1312
 1038SOL    HW114576   4.437   0.163  11.179  0.4761  0.1260  0.0164
 1038SOL    HW214577   4.404   0.270  11.089 -0.5664  0.3618  0.4255
 1039SOL     OW14578   1.916   2.778  14.315 -0.0777 -0.2173  0.0498
 1039SOL    HW114579   1.948   2.836  14.246  0.1925  0.6484  0.8948
 1039SOL    HW214580   1.923   2.832  14.394 -0.7760 -0.8778  0.5608
 1040SOL     OW14581   1.439   1.992   8.577  0.6461  0.4371 -0.2996
 1040SOL    HW114582   1.439   2.065   8.639  1.7874 -0.7153  1.0687
 1040SOL    HW214583   1.417   1.914   8.628 -0.4625  0.7089 -0.3807
 1041SOL     OW14584   0.905   2.659   0.408  0.9594 -0.2820  0.9013
 1041SOL    HW114585   0.941   2.727   0.465  1.3122  0.5106 -0.2549
 1041SOL    HW214586   0.954   2.581   0.434 -2.0337 -2.7833 -0.8695
 1042SOL     OW14587   2.564   2.520   0.233 -0.0532 -0.2662 -0.1691
 1042SOL    HW114588   2.573   2.534   0.327  2.2075 -2.6163 -0.0349
 1042SOL    HW214589   2.508   2.442   0.229  0.2087 -0.4580 -0.0559
 1043SOL     OW14590   2.974   2.639   8.329  0.3519  0.2182 -0.0776
 1043SOL    HW114591   2.942   2.627   8.419  1.5436 -1.7989  0.0742
 1043SOL    HW214592   2.990   2.546   8.311 -0.2035  0.2063 -0.4978
 1044SOL     OW14593   1.144   1.454   7.258 -0.1019 -0.0540 -0.2198
 1044SOL    HW114594   1.240   1.463   7.257 -0.1713  0.6900 -0.0065
 1044SOL    HW214595   1.115   1.494   7.176  0.6601 -0.2343 -0.5816
 1045SOL     OW14596   4.669   1.525   5.212 -0.0266 -0.2016  0.0575
 1045SOL    HW114597   4.618   1.606   5.206  0.6996  0.3618  1.3659
 1045SOL    HW214598   4.599   1.463   5.232 -0.5859  0.2698 -0.4493
 1046SOL     OW14599   0.198   3.702   7.803 -0.0484 -0.1455  0.7689
 1046SOL    HW114600   0.153   3.760   7.743  1.2197 -0.0831 -0.1183
 1046SOL    HW214601   0.290   3.723   7.788  0.0625 -0.8753  0.4130
 1047SOL     OW14602   3.493   2.905  17.249 -0.4426  0.5249  0.5750
 1047SOL    HW114603   3.398   2.906  17.238 -0.3951 -1.2412 -0.0323
 1047SOL    HW214604   3.509   2.970  17.317 -1.2447 -0.3738  1.6451
 1048SOL     OW14605   2.450   0.170   6.663 -0.2463 -0.2253 -0.2156
 1048SOL    HW114606   2.501   0.110   6.717  0.1886  0.2939 -0.0459
 1048SOL    HW214607   2.364   0.152   6.702 -0.9772 -0.8555 -2.1209
 1049SOL     OW14608   4.152   4.269  14.170  0.2278 -0.2350 -0.5537
 1049SOL    HW114609   4.136   4.360  14.143  0.6669  0.1322  0.4391
 1049SOL    HW214610   4.061   4.242  14.165  0.3816 -0.8207 -0.1312
 1050SOL     OW14611   3.126   2.366   4.901  0.2955  0.0099 -0.2591
 1050SOL    HW114612   3.154   2.450   4.935 -2.3464  0.9098 -0.3472
 1050SOL    HW214613   3.132   2.312   4.980 -2.4606 -1.6569 -1.1953
 1051SOL     OW14614   2.522   1.517   8.911  0.3818  0.2469  0.3462
 1051SOL    HW114615   2.535   1.422   8.905  0.7788  0.3520 -0.4243
 1051SOL    HW214616   2.442   1.528   8.963  0.1782  1.9105 -0.3215
 1052SOL     OW14617   0.348   3.742   3.049  0.2854 -0.0387  0.7145
 1052SOL    HW114618   0.270   3.757   3.103 -0.8878 -0.9951 -0.7184
 1052SOL    HW214619   0.313   3.777   2.967 -0.6459 -0.2643  1.0077
 1053SOL     OW14620   0.734   4.154   0.950  0.0939  0.3083  0.2005
 1053SOL    HW114621   0.798   4.086   0.927 -1.3797 -1.1441  0.4448
 1053SOL    HW214622   0.790   4.232   0.954 -1.6328  1.6338 -1.5164
 1054SOL     OW14623   1.389   3.295   4.262  0.3092 -0.4891 -0.1130
 1054SOL    HW114624   1.444   3.279   4.185  1.8209 -1.1592  1.0955
 1054SOL    HW214625   1.325   3.346   4.213 -0.4053 -0.2227  1.0947
 1055SOL     OW14626   4.441   2.946   2.761 -0.2428 -0.5915 -0.4152
 1055SOL    HW114627   4.440   3.041   2.772 -0.8430 -0.6399 -0.0027
 1055SOL    HW214628   4.361   2.934   2.709  1.8678 -2.0858 -3.2819
 1056SOL     OW14629   2.945   2.418   5.263  0.1153  0.1516 -0.1779
 1056SOL    HW114630   2.994   2.353   5.212  1.0593  1.0583 -0.4253
 1056SOL    HW214631   2.940   2.374   5.348 -2.3731  2.5493  0.9174
 1057SOL     OW14632   4.042   4.009   6.060  0.4103  0.3234 -0.1145
 1057SOL    HW114633   3.961   4.022   6.011 -0.2889  1.3763  1.3007
 1057SOL    HW214634   4.023   3.930   6.112 -1.6677  0.7030 -0.2845
 1058SOL     OW14635   3.659   2.671  14.988 -0.4857  0.0683 -0.1074
 1058SOL    HW114636   3.727   2.700  14.926 -0.2210  0.6233  0.4506
 1058SOL    HW214637   3.650   2.579  14.961 -2.2744 -0.0449  0.9297
 1059SOL     OW14638   0.667   2.131   7.272  0.7608  0.1165 -0.0001
 1059SOL    HW114639   0.727   2.091   7.209  1.2098  0.2675  0.3317
 1059SOL    HW214640   0.585   2.122   7.224  0.8285 -1.2065  0.1214
 1060SOL     OW14641   4.492   0.296   7.456 -0.1025  0.1229  0.3032
 1060SOL    HW114642   4.398   0.295   7.476 -0.4399  0.3347 -1.2882
 1060SOL    HW214643   4.519   0.321   7.545 -0.5033  0.7582  0.2482
 1061SOL     OW14644   2.842   4.022   2.957  0.4597  0.1759  0.1263
 1061SOL    HW114645   2.763   3.969   2.945  1.0904 -1.0947  1.5805
 1061SOL    HW214646   2.805   4.107   2.980  1.0469  0.6742 -0.7716
 1062SOL     OW14647   0.403   2.507   1.241 -0.2629 -0.1104 -0.0221
 1062SOL    HW114648   0.362   2.489   1.156  1.6286 -0.2874 -0.8781
 1062SOL    HW214649   0.495   2.484   1.233 -0.0744  0.5456  0.2601
 1063SOL     OW14650   2.676   3.632   3.813  0.0260  0.3279  0.1783
 1063SOL    HW114651   2.605   3.613   3.874 -1.1116 -0.2529 -1.3376
 1063SOL    HW214652   2.733   3.559   3.836 -1.8229 -1.9663 -2.4942
 1064SOL     OW14653   1.527   1.303   6.402 -0.1773 -0.5555  0.2729
 1064SOL    HW114654   1.591   1.363   6.364 -0.6354 -0.1783  0.1019
 1064SOL    HW214655   1.460   1.323   6.337  0.2743 -2.1457 -0.6753
 1065SOL     OW14656   0.213   0.046   0.735  0.4779 -0.3325  0.3324
 1065SOL    HW114657   0.164   0.072   0.814 -1.0944 -0.0977 -0.7157
 1065SOL    HW214658   0.179   0.107   0.670 -1.7794 -0.4423  1.4084
 1066SOL     OW14659   4.302   4.548   4.178  0.2630 -0.2534 -0.0135
 1066SOL    HW114660   4.380   4.494   4.167 -0.1159 -1.1327  1.5881
 1066SOL    HW214661   4.344   4.630   4.205 -2.0744  1.3089 -1.0937
 1067SOL     OW14662   3.359   0.080   6.977  0.1146 -0.5419  0.2909
 1067SOL    HW114663   3.451   0.103   6.961 -0.1526 -0.2963 -0.8750
 1067SOL    HW214664   3.366   0.089   7.072  0.7082 -2.5219  0.4316
 1068SOL     OW14665   4.589   4.582   0.475 -0.0130 -0.0273 -0.2956
 1068SOL    HW114666   4.516   4.577   0.536 -1.5578  0.4224 -2.1297
 1068SOL    HW214667   4.538   4.601   0.396 -0.9947  1.8025  0.7795
 1069SOL     OW14668   2.160   2.031  11.806  0.4888 -0.1519  0.6667
 1069SOL    HW114669   2.159   1.955  11.747  0.3478 -0.3643  0.9442
 1069SOL    HW214670   2.236   2.024  11.863 -0.2330 -1.2889  1.5049
 1070SOL     OW14671   1.122   1.168  11.068  0.0413  0.5502  0.3561
 1070SOL    HW114672   1.177   1.234  11.110  1.2413  0.2300 -0.7294
 1070SOL    HW214673   1.061   1.152  11.141 -1.8623  0.1822 -1.3250
 1071SOL     OW14674   1.618   3.334   0.236 -0.1340  0.6562  0.2059
 1071SOL    HW114675   1.583   3.397   0.298  1.6981  1.1021  0.7859
 1071SOL    HW214676   1.596   3.375   0.152 -1.0917  0.3637  0.3121
 1072SOL     OW14677   3.202   1.759   7.292  0.8460  0.5013  0.1294
 1072SOL    HW114678   3.293   1.729   7.283  0.4361 -1.7355  3.5692
 1072SOL    HW214679   3.181   1.784   7.202 -0.7892  0.0774  0.4031
 1073SOL     OW14680   0.360   2.684   5.566  0.2772  0.1705 -0.1516
 1073SOL    HW114681   0.391   2.622   5.633 -0.8661 -0.1217  0.1005
 1073SOL    HW214682   0.268   2.660   5.564  0.4694 -0.8854  2.9291
 1074SOL     OW14683   4.407   1.089   8.011 -0.2679 -0.1009 -0.3299
 1074SOL    HW114684   4.406   1.006   7.964  3.3050 -0.3020 -0.0377
 1074SOL    HW214685   4.416   1.159   7.946  2.7556  0.7000  0.9549
 1075SOL     OW14686   1.767   1.403   6.904  0.2513  0.2864 -0.3790
 1075SOL    HW114687   1.704   1.362   6.963  0.8820 -2.6820 -1.7343
 1075SOL    HW214688   1.848   1.365   6.939  0.0851 -0.9748 -1.3235
 1076SOL     OW14689   3.094   1.830  16.795  0.2508  0.3756  0.2244
 1076SOL    HW114690   3.064   1.851  16.884  0.1958 -0.6447  0.4471
 1076SOL    HW214691   3.171   1.778  16.815  0.1333 -0.0599 -0.4366
 1077SOL     OW14692   1.639   2.377   0.525 -0.3181 -0.1176 -0.3208
 1077SOL    HW114693   1.726   2.343   0.505 -0.0019  1.1271 -1.0275
 1077SOL    HW214694   1.629   2.456   0.472 -0.7679 -1.1151 -1.7287
 1078SOL     OW14695   4.210   0.748   4.228 -0.4659 -0.9330 -0.2996
 1078SOL    HW114696   4.193   0.799   4.308  0.9576 -1.1475  0.1354
 1078SOL    HW214697   4.258   0.812   4.176 -0.2117  1.7037  3.1580
 1079SOL     OW14698   2.016   1.932   9.808 -0.1767  0.1656 -0.8390
 1079SOL    HW114699   2.006   2.016   9.765  1.0003  0.9316  0.3762
 1079SOL    HW214700   2.109   1.947   9.824 -0.3672 -1.9509  2.2927
 1080SOL     OW14701   2.114   2.747   6.014  0.0434 -0.1631  0.3451
 1080SOL    HW114702   2.106   2.842   6.024  1.9691  0.1255 -0.7700
 1080SOL    HW214703   2.171   2.714   6.084 -0.7169  1.1617  1.5746
 1081SOL     OW14704   2.883   4.078   9.408  0.3871 -0.5495  0.8093
 1081SOL    HW114705   2.961   4.024   9.397  1.1832  0.5637  1.0944
 1081SOL    HW214706   2.817   4.013   9.382  0.9306 -0.8831  0.2391
 1082SOL     OW14707   4.028   3.441  16.671  0.2133 -0.5024 -0.7224
 1082SOL    HW114708   4.078   3.510  16.627  0.1314 -1.6505 -2.6195
 1082SOL    HW214709   3.946   3.477  16.706  0.4216  0.4466 -1.2282
 1083SOL     OW14710   0.832   3.054   7.816 -0.2099 -0.1317  0.2289
 1083SOL    HW114711   0.797   3.103   7.741 -1.4666 -0.0089  0.8853
 1083SOL    HW214712   0.911   3.015   7.781 -0.4900 -0.0507 -0.4908
 1084SOL     OW14713   0.445   0.383  13.353 -0.1284 -0.0563  0.6306
 1084SOL    HW114714   0.466   0.435  13.431 -1.7280  2.2210 -0.4626
 1084SOL    HW214715   0.388   0.316  13.390 -1.2697  0.3591 -0.3803
 1085SOL     OW14716   2.946   0.828   4.557  0.7124  0.4486 -0.3737
 1085SOL    HW114717   2.890   0.880   4.615 -0.3538  0.1524 -1.1315
 1085SOL    HW214718   2.941   0.868   4.470  1.2424  0.0748 -0.5719
 1086SOL     OW14719   2.095   2.027   4.183 -0.0792 -0.2205  0.1019
 1086SOL    HW114720   2.141   1.947   4.208 -0.0084 -0.8944 -2.1667
 1086SOL    HW214721   2.040   2.005   4.108  1.1110 -0.2630 -0.7605
 1087SOL     OW14722   4.430   1.958   4.284  0.0429  0.0989  0.2570
 1087SOL    HW114723   4.524   1.942   4.273 -0.1847 -0.0695 -1.4657
 1087SOL    HW214724   4.409   2.010   4.206 -2.5434  1.5440  1.9024
 1088SOL     OW14725   3.349   3.128   0.579 -0.9019  0.4253  0.1100
 1088SOL    HW114726   3.271   3.075   0.588  1.1931 -2.2138  2.7096
 1088SOL    HW214727   3.346   3.178   0.660 -0.0757  0.8805 -0.1326
 1089SOL     OW14728   2.381   3.214   3.265 -0.3141 -0.0117  0.8499
 1089SOL    HW114729   2.381   3.217   3.169  0.4077 -0.7437  0.8253
 1089SOL    HW214730   2.291   3.245   3.272 -0.9823 -2.2260  2.0013
 1090SOL     OW14731   2.777   0.640  13.062 -0.5778 -0.4146  0.3502
 1090SOL    HW114732   2.689   0.676  13.050 -0.8662 -1.5250 -0.7864
 1090SOL    HW214733   2.763   0.552  13.097  0.1278  0.2018  2.1966
 1091SOL     OW14734   1.909   2.021   7.022  0.5119 -0.0810  0.3215
 1091SOL    HW114735   1.923   1.927   7.032  1.9445  0.2268  1.2338
 1091SOL    HW214736   1.869   2.052   7.103  0.0755 -1.0489  0.4642
 1092SOL     OW14737   0.093   2.715   3.476 -0.6251 -0.1905 -0.6193
 1092SOL    HW114738   0.066   2.793   3.427 -2.5077 -0.7450 -0.4709
 1092SOL    HW214739   0.021   2.659   3.447 -0.5402  0.4773 -2.1405
 1093SOL     OW14740   1.622   0.241   8.603  0.5121 -0.1922 -0.0295
 1093SOL    HW114741   1.689   0.242   8.534  1.2139  0.8586  0.6727
 1093SOL    HW214742   1.659   0.309   8.658  2.0871 -1.3450  0.3491
 1094SOL     OW14743   2.393   2.714  16.456 -0.2965 -0.4208  0.8752
 1094SOL    HW114744   2.352   2.764  16.527 -2.5014  1.0803 -1.4437
 1094SOL    HW214745   2.439   2.785  16.411 -0.2893 -1.2742 -0.4616
 1095SOL     OW14746   0.307   0.560   5.961 -0.5859  0.0429 -0.1436
 1095SOL    HW114747   0.361   0.636   5.939  1.6351 -0.1005  4.8359
 1095SOL    HW214748   0.378   0.499   5.981  0.6474  1.4280 -0.3463
 1096SOL     OW14749   1.154   0.405   3.375  0.3720 -0.2522  0.0064
 1096SOL    HW114750   1.144   0.420   3.469  2.1935 -3.2460  0.6770
 1096SOL    HW214751   1.172   0.493   3.341 -0.2832 -0.1765 -0.1502
 1097SOL     OW14752   1.984   1.750   8.206 -0.1488 -0.6069  0.0214
 1097SOL    HW114753   2.047   1.822   8.211  1.0255 -1.5442 -0.9892
 1097SOL    HW214754   1.926   1.780   8.136  0.2595  1.0723  0.4066
 1098SOL     OW14755   0.425   4.294   2.707  0.2156 -0.3022 -0.4758
 1098SOL    HW114756   0.499   4.238   2.728  1.0983  0.4211 -1.6749
 1098SOL    HW214757   0.383   4.306   2.792  0.5367 -1.9363 -0.0855
 1099SOL     OW14758   2.085   0.442   2.582  0.1480 -0.6548  0.4818
 1099SOL    HW114759   2.147   0.435   2.509 -0.4213 -1.0069  0.0259
 1099SOL    HW214760   2.049   0.529   2.571 -1.7410 -1.4248  0.5793
 1100SOL     OW14761   4.498   3.292   6.435  0.3041 -0.2666  0.2066
 1100SOL    HW114762   4.565   3.296   6.367  0.4247 -0.8979  0.2903
 1100SOL    HW214763   4.552   3.332   6.503  1.5885  0.4771 -1.2355
 1101SOL     OW14764   1.300   2.966   6.344  0.2070 -0.5707 -0.5358
 1101SOL    HW114765   1.230   2.913   6.383 -2.0160  2.2052 -0.7188
 1101SOL    HW214766   1.247   3.044   6.326 -0.9875 -1.2542 -0.0552
 1102SOL     OW14767   3.205   1.903   6.713  0.3649  0.0848 -0.0452
 1102SOL    HW114768   3.277   1.924   6.773  0.7512 -0.6392 -0.2510
 1102SOL    HW214769   3.256   1.890   6.633  0.5607 -1.1717  0.2795
 1103SOL     OW14770   2.963   2.193   6.396 -0.6748 -0.4856 -0.0695
 1103SOL    HW114771   2.944   2.285   6.416  0.6967  0.0915 -1.5066
 1103SOL    HW214772   3.047   2.175   6.439  0.1992  0.1700 -1.5267
 1104SOL     OW14773   0.173   2.733  10.013  0.2396  0.1736  0.1416
 1104SOL    HW114774   0.130   2.722  10.097 -1.5313 -0.3104 -0.8440
 1104SOL    HW214775   0.182   2.828  10.002 -1.7852  0.2823 -0.4628
 1105SOL     OW14776   1.051   1.986   8.393  0.0754 -0.3603  0.1532
 1105SOL    HW114777   1.102   2.045   8.338 -0.5267  0.2773  0.2772
 1105SOL    HW214778   0.976   1.961   8.339  0.0047 -1.8020  0.9099
 1106SOL     OW14779   3.933   3.741   3.233  0.4090  0.4706 -0.1652
 1106SOL    HW114780   3.868   3.796   3.276 -0.2136  1.2828 -2.1527
 1106SOL    HW214781   3.995   3.715   3.302 -0.9715 -0.3653  0.7677
 1107SOL     OW14782   2.905   2.079   5.211  0.5387 -0.6344  0.1974
 1107SOL    HW114783   2.821   2.116   5.237  0.4640 -2.6008  2.7011
 1107SOL    HW214784   2.879   2.040   5.128 -2.0856 -1.5155  1.4511
 1108SOL     OW14785   2.403   3.948   3.733  0.1815  0.2076  0.2369
 1108SOL    HW114786   2.397   3.930   3.827 -1.6850 -0.8876 -0.0822
 1108SOL    HW214787   2.319   3.993   3.723  0.3017  0.5387  0.7235
 1109SOL     OW14788   3.471   1.613   0.948  0.2198 -0.1077 -0.4554
 1109SOL    HW114789   3.523   1.623   1.027  0.1508  0.4924 -0.4903
 1109SOL    HW214790   3.400   1.558   0.983 -1.0372  2.7855  1.5520
 1110SOL     OW14791   2.115   0.518   8.789  0.2877 -0.4890  0.6356
 1110SOL    HW114792   2.111   0.592   8.849 -1.3214 -0.7036  0.8019
 1110SOL    HW214793   2.107   0.447   8.853 -1.2730 -0.0097  0.9744
 1111SOL     OW14794   2.422   2.792   3.348 -0.1806 -0.2156 -0.1257
 1111SOL    HW114795   2.368   2.846   3.405 -0.5877  1.2068 -1.8577
 1111SOL    HW214796   2.444   2.861   3.285  2.4461 -0.7270  0.2216
 1112SOL     OW14797   4.638   4.471  16.952  0.0856 -0.1686 -0.4226
 1112SOL    HW114798   4.698   4.414  17.000  0.2648 -0.2655 -0.7637
 1112SOL    HW214799   4.599   4.408  16.892  1.3547  0.3849 -1.8265
 1113SOL     OW14800   1.009   0.427   5.732 -0.1255 -0.2080  0.0368
 1113SOL    HW114801   1.046   0.365   5.670 -2.6441 -0.8403 -0.8388
 1113SOL    HW214802   0.918   0.439   5.705 -0.4565  2.0834  2.1408
 1114SOL     OW14803   2.171   2.134   6.945  0.0429 -0.0196  0.0140
 1114SOL    HW114804   2.251   2.129   6.999 -0.4215  0.8474  0.7717
 1114SOL    HW214805   2.122   2.053   6.962  0.5986 -0.2620  0.4816
 1115SOL     OW14806   2.937   0.833   9.894  0.4014  0.7453  0.0118
 1115SOL    HW114807   2.925   0.909   9.838  0.5675  0.6814 -0.1106
 1115SOL    HW214808   2.888   0.877   9.962  4.2041  1.8756  2.0170
 1116SOL     OW14809   1.013   4.430   2.858 -0.3649 -0.3953 -0.0494
 1116SOL    HW114810   1.100   4.466   2.875  0.0270 -1.1072 -0.5390
 1116SOL    HW214811   1.007   4.441   2.763 -0.5973 -2.8031 -0.3156
 1117SOL     OW14812   2.297   1.214   0.063  0.5231 -0.7078 -0.1282
 1117SOL    HW114813   2.255   1.128   0.067  0.4264 -0.5808  1.6770
 1117SOL    HW214814   2.311   1.212  17.645  0.5329 -1.6697 -0.1124
 1118SOL     OW14815   3.404   0.375  12.697 -0.2910  0.6070 -0.3956
 1118SOL    HW114816   3.465   0.315  12.654 -0.3879  0.4124 -0.2613
 1118SOL    HW214817   3.463   0.446  12.721  0.6398 -1.2300  2.6408
 1119SOL     OW14818   3.726   3.611   0.236  0.9005  0.3141  0.5581
 1119SOL    HW114819   3.769   3.584   0.317 -1.4380 -1.4870  1.2021
 1119SOL    HW214820   3.641   3.634   0.272 -0.5493 -0.1532 -2.5385
 1120SOL     OW14821   2.798   4.065   1.862  0.0173 -0.6240 -0.1223
 1120SOL    HW114822   2.796   4.009   1.939 -1.7204  0.2754  0.4887
 1120SOL    HW214823   2.742   4.135   1.896 -1.3968 -1.4846 -0.6686
 1121SOL     OW14824   3.513   3.006   6.552 -0.6785 -0.2497  0.5486
 1121SOL    HW114825   3.592   3.043   6.512 -0.1271 -0.5349  1.3642
 1121SOL    HW214826   3.529   2.915   6.527 -0.9671  0.1352 -1.0645
 1122SOL     OW14827   0.557   1.404  10.957 -0.4068 -0.0388  0.4491
 1122SOL    HW114828   0.578   1.440  11.043  0.7833 -1.0074  0.5756
 1122SOL    HW214829   0.471   1.373  10.982 -0.1157 -0.8906  0.3862
 1123SOL     OW14830   4.477   2.866   8.551 -0.0981 -0.8783  0.8660
 1123SOL    HW114831   4.505   2.957   8.560  0.2420 -0.7799 -1.3750
 1123SOL    HW214832   4.399   2.875   8.496  2.0130  0.0856 -1.9711
 1124SOL     OW14833   0.787   4.514   5.259 -0.1896  0.1282 -0.1740
 1124SOL    HW114834   0.714   4.551   5.210 -0.0265  1.5291  0.6268
 1124SOL    HW214835   0.856   4.573   5.227 -1.5001  1.4587 -0.5498
 1125SOL     OW14836   3.242   0.667   6.041 -0.2017  0.2152  0.1594
 1125SOL    HW114837   3.185   0.626   6.106 -2.8364 -1.1071 -2.9366
 1125SOL    HW214838   3.251   0.754   6.080 -1.7097  1.6099 -2.5871
 1126SOL     OW14839   2.798   2.693   6.066  0.4357  0.2569 -0.3445
 1126SOL    HW114840   2.806   2.743   6.148  0.2260 -2.7583  1.5182
 1126SOL    HW214841   2.860   2.734   6.006 -0.6618  2.3817 -0.0167
 1127SOL     OW14842   3.928   4.109   1.451  0.1448  0.1626  0.0827
 1127SOL    HW114843   3.996   4.089   1.387  0.2039  3.2921 -0.8577
 1127SOL    HW214844   3.924   4.205   1.441 -0.9864  0.1147  0.0447
 1128SOL     OW14845   0.988   2.408   4.608  0.3160  0.1861  0.3321
 1128SOL    HW114846   0.922   2.392   4.675 -2.1395 -1.4707 -2.4632
 1128SOL    HW214847   1.010   2.497   4.636 -1.8540  1.0179 -0.5310
 1129SOL     OW14848   3.178   4.318   7.236 -0.5033 -0.3930 -0.3401
 1129SOL    HW114849   3.179   4.223   7.237 -1.3476 -0.3935  2.3165
 1129SOL    HW214850   3.273   4.333   7.238 -0.7217  0.9549  0.8081
 1130SOL     OW14851   2.111   2.187   9.182  0.4303 -0.0207  0.3478
 1130SOL    HW114852   2.080   2.142   9.260  0.5354 -2.2352 -0.8959
 1130SOL    HW214853   2.116   2.280   9.207 -1.4025  0.1473  0.1222
 1131SOL     OW14854   1.779   4.263   9.369  0.7687  0.1388 -0.0635
 1131SOL    HW114855   1.839   4.218   9.428  1.3371  1.0128  0.0228
 1131SOL    HW214856   1.809   4.233   9.284  0.4842 -0.5280  0.0745
 1132SOL     OW14857   4.245   2.972   2.582 -0.7724 -0.2903 -0.6478
 1132SOL    HW114858   4.207   3.059   2.586 -1.4738 -0.6010 -0.5425
 1132SOL    HW214859   4.173   2.932   2.534 -2.3995  1.0977  0.6690
 1133SOL     OW14860   0.220   2.391   0.633  0.2541 -1.2794 -0.1414
 1133SOL    HW114861   0.204   2.380   0.539  0.4273 -2.0943 -0.0794
 1133SOL    HW214862   0.134   2.378   0.672  0.4891 -0.5562  0.6192
 1134SOL     OW14863   1.973   2.515   3.838 -0.3903  0.1306  0.6839
 1134SOL    HW114864   1.982   2.472   3.922 -0.0488  0.4053  0.7871
 1134SOL    HW214865   1.903   2.475   3.786 -0.7184  0.6017  0.7638
 1135SOL     OW14866   4.421   0.876   3.697 -0.3709  0.0200  0.0641
 1135SOL    HW114867   4.411   0.790   3.738  0.6260 -0.4043 -0.5644
 1135SOL    HW214868   4.470   0.857   3.617  0.4953 -2.9076  1.2670
 1136SOL     OW14869   4.495   1.848  11.712  0.2137 -0.5537 -0.0138
 1136SOL    HW114870   4.427   1.781  11.706  0.4665 -0.9125  1.0034
 1136SOL    HW214871   4.517   1.866  11.621  1.2188 -2.0099 -0.0711
 1137SOL     OW14872   0.220   3.977   8.623  0.0524 -0.0194  0.1347
 1137SOL    HW114873   0.135   3.953   8.660 -0.5648  1.3471 -0.3958
 1137SOL    HW214874   0.233   4.057   8.674 -2.3174 -0.4169  1.3888
 1138SOL     OW14875   2.475   4.118   8.140 -0.4728  0.3555  0.0010
 1138SOL    HW114876   2.387   4.155   8.130 -1.5124 -1.5926  1.9448
 1138SOL    HW214877   2.511   4.110   8.052 -0.8653 -0.6960 -0.0597
 1139SOL     OW14878   1.923   1.116  10.964  0.2190  0.3234  0.0999
 1139SOL    HW114879   1.994   1.172  10.994 -0.3752  0.3261  1.5554
 1139SOL    HW214880   1.959   1.030  10.984  1.3018  0.8035  0.2066
 1140SOL     OW14881   4.065   2.401   2.428 -0.6671  1.0759 -0.0466
 1140SOL    HW114882   4.027   2.354   2.354 -0.2818  1.2393 -0.3466
 1140SOL    HW214883   4.120   2.327   2.453 -1.4590 -0.1366 -1.9349
 1141SOL     OW14884   4.234   1.833   3.287 -0.3489 -0.0718 -0.3530
 1141SOL    HW114885   4.143   1.851   3.312 -0.1566  1.9161 -1.1161
 1141SOL    HW214886   4.273   1.906   3.334  0.9549 -1.4151  0.6710
 1142SOL     OW14887   0.738   0.269   3.174 -0.1844  0.2568 -0.5835
 1142SOL    HW114888   0.660   0.264   3.229  0.9131 -1.5881  0.8227
 1142SOL    HW214889   0.718   0.349   3.126  1.2169  0.4547 -0.8506
 1143SOL     OW14890   3.599   0.255   2.757 -0.2623  0.1355 -0.2601
 1143SOL    HW114891   3.670   0.198   2.786 -0.3275  1.3830  2.2901
 1143SOL    HW214892   3.525   0.199   2.781 -1.7541  0.7101 -3.4858
 1144SOL     OW14893   3.545   0.869   2.944  0.2890 -0.0410  0.0048
 1144SOL    HW114894   3.588   0.946   2.979  0.6703 -1.3825  2.4712
 1144SOL    HW214895   3.548   0.884   2.850 -0.2731 -1.6872 -0.2730
 1145SOL     OW14896   4.241   1.268   7.316  0.6433  0.0542  0.2092
 1145SOL    HW114897   4.315   1.294   7.261  0.4029  0.3651  0.0316
 1145SOL    HW214898   4.195   1.206   7.260 -0.1251  1.9394 -1.2238
 1146SOL     OW14899   1.825   1.893   4.925 -0.0362 -1.0218 -0.3886
 1146SOL    HW114900   1.852   1.982   4.947  0.9795 -1.5273  0.4221
 1146SOL    HW214901   1.849   1.900   4.833 -1.2408 -1.5876 -0.7460
 1147SOL     OW14902   3.898   4.371   1.363 -0.1152  0.0839  0.1501
 1147SOL    HW114903   3.877   4.465   1.359 -1.6895 -0.2717  0.4578
 1147SOL    HW214904   3.993   4.381   1.366 -0.2469  1.1011  1.1661
 1148SOL     OW14905   1.522   3.570   0.145  0.0238 -0.2552  0.1801
 1148SOL    HW114906   1.540   3.531   0.059  2.6450  2.7801 -0.6554
 1148SOL    HW214907   1.593   3.635   0.143 -0.0746 -0.1873 -1.1165
 1149SOL     OW14908   4.695   1.488   7.608  0.6913  0.2961  0.0777
 1149SOL    HW114909   4.628   1.553   7.588 -0.5244 -1.0574 -0.3219
 1149SOL    HW214910   4.707   1.510   7.700  1.6051  2.3364 -0.5335
 1150SOL     OW14911   3.013   0.700   1.797 -0.2429 -0.1816  0.6959
 1150SOL    HW114912   3.061   0.706   1.715  0.0727 -1.0090  0.8165
 1150SOL    HW214913   2.928   0.664   1.770  0.1566 -0.8463  0.3173
 1151SOL     OW14914   1.303   1.744   8.665  0.4074 -0.0388 -0.0848
 1151SOL    HW114915   1.230   1.796   8.699  1.2701  3.4024 -3.5151
 1151SOL    HW214916   1.321   1.697   8.746 -1.0101  0.0372  0.2734
 1152SOL     OW14917   4.360   3.897   7.916 -0.0418  0.1216 -0.4645
 1152SOL    HW114918   4.444   3.942   7.922 -0.6101  0.9853  0.9897
 1152SOL    HW214919   4.337   3.885   7.823 -1.7435 -2.3294  0.2820
 1153SOL     OW14920   1.798   0.989  15.676  0.3531 -0.0968 -0.5646
 1153SOL    HW114921   1.757   1.049  15.738  0.1072 -2.4184  1.5558
 1153SOL    HW214922   1.876   1.035  15.645  1.6599 -0.8327  1.5665
 1154SOL     OW14923   3.313   4.384   5.664 -0.4909  0.0142  0.4870
 1154SOL    HW114924   3.229   4.339   5.649 -0.0956 -0.5274 -0.0817
 1154SOL    HW214925   3.275   4.472   5.662  2.7715  1.4429  4.5815
 1155SOL     OW14926   3.860   2.394   0.474 -0.2201 -0.5578  0.0506
 1155SOL    HW114927   3.808   2.314   0.481 -0.8606 -0.1282  0.2229
 1155SOL    HW214928   3.871   2.395   0.379  0.6276  1.8958  0.1800
 1156SOL     OW14929   3.822   1.849  10.973  0.0736 -0.0026  0.1082
 1156SOL    HW114930   3.843   1.922  10.915 -1.6774 -0.4383 -1.0627
 1156SOL    HW214931   3.755   1.820  10.911  0.6751  0.4306 -0.7468
 1157SOL     OW14932   4.386   2.530   2.991 -0.1586 -0.5203  0.0733
 1157SOL    HW114933   4.449   2.564   2.927 -0.3732 -0.6827 -0.2245
 1157SOL    HW214934   4.329   2.605   3.010  0.3010 -0.5239  1.4208
 1158SOL     OW14935   0.612   3.827   2.227  0.2029  0.0790 -0.2613
 1158SOL    HW114936   0.617   3.882   2.149 -2.2300 -0.3500 -0.7349
 1158SOL    HW214937   0.640   3.892   2.291 -0.7469 -0.3823  0.6279
 1159SOL     OW14938   0.271   2.998   8.761 -0.0474 -0.5129  0.1066
 1159SOL    HW114939   0.185   3.035   8.741  0.7642  0.4707 -1.5751
 1159SOL    HW214940   0.315   2.995   8.676  0.1531  0.2794  0.1889
 1160SOL     OW14941   2.289   1.307   7.930 -0.5754 -0.6624 -0.0534
 1160SOL    HW114942   2.253   1.239   7.988 -1.3583  1.8592  2.4277
 1160SOL    HW214943   2.240   1.296   7.849 -0.9847 -1.4607  0.3019
 1161SOL     OW14944   1.715   3.321   5.675  0.3771  0.0229  0.0300
 1161SOL    HW114945   1.792   3.365   5.640  1.1556 -1.0330  0.3833
 1161SOL    HW214946   1.700   3.249   5.613  0.6052 -1.3156  1.5000
 1162SOL     OW14947   0.444   1.059  14.545 -0.3239  0.4755  0.1088
 1162SOL    HW114948   0.489   1.030  14.466 -1.8007  1.2589 -1.0128
 1162SOL    HW214949   0.480   1.147  14.544  1.1189 -0.1086  0.4787
 1163SOL     OW14950   3.740   4.589   5.077 -0.2728  0.0198 -0.2856
 1163SOL    HW114951   3.827   4.625   5.062 -0.6924  0.8394 -0.7900
 1163SOL    HW214952   3.765   4.497   5.068  2.7779  0.7224  1.2056
 1164SOL     OW14953   1.058   4.130   0.530  0.3017 -0.2986 -0.0883
 1164SOL    HW114954   1.153   4.137   0.520  0.7383 -2.2544  2.6727
 1164SOL    HW214955   1.040   4.058   0.470 -0.3179 -1.1746  1.1498
 1165SOL     OW14956   0.726   4.283  13.989 -0.2252  0.7624  0.3444
 1165SOL    HW114957   0.723   4.235  14.071  0.0230 -1.3552 -0.8828
 1165SOL    HW214958   0.664   4.354  14.006 -1.2834 -0.1865  0.4774
 1166SOL     OW14959   2.338   2.406   4.018 -0.0092  0.0351 -0.5315
 1166SOL    HW114960   2.418   2.414   4.070 -0.1741 -1.6246 -0.0310
 1166SOL    HW214961   2.372   2.456   3.944 -1.1642  0.9515 -0.4423
 1167SOL     OW14962   1.607   0.572   0.890 -0.4448 -0.1195  0.2367
 1167SOL    HW114963   1.575   0.489   0.855 -1.5242 -0.0935  1.1804
 1167SOL    HW214964   1.588   0.636   0.821 -0.2713  0.0230  0.3204
 1168SOL     OW14965   3.588   1.601   3.427  0.9464  0.3039  0.1586
 1168SOL    HW114966   3.679   1.629   3.423  1.1916 -0.5473 -0.3026
 1168SOL    HW214967   3.571   1.597   3.332  1.8957  2.2920 -0.0868
 1169SOL     OW14968   4.652   0.571   3.124 -0.2596 -0.8109 -0.2750
 1169SOL    HW114969   4.650   0.580   3.029  2.8216  3.0497  0.0567
 1169SOL    HW214970   4.623   0.481   3.138 -1.3643 -0.0675  2.1477
 1170SOL     OW14971   2.909   3.466   5.112  0.9576 -0.4080  0.1488
 1170SOL    HW114972   2.854   3.506   5.180  1.3858  0.4825 -0.0327
 1170SOL    HW214973   2.929   3.383   5.156  0.5677 -0.0518  1.0026
 1171SOL     OW14974   0.866   3.432  12.366 -0.3149 -0.2631  0.4842
 1171SOL    HW114975   0.929   3.389  12.424  1.5214 -0.4071 -1.6497
 1171SOL    HW214976   0.854   3.520  12.400  0.6082  0.6391 -1.5500
 1172SOL     OW14977   1.603   3.877   4.474 -0.4491  0.3824  0.0729
 1172SOL    HW114978   1.692   3.909   4.460 -0.7149  0.5330 -1.3310
 1172SOL    HW214979   1.568   3.862   4.386 -2.0497 -1.1579  0.9774
 1173SOL     OW14980   2.730   4.370   5.558  0.5971  0.5141 -0.2442
 1173SOL    HW114981   2.739   4.276   5.569  1.4434  0.5906 -0.2864
 1173SOL    HW214982   2.757   4.413   5.639  1.7536  0.8627 -0.8244
 1174SOL     OW14983   4.703   3.052   8.416  0.0230 -0.6295 -0.0197
 1174SOL    HW114984   4.710   3.147   8.419 -4.2110 -0.3434  0.7162
 1174SOL    HW214985   0.012   3.039   8.506  2.3192  0.8164 -0.4989
 1175SOL     OW14986   4.051   3.989   1.661  0.4141 -0.2146 -0.5451
 1175SOL    HW114987   4.008   3.986   1.576 -0.3865 -0.0459 -0.1498
 1175SOL    HW214988   4.142   4.007   1.638  1.1112 -2.4898  0.4841
 1176SOL     OW14989   2.016   2.232   8.680  0.0956 -0.2335 -0.0415
 1176SOL    HW114990   2.014   2.224   8.775 -1.2243  1.8696  0.1178
 1176SOL    HW214991   2.080   2.303   8.685  0.4531 -0.5863  0.3111
 1177SOL     OW14992   4.649   2.698   5.048  0.0522  0.1782 -0.3161
 1177SOL    HW114993   4.696   2.683   4.966  2.0409  1.1083  0.6451
 1177SOL    HW214994   4.709   2.654   5.110 -1.9039  0.2982  1.6452
 1178SOL     OW14995   2.834   2.094  13.216  0.4202 -0.1354  0.0711
 1178SOL    HW114996   2.767   2.161  13.230 -1.1087 -1.1640 -2.2702
 1178SOL    HW214997   2.801   2.031  13.280  0.2962 -0.4483 -0.3024
 1179SOL     OW14998   0.273   1.571   3.009 -0.2087  0.1097 -0.4060
 1179SOL    HW114999   0.325   1.512   2.956  0.2540  1.2385 -1.2205
 1179SOL    HW215000   0.237   1.629   2.941 -0.7961  0.3791  0.1277
 1180SOL     OW15001   3.819   3.864   4.950  0.5329  0.0796 -0.0639
 1180SOL    HW115002   3.892   3.813   4.915 -0.2016 -0.3004 -1.0304
 1180SOL    HW215003   3.863   3.947   4.970 -0.0569  0.3124  0.2678
 1181SOL     OW15004   2.837   2.645   4.175  0.1150  0.0213 -0.1180
 1181SOL    HW115005   2.841   2.632   4.080 -2.6109 -0.8857 -0.0982
 1181SOL    HW215006   2.869   2.735   4.180 -0.2017  0.2578 -2.1884
 1182SOL     OW15007   0.809   0.640   6.640 -0.1091  0.3491 -0.2807
 1182SOL    HW115008   0.752   0.563   6.640  1.0991 -0.5633  1.8841
 1182SOL    HW215009   0.861   0.625   6.561  0.0379 -1.4626  0.1697
 1183SOL     OW15010   1.086   0.178   9.699  0.4878  0.1801  0.3498
 1183SOL    HW115011   1.067   0.088   9.726  1.6309 -0.7621 -1.9928
 1183SOL    HW215012   1.002   0.224   9.704  0.5760  0.2480  1.1295
 1184SOL     OW15013   3.903   4.656  13.683  0.2948  0.6622  0.1142
 1184SOL    HW115014   3.851   4.643  13.763  0.2961 -0.4911 -0.0701
 1184SOL    HW215015   3.957   0.011  13.712  0.6650  1.0985 -1.6925
 1185SOL     OW15016   3.988   3.021  13.766 -0.0484  0.1031  0.4361
 1185SOL    HW115017   4.011   3.004  13.675  0.1491  3.4073 -0.1369
 1185SOL    HW215018   3.949   2.935  13.785 -1.0413  0.7785  1.4388
 1186SOL     OW15019   2.083   2.920   1.060 -0.3298  0.2960 -0.4239
 1186SOL    HW115020   2.037   2.866   0.997 -0.2025  2.0719 -2.0414
 1186SOL    HW215021   2.068   3.013   1.040  2.1740  0.3307 -2.1275
 1187SOL     OW15022   1.805   1.092   0.421  0.1910 -0.4973  0.1629
 1187SOL    HW115023   1.783   1.185   0.425 -0.6773 -0.6654 -0.9705
 1187SOL    HW215024   1.745   1.055   0.486 -2.0883  1.1472 -1.0137
 1188SOL     OW15025   2.350   2.041   2.532 -0.1623  0.4611  0.9607
 1188SOL    HW115026   2.289   2.084   2.472 -1.0224  0.8645  2.1185
 1188SOL    HW215027   2.340   1.955   2.491 -0.7406  0.9692  0.0555
 1189SOL     OW15028   3.498   3.307   2.191  0.8885 -0.1732  0.1146
 1189SOL    HW115029   3.447   3.327   2.113  1.0205 -1.1000 -0.2104
 1189SOL    HW215030   3.448   3.357   2.256  2.0759  3.7262 -1.9740
 1190SOL     OW15031   2.949   4.443   3.876 -0.6437 -0.1550 -0.2966
 1190SOL    HW115032   2.966   4.521   3.929 -1.7751 -0.8736  1.1015
 1190SOL    HW215033   3.038   4.409   3.880 -0.4282  0.3391 -0.8128
 1191SOL     OW15034   2.811   0.712   6.655  0.8562 -0.3475  0.7198
 1191SOL    HW115035   2.871   0.757   6.596 -0.5777  1.5707  0.7275
 1191SOL    HW215036   2.825   0.630   6.607 -1.6920 -1.0980  1.2596
 1192SOL     OW15037   2.900   2.869   3.995 -0.4918  0.0920 -0.4198
 1192SOL    HW115038   2.834   2.805   3.971  0.7858 -1.4060  0.0619
 1192SOL    HW215039   2.970   2.847   3.933  0.8043 -1.0682  1.4701
 1193SOL     OW15040   1.805   1.490   8.482  0.3794 -0.2306 -0.7198
 1193SOL    HW115041   1.752   1.552   8.532  1.6500  0.7384 -0.5542
 1193SOL    HW215042   1.752   1.413   8.501  0.9687 -0.5357 -0.3213
 1194SOL     OW15043   4.617   2.939   0.988 -0.2220  0.3536  0.1813
 1194SOL    HW115044   4.610   3.018   0.934 -0.8802  0.2978  0.1814
 1194SOL    HW215045   4.679   2.892   0.931 -0.7275 -2.0618  1.6384
 1195SOL     OW15046   0.201   4.491   2.884 -0.3929  0.1616  0.0868
 1195SOL    HW115047   0.286   4.514   2.845 -0.8244  2.3551  0.4578
 1195SOL    HW215048   0.141   4.525   2.818  2.2089  1.7323 -1.4708
 1196SOL     OW15049   4.031   4.211  15.609 -0.0811 -0.0259  0.2443
 1196SOL    HW115050   4.038   4.178  15.698  1.4762  0.8666  0.4544
 1196SOL    HW215051   4.112   4.261  15.595  0.3357 -0.8373 -0.2395
 1197SOL     OW15052   4.526   3.266   8.801  0.3317  0.1974  0.1016
 1197SOL    HW115053   4.433   3.288   8.801 -0.0642 -1.4211 -0.7196
 1197SOL    HW215054   4.533   3.254   8.895 -0.1282  0.6173  0.1878
 1198SOL     OW15055   3.374   3.031   7.652 -0.3662  0.3209  0.5619
 1198SOL    HW115056   3.426   3.110   7.670 -0.7480 -0.0237  3.2057
 1198SOL    HW215057   3.331   3.053   7.569 -0.6505 -2.3390  0.0319
 1199SOL     OW15058   0.081   1.815   9.543 -0.9283 -0.0798 -0.0211
 1199SOL    HW115059   0.099   1.885   9.480 -0.2887  0.2337  0.4997
 1199SOL    HW215060   0.029   1.754   9.492 -0.9234 -0.4904  0.4605
 1200SOL     OW15061   3.004   1.550   5.011  0.4791  0.1219 -0.5792
 1200SOL    HW115062   3.082   1.496   5.020 -0.7820 -1.3758  1.4330
 1200SOL    HW215063   2.931   1.492   5.032  1.9488 -1.3155  0.5453
 1201SOL     OW15064   0.367   1.855  13.939  0.1464 -0.3740 -0.0088
 1201SOL    HW115065   0.292   1.810  13.900 -1.0897 -0.2279  2.2080
 1201SOL    HW215066   0.380   1.931  13.882 -0.6062 -1.8085 -2.1085
 1202SOL     OW15067   2.992   0.195   8.588  0.1187  0.4000 -0.4066
 1202SOL    HW115068   2.960   0.272   8.636  0.5139 -0.7787  1.7806
 1202SOL    HW215069   3.042   0.241   8.521  3.9745 -0.2292  2.0582
 1203SOL     OW15070   1.396   4.398  10.146 -0.4650 -0.2089  0.5406
 1203SOL    HW115071   1.367   4.488  10.163  0.7522 -0.0020  1.5327
 1203SOL    HW215072   1.438   4.399  10.060  0.4197 -2.2839  0.9480
 1204SOL     OW15073   3.656   3.592   6.528 -0.6154 -0.1133  0.2806
 1204SOL    HW115074   3.691   3.524   6.471 -0.8081  0.6164 -0.7143
 1204SOL    HW215075   3.693   3.675   6.498  0.3639 -0.4816  0.4462
 1205SOL     OW15076   3.922   2.736   1.541  0.0386 -0.4594  0.9382
 1205SOL    HW115077   3.876   2.766   1.462  1.2444 -0.0119  0.4027
 1205SOL    HW215078   3.975   2.811   1.567  1.0856 -0.1806 -1.9353
 1206SOL     OW15079   1.654   0.865  10.970  0.0452 -0.4404 -0.5486
 1206SOL    HW115080   1.749   0.856  10.967  0.2922  2.2242 -1.1676
 1206SOL    HW215081   1.633   0.883  10.878 -3.0670 -0.1272  0.2231
 1207SOL     OW15082   0.352   2.973   0.787  0.8766  0.2333  0.3893
 1207SOL    HW115083   0.445   2.958   0.767  0.6989 -0.5544  0.1388
 1207SOL    HW215084   0.329   2.887   0.751 -2.7665  1.3337  0.1049
 1208SOL     OW15085   3.601   4.150   4.810 -0.1326 -0.5087 -0.0243
 1208SOL    HW115086   3.556   4.101   4.879 -1.5981  0.2778 -0.4230
 1208SOL    HW215087   3.606   4.239   4.843 -1.8029 -0.9485  1.4329
 1209SOL     OW15088   1.360   4.594   3.902 -0.4245 -0.5329 -0.2588
 1209SOL    HW115089   1.369   4.565   3.993  0.2493 -1.5071 -0.6304
 1209SOL    HW215090   1.362   4.506   3.864 -0.3520 -1.3659  1.6737
 1210SOL     OW15091   1.883   4.589  16.369  0.1862 -0.5279  0.0465
 1210SOL    HW115092   1.856   4.510  16.321 -1.5863 -0.4535  0.9133
 1210SOL    HW215093   1.903   4.644  16.294 -0.0223 -3.1432 -1.9495
 1211SOL     OW15094   3.111   1.667   2.760 -0.0723 -0.4184 -0.4047
 1211SOL    HW115095   3.100   1.761   2.746  0.4555 -0.4040 -0.7513
 1211SOL    HW215096   3.206   1.654   2.760 -0.0794 -0.4780 -2.4674
 1212SOL     OW15097   4.205   4.232   9.627 -0.4316  0.8103  0.0499
 1212SOL    HW115098   4.129   4.258   9.575  0.1542  2.2554 -0.0970
 1212SOL    HW215099   4.185   4.284   9.705 -1.9862  0.5704 -0.1887
 1213SOL     OW15100   4.140   0.365  17.526 -0.1339  0.1507 -0.0814
 1213SOL    HW115101   4.172   0.444  17.482  0.3609 -0.0149 -0.0246
 1213SOL    HW215102   4.222   0.332  17.562 -0.4300 -0.4143  0.0756
 1214SOL     OW15103   1.622   2.288   3.290  0.1945  0.2437  0.7987
 1214SOL    HW115104   1.654   2.378   3.283 -0.0471  0.2128 -0.6493
 1214SOL    HW215105   1.707   2.244   3.294 -0.7361 -1.5824  0.4779
 1215SOL     OW15106   3.257   4.179   4.956 -0.4373 -0.0508 -0.0984
 1215SOL    HW115107   3.222   4.123   4.886  0.2318 -0.9852  0.3144
 1215SOL    HW215108   3.315   4.237   4.908  0.2827 -0.3472  0.4178
 1216SOL     OW15109   3.387   2.846   1.419  0.3509 -0.5517 -0.1083
 1216SOL    HW115110   3.449   2.775   1.435  0.4340 -0.1117  1.5207
 1216SOL    HW215111   3.302   2.802   1.421  0.7531 -1.3548 -0.8460
 1217SOL     OW15112   3.402   3.941   1.722  0.0300  0.4508 -0.0994
 1217SOL    HW115113   3.483   3.962   1.767  0.8373  1.3052 -1.9401
 1217SOL    HW215114   3.385   4.022   1.673  1.5243  0.1226 -1.1529
 1218SOL     OW15115   0.706   3.542   9.067  0.5620 -0.3328 -0.2968
 1218SOL    HW115116   0.718   3.628   9.026 -0.0931  0.6575  1.5843
 1218SOL    HW215117   0.702   3.492   8.985 -0.9453 -1.6394  0.5661
 1219SOL     OW15118   1.587   3.087   6.310 -0.2323  0.1812  0.7610
 1219SOL    HW115119   1.592   3.181   6.295  0.8728  0.5236  3.2366
 1219SOL    HW215120   1.495   3.069   6.294  0.0991  0.7912 -1.8257
 1220SOL     OW15121   2.376   4.255  10.291  0.5286  0.3323  0.1386
 1220SOL    HW115122   2.406   4.346  10.304  1.9701 -0.3055  1.2536
 1220SOL    HW215123   2.282   4.261  10.275  0.2265  1.2878  2.2145
 1221SOL     OW15124   3.377   4.085   6.555  0.3285 -0.3679 -0.2170
 1221SOL    HW115125   3.384   4.100   6.460  3.1006 -1.4201 -0.1854
 1221SOL    HW215126   3.284   4.089   6.573  0.0110  0.7181 -2.1196
 1222SOL     OW15127   0.583   0.048   9.151  0.1258  0.3967  0.9525
 1222SOL    HW115128   0.668   0.072   9.114 -0.4636 -1.0590 -1.4176
 1222SOL    HW215129   0.556   4.707   9.080  3.3186 -1.0495  0.9140
 1223SOL     OW15130   0.837   4.082   2.780  0.1265  0.4302  0.8280
 1223SOL    HW115131   0.848   3.987   2.781  0.4668  0.4688  1.6531
 1223SOL    HW215132   0.742   4.080   2.771  0.1795 -2.8483  1.0075
 1224SOL     OW15133   2.726   4.367  16.616  0.4306 -0.1817 -0.2582
 1224SOL    HW115134   2.704   4.318  16.695 -2.0344  0.9739 -0.2427
 1224SOL    HW215135   2.654   4.430  16.616 -0.1186 -0.8088 -1.2858
 1225SOL     OW15136   4.654   4.182  10.211  0.2968  0.4456  0.3842
 1225SOL    HW115137   4.623   4.185  10.121 -0.7606  0.7030  0.7548
 1225SOL    HW215138   4.642   4.274  10.236  2.0046  0.9253 -0.5493
 1226SOL     OW15139   1.299   3.169  11.129 -0.1141 -0.5389  0.3148
 1226SOL    HW115140   1.282   3.088  11.176  4.7242 -2.1277 -0.7142
 1226SOL    HW215141   1.212   3.210  11.135 -0.1766 -0.9249  2.2116
 1227SOL     OW15142   2.805   0.625   5.529  0.0511 -0.7728 -0.0650
 1227SOL    HW115143   2.793   0.531   5.516 -2.3245 -0.6024  0.8548
 1227SOL    HW215144   2.753   0.660   5.457 -1.9401 -2.0990  0.7332
 1228SOL     OW15145   1.080   0.874   4.675  0.3484 -0.3933  0.0098
 1228SOL    HW115146   1.033   0.952   4.706  3.1205  1.5416 -0.6507
 1228SOL    HW215147   1.099   0.894   4.584 -0.0705 -0.9477 -0.1963
 1229SOL     OW15148   3.636   3.373  16.142 -0.0806  0.1145 -0.3776
 1229SOL    HW115149   3.652   3.425  16.064  2.2166 -0.4936 -0.2958
 1229SOL    HW215150   3.545   3.345  16.130 -0.2223  0.8104 -0.9222
 1230SOL     OW15151   1.526   3.452  13.479  0.6380 -0.9076 -0.2860
 1230SOL    HW115152   1.598   3.468  13.540 -0.9591  0.1576  1.2918
 1230SOL    HW215153   1.584   3.400  13.423 -0.1464 -3.9806  1.7672
 1231SOL     OW15154   2.911   2.834   0.002 -0.5965 -0.4277 -0.2334
 1231SOL    HW115155   2.888   2.860  17.589  0.2205  2.5440  0.4302
 1231SOL    HW215156   2.899   2.740  17.667 -0.2156 -0.7816  2.3336
 1232SOL     OW15157   1.520   1.696   3.768 -0.2413 -0.3679 -0.1993
 1232SOL    HW115158   1.515   1.734   3.680 -0.9159 -1.7513 -0.7637
 1232SOL    HW215159   1.465   1.758   3.815 -2.7750 -1.9922 -1.0376
 1233SOL     OW15160   3.308   2.976   3.127 -0.2321 -0.4585  0.7159
 1233SOL    HW115161   3.247   2.903   3.138  0.1321 -1.1341 -1.6139
 1233SOL    HW215162   3.258   3.042   3.174 -1.0791 -0.0634 -0.7314
 1234SOL     OW15163   1.720   3.346   7.327  0.1509  0.0675 -0.0847
 1234SOL    HW115164   1.739   3.401   7.252  1.7585  0.5075  0.6441
 1234SOL    HW215165   1.797   3.371   7.378  0.1746  0.6041 -0.3881
 1235SOL     OW15166   3.416   2.291   1.431  0.3120 -0.2919 -0.2914
 1235SOL    HW115167   3.436   2.199   1.414  0.4948 -0.3727  0.3683
 1235SOL    HW215168   3.475   2.323   1.500  2.5940 -1.5889 -1.6386
 1236SOL     OW15169   1.340   2.369   3.724  0.0853  0.4668  0.1505
 1236SOL    HW115170   1.254   2.328   3.730  1.0397 -2.0306 -2.7885
 1236SOL    HW215171   1.327   2.450   3.675  0.2696  0.6232  0.3588
 1237SOL     OW15172   0.862   2.030   7.775  0.6573  0.2169 -0.3399
 1237SOL    HW115173   0.787   2.076   7.812  1.0478  0.1139  0.5754
 1237SOL    HW215174   0.840   1.940   7.798  1.4336 -0.3168 -1.6534
 1238SOL     OW15175   0.805   0.223   3.936 -0.2743 -0.8891  0.0903
 1238SOL    HW115176   0.730   0.275   3.964  0.6619  0.5479 -0.1116
 1238SOL    HW215177   0.777   0.140   3.976  0.6153 -0.8955  0.7001
 1239SOL     OW15178   1.196   4.079   3.496  0.3385  0.0567 -0.1542
 1239SOL    HW115179   1.120   4.091   3.439 -0.5251 -1.5238  0.6954
 1239SOL    HW215180   1.158   4.095   3.582 -1.6631 -0.1392 -1.0012
 1240SOL     OW15181   1.968   1.584   2.437 -0.6285 -0.2517  0.6979
 1240SOL    HW115182   1.911   1.553   2.507 -1.4658 -0.8371 -0.2352
 1240SOL    HW215183   1.965   1.502   2.387 -0.2256 -1.0981  2.0541
 1241SOL     OW15184   4.628   0.752   8.992  0.1098 -0.2057 -0.3132
 1241SOL    HW115185   4.674   0.800   9.062  0.6209  1.4285 -1.7823
 1241SOL    HW215186   4.568   0.705   9.050  2.1482 -2.2197  0.1861
 1242SOL     OW15187   1.743   0.235   2.363  0.3947  0.3173 -0.5070
 1242SOL    HW115188   1.663   0.190   2.336  0.2809 -0.2627  0.7653
 1242SOL    HW215189   1.793   0.230   2.282  0.2508  0.9296 -0.6329
 1243SOL     OW15190   2.234   0.839   4.504 -0.1800  0.1045  0.0175
 1243SOL    HW115191   2.278   0.879   4.429 -1.9490  0.6255 -0.7376
 1243SOL    HW215192   2.150   0.882   4.491 -0.8919 -2.2242 -2.9790
 1244SOL     OW15193   1.755   0.388  15.382 -0.5102 -0.0451 -0.1785
 1244SOL    HW115194   1.816   0.326  15.342 -0.4455  0.6300 -1.1150
 1244SOL    HW215195   1.775   0.464  15.328  1.1372  0.0248  0.5259
 1245SOL     OW15196   4.541   2.971  16.865  0.2358 -0.3406 -0.2590
 1245SOL    HW115197   4.567   2.969  16.773 -3.5281 -1.5178 -1.3142
 1245SOL    HW215198   4.465   3.029  16.854  1.2488  0.4985 -2.7945
 1246SOL     OW15199   3.966   1.707   9.218  0.2634 -0.3563 -0.5010
 1246SOL    HW115200   3.986   1.746   9.304 -1.2551 -0.9948  0.1441
 1246SOL    HW215201   3.880   1.748   9.213  0.4589  0.3744  1.8027
 1247SOL     OW15202   2.929   3.375   0.494 -0.2228 -0.3516  0.2467
 1247SOL    HW115203   2.962   3.420   0.416 -1.2071 -0.0519  0.0105
 1247SOL    HW215204   2.938   3.288   0.454 -0.8466 -0.9846  1.4927
 1248SOL     OW15205   0.835   4.517  15.240  0.3197  0.0637 -0.2223
 1248SOL    HW115206   0.834   4.593  15.298  3.1321 -0.7861  0.9752
 1248SOL    HW215207   0.911   4.465  15.267  0.6755  0.2722 -0.8134
 1249SOL     OW15208   0.402   4.121   9.061 -0.1487 -0.1170 -1.2612
 1249SOL    HW115209   0.383   4.093   8.971 -2.9059  0.3718 -0.8373
 1249SOL    HW215210   0.314   4.154   9.081  0.7771  0.4168  1.8138
 1250SOL     OW15211   0.699   3.981   7.354 -0.3746  0.2467 -0.5267
 1250SOL    HW115212   0.779   3.985   7.301 -0.9088 -1.9654 -1.5000
 1250SOL    HW215213   0.628   4.003   7.293  0.2266  0.7823 -1.0366
 1251SOL     OW15214   1.497   2.817   1.578 -0.0778 -0.2518 -0.2455
 1251SOL    HW115215   1.579   2.783   1.542 -0.2842  1.5344 -2.3626
 1251SOL    HW215216   1.441   2.740   1.567 -2.2295  1.3398 -0.3203
 1252SOL     OW15217   3.912   4.075   3.653  0.1199  0.4911  0.4339
 1252SOL    HW115218   3.978   4.008   3.635  0.3188  0.4957  1.1405
 1252SOL    HW215219   3.911   4.133   3.576 -1.1346  0.4268  0.4087
 1253SOL     OW15220   2.411   2.288   7.771 -0.7239 -0.4683 -0.0844
 1253SOL    HW115221   2.331   2.339   7.759 -0.8058 -0.1748  1.7067
 1253SOL    HW215222   2.472   2.318   7.704  2.1758 -0.0001  2.7598
 1254SOL     OW15223   0.026   3.034  10.869 -0.6931 -0.0285  0.6049
 1254SOL    HW115224   0.034   3.039  10.774 -0.5909  0.0944  0.6191
 1254SOL    HW215225   4.709   3.123  10.878 -1.2945 -0.2819  0.7772
 1255SOL     OW15226   1.000   1.989   7.058 -0.6076 -0.3396  0.7492
 1255SOL    HW115227   0.943   1.920   7.092 -2.5025  1.0181  0.3672
 1255SOL    HW215228   1.072   1.942   7.015 -0.5983  0.2063  0.1675
 1256SOL     OW15229   1.600   1.773   6.799 -0.2925  0.4571 -0.2724
 1256SOL    HW115230   1.659   1.716   6.749  0.4961 -0.4883  1.7630
 1256SOL    HW215231   1.533   1.801   6.737  0.5700  2.0749 -0.4923
 1257SOL     OW15232   2.812   2.486   8.083  0.2537  0.0387 -0.2149
 1257SOL    HW115233   2.785   2.420   8.147 -0.6727  1.5132  0.9137
 1257SOL    HW215234   2.761   2.468   8.004  0.1811  0.0357 -0.1674
 1258SOL     OW15235   2.493   0.101  14.593 -0.5745 -0.3413 -0.2933
 1258SOL    HW115236   2.566   0.078  14.651 -1.6381 -1.1575  0.7289
 1258SOL    HW215237   2.481   0.021  14.542  0.0361 -0.7638  0.2235
 1259SOL     OW15238   0.788   3.031   6.566  0.3624 -0.1103  0.4945
 1259SOL    HW115239   0.730   3.017   6.491  0.8139  0.2929  0.0667
 1259SOL    HW215240   0.823   3.116   6.539  0.7964 -0.5179 -0.2322
 1260SOL     OW15241   3.521   2.807   2.540 -0.2514 -0.0705  0.0048
 1260SOL    HW115242   3.574   2.792   2.461 -1.3832  1.5426 -1.0598
 1260SOL    HW215243   3.584   2.819   2.611 -0.0494  0.3569 -0.2494
 1261SOL     OW15244   4.172   2.254  13.155 -0.1923 -0.2039  0.2640
 1261SOL    HW115245   4.132   2.204  13.084 -0.3247 -0.3015  0.4084
 1261SOL    HW215246   4.166   2.202  13.235 -0.7740 -1.0866 -0.3488
 1262SOL     OW15247   1.011   4.036  14.041  0.5035 -0.0925 -0.1219
 1262SOL    HW115248   0.980   4.097  14.108 -0.0514 -0.6666  0.1329
 1262SOL    HW215249   0.942   3.970  14.049  0.3533  0.0480 -0.2641
 1263SOL     OW15250   1.522   1.274   2.479 -0.5665  0.2841 -0.0603
 1263SOL    HW115251   1.480   1.189   2.464  1.0250 -0.3822 -0.8035
 1263SOL    HW215252   1.602   1.239   2.518  0.4937 -0.4571 -2.8611
 1264SOL     OW15253   2.456   4.178   2.016  0.3184  0.1862  0.4762
 1264SOL    HW115254   2.387   4.142   1.960 -0.0114  2.0332 -0.2746
 1264SOL    HW215255   2.452   4.119   2.091 -1.8965  1.0850  1.0529
 1265SOL     OW15256   1.464   4.382  10.483 -0.2344  0.1154  0.7520
 1265SOL    HW115257   1.555   4.408  10.499 -0.6122  1.6660  0.4483
 1265SOL    HW215258   1.448   4.444  10.412 -3.3957 -4.0751 -2.1472
 1266SOL     OW15259   3.003   2.990  17.215 -1.0152  0.7866  0.3038
 1266SOL    HW115260   2.960   2.991  17.129  2.2131  0.1131 -1.3035
 1266SOL    HW215261   3.091   2.959  17.193 -1.9165 -0.5372 -1.5391
 1267SOL     OW15262   3.386   1.638   2.728 -0.0637  0.5561 -0.1908
 1267SOL    HW115263   3.454   1.703   2.713  0.6151  0.0723  0.7533
 1267SOL    HW215264   3.443   1.563   2.745 -1.7741 -1.1886 -2.0931
 1268SOL     OW15265   3.913   0.309   4.722  0.3215 -0.0484 -0.4518
 1268SOL    HW115266   3.908   0.214   4.715 -1.0473  0.0909 -1.4397
 1268SOL    HW215267   3.981   0.319   4.789 -2.1534 -0.9171  2.1757
 1269SOL     OW15268   2.295   1.544  12.446 -0.4548 -0.3762  0.4745
 1269SOL    HW115269   2.243   1.504  12.515 -1.3457 -1.7702 -1.0293
 1269SOL    HW215270   2.374   1.565  12.497 -1.6267 -0.6861  2.4358
 1270SOL     OW15271   1.901   0.148   5.184  0.0490 -0.1750 -0.3692
 1270SOL    HW115272   1.909   0.116   5.094  0.8268 -0.0197 -0.3559
 1270SOL    HW215273   1.933   0.067   5.224  0.1395 -0.1697 -0.4302
 1271SOL     OW15274   0.629   2.652   4.207  0.7649  0.2788 -0.2158
 1271SOL    HW115275   0.557   2.711   4.230  0.5734  0.2887 -0.8249
 1271SOL    HW215276   0.686   2.658   4.283 -1.0613  2.0543  0.9925
 1272SOL     OW15277   2.898   2.437   5.968  0.1293  0.3108  0.3732
 1272SOL    HW115278   2.869   2.520   6.007  1.6296  1.2329 -0.4551
 1272SOL    HW215279   2.993   2.445   5.983  0.3554 -2.4324  0.4113
 1273SOL     OW15280   4.468   0.759  16.790 -0.4817 -0.1311  0.3013
 1273SOL    HW115281   4.469   0.673  16.830 -2.4951 -0.0294  0.5805
 1273SOL    HW215282   4.412   0.799  16.857 -1.5796  1.4507 -1.5522
 1274SOL     OW15283   2.477   1.387   1.613  0.1114 -0.0760  0.3166
 1274SOL    HW115284   2.454   1.297   1.635  0.8155 -0.6667 -1.3836
 1274SOL    HW215285   2.412   1.406   1.545 -1.0488 -2.4961  0.7702
 1275SOL     OW15286   0.068   4.227   3.718 -0.5181 -0.2235 -0.3213
 1275SOL    HW115287   0.124   4.236   3.795  1.6017 -0.0261 -1.8731
 1275SOL    HW215288   0.086   4.311   3.675 -1.8434  0.0898 -0.2622
 1276SOL     OW15289   3.926   1.826   6.575  0.2748  0.2391  0.0976
 1276SOL    HW115290   3.899   1.908   6.534 -0.6855  0.8621  2.0082
 1276SOL    HW215291   3.925   1.765   6.501  1.7050  0.0339  0.2428
 1277SOL     OW15292   2.423   2.075   3.036 -0.3488  0.2904 -0.1794
 1277SOL    HW115293   2.404   2.168   3.031 -0.1587  0.2672 -1.3116
 1277SOL    HW215294   2.347   2.040   2.989 -1.0237  3.4165 -1.3979
 1278SOL     OW15295   3.804   2.616   6.802 -0.1709 -0.0833 -0.1488
 1278SOL    HW115296   3.727   2.665   6.832 -1.4243 -1.6577 -0.7964
 1278SOL    HW215297   3.878   2.668   6.834  2.2488 -2.3646 -2.0213
 1279SOL     OW15298   2.851   0.995   7.233  0.4508 -0.7996 -0.7543
 1279SOL    HW115299   2.926   0.972   7.178  0.4173 -0.6382 -0.8696
 1279SOL    HW215300   2.773   0.970   7.183 -2.8218  3.9180  2.0482
 1280SOL     OW15301   1.786   4.258   2.297 -0.7329 -0.0797 -0.2474
 1280SOL    HW115302   1.826   4.194   2.356  1.2068  2.0429  0.7441
 1280SOL    HW215303   1.814   4.341   2.338  2.8330 -1.0170 -0.8228
 1281SOL     OW15304   1.795   4.324   8.251  0.1199  0.5371  0.1056
 1281SOL    HW115305   1.806   4.229   8.256 -1.6101  0.4149  1.5901
 1281SOL    HW215306   1.838   4.348   8.333 -3.7681 -2.1796  2.9477
 1282SOL     OW15307   0.396   2.485  11.687 -0.2543 -0.2087 -0.1681
 1282SOL    HW115308   0.459   2.557  11.685 -0.7458  0.2410  0.4548
 1282SOL    HW215309   0.426   2.422  11.621 -3.1673 -1.8690  0.0983
 1283SOL     OW15310   0.954   0.991   8.510  0.5623  0.2278  0.2140
 1283SOL    HW115311   0.966   0.935   8.433 -3.2534 -0.2964 -0.0131
 1283SOL    HW215312   0.959   0.927   8.581 -0.2953  0.8545  0.8512
 1284SOL     OW15313   0.823   1.631   7.240  0.1279 -0.4511  0.0080
 1284SOL    HW115314   0.794   1.545   7.270  0.5439 -0.6601 -0.1955
 1284SOL    HW215315   0.823   1.681   7.323  0.1241 -0.8776  0.2624
 1285SOL     OW15316   4.445   3.116   2.147 -0.2133 -0.0331  0.0695
 1285SOL    HW115317   4.536   3.113   2.176  0.2742 -0.0650 -1.4602
 1285SOL    HW215318   4.396   3.130   2.228  1.4154  4.0163  0.3770
 1286SOL     OW15319   4.112   3.249   8.633  0.2674  0.8431  0.6453
 1286SOL    HW115320   4.094   3.305   8.557 -1.1331  0.7938  0.9435
 1286SOL    HW215321   4.030   3.200   8.638  0.1796  0.6560 -2.3075
 1287SOL     OW15322   3.604   3.414  10.270 -0.1050 -0.3312  0.2317
 1287SOL    HW115323   3.590   3.319  10.275 -3.2602  0.1654  1.0370
 1287SOL    HW215324   3.511   3.438  10.262  0.0807  0.2566 -0.0568
 1288SOL     OW15325   1.233   3.760   8.559 -0.3603 -0.4594 -0.4646
 1288SOL    HW115326   1.211   3.731   8.648  0.1434  1.4633  0.2893
 1288SOL    HW215327   1.291   3.834   8.576 -0.2235 -0.1996 -2.1110
 1289SOL     OW15328   4.367   4.697   7.377  0.7571 -0.2330  0.0063
 1289SOL    HW115329   4.335   4.610   7.353 -1.5195  0.9741 -1.3528
 1289SOL    HW215330   4.460   4.679   7.394  0.5219  0.0635  1.6675
 1290SOL     OW15331   0.053   0.209   4.910 -0.4083  0.0207 -0.2831
 1290SOL    HW115332   0.006   0.126   4.896 -1.4996  0.5103  0.4923
 1290SOL    HW215333   0.130   0.175   4.955 -0.7211  1.3125  1.2255
 1291SOL     OW15334   1.356   0.523   8.905 -0.2064  0.4978 -0.6574
 1291SOL    HW115335   1.381   0.612   8.930 -1.2159  0.6123 -0.0285
 1291SOL    HW215336   1.447   0.494   8.895 -0.2134  0.0621  0.4946
 1292SOL     OW15337   3.167   0.788   2.645 -0.1799 -0.3343 -0.9044
 1292SOL    HW115338   3.113   0.740   2.582 -1.9843 -0.6505  0.8621
 1292SOL    HW215339   3.140   0.879   2.634  1.0278  0.3676  2.0517
 1293SOL     OW15340   2.098   3.608   7.655  0.0950 -0.0303 -0.1196
 1293SOL    HW115341   2.031   3.629   7.720 -0.2819 -1.9182  0.1140
 1293SOL    HW215342   2.165   3.579   7.717 -2.0375  0.1964  2.2922
 1294SOL     OW15343   1.366   4.201   6.072  0.1475  0.0794  0.3364
 1294SOL    HW115344   1.287   4.190   6.125  1.7247 -3.2357  2.0319
 1294SOL    HW215345   1.324   4.199   5.987  0.9599  2.5483 -0.1164
 1295SOL     OW15346   4.379   1.217  13.069 -0.5889 -0.2400  0.1340
 1295SOL    HW115347   4.424   1.271  13.004  1.8413 -1.9101  0.4179
 1295SOL    HW215348   4.343   1.284  13.126 -1.1253  1.0565 -1.7551
 1296SOL     OW15349   0.735   0.865   0.607  0.4777  0.1488 -0.7255
 1296SOL    HW115350   0.701   0.781   0.576 -2.2794  1.0420 -0.1286
 1296SOL    HW215351   0.792   0.892   0.535  0.5518  3.5616  0.6197
 1297SOL     OW15352   4.577   3.635   8.220  0.0796  0.3553  0.5928
 1297SOL    HW115353   4.569   3.540   8.222  1.3516  0.2377 -0.0251
 1297SOL    HW215354   4.634   3.664   8.149 -0.4227  0.0862  0.0835
 1298SOL     OW15355   1.512   4.667   9.777  0.2954 -0.1267  0.1411
 1298SOL    HW115356   1.563   4.599   9.733 -1.2311 -1.0633 -0.2268
 1298SOL    HW215357   1.551   0.027   9.738 -0.1620  0.5630  1.0841
 1299SOL     OW15358   3.398   1.321   8.345 -0.1694  0.5052 -0.2221
 1299SOL    HW115359   3.412   1.414   8.326 -1.4470  0.3870 -1.7870
 1299SOL    HW215360   3.306   1.309   8.369  0.0232 -0.3995  0.0615
 1300SOL     OW15361   2.518   3.809   2.998  0.9847  0.4010 -0.0616
 1300SOL    HW115362   2.446   3.757   3.036 -0.3254  1.6855 -0.7711
 1300SOL    HW215363   2.487   3.896   3.024 -2.1516 -0.5462 -0.5909
 1301SOL     OW15364   1.059   2.641   3.443 -0.6023 -0.2593  0.5503
 1301SOL    HW115365   1.009   2.560   3.452  2.5538 -2.1600  0.8923
 1301SOL    HW215366   1.008   2.701   3.497 -0.4017  0.2240  0.2070
 1302SOL     OW15367   3.019   4.453  15.327  0.6486 -0.5526  0.2939
 1302SOL    HW115368   2.984   4.383  15.382 -0.7737  0.7693  1.0886
 1302SOL    HW215369   2.994   4.531  15.376 -1.3070 -1.0144  0.0530
 1303SOL     OW15370   4.013   1.318   6.104  0.0108 -0.3195  0.1739
 1303SOL    HW115371   4.002   1.233   6.060  1.2855 -0.7049  0.6000
 1303SOL    HW215372   3.947   1.327   6.173  1.4702  0.6202  1.4422
 1304SOL     OW15373   3.340   3.736   7.344 -0.3032 -0.4807 -0.1381
 1304SOL    HW115374   3.248   3.750   7.369 -0.1086 -1.6323  1.2021
 1304SOL    HW215375   3.383   3.762   7.425 -1.3060 -0.6674  0.4551
 1305SOL     OW15376   3.063   1.775  17.117 -0.0103 -0.2292 -0.7983
 1305SOL    HW115377   3.129   1.707  17.128 -0.4815 -0.2710  1.6771
 1305SOL    HW215378   2.991   1.737  17.167 -0.0174  0.9882  0.1207
 1306SOL     OW15379   3.802   1.425  12.872  0.8469 -0.5908  1.0102
 1306SOL    HW115380   3.824   1.486  12.801  1.0926 -0.3846  1.2645
 1306SOL    HW215381   3.727   1.469  12.913  2.1044  2.1402  0.4056
 1307SOL     OW15382   1.069   0.205   3.109  0.0953 -0.3851 -0.5437
 1307SOL    HW115383   1.139   0.142   3.126 -0.0613 -0.2629  0.5672
 1307SOL    HW215384   1.041   0.177   3.022 -0.1814  0.3086 -0.6779
 1308SOL     OW15385   4.390   2.444   7.285 -0.4323 -0.2507 -0.5580
 1308SOL    HW115386   4.296   2.461   7.292 -0.0855  1.0002  1.1214
 1308SOL    HW215387   4.418   2.534   7.269  1.9938 -1.0981 -1.0891
 1309SOL     OW15388   2.232   2.112   8.045 -0.0122 -0.2731  0.6735
 1309SOL    HW115389   2.228   2.042   8.110  0.3247  0.2105  1.2211
 1309SOL    HW215390   2.139   2.135   8.045 -0.1458 -0.8255  0.4995
 1310SOL     OW15391   2.950   2.910   8.374  0.1666  0.2507 -0.2499
 1310SOL    HW115392   2.960   2.822   8.340  2.3548  0.8270 -1.0884
 1310SOL    HW215393   3.044   2.929   8.380  0.1320  0.4021 -0.1825
 1311SOL     OW15394   1.386   3.163   4.692  0.3126 -0.2107 -0.3205
 1311SOL    HW115395   1.409   3.163   4.599  0.4073 -1.4343 -0.2967
 1311SOL    HW215396   1.456   3.103   4.719  1.5704  0.6917 -1.5968
 1312SOL     OW15397   3.962   0.596  16.905  0.5166  0.0968  0.0570
 1312SOL    HW115398   4.013   0.572  16.828  0.9898 -0.0558  0.4187
 1312SOL    HW215399   3.992   0.684  16.927  1.5524 -0.4395  0.7608
 1313SOL     OW15400   2.990   0.724  16.388 -0.4977 -1.0884  0.3174
 1313SOL    HW115401   3.024   0.678  16.465  0.2722  1.1715  1.3465
 1313SOL    HW215402   2.904   0.682  16.383  0.1274 -2.1595 -1.4787
 1314SOL     OW15403   3.737   2.890   2.733 -0.0656  0.4207  0.1885
 1314SOL    HW115404   3.817   2.938   2.711  0.1177 -0.2483 -0.6365
 1314SOL    HW215405   3.694   2.939   2.803  0.3486  0.6824  0.2631
 1315SOL     OW15406   2.400   1.601   6.031 -0.2425  0.1572  0.4794
 1315SOL    HW115407   2.406   1.506   6.042  2.7187  0.2179 -0.5990
 1315SOL    HW215408   2.308   1.597   6.002 -0.1057  1.8920 -0.1849
 1316SOL     OW15409   4.693   2.469   9.319 -0.1891 -0.0104 -0.0252
 1316SOL    HW115410   4.612   2.456   9.369  1.5353 -0.4260  2.6461
 1316SOL    HW215411   4.665   2.519   9.242  2.1340 -0.4413 -1.1502
 1317SOL     OW15412   2.805   2.971  15.371  0.4401  0.0859 -1.0001
 1317SOL    HW115413   2.755   3.035  15.422  0.0467 -0.0160 -1.2530
 1317SOL    HW215414   2.758   2.890  15.389  4.2440 -2.4025 -2.3002
 1318SOL     OW15415   3.627   2.708  10.077  0.2589  0.5342  0.1419
 1318SOL    HW115416   3.561   2.641  10.058  2.8980 -2.3163  1.1999
 1318SOL    HW215417   3.582   2.789  10.052 -2.6514 -0.2619  2.6822
 1319SOL     OW15418   3.767   0.136   6.414 -0.3509  0.6729 -0.1464
 1319SOL    HW115419   3.773   0.218   6.463  1.0333  1.1513 -1.1019
 1319SOL    HW215420   3.859   0.120   6.392 -0.1625  1.7801 -0.1780
 1320SOL     OW15421   0.882   4.106   5.686  0.3832  0.5027  0.6187
 1320SOL    HW115422   0.948   4.094   5.618 -0.7534  0.8923 -0.5689
 1320SOL    HW215423   0.882   4.200   5.702 -3.8405  0.2885  2.0187
 1321SOL     OW15424   3.615   4.700   4.827  0.0031 -0.1733  0.0728
 1321SOL    HW115425   3.526   4.713   4.794 -0.2861  0.1320  0.9914
 1321SOL    HW215426   3.606   0.001   4.920  0.1630 -0.9232  0.2443
 1322SOL     OW15427   4.025   3.278   6.210 -0.2930  0.2715  0.2801
 1322SOL    HW115428   4.078   3.268   6.131 -0.9105  0.0356 -0.1048
 1322SOL    HW215429   4.054   3.210   6.271 -1.5841 -0.6411 -0.1184
 1323SOL     OW15430   2.153   2.504   8.372  1.0221 -0.1419  0.2341
 1323SOL    HW115431   2.129   2.551   8.292 -0.8213 -0.9754  0.2909
 1323SOL    HW215432   2.181   2.424   8.328  0.1330 -0.4053  0.1411
 1324SOL     OW15433   0.002   0.231  14.881 -0.1003  0.0232  0.2046
 1324SOL    HW115434   4.702   0.325  14.883  2.6428  0.6142 -2.1259
 1324SOL    HW215435   0.002   0.204  14.973 -0.8858 -0.6949 -0.0171
 1325SOL     OW15436   3.734   4.356   6.355  0.0926 -0.4163  0.4787
 1325SOL    HW115437   3.813   4.333   6.403  1.3664  0.1166 -1.3327
 1325SOL    HW215438   3.706   4.436   6.401 -1.5994 -1.1791  0.7501
 1326SOL     OW15439   3.011   1.030   6.993  0.5097 -0.4697 -0.7034
 1326SOL    HW115440   3.019   1.094   6.922 -0.0232  0.5110  0.1129
 1326SOL    HW215441   2.939   0.978   6.959 -0.4444  0.3665  0.0194
 1327SOL     OW15442   3.655   1.425   7.103  0.4414  0.1113  0.2832
 1327SOL    HW115443   3.704   1.358   7.152 -2.2062 -0.2200  2.4575
 1327SOL    HW215444   3.581   1.374   7.069  0.3501 -0.4483  1.3177
 1328SOL     OW15445   4.654   2.366  14.950  0.1709  0.5456  0.1476
 1328SOL    HW115446   4.597   2.443  14.956  0.5691  0.8360  0.1493
 1328SOL    HW215447   4.701   2.359  14.868  0.1512 -2.2327  0.3572
 1329SOL     OW15448   4.515   2.157   9.110  0.8247  0.2109 -0.0713
 1329SOL    HW115449   4.498   2.217   9.183 -1.0348 -0.7040  0.2242
 1329SOL    HW215450   4.592   2.113   9.146  1.1762 -0.5512 -1.7429
 1330SOL     OW15451   2.891   3.309   6.340  0.0223  0.7266  0.1469
 1330SOL    HW115452   2.975   3.353   6.352  2.2882 -3.5053 -0.2561
 1330SOL    HW215453   2.839   3.364   6.397 -1.5254  0.7949 -1.3407
 1331SOL     OW15454   1.335   4.159   2.001 -0.2852 -0.4623  0.7197
 1331SOL    HW115455   1.396   4.154   2.074  1.2123  0.8446 -0.4534
 1331SOL    HW215456   1.344   4.070   1.966  0.4795 -1.3378  3.1136
 1332SOL     OW15457   2.482   1.474   4.850  0.0648 -0.7243  0.1825
 1332SOL    HW115458   2.528   1.395   4.876 -3.6084 -3.3593 -1.3094
 1332SOL    HW215459   2.397   1.472   4.895 -0.9388  0.4815 -1.6465
 1333SOL     OW15460   0.250   1.036   4.150 -0.3972 -0.2768 -0.3632
 1333SOL    HW115461   0.171   1.008   4.104  1.4595 -0.9466 -3.1668
 1333SOL    HW215462   0.214   1.065   4.233 -0.8864  0.3783 -0.8030
 1334SOL     OW15463   1.304   0.341   8.589  0.1726  0.4737 -0.1989
 1334SOL    HW115464   1.336   0.251   8.584 -1.9553 -0.2779 -0.1879
 1334SOL    HW215465   1.216   0.317   8.619  1.0391 -1.0296  1.1435
 1335SOL     OW15466   1.292   3.070  13.593 -0.0481 -0.4236  0.1518
 1335SOL    HW115467   1.298   3.166  13.595  1.8787 -0.5782  2.0426
 1335SOL    HW215468   1.371   3.056  13.542 -1.1344 -1.7812 -1.1504
 1336SOL     OW15469   2.558   3.220   2.524 -0.8250 -0.0308  0.4414
 1336SOL    HW115470   2.479   3.236   2.472 -1.3868 -2.5063  0.5398
 1336SOL    HW215471   2.619   3.220   2.450 -0.4615  1.6924  0.7414
 1337SOL     OW15472   1.012   2.074  10.042 -0.0570 -0.6486 -0.2301
 1337SOL    HW115473   0.956   1.997  10.042 -1.1575  0.1524  3.0609
 1337SOL    HW215474   1.026   2.100  10.133  2.0666 -0.7924 -0.5150
 1338SOL     OW15475   3.483   3.290   7.733  0.1106 -0.1610 -0.2037
 1338SOL    HW115476   3.541   3.336   7.673  1.3295  1.6797  2.3778
 1338SOL    HW215477   3.544   3.259   7.800 -1.6184 -0.9083  1.0444
 1339SOL     OW15478   0.959   3.951   7.724 -0.2339 -0.1979  0.1594
 1339SOL    HW115479   1.004   3.911   7.798 -1.1021  0.6670  1.1581
 1339SOL    HW215480   1.022   4.020   7.700 -0.2226 -0.3148 -0.1540
 1340SOL     OW15481   3.280   2.046   3.745 -0.0872  0.3430  0.3749
 1340SOL    HW115482   3.191   2.077   3.724  0.4858  1.0454 -1.0432
 1340SOL    HW215483   3.332   2.084   3.674  0.1917 -5.2045 -2.4037
 1341SOL     OW15484   3.794   2.218   4.732 -0.0596  0.0298 -0.1389
 1341SOL    HW115485   3.767   2.206   4.641 -2.1971 -3.5758  0.9585
 1341SOL    HW215486   3.878   2.173   4.733 -1.6304 -2.8799  0.5440
 1342SOL     OW15487   0.080   3.377   6.065 -0.6180 -0.2196  0.0934
 1342SOL    HW115488   0.002   3.432   6.073 -0.2251  0.1215  1.7210
 1342SOL    HW215489   0.055   3.314   6.132  3.4482 -1.0756  0.8229
 1343SOL     OW15490   1.609   2.971   7.570 -0.0378 -0.1159  0.6624
 1343SOL    HW115491   1.596   2.880   7.595  0.5688 -0.1182  0.9772
 1343SOL    HW215492   1.702   2.963   7.590  0.1291 -1.4471 -0.6292
 1344SOL     OW15493   4.364   2.085   0.950 -0.3009  0.3632  0.7391
 1344SOL    HW115494   4.273   2.077   0.979 -0.2623  0.5289  0.9088
 1344SOL    HW215495   4.407   2.080   1.036 -0.2330 -1.0062  0.6347
 1345SOL     OW15496   3.931   3.163   8.049  0.8684 -0.6423 -0.0132
 1345SOL    HW115497   3.953   3.070   8.051  2.4254 -0.2892 -0.2971
 1345SOL    HW215498   4.015   3.189   8.088  0.7288 -1.0406  0.5356
 1346SOL     OW15499   1.570   4.462   8.215 -0.2428  0.2572  0.3942
 1346SOL    HW115500   1.532   4.421   8.138  0.0232  1.2057 -0.2432
 1346SOL    HW215501   1.647   4.406   8.226 -0.9349 -0.7505  0.0605
 1347SOL     OW15502   2.630   4.250  16.848 -0.1858 -0.2642  0.0300
 1347SOL    HW115503   2.535   4.258  16.862 -0.2189 -3.2628  1.5652
 1347SOL    HW215504   2.652   4.178  16.907 -0.4877 -0.9917 -0.7414
 1348SOL     OW15505   2.354   0.159   7.201 -0.4939  0.0424 -0.0227
 1348SOL    HW115506   2.429   0.121   7.156 -0.4938  0.7531 -0.6177
 1348SOL    HW215507   2.329   0.215   7.128  1.2126 -0.7279 -1.1963
 1349SOL     OW15508   3.548   1.270   8.595 -0.4609  0.1029 -0.0105
 1349SOL    HW115509   3.459   1.295   8.572 -0.5289  0.3766  0.5484
 1349SOL    HW215510   3.534   1.203   8.662  0.7116 -1.9339 -1.7847
 1350SOL     OW15511   2.809   1.480   7.420 -0.0309  0.1307  0.5602
 1350SOL    HW115512   2.896   1.504   7.452 -1.1782  3.9342  0.9337
 1350SOL    HW215513   2.839   1.410   7.363 -2.1721  0.2194 -0.7026
 1351SOL     OW15514   3.586   4.069   0.192 -0.2590 -0.2910 -0.1605
 1351SOL    HW115515   3.662   4.013   0.206  0.4098  1.3644  2.7192
 1351SOL    HW215516   3.569   4.034   0.104 -0.8268 -1.9876  0.6195
 1352SOL     OW15517   0.214   2.241  14.900  0.1139 -0.1559  0.0641
 1352SOL    HW115518   0.191   2.326  14.863  1.3222  1.4535  2.9886
 1352SOL    HW215519   0.190   2.195  14.819  1.4139  0.0395 -0.4234
 1353SOL     OW15520   3.468   4.200   3.757  0.1339  0.2116 -0.1826
 1353SOL    HW115521   3.550   4.249   3.760 -0.2942  1.0395 -1.6993
 1353SOL    HW215522   3.438   4.206   3.848  1.7410  1.4429  0.2606
 1354SOL     OW15523   1.807   2.476   1.728  0.7383  0.2313 -0.3473
 1354SOL    HW115524   1.727   2.431   1.755  0.1261  1.0798 -0.7151
 1354SOL    HW215525   1.820   2.534   1.803 -0.4570 -0.9621  0.7837
 1355SOL     OW15526   4.249   2.340  12.580 -0.2991  0.3738  0.0175
 1355SOL    HW115527   4.335   2.300  12.572 -0.6731 -0.4369  0.1319
 1355SOL    HW215528   4.225   2.376  12.494 -3.3989 -0.4666  0.5146
 1356SOL     OW15529   4.041   4.531   8.870 -0.1792  0.5079 -0.2677
 1356SOL    HW115530   4.064   4.440   8.886  2.0140  1.0487 -0.4427
 1356SOL    HW215531   4.043   4.563   8.960 -2.4900  1.0766 -0.4101
 1357SOL     OW15532   0.619   2.623  10.852  0.1406 -0.1256 -0.5622
 1357SOL    HW115533   0.584   2.584  10.932  0.6866  2.2468  0.8480
 1357SOL    HW215534   0.570   2.705  10.845  1.5017  0.7071 -0.4131
 1358SOL     OW15535   0.786   1.180   9.310  0.0657  0.5231  0.1466
 1358SOL    HW115536   0.812   1.106   9.364  1.7570  1.9078  1.2486
 1358SOL    HW215537   0.866   1.226   9.283 -1.8374  1.9543 -3.1136
 1359SOL     OW15538   0.937   2.048   4.430 -0.3223 -0.2330  0.4221
 1359SOL    HW115539   0.977   2.024   4.346 -0.5541 -2.6711  1.0161
 1359SOL    HW215540   0.912   1.964   4.467 -2.1096 -0.2513 -0.8479
 1360SOL     OW15541   3.335   2.677  11.383 -0.0678  0.6094 -0.0061
 1360SOL    HW115542   3.428   2.664  11.400  0.1100 -0.0315 -1.4877
 1360SOL    HW215543   3.314   2.587  11.361  0.3626  0.8084 -1.1969
 1361SOL     OW15544   2.810   2.267   9.013  0.3856  0.1397  0.2527
 1361SOL    HW115545   2.753   2.215   9.070  0.7630 -0.4851  0.0555
 1361SOL    HW215546   2.765   2.351   9.007  0.6489  0.2679  0.0686
 1362SOL     OW15547   0.764   1.268  14.569  0.2836  0.4974  0.2586
 1362SOL    HW115548   0.757   1.282  14.663 -0.2171 -1.3051  0.4903
 1362SOL    HW215549   0.682   1.302  14.532  0.3177 -1.5689 -1.7449
 1363SOL     OW15550   3.052   3.287   1.014  0.0318  0.3629  0.0805
 1363SOL    HW115551   3.113   3.332   0.955  0.3884  0.4925  0.5471
 1363SOL    HW215552   3.017   3.231   0.945  3.8568 -2.2726  0.2824
 1364SOL     OW15553   2.746   2.438   7.773 -0.3263  0.0442 -0.4707
 1364SOL    HW115554   2.781   2.353   7.799  1.0472  0.7685  0.0874
 1364SOL    HW215555   2.694   2.422   7.694 -0.9255  0.3090 -0.1311
 1365SOL     OW15556   0.937   3.147   8.720  0.3672  0.0600 -0.1817
 1365SOL    HW115557   0.956   3.108   8.635 -2.8847 -0.4702 -0.6666
 1365SOL    HW215558   1.019   3.153   8.770  0.1887 -3.5347  0.5406
 1366SOL     OW15559   3.814   3.344   4.707  0.3632 -0.7682  0.6521
 1366SOL    HW115560   3.791   3.303   4.623 -0.2685  1.0644 -0.0827
 1366SOL    HW215561   3.896   3.390   4.690  0.8659 -1.6745  0.6800
 1367SOL     OW15562   2.448   2.111   0.964 -0.0019  0.7946  0.5143
 1367SOL    HW115563   2.537   2.088   0.938 -0.6078  0.8982 -1.5781
 1367SOL    HW215564   2.475   2.199   0.987 -1.2390  0.9869  1.2211
 1368SOL     OW15565   0.734   2.017   7.514  0.7929 -0.7709  0.1875
 1368SOL    HW115566   0.697   2.043   7.429  3.8050  2.0171 -0.2778
 1368SOL    HW215567   0.802   2.083   7.528  0.3024 -0.3484  0.5752
 1369SOL     OW15568   1.635   2.661   4.065 -0.3880  0.1337 -0.2902
 1369SOL    HW115569   1.566   2.705   4.115  1.0716  2.0191  0.0492
 1369SOL    HW215570   1.605   2.572   4.046  2.6278 -0.4512 -2.1982
 1370SOL     OW15571   1.908   4.344   3.762 -0.0647 -0.0360  0.1293
 1370SOL    HW115572   1.847   4.402   3.716 -0.2529  0.9932  1.7006
 1370SOL    HW215573   1.910   4.265   3.707 -2.6465  0.1187 -0.1950
 1371SOL     OW15574   1.992   1.259   4.791  0.1113 -0.5017  0.2292
 1371SOL    HW115575   2.008   1.278   4.699 -2.3787  2.0765  0.3069
 1371SOL    HW215576   2.063   1.304   4.836  0.0434  0.0671 -0.2316
 1372SOL     OW15577   1.078   0.210   5.100 -0.4802  0.0719 -0.0345
 1372SOL    HW115578   1.095   0.211   5.006 -1.7917 -0.7860 -0.2941
 1372SOL    HW215579   1.166   0.209   5.136 -0.2769  0.1570 -0.5309
 1373SOL     OW15580   0.914   3.252  11.916  0.0488  0.1015 -0.0619
 1373SOL    HW115581   0.955   3.307  11.848  0.1909  0.8465  0.6325
 1373SOL    HW215582   0.824   3.280  11.930 -0.0682  0.7788 -2.0695
 1374SOL     OW15583   0.515   4.203   0.779 -0.3948  0.1143  0.2726
 1374SOL    HW115584   0.508   4.297   0.793  0.5406  0.2430 -0.1352
 1374SOL    HW215585   0.599   4.186   0.821  0.2593  0.0838 -1.0613
 1375SOL     OW15586   1.876   1.896   6.337 -0.5046 -0.5578 -0.1578
 1375SOL    HW115587   1.902   1.809   6.307 -0.1033 -0.3620 -0.3653
 1375SOL    HW215588   1.939   1.910   6.408 -1.6709 -1.8395  1.1262
 1376SOL     OW15589   2.098   3.618   3.361 -0.7750 -0.1879  0.5310
 1376SOL    HW115590   2.097   3.711   3.387 -0.9649  0.2513 -1.0264
 1376SOL    HW215591   2.151   3.582   3.432  0.1562 -2.0013 -1.0986
 1377SOL     OW15592   4.168   3.390   1.105 -0.0127 -0.0434  0.2884
 1377SOL    HW115593   4.119   3.312   1.131  1.3889 -0.8603  0.4924
 1377SOL    HW215594   4.245   3.353   1.063 -0.6500  1.4213 -2.1504
 1378SOL     OW15595   1.528   1.645   1.937  0.1744 -0.1471  0.0133
 1378SOL    HW115596   1.455   1.611   1.885  0.3669  0.0623 -0.3922
 1378SOL    HW215597   1.600   1.624   1.878 -2.0877 -2.1715 -2.0527
 1379SOL     OW15598   1.114   1.278   6.286 -0.0114 -0.4043  0.0186
 1379SOL    HW115599   1.026   1.269   6.249  0.7535  1.0697 -2.1803
 1379SOL    HW215600   1.116   1.359   6.337  3.1190 -0.3089 -0.2366
 1380SOL     OW15601   0.916   2.572   8.905  0.1466  0.0837 -1.1076
 1380SOL    HW115602   0.905   2.495   8.961  0.7929 -0.8704 -2.3279
 1380SOL    HW215603   1.011   2.563   8.904 -0.0032 -1.5964 -0.2557
 1381SOL     OW15604   3.727   3.249   8.986  0.1289  0.2921  0.0068
 1381SOL    HW115605   3.677   3.262   9.067  1.2721 -0.6874  0.8704
 1381SOL    HW215606   3.738   3.339   8.957 -2.6069  1.0182  1.1523
 1382SOL     OW15607   2.695   1.936   1.240  0.0727  1.3075 -0.9104
 1382SOL    HW115608   2.638   1.863   1.263  0.8258  0.7373 -0.8394
 1382SOL    HW215609   2.653   2.003   1.295 -0.9905 -0.4981  0.4838
 1383SOL     OW15610   0.358   2.719   3.473  0.6603  0.2056 -0.1239
 1383SOL    HW115611   0.367   2.807   3.510  0.7700 -0.3003  1.0558
 1383SOL    HW215612   0.262   2.711   3.478  0.7549 -1.6747 -1.3687
 1384SOL     OW15613   2.977   3.802   1.463  0.0638 -0.1415  0.1686
 1384SOL    HW115614   2.956   3.815   1.371  2.3638 -0.3687 -0.3640
 1384SOL    HW215615   2.903   3.838   1.513  1.0171  1.2782  0.5579
 1385SOL     OW15616   1.317   0.296  10.172 -0.2127 -0.0338 -0.5939
 1385SOL    HW115617   1.225   0.322  10.172 -0.1556  0.1752  0.0507
 1385SOL    HW215618   1.308   0.208  10.135  1.5705  0.0309 -1.1976
 1386SOL     OW15619   4.543   1.493   4.890  0.0238  0.1618  0.0604
 1386SOL    HW115620   4.559   1.405   4.856  2.2153 -0.3520  2.3393
 1386SOL    HW215621   4.475   1.522   4.830 -0.4575  0.6768  0.8486
 1387SOL     OW15622   2.188   4.111   6.597 -0.1696  0.2306 -0.2924
 1387SOL    HW115623   2.241   4.043   6.638 -2.3308 -0.2296  1.7288
 1387SOL    HW215624   2.100   4.085   6.624  1.3225  0.3379  4.6032
 1388SOL     OW15625   3.597   4.486  16.193 -0.3636  0.2097  0.3122
 1388SOL    HW115626   3.670   4.428  16.172 -0.3925 -0.2097  1.4074
 1388SOL    HW215627   3.518   4.433  16.207  0.1038 -0.5115  0.2112
 1389SOL     OW15628   3.058   3.365   5.703  1.1923  0.2853  0.6909
 1389SOL    HW115629   2.985   3.327   5.753  0.7083  0.6751  0.2765
 1389SOL    HW215630   3.103   3.281   5.699  0.3962  0.0227 -2.9203
 1390SOL     OW15631   0.925   0.275   3.708 -0.7172  0.4196  0.2645
 1390SOL    HW115632   0.988   0.330   3.755 -0.3826  0.1477  0.1303
 1390SOL    HW215633   0.880   0.244   3.786 -2.6205 -1.1016 -1.4635
 1391SOL     OW15634   1.035   1.252  13.728  0.4688  0.1380  0.0129
 1391SOL    HW115635   1.091   1.193  13.778  1.0670 -0.9207 -1.8942
 1391SOL    HW215636   0.946   1.218  13.737 -0.1022  1.2814 -1.2566
 1392SOL     OW15637   4.005   2.851   2.432  0.0570 -0.3030  0.4521
 1392SOL    HW115638   4.022   2.776   2.488 -0.9385 -1.1552 -0.3979
 1392SOL    HW215639   3.945   2.807   2.373  1.0900 -1.0046 -0.0732
 1393SOL     OW15640   0.213   2.494   6.379  0.4083  0.3955  0.3010
 1393SOL    HW115641   0.171   2.409   6.368  0.8409 -0.0749  2.3326
 1393SOL    HW215642   0.283   2.489   6.314  0.5901 -0.2949  0.5511
 1394SOL     OW15643   4.484   3.706   5.319 -0.2968 -0.4603 -0.2043
 1394SOL    HW115644   4.532   3.670   5.393  0.7044  1.4688  0.0831
 1394SOL    HW215645   4.447   3.631   5.274 -2.5859  1.0325 -0.8088
 1395SOL     OW15646   2.478   0.794   4.069  0.2906  0.1683 -0.2463
 1395SOL    HW115647   2.454   0.730   4.002  2.3255 -1.4671  0.6050
 1395SOL    HW215648   2.521   0.861   4.015 -0.9104  0.5561 -0.7325
 1396SOL     OW15649   3.289   2.041   4.737 -0.2257  0.2601  0.8822
 1396SOL    HW115650   3.278   2.017   4.828 -0.7299  0.8256  0.9701
 1396SOL    HW215651   3.374   2.085   4.745 -0.4076  0.9602 -1.0149
 1397SOL     OW15652   0.555   3.286   0.188 -0.7518 -0.1266 -0.1996
 1397SOL    HW115653   0.498   3.349   0.233 -1.9084  0.1566 -2.0670
 1397SOL    HW215654   0.613   3.263   0.260  1.3716  1.0498 -1.5249
 1398SOL     OW15655   4.714   3.703   5.998  0.5565 -0.2182  0.4812
 1398SOL    HW115656   4.657   3.627   5.996 -0.1867  0.4624 -2.9719
 1398SOL    HW215657   0.050   3.696   6.077 -0.5743 -0.6330  1.2186
 1399SOL     OW15658   4.679   2.350   0.691  0.2702 -0.4492 -0.2513
 1399SOL    HW115659   4.695   2.272   0.639 -0.0453 -1.9952  2.0125
 1399SOL    HW215660   4.603   2.320   0.741  1.6396 -2.9284  0.2959
 1400SOL     OW15661   4.075   4.036   7.579 -0.3858  0.2954  0.2220
 1400SOL    HW115662   4.081   4.097   7.653 -0.9283 -0.7156  1.1172
 1400SOL    HW215663   4.018   3.966   7.611  0.0219  0.3390  1.0463
 1401SOL     OW15664   2.197   1.925   8.245 -0.2018  0.5613 -0.7943
 1401SOL    HW115665   2.187   1.953   8.336 -0.1208  2.1670 -1.2687
 1401SOL    HW215666   2.281   1.879   8.250 -1.1367 -1.0464 -0.1040
 1402SOL     OW15667   3.906   3.406  12.589  0.8345 -0.0852 -0.1321
 1402SOL    HW115668   3.993   3.413  12.549  0.8062 -1.7400 -0.5054
 1402SOL    HW215669   3.876   3.496  12.577  1.1162  0.2469  1.6598
 1403SOL     OW15670   3.628   3.431   0.882 -0.2941  0.0744 -0.2319
 1403SOL    HW115671   3.689   3.360   0.862 -0.1226  0.0229  0.4769
 1403SOL    HW215672   3.574   3.386   0.947  0.2566  1.2384  1.0298
 1404SOL     OW15673   3.894   1.447  13.536  0.2882 -0.2275  0.5894
 1404SOL    HW115674   3.832   1.386  13.497  1.0650 -0.8127  0.2730
 1404SOL    HW215675   3.978   1.402  13.524  1.0371  1.1221  0.6861
 1405SOL     OW15676   0.310   2.861   7.790  0.4408  0.2965 -0.1934
 1405SOL    HW115677   0.357   2.943   7.808  2.4256 -0.4979 -1.8025
 1405SOL    HW215678   0.289   2.828   7.878 -1.1333  0.5432 -0.4675
 1406SOL     OW15679   1.069   0.185   8.674 -0.1576 -0.1386  0.0798
 1406SOL    HW115680   1.016   0.214   8.748 -2.8255 -2.1701 -1.0358
 1406SOL    HW215681   1.030   0.244   8.609 -0.4979 -1.9000 -1.3367
 1407SOL     OW15682   3.617   3.007   2.951 -0.8237  0.3694 -0.6727
 1407SOL    HW115683   3.602   2.980   3.042  1.3967 -1.2786 -0.8034
 1407SOL    HW215684   3.650   3.093   2.976 -0.0461 -0.6223  1.6839
 1408SOL     OW15685   2.615   2.267  17.413  0.2335 -0.8884  0.1271
 1408SOL    HW115686   2.529   2.230  17.392 -0.2200  0.3397 -0.2094
 1408SOL    HW215687   2.641   2.322  17.339  0.0105  0.9913  1.4369
 1409SOL     OW15688   2.164   2.154   1.607  0.4934 -0.5560 -0.3374
 1409SOL    HW115689   2.121   2.240   1.614  2.7778  0.5517  0.1169
 1409SOL    HW215690   2.110   2.098   1.663 -0.2828  0.4806 -0.0307
 1410SOL     OW15691   3.718   0.341  11.732  0.5464 -0.1305  0.6011
 1410SOL    HW115692   3.802   0.302  11.757  0.6560  1.0278  2.0490
 1410SOL    HW215693   3.720   0.299  11.646  0.4309 -0.4980  0.7753
 1411SOL     OW15694   3.937   1.118  13.605  0.1405 -0.1020 -0.3103
 1411SOL    HW115695   3.979   1.160  13.680  0.1858  1.2537 -1.1090
 1411SOL    HW215696   4.003   1.143  13.541  0.9059  0.2620  0.6201
 1412SOL     OW15697   4.587   1.883   7.952  0.0965 -0.2381  0.1481
 1412SOL    HW115698   4.498   1.910   7.932  0.1354  0.2850  0.6646
 1412SOL    HW215699   4.580   1.790   7.930  0.1904  0.1868 -1.7079
 1413SOL     OW15700   1.219   3.299  16.036 -0.0067 -0.4686  0.7001
 1413SOL    HW115701   1.171   3.362  16.090 -0.4897 -0.1219 -0.1297
 1413SOL    HW215702   1.278   3.265  16.103 -0.3343 -1.3098  0.5531
 1414SOL     OW15703   1.494   0.243  14.861 -0.0872  0.2050 -0.0138
 1414SOL    HW115704   1.540   0.163  14.836  1.0382  1.2679 -1.3077
 1414SOL    HW215705   1.425   0.205  14.917  1.0048  0.5321  1.5552
 1415SOL     OW15706   2.002   1.941   5.247 -0.5207 -0.1826 -0.3402
 1415SOL    HW115707   2.089   1.945   5.207 -0.0980  0.2265  0.6426
 1415SOL    HW215708   1.992   2.035   5.261 -0.2188 -0.1444 -0.3794
 1416SOL     OW15709   3.025   3.811   3.020  0.0546 -0.4343 -0.2510
 1416SOL    HW115710   2.977   3.803   3.102  0.2344  0.4257 -0.0617
 1416SOL    HW215711   2.968   3.876   2.978 -1.4970 -1.4595  0.2661
 1417SOL     OW15712   3.050   4.643   4.309 -0.1788 -0.0529  0.2745
 1417SOL    HW115713   2.983   4.622   4.244  0.0235 -0.1999  0.1130
 1417SOL    HW215714   3.135   4.635   4.264 -0.0709 -0.8588  0.6247
 1418SOL     OW15715   3.836   2.849   2.189 -0.5915 -0.0086  0.6764
 1418SOL    HW115716   3.772   2.832   2.120 -0.8910  3.6647  0.0715
 1418SOL    HW215717   3.891   2.902   2.132 -1.6220 -0.8561 -1.0902
 1419SOL     OW15718   2.018   1.908   6.569  0.0166  0.5396 -0.2150
 1419SOL    HW115719   2.004   1.974   6.637  1.2354 -0.9382  1.4774
 1419SOL    HW215720   2.022   1.827   6.620 -1.1999  0.2199 -0.6253
 1420SOL     OW15721   3.516   2.982  12.931  0.0291  0.0932 -0.8795
 1420SOL    HW115722   3.530   3.027  12.848 -0.2661  1.3091 -0.2757
 1420SOL    HW215723   3.603   2.948  12.954  0.0662  0.5009 -0.4150
 1421SOL     OW15724   1.214   2.806  13.538 -0.2690  0.0241  0.2442
 1421SOL    HW115725   1.235   2.896  13.563 -1.4601 -0.5338  3.2248
 1421SOL    HW215726   1.195   2.777  13.627 -0.1592  1.6947  0.8156
 1422SOL     OW15727   4.543   1.974   5.006 -0.6403  0.3983 -0.1779
 1422SOL    HW115728   4.600   1.918   4.953 -0.7845 -0.2566  0.3641
 1422SOL    HW215729   4.497   1.910   5.059  0.6066 -1.4369 -1.2968
 1423SOL     OW15730   3.283   1.698  10.241  0.2832 -0.0686  0.3126
 1423SOL    HW115731   3.201   1.743  10.219 -0.0727 -0.8402  0.0353
 1423SOL    HW215732   3.328   1.713  10.158 -0.6703 -0.4206 -0.2738
 1424SOL     OW15733   1.430   1.358   9.243 -0.3273 -0.0483  0.0471
 1424SOL    HW115734   1.494   1.304   9.197  0.5485 -0.6662  1.9953
 1424SOL    HW215735   1.421   1.421   9.172 -2.9838 -0.2088  0.2278
 1425SOL     OW15736   1.022   1.409   7.492  0.7412 -0.3749 -0.2050
 1425SOL    HW115737   0.937   1.449   7.479  0.9317  0.5129  1.2861
 1425SOL    HW215738   1.059   1.409   7.404  1.0518  2.5707 -0.0526
 1426SOL     OW15739   0.905   4.435  13.834 -0.3544 -0.4694  0.5176
 1426SOL    HW115740   0.869   4.361  13.883 -1.1672 -0.5726 -0.2309
 1426SOL    HW215741   0.825   4.467  13.793  0.8816  2.0638  0.0827
 1427SOL     OW15742   3.633   0.876  15.769  0.1993 -0.1170  0.3031
 1427SOL    HW115743   3.606   0.936  15.837 -0.8204  1.6770 -1.6962
 1427SOL    HW215744   3.595   0.917  15.691  0.7120 -0.7424 -0.2841
 1428SOL     OW15745   3.451   1.112   5.838  0.1540 -0.1724 -0.3138
 1428SOL    HW115746   3.423   1.030   5.797 -0.1665  0.9740 -2.3931
 1428SOL    HW215747   3.526   1.125   5.780  0.2956  0.4278  0.0032
 1429SOL     OW15748   2.149   0.178   2.766 -0.1496 -0.2859 -0.2165
 1429SOL    HW115749   2.119   0.252   2.712  0.4287  0.6662  0.7480
 1429SOL    HW215750   2.126   0.093   2.730  1.9808 -0.9641  0.0577
 1430SOL     OW15751   1.094   3.630   5.791 -0.1018  0.4486 -0.2427
 1430SOL    HW115752   1.047   3.700   5.837  0.8257  1.6092 -1.0559
 1430SOL    HW215753   1.087   3.649   5.697  0.2441 -3.3013 -1.0360
 1431SOL     OW15754   2.072   2.343  12.425  0.2194 -0.3355  0.2447
 1431SOL    HW115755   1.996   2.319  12.479 -0.6768  1.6905 -0.1238
 1431SOL    HW215756   2.048   2.290  12.349  0.4570 -0.3352  0.1681
 1432SOL     OW15757   1.629   1.547  16.495 -0.8301  0.7188  0.4742
 1432SOL    HW115758   1.587   1.569  16.577  0.1574 -1.2396  1.5250
 1432SOL    HW215759   1.563   1.490  16.455 -0.1803 -0.5996  1.2591
 1433SOL     OW15760   2.465   2.251   0.385  0.5139 -0.2260 -0.0313
 1433SOL    HW115761   2.388   2.284   0.431  1.3249  0.9330  0.4843
 1433SOL    HW215762   2.439   2.237   0.294  0.4123 -2.4836  0.3482
 1434SOL     OW15763   0.875   2.804   9.881  0.2129 -0.0509 -0.0601
 1434SOL    HW115764   0.959   2.759   9.881  1.2289  1.8688  0.1286
 1434SOL    HW215765   0.893   2.885   9.835 -1.2013  0.0979 -0.3525
 1435SOL     OW15766   1.685   1.274  10.426 -0.2367 -0.2641  0.1338
 1435SOL    HW115767   1.712   1.214  10.496  0.5374 -0.3278 -0.2151
 1435SOL    HW215768   1.594   1.269  10.453 -1.3552 -1.2968 -3.8671
 1436SOL     OW15769   0.845   1.909   8.950  0.1153  0.3970 -0.2752
 1436SOL    HW115770   0.834   1.814   8.947 -2.5856  0.7279 -0.4719
 1436SOL    HW215771   0.777   1.926   9.015 -0.0290 -4.7857  0.9598
 1437SOL     OW15772   1.400   2.487   2.939  0.0700 -0.2820 -0.3605
 1437SOL    HW115773   1.412   2.469   2.846 -2.5492 -1.3268 -0.5111
 1437SOL    HW215774   1.414   2.401   2.980  1.1113  0.5285  0.9655
 1438SOL     OW15775   2.538   1.188   9.219 -0.2875  0.2980 -0.0698
 1438SOL    HW115776   2.630   1.163   9.208  0.0820  2.0907 -1.1247
 1438SOL    HW215777   2.497   1.145   9.144  0.4280  0.0581 -0.3236
 1439SOL     OW15778   3.289   1.721  11.219 -0.6600 -0.2202 -0.7074
 1439SOL    HW115779   3.283   1.722  11.124 -0.3552  0.4291 -0.7193
 1439SOL    HW215780   3.381   1.744  11.234  0.3596 -2.5027 -3.5461
 1440SOL     OW15781   3.107   1.527  13.663  0.1233 -0.5010 -0.0167
 1440SOL    HW115782   3.028   1.478  13.690 -0.1212 -0.0830  0.0252
 1440SOL    HW215783   3.173   1.527  13.733 -0.5926 -0.8214  0.6716
 1441SOL     OW15784   3.203   3.091   1.152 -0.2344 -0.1894  0.2806
 1441SOL    HW115785   3.144   3.120   1.082  0.9981 -0.5738 -0.9396
 1441SOL    HW215786   3.142   3.088   1.225 -0.3097  1.6850  0.2917
 1442SOL     OW15787   0.629   4.279   2.350 -0.0752  0.8764 -0.3221
 1442SOL    HW115788   0.668   4.311   2.268 -0.0921 -1.0613 -1.0847
 1442SOL    HW215789   0.638   4.361   2.398 -0.0491  1.0889 -0.6899
 1443SOL     OW15790   1.976   3.707   6.455 -0.1005  0.2599 -0.3050
 1443SOL    HW115791   1.883   3.713   6.435 -0.1686 -0.7130 -0.2709
 1443SOL    HW215792   2.001   3.774   6.391  1.5261  0.1929  0.2356
 1444SOL     OW15793   4.252   2.955   5.280  0.4092 -0.4453 -0.7139
 1444SOL    HW115794   4.177   2.899   5.260 -1.2212  1.3280  0.4863
 1444SOL    HW215795   4.310   2.895   5.327 -0.3697  0.0895  0.9186
 1445SOL     OW15796   3.868   4.351   5.067  0.3439 -0.0579 -0.1792
 1445SOL    HW115797   3.825   4.266   5.078 -1.2021  0.6029 -1.0297
 1445SOL    HW215798   3.938   4.359   5.132  0.1854 -0.8808  0.0926
 1446SOL     OW15799   4.542   1.801   8.757  0.0999  0.0789  1.2628
 1446SOL    HW115800   4.515   1.885   8.795  2.2123  1.3416 -0.0735
 1446SOL    HW215801   4.625   1.785   8.803  0.0268  0.1231  1.4133
 1447SOL     OW15802   1.758   1.485  14.550 -0.5460 -0.0768  0.4245
 1447SOL    HW115803   1.700   1.439  14.490 -1.0239 -0.7158  1.3835
 1447SOL    HW215804   1.737   1.452  14.637  0.0950  1.4877  1.1851
 1448SOL     OW15805   2.789   2.912   6.609  0.2740 -0.0378  0.1009
 1448SOL    HW115806   2.798   3.006   6.623  0.1112  0.1890 -1.2962
 1448SOL    HW215807   2.875   2.884   6.579  0.8110  0.3340  1.3071
 1449SOL     OW15808   3.272   3.303   0.364  0.3175  0.0719 -0.5385
 1449SOL    HW115809   3.254   3.219   0.407  2.2028 -0.8030 -1.4635
 1449SOL    HW215810   3.271   3.272   0.274  0.3440 -0.5264 -0.3339
 1450SOL     OW15811   1.944   1.616  11.552 -0.4380 -0.4521  0.2123
 1450SOL    HW115812   2.010   1.616  11.482  0.7138  1.6228  1.2930
 1450SOL    HW215813   1.936   1.522  11.567 -0.3823 -0.4299  0.3816
 1451SOL     OW15814   1.164   0.188   6.470  0.0689  0.2187 -0.1997
 1451SOL    HW115815   1.226   0.115   6.476  0.0821  0.2420 -0.0546
 1451SOL    HW215816   1.098   0.165   6.405  1.6932 -1.3672 -1.2894
 1452SOL     OW15817   0.273   0.251   9.537 -0.5325 -0.1569  0.8994
 1452SOL    HW115818   0.316   0.319   9.485  0.9241 -0.0794  2.1737
 1452SOL    HW215819   0.277   0.179   9.475  1.9773 -0.3522  1.2769
 1453SOL     OW15820   4.457   0.412   7.211  0.0648 -0.4646  0.6675
 1453SOL    HW115821   4.455   0.375   7.299 -1.6270 -0.5675  0.5884
 1453SOL    HW215822   4.437   0.333   7.162  2.5444 -0.1376 -0.9059
 1454SOL     OW15823   0.482   2.373   5.621 -0.5377  0.1073  0.3647
 1454SOL    HW115824   0.507   2.335   5.536  0.6197 -0.7052  1.0717
 1454SOL    HW215825   0.414   2.315   5.656 -0.8445  1.3201  1.7676
 1455SOL     OW15826   4.395   3.204   0.874  0.0409 -0.0204  0.1006
 1455SOL    HW115827   4.481   3.172   0.847 -0.3548  0.0341 -1.2042
 1455SOL    HW215828   4.417   3.225   0.965 -0.7529  0.7551  0.1104
 1456SOL     OW15829   3.439   0.200  13.072  0.1858  0.4688  0.1276
 1456SOL    HW115830   3.503   0.257  13.029 -1.2612  1.6072 -0.5308
 1456SOL    HW215831   3.371   0.267  13.082 -0.8022 -0.0552 -2.9477
 1457SOL     OW15832   3.225   4.393   6.862  0.0960  0.0542 -0.3557
 1457SOL    HW115833   3.191   4.448   6.933 -2.2792 -2.6859  0.6054
 1457SOL    HW215834   3.289   4.450   6.818 -0.4706 -0.4551 -1.8340
 1458SOL     OW15835   0.607   0.679   5.164 -0.1856 -0.4463  0.3495
 1458SOL    HW115836   0.699   0.693   5.186 -0.0832 -1.2674  0.4175
 1458SOL    HW215837   0.609   0.681   5.069  1.2359 -1.0403  0.3812
 1459SOL     OW15838   3.753   2.070  15.798 -0.4883 -0.7536  0.1451
 1459SOL    HW115839   3.671   2.119  15.795  0.7896  1.3829 -0.1008
 1459SOL    HW215840   3.763   2.048  15.705  0.3385  0.6866 -0.1156
 1460SOL     OW15841   0.846   1.998   8.180  0.2703 -0.6227 -0.3690
 1460SOL    HW115842   0.865   1.907   8.161  2.6999 -0.3794  0.9283
 1460SOL    HW215843   0.889   2.052   8.113 -1.2596 -1.0892 -1.7152
 1461SOL     OW15844   2.775   3.137  17.049 -0.1599  0.6532  0.2272
 1461SOL    HW115845   2.818   3.122  16.965 -0.4560  0.3445  0.1348
 1461SOL    HW215846   2.753   3.046  17.069  2.0993  0.1378  0.3794
 1462SOL     OW15847   0.986   0.218   0.712  0.0327 -0.6105 -0.0088
 1462SOL    HW115848   0.924   0.208   0.785 -0.9906  0.2975 -0.7499
 1462SOL    HW215849   0.936   0.284   0.663 -1.0332 -0.3875  1.3789
 1463SOL     OW15850   4.344   2.198  16.783 -0.1936  0.2799  0.1167
 1463SOL    HW115851   4.332   2.256  16.858  1.0630  0.0094  0.5293
 1463SOL    HW215852   4.271   2.138  16.794  0.8815 -1.3133 -1.3390
 1464SOL     OW15853   4.646   2.997   5.783  0.0140 -0.0092 -0.0412
 1464SOL    HW115854   4.623   3.005   5.690 -0.1297 -0.3789 -0.0376
 1464SOL    HW215855   4.611   2.915   5.817 -0.9803 -0.2098 -1.5495
 1465SOL     OW15856   2.034   2.814  14.023 -0.0150  1.0874  0.0346
 1465SOL    HW115857   2.077   2.757  13.958 -0.2187  0.1981  0.6714
 1465SOL    HW215858   2.048   2.902  13.990 -3.5004  0.4681 -3.1398
 1466SOL     OW15859   1.749   0.896   2.920 -0.0416 -0.0509  0.2598
 1466SOL    HW115860   1.680   0.931   2.864  2.2119  5.2731  0.7239
 1466SOL    HW215861   1.720   0.805   2.923 -0.0436 -0.0353  0.7829
 1467SOL     OW15862   4.667   2.602   6.112 -0.2111  0.6333 -0.7640
 1467SOL    HW115863   4.670   2.599   6.208 -0.3200  0.1554 -0.7729
 1467SOL    HW215864   4.644   2.511   6.091  1.5686  0.5168 -2.1414
 1468SOL     OW15865   3.341   0.852   1.089 -0.0211  0.0819  0.8095
 1468SOL    HW115866   3.349   0.819   1.179 -2.3824  1.1967  1.4346
 1468SOL    HW215867   3.422   0.822   1.049 -0.5736 -1.4737  0.8659
 1469SOL     OW15868   3.862   4.516   3.064  0.3225 -0.1478 -0.2039
 1469SOL    HW115869   3.872   4.609   3.042  1.0992  0.1159  1.2506
 1469SOL    HW215870   3.936   4.507   3.125 -0.1437 -1.9762  0.0694
 1470SOL     OW15871   2.208   3.253   3.513  0.0189  0.1245  0.1053
 1470SOL    HW115872   2.158   3.268   3.433  0.1352  2.3707  0.4467
 1470SOL    HW215873   2.150   3.302   3.571 -1.2487 -0.4895 -0.6369
 1471SOL     OW15874   3.264   1.687   0.672  0.3592  0.1575  0.3874
 1471SOL    HW115875   3.201   1.658   0.606  3.4005  0.8776 -2.8003
 1471SOL    HW215876   3.304   1.605   0.701  1.4560  0.3577 -0.5667
 1472SOL     OW15877   3.584   2.710   1.115 -0.7172 -0.1165 -0.2510
 1472SOL    HW115878   3.491   2.685   1.120 -0.3264 -1.8848 -1.7977
 1472SOL    HW215879   3.579   2.787   1.058 -1.6335 -0.1592 -0.2368
 1473SOL     OW15880   0.445   1.412   8.402 -0.1622 -0.2715  0.5276
 1473SOL    HW115881   0.351   1.399   8.399 -0.1231 -0.1774 -1.0852
 1473SOL    HW215882   0.489   1.343   8.352 -2.3525  0.2154 -2.0313
 1474SOL     OW15883   3.305   1.698   5.567  0.6340  0.1852 -0.0271
 1474SOL    HW115884   3.363   1.756   5.616 -0.9038  1.2036  0.5588
 1474SOL    HW215885   3.343   1.610   5.569 -1.7938 -0.8183  0.8218
 1475SOL     OW15886   1.059   0.269   6.875  0.0164  0.3626 -0.2608
 1475SOL    HW115887   1.079   0.207   6.945  1.9917  1.4155  0.1087
 1475SOL    HW215888   0.971   0.291   6.904  0.7178  1.1308  1.2962
 1476SOL     OW15889   3.176   0.858  16.759  0.5358  0.0499 -0.4413
 1476SOL    HW115890   3.195   0.859  16.853  1.0844  0.8255 -0.5654
 1476SOL    HW215891   3.247   0.806  16.723  0.8258  0.3142 -0.2483
 1477SOL     OW15892   1.956   3.536  15.921 -0.4786  0.1946 -0.4220
 1477SOL    HW115893   2.046   3.562  15.941 -0.5328  0.7617 -0.9249
 1477SOL    HW215894   1.975   3.543  15.827 -0.7061 -1.4558 -0.5883
 1478SOL     OW15895   1.077   0.678   0.835  0.3355  0.0765  0.2192
 1478SOL    HW115896   1.010   0.744   0.854  0.6024  0.6746 -0.9580
 1478SOL    HW215897   1.075   0.664   0.741 -0.9859  1.0454  0.0943
 1479SOL     OW15898   2.208   1.782   7.975 -1.0798  0.1793 -0.7199
 1479SOL    HW115899   2.191   1.694   8.008  0.4995 -0.3989 -1.3951
 1479SOL    HW215900   2.300   1.798   7.997 -0.7535 -2.4917 -0.0725
 1480SOL     OW15901   4.362   1.585   4.690  0.4558 -0.1270  0.2208
 1480SOL    HW115902   4.376   1.569   4.596  2.9682  0.6016  0.4564
 1480SOL    HW215903   4.330   1.675   4.698 -0.6207 -0.5893  1.0349
 1481SOL     OW15904   1.022   1.633   3.992  0.3687 -0.7400  0.3314
 1481SOL    HW115905   1.022   1.720   3.954  1.5843 -0.6152  0.6288
 1481SOL    HW215906   1.067   1.655   4.073  0.1871  0.5696  0.0765
 1482SOL     OW15907   1.509   1.555   6.025  0.3013 -0.3322  0.5433
 1482SOL    HW115908   1.553   1.476   5.992 -1.4062 -1.5857  1.2864
 1482SOL    HW215909   1.547   1.619   5.965 -1.6558  0.4717  0.1491
 1483SOL     OW15910   3.670   4.518   0.145 -0.1810 -0.2459 -0.6449
 1483SOL    HW115911   3.592   4.462   0.148 -1.5141  1.5211 -1.7138
 1483SOL    HW215912   3.637   4.603   0.115  0.6226 -0.0566 -0.9962
 1484SOL     OW15913   0.275   1.347   5.285  0.1406  0.4537 -0.3176
 1484SOL    HW115914   0.286   1.316   5.195 -2.4009  2.1595 -1.2138
 1484SOL    HW215915   0.337   1.420   5.295 -1.4454  1.6425  0.7740
 1485SOL     OW15916   2.431   2.829   4.357  0.4267 -0.0442 -0.1574
 1485SOL    HW115917   2.373   2.758   4.384  0.0304  1.3478  2.6018
 1485SOL    HW215918   2.414   2.890   4.429  0.0435  1.2821 -1.3805
 1486SOL     OW15919   3.936   3.671   2.215  0.1031  0.3426  0.3487
 1486SOL    HW115920   3.866   3.618   2.176  0.9211 -3.1281  3.6009
 1486SOL    HW215921   3.961   3.618   2.291  1.4041  0.4598  0.0146
 1487SOL     OW15922   3.762   2.220  13.549  0.1267 -0.2153 -0.3276
 1487SOL    HW115923   3.708   2.147  13.577  1.5752 -1.0604  0.2414
 1487SOL    HW215924   3.813   2.225  13.630  1.0912 -0.9802 -0.9025
 1488SOL     OW15925   1.324   2.576   3.568 -0.4873 -0.8120 -0.3182
 1488SOL    HW115926   1.356   2.661   3.600  1.6026 -2.0775  0.9610
 1488SOL    HW215927   1.243   2.606   3.527  0.0155 -0.1208 -0.8108
 1489SOL     OW15928   1.954   1.329  11.616  0.5136 -0.1495 -0.4977
 1489SOL    HW115929   1.996   1.291  11.539  0.5124  0.6203 -0.8661
 1489SOL    HW215930   1.875   1.276  11.627 -0.6230  1.8526  1.0032
 1490SOL     OW15931   2.446   3.311   3.598  0.1189  0.5874  0.6147
 1490SOL    HW115932   2.451   3.403   3.571 -0.2193  0.0242 -1.3865
 1490SOL    HW215933   2.357   3.293   3.568  1.0515 -0.8391 -1.3615
 1491SOL     OW15934   0.219   1.594   7.512  0.5119  0.8729  0.3445
 1491SOL    HW115935   0.154   1.530   7.540  0.9984  0.7242  1.1349
 1491SOL    HW215936   0.169   1.675   7.506 -0.5543  0.2554  0.9656
 1492SOL     OW15937   3.371   2.749  12.904 -0.3086 -0.0608 -0.0142
 1492SOL    HW115938   3.361   2.677  12.966  0.3646 -0.1105  0.0364
 1492SOL    HW215939   3.388   2.823  12.962  0.4540  0.2135 -0.5958
 1493SOL     OW15940   0.678   0.124   8.539  0.6399 -0.2028 -0.0180
 1493SOL    HW115941   0.632   0.206   8.558  0.2737 -0.9748  2.4305
 1493SOL    HW215942   0.770   0.146   8.528  0.4384  0.5061 -0.2754
 1494SOL     OW15943   4.168   0.908   7.467 -0.0087  0.0485 -0.4629
 1494SOL    HW115944   4.201   0.840   7.527  0.7992  0.9902  0.1519
 1494SOL    HW215945   4.172   0.981   7.529 -4.1895 -0.7508  0.7575
 1495SOL     OW15946   4.269   1.949  15.467 -0.3821 -0.2478 -0.0728
 1495SOL    HW115947   4.314   1.887  15.410 -1.4749 -0.9757 -0.1639
 1495SOL    HW215948   4.179   1.917  15.469  0.2917 -2.2768 -3.1489
 1496SOL     OW15949   3.399   0.121   8.295  0.1985 -0.3760 -0.3381
 1496SOL    HW115950   3.459   0.060   8.252 -0.2579 -0.0159 -1.4871
 1496SOL    HW215951   3.339   0.062   8.341  0.3519  1.7561  2.6116
 1497SOL     OW15952   2.932   2.611   6.696 -0.0898 -0.2964 -0.2667
 1497SOL    HW115953   2.945   2.703   6.676  0.4339 -0.5855 -1.2513
 1497SOL    HW215954   2.862   2.611   6.761  0.3486  1.8261  0.1886
 1498SOL     OW15955   4.610   3.361   7.096 -0.5113 -0.4428 -0.3700
 1498SOL    HW115956   4.642   3.338   7.183 -0.2977  0.1609 -0.2901
 1498SOL    HW215957   4.691   3.395   7.057 -0.5418  1.1944  1.0266
 1499SOL     OW15958   1.802   1.425   2.630 -0.0117  0.1130 -0.5083
 1499SOL    HW115959   1.812   1.331   2.615  1.1183  0.2623 -0.7206
 1499SOL    HW215960   1.870   1.442   2.696  0.4822 -0.0873 -0.9635
 1500SOL     OW15961   2.824   0.395   3.626 -0.0089 -0.1147  0.8445
 1500SOL    HW115962   2.730   0.379   3.620 -0.1270  0.8154  0.1280
 1500SOL    HW215963   2.828   0.415   3.532  0.2145 -1.6600  0.5318
 1501SOL     OW15964   0.396   3.467   0.329  0.1716 -0.1245 -0.3850
 1501SOL    HW115965   0.308   3.461   0.293  0.1331  2.2497 -0.7061
 1501SOL    HW215966   0.419   3.540   0.272  1.6344 -1.8509 -1.9801
 1502SOL     OW15967   2.720   0.446   9.053  0.4330 -0.5405 -0.4206
 1502SOL    HW115968   2.625   0.435   9.059  0.4771 -1.4905 -1.5501
 1502SOL    HW215969   2.724   0.499   8.974  1.3226  0.7914  0.5111
 1503SOL     OW15970   1.827   1.679   3.767  0.0621 -0.9021 -0.4998
 1503SOL    HW115971   1.833   1.662   3.861 -0.5774 -2.6634 -0.7804
 1503SOL    HW215972   1.759   1.746   3.762 -1.9101 -3.0091 -2.3546
 1504SOL     OW15973   3.364   1.247   6.180 -0.2206  0.2596 -0.5841
 1504SOL    HW115974   3.365   1.176   6.244  1.3437  1.3059  0.5706
 1504SOL    HW215975   3.323   1.320   6.227 -0.2840  0.1498 -0.4668
 1505SOL     OW15976   4.036   3.162   1.175  0.4389  0.2189  0.7906
 1505SOL    HW115977   3.952   3.116   1.175  1.3217 -1.3825 -0.6753
 1505SOL    HW215978   4.091   3.113   1.114  1.6529  0.2581  1.8693
 1506SOL     OW15979   4.188   2.673   0.614 -0.2123  0.2019  0.2435
 1506SOL    HW115980   4.245   2.749   0.621  1.8352 -1.5410  2.4079
 1506SOL    HW215981   4.204   2.641   0.526  1.0329  0.8952  0.2249
 1507SOL     OW15982   3.823   3.151   5.478 -0.0201  0.1459 -0.4615
 1507SOL    HW115983   3.783   3.161   5.565  1.2778 -0.2323  0.1696
 1507SOL    HW215984   3.799   3.228   5.427 -0.0847  1.4339  1.4894
 1508SOL     OW15985   1.894   1.302   3.021  0.0923  0.1292  0.2486
 1508SOL    HW115986   1.910   1.308   2.927 -0.0104  1.4918  0.3133
 1508SOL    HW215987   1.907   1.207   3.027  1.6468  0.3922  0.9415
 1509SOL     OW15988   3.815   1.874  10.492 -0.4248 -0.3780  0.1966
 1509SOL    HW115989   3.893   1.927  10.475  0.9173 -1.4827  2.8318
 1509SOL    HW215990   3.781   1.929  10.563 -2.0155  1.6674 -2.1348
 1510SOL     OW15991   2.306   0.977   4.245 -0.1943 -0.4600  0.6480
 1510SOL    HW115992   2.371   0.919   4.203 -2.6284 -1.1124 -2.2541
 1510SOL    HW215993   2.273   1.016   4.164  2.4684  0.6455  0.1040
 1511SOL     OW15994   0.934   2.528   7.185  0.7817 -0.2192  0.2389
 1511SOL    HW115995   0.942   2.501   7.276  1.3129 -3.5476 -0.7818
 1511SOL    HW215996   0.925   2.440   7.147  0.5301  1.0761 -2.6806
 1512SOL     OW15997   0.097   3.261   3.399 -0.4729 -0.1227  0.1532
 1512SOL    HW115998   0.068   3.235   3.311  1.0654  1.1500 -0.7463
 1512SOL    HW215999   0.182   3.300   3.376 -0.2924 -1.3961 -1.4175
 1513SOL     OW16000   4.596   2.344  10.543 -0.0790 -0.4393  0.1662
 1513SOL    HW116001   4.669   2.284  10.557 -2.6003 -2.3720  5.1397
 1513SOL    HW216002   4.525   2.292  10.504  1.2943 -1.3798 -1.0643
 1514SOL     OW16003   3.096   4.306  11.011 -0.1686 -0.5867  0.1133
 1514SOL    HW116004   3.131   4.220  10.990 -1.1469 -0.9996  0.1863
 1514SOL    HW216005   3.005   4.296  10.984 -0.1570 -0.6294  0.0905
 1515SOL     OW16006   1.475   3.057   1.982 -0.7406  0.1837 -0.7290
 1515SOL    HW116007   1.468   3.146   1.947 -0.8821  0.6136  0.3917
 1515SOL    HW216008   1.387   3.024   1.966 -0.6478 -0.9875  1.0773
 1516SOL     OW16009   3.952   4.449  10.620  0.0447 -0.4160  0.2942
 1516SOL    HW116010   4.006   4.439  10.542  0.5245  1.6669  0.3427
 1516SOL    HW216011   3.942   4.544  10.625 -3.0837 -0.7392  0.1859
 1517SOL     OW16012   4.320   2.731   7.559 -0.0178  0.2645 -0.2484
 1517SOL    HW116013   4.359   2.772   7.482 -2.1639 -1.4537 -2.2551
 1517SOL    HW216014   4.377   2.655   7.570 -2.5731 -1.8431 -1.5744
 1518SOL     OW16015   4.496   0.971   8.255  0.2095  0.2911 -0.1855
 1518SOL    HW116016   4.410   0.977   8.296  0.1503  0.2379 -0.2991
 1518SOL    HW216017   4.468   0.951   8.165 -3.0233 -0.4689  0.9941
 1519SOL     OW16018   3.882   1.152   6.735 -0.8204  0.0031  0.0756
 1519SOL    HW116019   3.921   1.153   6.822  1.5317  0.3111 -0.9699
 1519SOL    HW216020   3.787   1.160   6.746 -0.9390  0.0812 -1.0487
 1520SOL     OW16021   2.260   3.478   4.300  0.6341  0.4756 -0.5655
 1520SOL    HW116022   2.355   3.478   4.315  0.1726  1.7012  2.4077
 1520SOL    HW216023   2.223   3.477   4.388 -1.1637  0.8438 -1.3330
 1521SOL     OW16024   2.158   0.292   0.730 -0.1274 -0.5532 -0.2581
 1521SOL    HW116025   2.127   0.257   0.647 -0.1306  2.8026 -1.6807
 1521SOL    HW216026   2.086   0.268   0.789  1.6976 -1.8183  1.4527
 1522SOL     OW16027   2.822   0.310   8.195  0.0729 -0.5880  0.5993
 1522SOL    HW116028   2.779   0.361   8.126  0.2188 -0.1237  0.8491
 1522SOL    HW216029   2.877   0.249   8.148 -0.8587 -1.0321  0.0841
 1523SOL     OW16030   3.793   2.359  14.598  0.2366 -0.0115  0.0916
 1523SOL    HW116031   3.856   2.428  14.621 -0.4422  0.5375  0.2747
 1523SOL    HW216032   3.789   2.365  14.502 -0.0417  0.6728  0.1503
 1524SOL     OW16033   2.623   4.361  15.210 -0.0239  0.6634  0.2039
 1524SOL    HW116034   2.678   4.375  15.287 -0.3162  1.0122  0.3507
 1524SOL    HW216035   2.638   4.442  15.162  1.6759 -0.8941 -1.8793
 1525SOL     OW16036   1.733   3.994  11.115  0.3981  0.5920  0.1107
 1525SOL    HW116037   1.787   4.011  11.192  1.2077 -1.4492  0.0029
 1525SOL    HW216038   1.759   4.066  11.059 -0.5227  0.4800 -0.4684
 1526SOL     OW16039   1.501   0.304   2.129 -0.1711  0.0095 -0.1796
 1526SOL    HW116040   1.582   0.349   2.153 -0.0022 -0.1435 -0.4710
 1526SOL    HW216041   1.452   0.284   2.209  2.4284 -2.8048  0.7025
 1527SOL     OW16042   3.430   2.327   4.416 -0.3876 -0.3561 -0.3073
 1527SOL    HW116043   3.370   2.383   4.465  1.5293  1.5249 -0.1154
 1527SOL    HW216044   3.483   2.393   4.372 -0.3971  0.1100  0.3870
 1528SOL     OW16045   2.893   4.167   6.569  0.6330 -0.1468 -0.0112
 1528SOL    HW116046   2.968   4.226   6.578  1.2612 -0.6612 -1.9391
 1528SOL    HW216047   2.828   4.195   6.633 -1.0507  1.0748 -2.2762
 1529SOL     OW16048   3.530   2.456   5.674  0.5137  0.4881 -0.0105
 1529SOL    HW116049   3.599   2.476   5.610  0.9371 -0.2392  0.2296
 1529SOL    HW216050   3.458   2.425   5.618  0.8285  2.6400 -1.6174
 1530SOL     OW16051   1.789   1.747   4.395 -0.0623  0.1193  0.0462
 1530SOL    HW116052   1.798   1.665   4.445 -0.5593  1.0263  1.6246
 1530SOL    HW216053   1.828   1.722   4.311  2.1127 -2.6327  1.9015
 1531SOL     OW16054   4.048   3.463   4.661 -0.3318  0.2372  0.9351
 1531SOL    HW116055   4.068   3.551   4.692 -0.1884  0.3415  0.5512
 1531SOL    HW216056   4.108   3.460   4.587  0.6964 -0.3318  1.8020
 1532SOL     OW16057   3.261   2.401  11.344  0.6267  0.3585 -0.2992
 1532SOL    HW116058   3.213   2.366  11.419  0.4413 -1.2817 -1.1943
 1532SOL    HW216059   3.192   2.421  11.280 -0.8043 -0.6311  0.9414
 1533SOL     OW16060   3.712   3.376   2.364  0.4446 -0.0791 -0.1926
 1533SOL    HW116061   3.789   3.428   2.389 -0.6714  1.2892  0.3752
 1533SOL    HW216062   3.701   3.423   2.282  1.0256  1.6103  0.6877
 1534SOL     OW16063   4.079   3.398  13.628  1.2506 -0.0611  0.6022
 1534SOL    HW116064   4.149   3.439  13.678  2.5748  0.9376 -2.0393
 1534SOL    HW216065   3.994   3.419  13.668  0.1580 -1.5428 -0.9293
 1535SOL     OW16066   4.005   1.307  17.458 -0.2293 -0.1997 -0.0474
 1535SOL    HW116067   3.995   1.212  17.455 -0.0062 -0.1670 -1.8316
 1535SOL    HW216068   4.038   1.322  17.369 -0.1808  0.4986  0.0842
 1536SOL     OW16069   1.846   4.308   7.979 -0.1028 -0.0301 -0.1124
 1536SOL    HW116070   1.820   4.358   8.055  3.0488 -1.2322  1.7623
 1536SOL    HW216071   1.912   4.371   7.951  0.0024 -0.1260 -0.0792
 1537SOL     OW16072   1.586   4.086   3.933 -0.0577 -0.6901 -0.0824
 1537SOL    HW116073   1.656   4.028   3.963  0.9738  0.7336  0.2693
 1537SOL    HW216074   1.534   4.024   3.883 -1.3414 -0.4419  0.9395
 1538SOL     OW16075   0.653   0.066   9.518 -0.3439  0.1917 -0.2050
 1538SOL    HW116076   0.581   0.038   9.461 -0.6828 -0.2569  0.4417
 1538SOL    HW216077   0.702   4.702   9.529 -2.1404 -0.7591  0.6551
 1539SOL     OW16078   0.502   2.272   5.330  0.2517 -0.6662 -0.1098
 1539SOL    HW116079   0.459   2.187   5.335 -1.7085  0.2652 -1.3306
 1539SOL    HW216080   0.444   2.316   5.269  0.1311 -1.7459 -0.7645
 1540SOL     OW16081   4.442   0.187   6.179 -0.0117 -0.3670 -0.5309
 1540SOL    HW116082   4.512   0.126   6.202 -0.3189  0.1666  1.7873
 1540SOL    HW216083   4.425   0.219   6.267  2.4165 -1.1877  0.2226
 1541SOL     OW16084   2.043   1.330   1.265 -0.2739  0.5539  0.6130
 1541SOL    HW116085   2.003   1.279   1.194  0.7226 -0.5555  0.8396
 1541SOL    HW216086   2.127   1.286   1.278  0.2152  1.6643  1.1829
 1542SOL     OW16087   3.257   3.253  15.035 -0.2896 -0.1969 -0.4253
 1542SOL    HW116088   3.212   3.314  15.094 -1.6595  1.5248 -3.2516
 1542SOL    HW216089   3.195   3.182  15.023  0.2155 -0.3364 -2.1619
 1543SOL     OW16090   2.229   4.184   8.041 -0.3930  0.1109 -0.1074
 1543SOL    HW116091   2.144   4.140   8.044 -0.4944  0.3449  0.5325
 1543SOL    HW216092   2.251   4.172   7.949 -3.3652 -0.1832 -0.7861
 1544SOL     OW16093   2.301   1.648   0.850  0.6328  0.0308 -0.5423
 1544SOL    HW116094   2.343   1.574   0.894  2.1884  1.1208 -0.2005
 1544SOL    HW216095   2.311   1.724   0.906  0.3487  1.0881 -1.9266
 1545SOL     OW16096   1.033   3.084   0.648 -0.1600  0.4689  0.1879
 1545SOL    HW116097   0.988   3.134   0.579 -2.1009 -1.7895 -0.1835
 1545SOL    HW216098   1.121   3.120   0.640 -0.7809  1.9106 -0.2329
 1546SOL     OW16099   4.022   3.597  13.980  0.1109  0.2840  0.2353
 1546SOL    HW116100   4.041   3.671  14.038 -1.1995  1.1241 -0.4045
 1546SOL    HW216101   3.947   3.624  13.927  2.4109  0.8309 -2.7419
 1547SOL     OW16102   0.357   4.134  10.885  0.1075  0.3386 -0.5675
 1547SOL    HW116103   0.281   4.181  10.919  0.0046  0.9801 -1.6798
 1547SOL    HW216104   0.405   4.213  10.864  0.2119  0.1345 -1.1105
 1548SOL     OW16105   4.114   0.860   7.011  0.4182  0.5631  0.0723
 1548SOL    HW116106   4.065   0.792   7.058  0.5666  1.3979  1.4687
 1548SOL    HW216107   4.182   0.874   7.077  0.3632 -0.2791  0.3010
 1549SOL     OW16108   1.943   0.794   4.213 -0.2472 -0.1160  0.4700
 1549SOL    HW116109   1.901   0.834   4.137  0.7506 -1.7106 -0.9327
 1549SOL    HW216110   2.029   0.768   4.178 -0.6625  0.7334 -1.1620
 1550SOL     OW16111   4.124   2.774   4.676  0.4132 -0.3400  1.0103
 1550SOL    HW116112   4.197   2.790   4.615  0.5149 -0.3999  1.1166
 1550SOL    HW216113   4.172   2.731   4.747 -0.5800 -0.5955  1.5278
 1551SOL     OW16114   1.360   3.642   5.857 -0.3050  0.3450  0.2098
 1551SOL    HW116115   1.270   3.648   5.825  0.4091 -1.6093 -2.1233
 1551SOL    HW216116   1.389   3.565   5.808 -0.1579 -0.2650  1.2465
 1552SOL     OW16117   0.509   0.201   7.882 -0.0916 -0.3793 -0.2733
 1552SOL    HW116118   0.550   0.120   7.852  1.4968  0.3756 -0.1297
 1552SOL    HW216119   0.421   0.182   7.915  0.1900  0.6909  1.0931
 1553SOL     OW16120   4.636   3.825   4.178  0.1606 -0.0049  0.2115
 1553SOL    HW116121   0.006   3.851   4.153  1.0050 -1.4432  1.6776
 1553SOL    HW216122   4.594   3.877   4.110 -0.6526 -0.9841 -0.0326
 1554SOL     OW16123   4.359   2.156  10.188  0.0631 -0.5232  0.1933
 1554SOL    HW116124   4.303   2.161  10.266 -1.7349 -3.5724 -0.9342
 1554SOL    HW216125   4.406   2.239  10.203  1.2328 -0.9593 -1.0598
 1555SOL     OW16126   4.239   4.676   4.581 -0.0936 -0.5029  0.4619
 1555SOL    HW116127   4.187   0.027   4.540  2.9150  0.2781 -2.0170
 1555SOL    HW216128   4.251   4.601   4.522  0.1155  0.7341 -1.0523
 1556SOL     OW16129   3.578   2.687   2.295  0.0575  0.0968  0.0975
 1556SOL    HW116130   3.639   2.624   2.332  1.2262  0.6547 -0.8711
 1556SOL    HW216131   3.593   2.677   2.201 -0.2564  2.5383 -0.2145
 1557SOL     OW16132   0.095   4.293   1.018 -0.5823 -0.3521 -0.0391
 1557SOL    HW116133   0.071   4.361   1.081  0.4564  1.1308 -1.2218
 1557SOL    HW216134   0.177   4.261   1.056 -0.4901 -1.1153 -0.8749
 1558SOL     OW16135   2.976   4.021   3.228 -0.2517 -0.1446  0.0238
 1558SOL    HW116136   2.916   3.980   3.290 -0.7387  1.1594  0.3972
 1558SOL    HW216137   2.924   4.016   3.148  0.3817 -0.3051 -0.3849
 1559SOL     OW16138   0.357   4.452   8.293 -0.0372 -0.1722  0.4185
 1559SOL    HW116139   0.357   4.490   8.381  1.3416 -2.5567  1.4658
 1559SOL    HW216140   0.370   4.532   8.242 -2.5453 -0.8225 -1.2347
 1560SOL     OW16141   4.054   3.089   6.543  0.8993 -0.5069 -0.0276
 1560SOL    HW116142   3.970   3.132   6.558  0.7377 -1.6564  2.4411
 1560SOL    HW216143   4.105   3.132   6.612 -1.4547  1.4676  0.4546
 1561SOL     OW16144   3.023   3.986  17.071 -0.2668  0.2825  0.1241
 1561SOL    HW116145   3.023   4.058  17.007 -2.1587 -0.2024 -0.3968
 1561SOL    HW216146   3.098   4.004  17.128 -0.8485  1.3058  0.5740
 1562SOL     OW16147   2.010   3.062   3.055 -0.6948 -0.1443 -0.2361
 1562SOL    HW116148   1.977   3.087   3.141  0.2890 -2.3123  0.7570
 1562SOL    HW216149   1.968   3.130   3.002 -0.0519 -0.0440 -0.6175
 1563SOL     OW16150   4.107   3.090   4.246 -0.4489 -0.2021 -0.1515
 1563SOL    HW116151   4.079   3.174   4.210  1.6210  0.2525 -0.7229
 1563SOL    HW216152   4.082   3.096   4.338 -0.5844 -0.2388 -0.1859
 1564SOL     OW16153   3.047   4.071   1.750 -0.2073 -0.1215  0.2063
 1564SOL    HW116154   3.078   4.154   1.715 -2.4309  0.0393 -1.3967
 1564SOL    HW216155   2.964   4.099   1.789  0.9208  1.6330  1.3146
 1565SOL     OW16156   2.842   0.657  13.624 -0.2572  0.1237  0.5802
 1565SOL    HW116157   2.788   0.664  13.703 -2.5527 -0.9620 -0.9185
 1565SOL    HW216158   2.870   0.567  13.641  0.7283  0.4854  0.8919
 1566SOL     OW16159   4.370   0.954   0.396  0.1870 -0.5758  0.2140
 1566SOL    HW116160   4.366   1.045   0.423  1.9871 -1.4885  3.5343
 1566SOL    HW216161   4.277   0.936   0.411  0.8355 -2.3724  2.0749
 1567SOL     OW16162   0.909   0.239   7.341  0.0013 -0.0454 -0.3388
 1567SOL    HW116163   0.851   0.309   7.310 -0.6526 -1.7013 -2.7957
 1567SOL    HW216164   0.988   0.285   7.369  0.7379 -1.4734 -0.1001
 1568SOL     OW16165   0.312   2.477   9.061 -0.2929 -0.0126  0.0640
 1568SOL    HW116166   0.287   2.404   9.117 -1.2503  0.0547 -0.2823
 1568SOL    HW216167   0.396   2.507   9.097  0.8405 -0.9749 -1.7332
 1569SOL     OW16168   0.470   2.139   2.188 -0.2924 -0.0023 -0.3792
 1569SOL    HW116169   0.422   2.127   2.270  0.5280  0.6872  0.2114
 1569SOL    HW216170   0.540   2.075   2.199 -0.9543 -0.8028 -0.8830
 1570SOL     OW16171   3.547   3.277   1.711  0.2118  0.8717 -0.0224
 1570SOL    HW116172   3.584   3.350   1.661  1.1097 -0.5546 -1.4471
 1570SOL    HW216173   3.504   3.224   1.645 -1.2189  0.9456  0.8566
 1571SOL     OW16174   2.403   4.102   3.286 -0.4822 -0.9605 -0.1335
 1571SOL    HW116175   2.450   4.122   3.367  1.8456  0.0055 -1.7373
 1571SOL    HW216176   2.313   4.113   3.315 -1.1786  1.3028 -3.1046
 1572SOL     OW16177   2.706   3.410  17.046 -0.8492 -0.2414 -0.1712
 1572SOL    HW116178   2.715   3.332  16.991 -0.1279 -0.2673 -0.0220
 1572SOL    HW216179   2.622   3.390  17.088 -0.7837  0.9789  0.5267
 1573SOL     OW16180   0.481   1.396   7.218  0.2675 -0.1885 -0.4750
 1573SOL    HW116181   0.574   1.384   7.239 -0.1940  0.1368  1.6733
 1573SOL    HW216182   0.448   1.308   7.203  3.0739 -0.9117 -2.3963
 1574SOL     OW16183   0.846   3.120   4.031  0.3659 -0.0779 -0.5263
 1574SOL    HW116184   0.899   3.121   3.951 -1.5474  0.9550 -1.7908
 1574SOL    HW216185   0.890   3.194   4.073  0.5984 -0.6691  0.2557
 1575SOL     OW16186   2.660   1.463   3.301 -0.8356 -0.0585  0.6366
 1575SOL    HW116187   2.703   1.533   3.251 -0.5249 -1.8276 -1.5540
 1575SOL    HW216188   2.725   1.400   3.332 -1.2624 -0.5186  0.5939
 1576SOL     OW16189   2.169   1.309   8.281 -0.0633  0.4900  0.4587
 1576SOL    HW116190   2.104   1.378   8.269 -0.5354 -0.7250 -3.9291
 1576SOL    HW216191   2.146   1.259   8.203 -0.2330  0.5769  0.4538
 1577SOL     OW16192   3.713   1.380   3.597 -0.2381  0.1727  0.3913
 1577SOL    HW116193   3.619   1.393   3.596 -0.4035 -1.0651 -0.6404
 1577SOL    HW216194   3.703   1.291   3.632 -2.7483  0.1250 -0.4499
 1578SOL     OW16195   1.051   4.482   1.197  0.2104  0.5069  0.2920
 1578SOL    HW116196   1.087   4.455   1.281  0.7695  4.1351  1.1995
 1578SOL    HW216197   1.077   4.410   1.140 -3.0701 -1.0916  0.7853
 1579SOL     OW16198   4.018   1.402   2.604  0.2426  0.1208  0.5169
 1579SOL    HW116199   4.104   1.434   2.632  0.6762 -0.2604 -0.3585
 1579SOL    HW216200   4.036   1.308   2.608 -0.9657 -0.1392 -0.2704
 1580SOL     OW16201   0.338   2.650   6.892 -0.1703  0.3629 -0.3996
 1580SOL    HW116202   0.264   2.630   6.949 -1.3295  0.3568 -1.9043
 1580SOL    HW216203   0.313   2.619   6.804  1.7919 -1.3343 -0.3641
 1581SOL     OW16204   2.632   3.521   0.255  0.8703 -0.1747 -0.2468
 1581SOL    HW116205   2.631   3.447   0.195  1.8546  0.2037 -0.7343
 1581SOL    HW216206   2.582   3.486   0.329 -1.2838 -0.2510 -1.7534
 1582SOL     OW16207   3.188   2.152  10.682 -0.1870  0.5740  0.0881
 1582SOL    HW116208   3.178   2.220  10.616 -0.0983  0.4619 -0.0397
 1582SOL    HW216209   3.183   2.071  10.630 -2.6867  1.1084 -0.5246
 1583SOL     OW16210   2.790   0.704   5.785  0.4143 -0.3070  0.0129
 1583SOL    HW116211   2.812   0.692   5.693 -1.8877 -1.7357 -0.3406
 1583SOL    HW216212   2.877   0.726   5.820 -0.0910  1.3985  0.1846
 1584SOL     OW16213   2.646   2.709   1.535 -0.4374 -0.4398  0.0661
 1584SOL    HW116214   2.590   2.764   1.589  1.4057  1.5675 -0.0977
 1584SOL    HW216215   2.690   2.663   1.607  0.7237  1.8517  0.8157
 1585SOL     OW16216   2.053   0.912   5.607 -0.3510  0.3519  0.2894
 1585SOL    HW116217   2.118   0.923   5.676 -1.3898  2.1265  0.9912
 1585SOL    HW216218   2.074   0.825   5.574  0.6032  0.7919 -0.2712
 1586SOL     OW16219   3.121   3.398   6.411 -0.0875 -0.5214  0.1478
 1586SOL    HW116220   3.188   3.389   6.480  0.7286  1.0800 -0.4310
 1586SOL    HW216221   3.140   3.487   6.381  0.5377 -1.2803 -1.6545
 1587SOL     OW16222   1.827   4.516   9.304 -1.2834 -0.1261  0.0877
 1587SOL    HW116223   1.766   4.572   9.352 -0.2370  0.3359  0.8939
 1587SOL    HW216224   1.822   4.434   9.354  1.1245  1.5412  3.1233
 1588SOL     OW16225   3.196   0.194   6.061 -0.5623 -0.1866  0.3860
 1588SOL    HW116226   3.145   0.272   6.081 -1.3658 -0.7894  0.6986
 1588SOL    HW216227   3.281   0.235   6.076  0.0467 -0.7772 -1.4688
 1589SOL     OW16228   2.104   2.368   6.204 -0.3225 -0.0353 -0.6010
 1589SOL    HW116229   2.131   2.283   6.240  1.2856  0.8198  0.2303
 1589SOL    HW216230   2.034   2.400   6.261 -0.3441  0.3523 -0.8434
 1590SOL     OW16231   1.345   0.568   2.832 -0.0004  0.0559  0.8646
 1590SOL    HW116232   1.266   0.546   2.783  0.5570 -2.0530  0.9043
 1590SOL    HW216233   1.329   0.520   2.914 -2.8739  1.2654  1.0114
 1591SOL     OW16234   2.907   2.776   7.125 -0.1838  0.2347  0.1882
 1591SOL    HW116235   2.906   2.818   7.211  0.6738  1.4986 -0.4175
 1591SOL    HW216236   2.818   2.782   7.088 -0.5644  3.2762  1.6270
 1592SOL     OW16237   0.402   0.078   7.056  0.9991 -0.4020  0.4513
 1592SOL    HW116238   0.434   0.161   7.090  2.2283 -0.9162  0.5785
 1592SOL    HW216239   0.403   0.020   7.132 -0.6841 -0.5704  0.3305
 1593SOL     OW16240   4.294   0.232  10.420 -0.6946  0.3957 -0.1007
 1593SOL    HW116241   4.207   0.268  10.402 -0.3293  0.5224 -1.5948
 1593SOL    HW216242   4.279   0.138  10.421 -0.9799  0.4502  0.9774
 1594SOL     OW16243   0.902   2.145  11.814 -0.2491  0.2360  0.4013
 1594SOL    HW116244   0.937   2.056  11.820  0.5723  0.4059 -1.8091
 1594SOL    HW216245   0.950   2.169  11.734  0.4729  0.2065  0.8263
 1595SOL     OW16246   2.864   2.413   9.267  0.4035  0.6541  0.2068
 1595SOL    HW116247   2.905   2.495   9.296  0.0949  0.3562  1.5070
 1595SOL    HW216248   2.931   2.348   9.289  0.0526  0.2424  0.0617
 1596SOL     OW16249   0.293   3.188   7.099  0.5961 -0.2026  0.1068
 1596SOL    HW116250   0.345   3.221   7.173 -1.1142  2.9676 -0.1095
 1596SOL    HW216251   0.323   3.242   7.026  3.1506 -1.0358  0.5232
 1597SOL     OW16252   2.840   1.123  13.770  0.3087  0.0926  0.4610
 1597SOL    HW116253   2.854   1.144  13.862  2.3440  0.7231 -0.0016
 1597SOL    HW216254   2.768   1.059  13.767  1.1197 -0.7748 -0.4937
 1598SOL     OW16255   4.165   1.212  11.834 -0.4204  0.7406  0.1692
 1598SOL    HW116256   4.222   1.235  11.908 -0.2488  2.0576 -0.3742
 1598SOL    HW216257   4.120   1.143  11.882 -1.2057  0.9519 -0.2770
 1599SOL     OW16258   3.403   1.674  15.821 -0.5646 -0.1921  0.5303
 1599SOL    HW116259   3.375   1.704  15.907  0.3758 -0.5121  0.9555
 1599SOL    HW216260   3.342   1.720  15.763 -0.3597 -1.0013 -0.3326
 1600SOL     OW16261   3.257   1.587   3.150  0.7231  0.4627  0.8393
 1600SOL    HW116262   3.204   1.665   3.167 -0.3205  0.2158 -1.2688
 1600SOL    HW216263   3.209   1.517   3.194  1.3533 -0.8802 -0.6489
 1601SOL     OW16264   0.484   3.997   7.194  0.4703  0.1554 -0.3396
 1601SOL    HW116265   0.459   4.037   7.110  2.1930  0.8871 -0.5106
 1601SOL    HW216266   0.525   3.918   7.157  1.1537 -0.7099  2.2918
 1602SOL     OW16267   0.208   4.315   2.306  0.4209 -0.4779 -0.1237
 1602SOL    HW116268   0.212   4.404   2.270 -0.0176 -0.7416 -0.8298
 1602SOL    HW216269   0.217   4.331   2.400 -1.4929  1.2945 -0.2243
 1603SOL     OW16270   1.299   1.005   3.204 -0.4533  0.2858 -0.5316
 1603SOL    HW116271   1.249   0.964   3.133 -0.5640 -0.3389 -0.0906
 1603SOL    HW216272   1.239   1.072   3.238  0.0863  1.2216 -1.3965
 1604SOL     OW16273   4.402   2.845   7.296  0.1332  0.8042 -0.3303
 1604SOL    HW116274   4.476   2.895   7.331  2.4404 -2.2853 -0.7884
 1604SOL    HW216275   4.427   2.785   7.226 -0.0907  1.5809 -1.0645
 1605SOL     OW16276   2.720   0.536  12.411 -0.8175 -0.0179  0.0196
 1605SOL    HW116277   2.803   0.567  12.376 -1.1880 -1.5701 -2.2263
 1605SOL    HW216278   2.719   0.571  12.500 -0.8897  0.4768 -0.1755
 1606SOL     OW16279   1.573   2.644   7.246 -0.0934  0.2989  0.7519
 1606SOL    HW116280   1.549   2.591   7.170 -0.2105 -0.1271  1.0780
 1606SOL    HW216281   1.494   2.682   7.284 -0.2224  0.6183  0.1579
 1607SOL     OW16282   4.171   3.327   1.619  0.1564 -0.2051  0.4241
 1607SOL    HW116283   4.120   3.329   1.538 -0.0257 -1.4837  0.5080
 1607SOL    HW216284   4.251   3.377   1.598 -0.4753  1.4743  1.9972
 1608SOL     OW16285   2.696   3.923   8.074  0.0377 -0.6210  0.0564
 1608SOL    HW116286   2.626   3.957   8.018  1.2636 -1.3649 -1.9572
 1608SOL    HW216287   2.728   3.859   8.010 -1.4788  0.3809 -1.6965
 1609SOL     OW16288   1.948   0.017  16.157 -0.3517 -0.4301  0.5861
 1609SOL    HW116289   1.946   0.032  16.063  0.0528  0.8418  0.7723
 1609SOL    HW216290   1.956   0.106  16.191 -2.2807 -1.1649  2.9676
 1610SOL     OW16291   0.753   1.987   9.468  0.3113 -0.4338  0.3914
 1610SOL    HW116292   0.825   1.986   9.532 -0.5788  0.0784  1.3877
 1610SOL    HW216293   0.707   1.905   9.482 -0.9638  0.3620  0.8028
 1611SOL     OW16294   2.283   3.961   9.699  0.6511  0.4102 -0.5931
 1611SOL    HW116295   2.239   3.903   9.637 -1.5264  0.8009  0.6116
 1611SOL    HW216296   2.248   3.930   9.782  3.8759 -0.0084  0.6061
 1612SOL     OW16297   4.125   4.541   8.603  0.0982 -0.3178  0.2209
 1612SOL    HW116298   4.100   4.538   8.695  1.0261  1.3389  0.5179
 1612SOL    HW216299   4.041   4.545   8.557 -0.0680  0.3026  0.5857
 1613SOL     OW16300   0.294   1.930   8.414  0.4305 -0.4493  0.1438
 1613SOL    HW116301   0.346   1.853   8.392  0.7149 -0.3017  0.2890
 1613SOL    HW216302   0.261   1.956   8.328  0.5003  1.8508  0.7983
 1614SOL     OW16303   4.174   1.363  16.223  0.1780  0.0287 -0.4680
 1614SOL    HW116304   4.087   1.383  16.189 -0.2972 -0.3655  0.4872
 1614SOL    HW216305   4.150   1.327  16.309  1.8400 -0.6308 -0.2758
 1615SOL     OW16306   3.404   0.620   7.826  0.0187 -0.8550  0.2313
 1615SOL    HW116307   3.394   0.624   7.731 -1.7607 -1.5100  0.3936
 1615SOL    HW216308   3.314   0.607   7.858  0.3432  1.6623  2.1689
 1616SOL     OW16309   4.675   0.079   8.200  0.7656 -0.9273  0.3017
 1616SOL    HW116310   0.004   0.021   8.260 -0.9319 -2.7405 -0.1171
 1616SOL    HW216311   4.596   0.028   8.220  0.4846 -0.6101 -0.0138
 1617SOL     OW16312   1.795   3.945   9.609  0.0085 -0.3758 -0.6313
 1617SOL    HW116313   1.838   4.020   9.569  0.6767 -1.0303 -1.1403
 1617SOL    HW216314   1.705   3.957   9.581  0.6938 -0.9480 -3.0505
 1618SOL     OW16315   0.773   1.618   9.768 -0.5452 -0.3051 -0.3444
 1618SOL    HW116316   0.821   1.582   9.843  2.4441  1.2404 -1.5386
 1618SOL    HW216317   0.705   1.668   9.814  0.8120  0.1940  1.0870
 1619SOL     OW16318   0.749   4.632   0.470 -0.0049 -0.1971  0.7923
 1619SOL    HW116319   0.776   4.663   0.557  0.1217  0.5701  0.4854
 1619SOL    HW216320   0.789   4.701   0.417 -1.5782  1.0215  1.1778
 1620SOL     OW16321   1.720   0.600  16.390 -0.3167 -0.1028 -0.1231
 1620SOL    HW116322   1.657   0.639  16.450 -1.1826 -0.8157 -0.5577
 1620SOL    HW216323   1.737   0.519  16.439  0.5971  0.8836  1.1909
 1621SOL     OW16324   3.044   3.181   4.108  0.0772  0.0112 -0.4858
 1621SOL    HW116325   2.982   3.115   4.140 -0.4084  0.9764  0.5756
 1621SOL    HW216326   3.006   3.184   4.021  0.5773  1.9797 -0.6470
 1622SOL     OW16327   3.584   3.843  16.734  0.5318 -0.2828  0.9596
 1622SOL    HW116328   3.646   3.899  16.687 -1.1527  1.3965  0.7857
 1622SOL    HW216329   3.630   3.760  16.720 -0.4741 -1.0315  2.0693
 1623SOL     OW16330   2.472   2.268   2.609 -0.6509 -0.4147 -0.5216
 1623SOL    HW116331   2.432   2.181   2.613 -0.5629 -0.3996  0.7155
 1623SOL    HW216332   2.443   2.284   2.519  1.8999 -0.9108 -1.4453
 1624SOL     OW16333   2.460   1.644   2.133  0.3666  0.1259 -0.1886
 1624SOL    HW116334   2.486   1.644   2.041 -1.6433  0.2104 -0.7552
 1624SOL    HW216335   2.421   1.558   2.147 -1.7943  1.1646  0.3234
 1625SOL     OW16336   4.013   4.586   3.721 -0.3048  0.1836 -0.6160
 1625SOL    HW116337   4.035   4.544   3.804  2.0141 -2.3808 -2.5509
 1625SOL    HW216338   3.987   4.672   3.756  0.7106 -0.2633  1.2472
 1626SOL     OW16339   2.735   2.276   1.787 -0.0847  0.0305  0.1035
 1626SOL    HW116340   2.813   2.238   1.829 -1.1493  0.4488  2.4725
 1626SOL    HW216341   2.674   2.204   1.799 -0.5195  0.2098 -1.0383
 1627SOL     OW16342   3.261   3.169   7.475 -0.6884  0.0126  0.0898
 1627SOL    HW116343   3.191   3.203   7.420 -1.1501  1.6323  1.6984
 1627SOL    HW216344   3.332   3.232   7.467  0.9365 -2.0617 -2.0941
 1628SOL     OW16345   4.475   2.469  14.692 -0.0316  0.2387  0.2705
 1628SOL    HW116346   4.561   2.474  14.651 -0.0810 -1.8651 -0.0847
 1628SOL    HW216347   4.499   2.435  14.778  1.2680  0.7770  0.1200
 1629SOL     OW16348   0.228   0.846   4.810  0.3436 -0.1721  0.1865
 1629SOL    HW116349   0.313   0.888   4.801 -0.3520  0.3726 -3.5134
 1629SOL    HW216350   0.254   0.787   4.881 -1.0229  0.0618  0.8830
 1630SOL     OW16351   2.017   0.627   8.551 -0.0255  0.1706 -0.0753
 1630SOL    HW116352   2.069   0.575   8.611  1.3441  1.9377  0.2858
 1630SOL    HW216353   2.011   0.710   8.599  1.5174  0.4224 -0.3360
 1631SOL     OW16354   0.138   2.292   9.214 -0.4639  0.2786  0.3603
 1631SOL    HW116355   0.084   2.368   9.236 -0.6604  0.3968 -0.5211
 1631SOL    HW216356   0.072   2.231   9.245 -0.4787 -0.5204 -1.2071
 1632SOL     OW16357   3.618   2.020   7.069 -0.0740  0.4665 -0.0388
 1632SOL    HW116358   3.682   1.977   7.125 -0.3994 -0.1113 -0.1101
 1632SOL    HW216359   3.684   2.055   7.009  0.0537 -0.0802 -0.2166
 1633SOL     OW16360   4.192   3.208   8.165  0.0763 -0.0260  0.1630
 1633SOL    HW116361   4.239   3.128   8.188 -0.7241 -0.2364  1.0332
 1633SOL    HW216362   4.252   3.244   8.100  1.0356 -0.2693  0.9234
 1634SOL     OW16363   2.185   3.832   4.438 -0.5939  0.7449 -0.8503
 1634SOL    HW116364   2.249   3.763   4.421 -0.1912  1.2209 -1.2924
 1634SOL    HW216365   2.225   3.885   4.508 -3.3739  0.1405  1.1776
 1635SOL     OW16366   1.836   1.616   0.528  0.3359 -0.1695  0.5966
 1635SOL    HW116367   1.799   1.527   0.526 -1.8642  0.7778 -0.8301
 1635SOL    HW216368   1.817   1.637   0.437  0.7647  0.9068  0.7669
 1636SOL     OW16369   0.166   2.292  15.208  0.1076  0.5209  0.3582
 1636SOL    HW116370   0.228   2.363  15.193 -0.4473  1.5458  2.9030
 1636SOL    HW216371   0.148   2.263  15.119  1.6069 -2.4178  1.0238
 1637SOL     OW16372   4.377   3.309   8.003  0.4872  0.2581 -0.4972
 1637SOL    HW116373   4.388   3.236   7.942 -0.3771  0.4328 -0.8657
 1637SOL    HW216374   4.427   3.377   7.957 -0.2583  0.1952 -1.4104
 1638SOL     OW16375   1.908   2.474   2.894  0.6414  0.4325 -0.2604
 1638SOL    HW116376   1.938   2.384   2.882 -0.8030  0.1130 -1.4887
 1638SOL    HW216377   1.932   2.476   2.987  0.1437  0.5728 -0.1375
 1639SOL     OW16378   3.122   0.372  16.336  0.7391  0.6778 -1.0125
 1639SOL    HW116379   3.105   0.303  16.272 -1.8625  1.0986 -0.7846
 1639SOL    HW216380   3.069   0.353  16.413 -0.4964  0.9313 -1.7935
 1640SOL     OW16381   4.445   1.039   5.175 -0.2632  0.0846 -0.3733
 1640SOL    HW116382   4.403   0.981   5.239 -2.9573  2.4920  0.0291
 1640SOL    HW216383   4.417   1.006   5.089  0.4217 -1.0166 -0.1822
 1641SOL     OW16384   1.238   0.790   3.618 -0.6412 -0.5676  0.0265
 1641SOL    HW116385   1.181   0.866   3.625 -0.2576 -0.2585 -0.2687
 1641SOL    HW216386   1.272   0.802   3.530 -0.2669  0.3482  0.3046
 1642SOL     OW16387   3.494   1.216  15.289 -0.0992  0.5456  0.4214
 1642SOL    HW116388   3.404   1.246  15.299 -0.5859 -1.4643  2.2494
 1642SOL    HW216389   3.525   1.255  15.370  4.0309  1.4453 -1.6000
 1643SOL     OW16390   3.868   0.311   5.342  0.0041 -0.4605 -0.2956
 1643SOL    HW116391   3.918   0.378   5.389  0.6751  0.0191 -1.6627
 1643SOL    HW216392   3.915   0.230   5.362  0.1740 -0.8161 -2.1485
 1644SOL     OW16393   0.795   3.727  17.108  0.7194  0.2850  0.5018
 1644SOL    HW116394   0.782   3.784  17.184  1.2430 -0.1084  0.8925
 1644SOL    HW216395   0.819   3.790  17.040  1.9036  0.6158  1.2278
 1645SOL     OW16396   3.989   0.509   3.014 -0.4045  0.0161 -0.2210
 1645SOL    HW116397   4.050   0.552   2.954 -2.2307 -0.6565 -2.5520
 1645SOL    HW216398   3.905   0.534   2.976 -0.5784  0.4038  0.4147
 1646SOL     OW16399   4.328   2.408   3.303  0.1350  0.5542  0.7668
 1646SOL    HW116400   4.327   2.425   3.209  2.6610  0.4958  0.7311
 1646SOL    HW216401   4.365   2.320   3.299  0.9916  0.9779 -0.4223
 1647SOL     OW16402   4.412   1.508  13.498 -0.0349  0.3420 -0.2051
 1647SOL    HW116403   4.390   1.592  13.457 -0.7062  0.9234  1.3495
 1647SOL    HW216404   4.506   1.501  13.481 -0.1856  0.4649 -1.1025
 1648SOL     OW16405   0.825   1.088   4.324  0.3962  0.1494  0.5449
 1648SOL    HW116406   0.915   1.106   4.296  0.6478 -0.6800  0.8392
 1648SOL    HW216407   0.776   1.138   4.258  1.6908  1.7201  0.7777
 1649SOL     OW16408   0.995   2.447  16.549 -0.1418  0.4402 -0.4117
 1649SOL    HW116409   0.954   2.451  16.636 -2.4169 -1.4614 -1.3863
 1649SOL    HW216410   1.086   2.477  16.547 -0.0095  0.1305  0.7077
 1650SOL     OW16411   2.642   3.906   7.185  0.7036 -0.4833  0.0015
 1650SOL    HW116412   2.721   3.960   7.186  0.1441  0.3693 -2.2501
 1650SOL    HW216413   2.680   3.831   7.140 -0.6765 -1.8815  1.1722
 1651SOL     OW16414   1.639   3.932   2.560 -0.1911 -0.1371  0.6835
 1651SOL    HW116415   1.557   3.894   2.590 -1.5637  1.5445 -0.9739
 1651SOL    HW216416   1.626   3.942   2.466  0.5129  0.4716  0.6447
 1652SOL     OW16417   0.730   4.595   6.277 -0.1107 -0.3342 -0.1534
 1652SOL    HW116418   0.821   4.617   6.256  0.6099 -1.8597  1.3795
 1652SOL    HW216419   0.736   4.568   6.369 -0.0971 -2.2048 -0.7005
 1653SOL     OW16420   0.006   2.256   4.171 -0.2626  0.6699 -0.1242
 1653SOL    HW116421   0.089   2.296   4.198  0.4861 -1.6594  1.0363
 1653SOL    HW216422   4.705   2.305   4.091  0.9730 -1.4932 -1.7560
 1654SOL     OW16423   0.540   2.873   3.968  0.1768 -0.1753  0.0043
 1654SOL    HW116424   0.513   2.821   3.892  0.2716 -0.4110  0.1294
 1654SOL    HW216425   0.513   2.961   3.943  0.4666  0.1863  0.9997
 1655SOL     OW16426   1.763   4.318   2.748 -0.2995 -0.1591  0.0665
 1655SOL    HW116427   1.787   4.242   2.801 -1.0368 -1.7876 -1.9317
 1655SOL    HW216428   1.679   4.302   2.704 -0.7835  3.8280 -0.4508
 1656SOL     OW16429   4.318   3.229  15.009 -0.1197 -0.5326  0.3709
 1656SOL    HW116430   4.272   3.172  15.070 -1.6028 -1.4475 -1.5803
 1656SOL    HW216431   4.256   3.301  15.001 -1.0132 -1.4302 -0.9309
 1657SOL     OW16432   1.248   0.808  14.243 -0.3309 -0.1561 -0.1987
 1657SOL    HW116433   1.176   0.828  14.183  0.8304  0.6204 -1.3236
 1657SOL    HW216434   1.216   0.859  14.318  0.1618 -1.7098  1.0681
 1658SOL     OW16435   2.193   1.790  10.800 -0.1784 -0.3869  0.4491
 1658SOL    HW116436   2.213   1.852  10.730 -1.5071  1.3389  1.6147
 1658SOL    HW216437   2.260   1.722  10.790 -1.7132 -1.7603 -0.4084
 1659SOL     OW16438   1.389   1.025   2.463 -0.6263  0.0373 -0.4530
 1659SOL    HW116439   1.420   0.968   2.533 -1.4447 -1.1622 -1.0666
 1659SOL    HW216440   1.294   1.015   2.471 -0.3493 -1.2951  1.1826
 1660SOL     OW16441   1.379   0.574   6.067  0.3785 -0.5506  0.3659
 1660SOL    HW116442   1.466   0.579   6.108  0.2950  0.7502  0.3745
 1660SOL    HW216443   1.406   0.571   5.976  1.3175 -1.5182  0.6769
 1661SOL     OW16444   0.600   3.157  16.202 -0.1189 -0.8296 -0.0012
 1661SOL    HW116445   0.605   3.066  16.232 -2.5764 -0.6603  0.9088
 1661SOL    HW216446   0.576   3.156  16.110  2.3752 -2.2964 -0.6440
 1662SOL     OW16447   3.919   1.253   5.086 -0.0841 -0.5775 -0.3440
 1662SOL    HW116448   3.949   1.166   5.060  1.3551 -0.0202 -0.5124
 1662SOL    HW216449   3.832   1.231   5.119 -1.8813  2.0548 -3.2285
 1663SOL     OW16450   1.109   3.398   6.480 -0.5313 -0.5180 -1.0767
 1663SOL    HW116451   1.108   3.473   6.420  0.1888 -2.5118 -3.5581
 1663SOL    HW216452   1.198   3.364   6.485 -0.8216 -1.3566 -1.7310
 1664SOL     OW16453   0.079   3.622   1.810  0.0016  0.2492 -0.3376
 1664SOL    HW116454   0.123   3.677   1.745 -3.0705  1.0522 -1.7165
 1664SOL    HW216455   0.148   3.556   1.818  0.5081  1.0501  2.0033
 1665SOL     OW16456   2.467   1.064  14.118 -0.3518 -0.5441 -0.0517
 1665SOL    HW116457   2.444   1.074  14.025  1.5775 -4.1734 -0.9209
 1665SOL    HW216458   2.559   1.089  14.107 -0.4186 -0.3493 -0.1882
 1666SOL     OW16459   4.537   3.902   7.375 -0.2865  0.2262  0.0463
 1666SOL    HW116460   4.526   3.990   7.411 -2.7458  0.9050 -2.3303
 1666SOL    HW216461   4.514   3.927   7.286 -1.6337  2.5400  1.0522
 1667SOL     OW16462   2.783   3.584   9.811  0.0607 -0.4321 -0.2284
 1667SOL    HW116463   2.787   3.524   9.736  3.0776  1.7166 -1.7935
 1667SOL    HW216464   2.798   3.671   9.774  2.6810 -0.7275  0.1312
 1668SOL     OW16465   0.243   3.784   9.556 -0.7508 -0.3771 -0.3223
 1668SOL    HW116466   0.270   3.716   9.617 -0.6103  0.1756  0.2371
 1668SOL    HW216467   0.162   3.746   9.523 -0.9371 -1.1377  1.0113
 1669SOL     OW16468   3.506   3.520   5.585 -0.3460 -0.8319 -0.3421
 1669SOL    HW116469   3.439   3.499   5.650  1.0329 -1.5696  0.8360
 1669SOL    HW216470   3.457   3.527   5.504 -0.5982  1.1693 -0.0006
 1670SOL     OW16471   1.381   3.093  10.892  0.2448 -0.3309  0.3537
 1670SOL    HW116472   1.371   3.108  10.986  2.8473 -0.2918  0.6343
 1670SOL    HW216473   1.375   3.180  10.853 -2.0084 -1.1925 -1.1993
 1671SOL     OW16474   4.569   4.155   2.160 -0.3830  0.2931 -0.1126
 1671SOL    HW116475   4.660   4.161   2.131 -0.9666  2.3814 -1.5123
 1671SOL    HW216476   4.524   4.116   2.085  1.6751 -0.4682 -0.9394
 1672SOL     OW16477   0.025   2.456   3.283  0.1971  0.2212 -0.1580
 1672SOL    HW116478   4.659   2.501   3.284  0.1105  0.0743 -1.1892
 1672SOL    HW216479   0.038   2.447   3.189 -0.2908 -0.9392 -0.1068
 1673SOL     OW16480   1.871   0.614  14.431  0.2468 -0.2161 -0.3431
 1673SOL    HW116481   1.933   0.662  14.486 -1.3512  2.2880 -0.7231
 1673SOL    HW216482   1.793   0.668  14.439 -0.9747 -1.7817 -1.7061
 1674SOL     OW16483   3.034   4.356   5.693 -0.2279  0.0530 -0.7268
 1674SOL    HW116484   2.984   4.281   5.722  2.6237 -1.0884  1.2158
 1674SOL    HW216485   3.002   4.417   5.759 -0.9001 -1.3786  0.2704
 1675SOL     OW16486   2.424   3.486  10.573 -0.4325  0.3953 -0.0459
 1675SOL    HW116487   2.352   3.432  10.608 -0.3409 -0.2385 -0.8456
 1675SOL    HW216488   2.469   3.520  10.651  0.9204  0.4667 -0.8561
 1676SOL     OW16489   0.179   3.375   2.996 -0.5241  0.5425 -0.2683
 1676SOL    HW116490   0.146   3.285   2.996 -2.5552  1.2925  1.3373
 1676SOL    HW216491   0.099   3.424   3.015 -0.9538 -0.1386 -0.3332
 1677SOL     OW16492   3.149   2.565   3.526  0.6713 -0.0103  0.5292
 1677SOL    HW116493   3.198   2.485   3.507  0.0287  0.1541 -1.7619
 1677SOL    HW216494   3.214   2.634   3.534 -1.5355  2.0336  0.7654
 1678SOL     OW16495   0.394   3.142   5.216 -0.3078 -0.2416  0.7102
 1678SOL    HW116496   0.397   3.150   5.311 -0.2620 -0.4521  0.7279
 1678SOL    HW216497   0.302   3.165   5.205 -0.4500 -0.2753  1.8561
 1679SOL     OW16498   1.156   2.368  14.607 -0.2218 -0.5175 -0.0039
 1679SOL    HW116499   1.166   2.285  14.561  0.8628 -0.7381  0.6238
 1679SOL    HW216500   1.062   2.387  14.601 -0.1976  0.6715  2.9467
 1680SOL     OW16501   1.282   3.170   5.017  0.8999 -0.0161 -0.4953
 1680SOL    HW116502   1.312   3.255   5.050 -1.1873  0.3391  0.5298
 1680SOL    HW216503   1.359   3.114   5.018  0.3525 -0.7404  1.2599
 1681SOL     OW16504   3.231   4.230   4.434  0.0853  0.3512  0.1371
 1681SOL    HW116505   3.167   4.280   4.484 -2.0031 -3.2034  1.0211
 1681SOL    HW216506   3.270   4.174   4.502  0.9575 -0.4455 -1.0165
 1682SOL     OW16507   0.290   1.468   1.594  0.5130 -0.4936  0.0655
 1682SOL    HW116508   0.322   1.521   1.522  0.9070 -1.3391 -0.3780
 1682SOL    HW216509   0.345   1.508   1.661 -1.9507  2.3324  0.4319
 1683SOL     OW16510   1.464   3.482   4.807  0.4664 -0.3967  0.2217
 1683SOL    HW116511   1.529   3.418   4.780  0.9775  0.7598 -1.3004
 1683SOL    HW216512   1.466   3.480   4.903 -1.5169  0.4702  0.2838
 1684SOL     OW16513   3.068   3.036   2.856  0.5111  0.1015 -0.3252
 1684SOL    HW116514   3.091   3.076   2.772  0.4700 -0.8945 -0.8148
 1684SOL    HW216515   3.145   3.042   2.911  1.0996  0.1615 -1.1581
 1685SOL     OW16516   2.831   0.651   9.705 -0.0206  0.0566 -0.1934
 1685SOL    HW116517   2.789   0.584   9.759 -3.6462  0.7419 -2.1511
 1685SOL    HW216518   2.851   0.714   9.774  0.0667 -0.6876  0.4614
 1686SOL     OW16519   4.263   2.137   7.351 -0.0585  0.0138  0.1451
 1686SOL    HW116520   4.314   2.119   7.272  0.5999 -0.2123  0.6210
 1686SOL    HW216521   4.196   2.196   7.316 -0.5752 -0.2305  0.7114
 1687SOL     OW16522   4.436   2.523   5.021  0.3548  0.9383  0.3799
 1687SOL    HW116523   4.482   2.459   5.076 -1.2200 -0.1877  0.3740
 1687SOL    HW216524   4.499   2.596   5.022  1.4153  0.0801 -2.1373
 1688SOL     OW16525   4.367   1.107   4.687 -0.3313  0.2893 -0.2249
 1688SOL    HW116526   4.284   1.128   4.643  0.2486  0.0789 -1.4134
 1688SOL    HW216527   4.402   1.047   4.621 -1.0263  0.6095 -0.8908
 1689SOL     OW16528   4.368   3.303   3.589  0.0103 -0.2411 -0.0763
 1689SOL    HW116529   4.431   3.342   3.649 -0.2004 -0.1268  0.0736
 1689SOL    HW216530   4.356   3.218   3.631  0.3125 -0.2256  0.0390
 1690SOL     OW16531   4.655   0.327   2.892 -0.5245  0.0735 -0.3399
 1690SOL    HW116532   4.633   0.420   2.887  1.1826  0.4280 -1.2317
 1690SOL    HW216533   4.643   0.310   2.985 -1.9075  0.0538 -0.5093
 1691SOL     OW16534   4.545   4.108   7.572  0.0414  0.3343 -0.3303
 1691SOL    HW116535   4.536   4.192   7.617 -1.8728  1.2662 -2.4886
 1691SOL    HW216536   4.455   4.079   7.588  0.6210 -0.9840  0.5379
 1692SOL     OW16537   3.962   0.151   3.256  0.2111 -0.6346  0.1219
 1692SOL    HW116538   3.923   0.168   3.170  0.5559 -1.1221 -0.1314
 1692SOL    HW216539   4.048   0.179   3.224  0.6840 -3.0438 -0.7172
 1693SOL     OW16540   3.209   1.929  10.520 -0.7577  0.1066  0.2847
 1693SOL    HW116541   3.226   1.925  10.426  0.4126  0.2101  0.4957
 1693SOL    HW216542   3.193   1.840  10.553  3.4362 -0.9830 -0.5619
 1694SOL     OW16543   1.658   0.097   1.243  0.2352  0.1565  0.5614
 1694SOL    HW116544   1.721   0.026   1.257  1.6071  1.0146 -1.1336
 1694SOL    HW216545   1.698   0.142   1.168 -0.4315  0.8645  0.6277
 1695SOL     OW16546   2.009   2.168  12.235 -0.2685 -0.3782  0.0632
 1695SOL    HW116547   1.915   2.167  12.221 -0.7267 -1.0766  3.2311
 1695SOL    HW216548   2.025   2.099  12.170 -1.3933 -0.7556  0.1895
 1696SOL     OW16549   3.885   3.926   5.662  0.4822 -0.2209 -0.2333
 1696SOL    HW116550   3.968   3.884   5.640  1.0888  0.2371  1.1294
 1696SOL    HW216551   3.831   3.848   5.666 -0.0989  0.0314 -3.3619
 1697SOL     OW16552   2.965   3.451   8.102 -0.2809 -0.3737  0.4434
 1697SOL    HW116553   2.979   3.540   8.136  0.9186  0.5109 -2.3158
 1697SOL    HW216554   2.871   3.446   8.119 -0.6189 -0.5588 -1.5167
 1698SOL     OW16555   0.097   4.233   6.601  0.6401 -0.4549  0.3310
 1698SOL    HW116556   0.160   4.179   6.553 -0.8510 -0.9479 -1.0974
 1698SOL    HW216557   0.120   4.204   6.689 -2.2133 -0.8197  0.9652
 1699SOL     OW16558   3.245   2.751   4.086 -0.2855 -0.2823  0.5249
 1699SOL    HW116559   3.157   2.713   4.085 -0.3995 -0.0420  1.7022
 1699SOL    HW216560   3.219   2.842   4.105  4.3205  1.2214 -0.4364
 1700SOL     OW16561   3.122   2.355   8.642 -0.4699 -0.0281  0.3585
 1700SOL    HW116562   3.145   2.439   8.604 -1.2117  0.0355  0.0427
 1700SOL    HW216563   3.030   2.378   8.657 -0.1495  2.3524 -1.4365
 1701SOL     OW16564   1.935   2.483  11.597  0.0712 -0.2899  0.4753
 1701SOL    HW116565   1.985   2.557  11.563 -1.1913  0.6188  0.5686
 1701SOL    HW216566   1.862   2.536  11.629 -0.9154 -0.1228 -2.0542
 1702SOL     OW16567   0.386   3.265  14.741  0.0369 -0.6136 -0.3670
 1702SOL    HW116568   0.365   3.237  14.652 -2.3621 -1.2267  0.3975
 1702SOL    HW216569   0.308   3.313  14.770  0.7658  0.0856  0.4388
 1703SOL     OW16570   0.137   1.555   6.296  0.3523  0.0889  0.2935
 1703SOL    HW116571   0.205   1.507   6.344 -0.4787  0.1481  1.5170
 1703SOL    HW216572   0.053   1.534   6.336  2.3332 -2.0230  3.3004
 1704SOL     OW16573   4.091   2.394  12.792 -0.2187 -0.1393 -0.2253
 1704SOL    HW116574   4.171   2.423  12.835 -0.1811  0.2188 -0.5407
 1704SOL    HW216575   4.136   2.352  12.718  3.3767  2.6806  0.3968
 1705SOL     OW16576   4.560   1.871   9.852  0.5497  0.1408  0.1443
 1705SOL    HW116577   4.531   1.788   9.890 -1.5299  0.8411  0.1422
 1705SOL    HW216578   4.476   1.885   9.806  0.4602  2.8023  1.0772
 1706SOL     OW16579   2.430   1.317   6.054  0.3601  0.0954 -0.0024
 1706SOL    HW116580   2.515   1.273   6.045  1.1894  1.6882  0.1088
 1706SOL    HW216581   2.375   1.250   6.014 -0.0371  1.0227 -0.9778
 1707SOL     OW16582   2.535   4.585   4.116  0.3171  0.0192 -0.0277
 1707SOL    HW116583   2.547   4.499   4.078  1.9514  0.9076 -1.4761
 1707SOL    HW216584   2.468   4.570   4.184 -0.3878  0.4734 -0.6170
 1708SOL     OW16585   1.395   0.901  14.904  0.4156  0.2696  0.5009
 1708SOL    HW116586   1.489   0.885  14.891  0.4303  0.2370  0.6437
 1708SOL    HW216587   1.390   0.997  14.912 -0.5977  0.2570 -0.0476
 1709SOL     OW16588   2.815   1.735   9.345  0.7038 -0.0974  0.2162
 1709SOL    HW116589   2.847   1.824   9.357 -0.1066  0.1804  0.3666
 1709SOL    HW216590   2.792   1.751   9.253 -1.8378  2.2991  1.2622
 1710SOL     OW16591   1.441   0.091   1.405 -0.4847  0.0923 -0.0647
 1710SOL    HW116592   1.476   0.159   1.463 -1.9383  1.3709 -0.6858
 1710SOL    HW216593   1.512   0.085   1.342 -0.3691  1.5824 -0.0744
 1711SOL     OW16594   3.049   0.586   5.163 -0.3167 -0.0988  0.0294
 1711SOL    HW116595   2.959   0.554   5.172 -0.3693 -0.2786 -1.0978
 1711SOL    HW216596   3.047   0.636   5.081 -0.6671 -0.9846 -0.5010
 1712SOL     OW16597   4.491   2.050  14.152  0.1578 -0.3936  0.3648
 1712SOL    HW116598   4.415   2.101  14.178  0.2416  1.2955 -2.6277
 1712SOL    HW216599   4.546   2.054  14.230  0.7216 -2.0447  0.0421
 1713SOL     OW16600   1.752   0.883   8.401  0.1234 -0.1712  0.3406
 1713SOL    HW116601   1.830   0.921   8.442 -0.0021  2.7509 -2.1457
 1713SOL    HW216602   1.755   0.931   8.318 -0.7977 -1.8446 -0.6576
 1714SOL     OW16603   1.171   1.422   3.915 -0.0191 -0.0119  0.1369
 1714SOL    HW116604   1.205   1.390   3.998  0.4321  1.7480  0.6265
 1714SOL    HW216605   1.118   1.496   3.944 -1.6674 -1.2659  0.3232
 1715SOL     OW16606   1.694   4.270   8.533 -0.2199  0.0030 -0.3344
 1715SOL    HW116607   1.722   4.287   8.623  0.2620  2.2218 -0.9023
 1715SOL    HW216608   1.662   4.180   8.535 -0.3715  0.1461  2.8724
 1716SOL     OW16609   1.834   4.175  16.511  0.2824  0.6085 -0.4241
 1716SOL    HW116610   1.851   4.212  16.425 -1.0354  1.0223 -0.5087
 1716SOL    HW216611   1.910   4.117  16.514 -0.0898  0.1166 -0.6638
 1717SOL     OW16612   3.556   0.040   0.052  0.1465 -0.4048 -0.3236
 1717SOL    HW116613   3.526   0.045  17.638  2.3071  3.5117 -0.8413
 1717SOL    HW216614   3.536   0.129   0.081 -0.1885  0.0974 -2.1144
 1718SOL     OW16615   3.427   0.535   3.732 -0.1118 -1.0514 -0.9075
 1718SOL    HW116616   3.347   0.538   3.680 -1.7227  0.7458  1.6966
 1718SOL    HW216617   3.488   0.532   3.658  1.1672  1.2994  0.0493
 1719SOL     OW16618   0.240   3.466   4.612 -0.8089  0.1503  0.3870
 1719SOL    HW116619   0.226   3.474   4.706  0.2344 -1.3149  0.6661
 1719SOL    HW216620   0.151   3.464   4.578 -0.2319  0.9226 -1.1943
 1720SOL     OW16621   0.837   1.440   3.967  0.0113  0.0584  0.4367
 1720SOL    HW116622   0.866   1.369   3.910  1.2393  1.5253 -0.7899
 1720SOL    HW216623   0.897   1.514   3.954 -0.5153  0.2033 -1.2112
 1721SOL     OW16624   1.969   0.135  15.898 -0.1537  0.1621 -0.0236
 1721SOL    HW116625   1.962   0.150  15.804  1.0011  0.4735 -0.0642
 1721SOL    HW216626   1.924   0.214  15.926  1.3057  0.6945  0.8503
 1722SOL     OW16627   3.149   3.607   8.513 -0.2015 -0.7428  0.3400
 1722SOL    HW116628   3.221   3.583   8.454 -0.2666 -0.9471  0.3443
 1722SOL    HW216629   3.087   3.536   8.498 -0.4787 -0.0002 -2.1392
 1723SOL     OW16630   3.670   0.176   1.800  0.3337  0.1627 -0.2059
 1723SOL    HW116631   3.686   0.154   1.709  0.6478  0.8470 -0.3160
 1723SOL    HW216632   3.619   0.257   1.792  0.2439  0.1067 -0.1965
 1724SOL     OW16633   3.523   1.730   9.818 -0.2277 -0.4585  0.6012
 1724SOL    HW116634   3.518   1.768   9.906 -2.6032 -0.9965  0.7134
 1724SOL    HW216635   3.604   1.680   9.821  0.5781  0.8115 -0.1273
 1725SOL     OW16636   2.198   2.902  13.368  0.2929  0.1379 -0.4163
 1725SOL    HW116637   2.112   2.915  13.328 -0.0692 -1.5135 -0.1502
 1725SOL    HW216638   2.250   2.914  13.288  0.0093  0.1376 -0.6031
 1726SOL     OW16639   0.291   4.438  11.905  0.9268 -0.0704 -0.4263
 1726SOL    HW116640   0.267   4.385  11.982 -3.6969  1.9637 -0.4364
 1726SOL    HW216641   0.280   4.365  11.844  1.5628 -2.3668  2.1905
 1727SOL     OW16642   1.705   3.360  13.277 -0.2824  0.4195 -0.1890
 1727SOL    HW116643   1.773   3.292  13.281 -1.7884 -1.0940 -0.3291
 1727SOL    HW216644   1.724   3.383  13.186  3.9737 -1.8110  0.1283
 1728SOL     OW16645   1.005   0.928   3.588  0.0009  1.0681  0.3713
 1728SOL    HW116646   1.065   1.002   3.575  0.6609  0.4673 -0.0048
 1728SOL    HW216647   0.947   0.926   3.512  3.2234 -1.2460 -2.0140
 1729SOL     OW16648   3.905   2.911   5.017  0.2489 -0.2987 -0.7754
 1729SOL    HW116649   3.930   2.966   5.092 -1.2911  0.0010 -0.4806
 1729SOL    HW216650   3.905   2.978   4.949  2.0357  0.8412  0.3464
 1730SOL     OW16651   2.821   2.012   9.271 -0.1539 -0.3032  0.1181
 1730SOL    HW116652   2.842   1.968   9.189 -1.3101 -2.4582  0.9914
 1730SOL    HW216653   2.729   2.025   9.248 -0.3900 -0.4143  0.9880
 1731SOL     OW16654   2.315   2.590   2.369  0.1192  0.0010  0.2493
 1731SOL    HW116655   2.287   2.608   2.459 -0.2342 -1.3778  0.4153
 1731SOL    HW216656   2.283   2.663   2.316  0.0328 -0.7750 -0.7809
 1732SOL     OW16657   3.104   4.103   9.109 -0.0818  0.4723 -0.3053
 1732SOL    HW116658   3.010   4.120   9.121 -0.1896  1.0773 -2.1422
 1732SOL    HW216659   3.130   4.129   9.198  1.3024 -3.6808  0.5011
 1733SOL     OW16660   0.427   4.539   0.310 -0.6761  0.1109  0.6761
 1733SOL    HW116661   0.462   4.525   0.397 -0.7121 -1.5564  0.4239
 1733SOL    HW216662   0.334   4.544   0.333 -0.2056 -1.4144  2.8940
 1734SOL     OW16663   2.025   3.027  16.062 -0.1997 -1.0733  0.1172
 1734SOL    HW116664   2.078   3.029  16.141  0.5526 -2.9897 -0.3421
 1734SOL    HW216665   1.969   3.104  16.075  1.9697  0.9073 -2.1998
 1735SOL     OW16666   1.038   0.855   9.101  0.4473 -0.3074  0.2267
 1735SOL    HW116667   1.018   0.883   9.190 -1.7358  0.8770 -0.6200
 1735SOL    HW216668   0.961   0.890   9.056 -0.8640 -0.9885  1.9462
 1736SOL     OW16669   3.383   2.951  11.800  0.1864 -0.1404  0.4763
 1736SOL    HW116670   3.474   2.922  11.788  1.0578  2.1385  1.3961
 1736SOL    HW216671   3.341   2.889  11.741  2.5559 -1.7854  0.5070
 1737SOL     OW16672   3.987   0.501   7.544  0.2435  0.1169  0.3897
 1737SOL    HW116673   3.916   0.563   7.530 -0.6107 -1.0248 -0.3338
 1737SOL    HW216674   3.960   0.456   7.624  1.7019  0.5626  1.1341
 1738SOL     OW16675   3.561   0.995   4.799  0.6625  0.4000 -0.0212
 1738SOL    HW116676   3.598   0.966   4.716 -0.9501 -0.5407 -0.4236
 1738SOL    HW216677   3.498   0.925   4.817  2.3356 -1.2637 -0.6407
 1739SOL     OW16678   3.636   1.587  13.032  0.1866 -0.1503  0.0069
 1739SOL    HW116679   3.557   1.559  12.986  0.0970 -1.5844  1.0625
 1739SOL    HW216680   3.599   1.579  13.120 -2.3741 -0.0621 -1.0602
 1740SOL     OW16681   0.669   0.658   9.675 -0.0191  0.5124  0.5120
 1740SOL    HW116682   0.728   0.609   9.618  0.5500  1.8793 -0.0685
 1740SOL    HW216683   0.729   0.720   9.715  2.3139 -1.6676  0.3695
 1741SOL     OW16684   3.885   4.334   0.099 -0.0927  0.1078 -0.2204
 1741SOL    HW116685   3.793   4.360   0.102  0.0089  0.4491 -0.1079
 1741SOL    HW216686   3.885   4.286   0.017 -1.1825  1.9047 -1.2675
 1742SOL     OW16687   2.923   1.821   3.974 -0.1666  0.1173 -0.1946
 1742SOL    HW116688   2.972   1.819   3.893 -0.6249  1.6990 -0.5218
 1742SOL    HW216689   2.956   1.903   4.013  1.3032 -1.4981  1.9951
 1743SOL     OW16690   4.152   0.482   3.288 -0.3264  0.3717 -0.1407
 1743SOL    HW116691   4.157   0.431   3.207  1.3799  2.7077 -1.5070
 1743SOL    HW216692   4.183   0.570   3.264 -1.0105  1.1685  1.9182
 1744SOL     OW16693   2.363   0.974   7.000 -0.1306  0.1440 -0.2801
 1744SOL    HW116694   2.458   0.975   7.013 -0.3375  0.9390  1.1763
 1744SOL    HW216695   2.354   1.046   6.937  0.3736  1.2409  0.8899
 1745SOL     OW16696   3.807   1.052   7.856 -0.5116  0.6053 -0.0474
 1745SOL    HW116697   3.770   1.041   7.768 -0.4920 -1.6820  0.2430
 1745SOL    HW216698   3.751   1.120   7.892 -2.1222 -1.2788  0.9829
 1746SOL     OW16699   2.780   4.534   3.655  0.1122 -0.1726  0.0583
 1746SOL    HW116700   2.825   4.491   3.727  1.4095  2.0046  0.5676
 1746SOL    HW216701   2.694   4.494   3.665  0.4316 -1.2185 -1.2528
 1747SOL     OW16702   1.186   1.441   2.206  0.4494  0.2709 -0.4798
 1747SOL    HW116703   1.125   1.458   2.135  0.5774 -0.8670 -0.8601
 1747SOL    HW216704   1.259   1.412   2.151  0.6567 -0.9906  0.4346
 1748SOL     OW16705   0.335   2.670   8.804  0.0299 -0.8324  0.6359
 1748SOL    HW116706   0.406   2.732   8.785 -0.6728  0.2347  1.4845
 1748SOL    HW216707   0.286   2.716   8.873 -1.1912 -1.6872  0.3146
 1749SOL     OW16708   2.003   1.629   2.789 -0.1929 -0.4146 -0.1990
 1749SOL    HW116709   2.056   1.648   2.712 -0.0603  0.0339  0.0053
 1749SOL    HW216710   2.068   1.627   2.859 -0.7757  0.5420  0.3781
 1750SOL     OW16711   4.055   0.479  17.177 -0.1488  0.0179 -0.0622
 1750SOL    HW116712   4.023   0.537  17.108  0.1727 -0.8361 -0.9278
 1750SOL    HW216713   4.131   0.440  17.134  1.7399  3.7313 -0.0919
 1751SOL     OW16714   4.066   2.996  13.469  0.0046  0.8996  0.2617
 1751SOL    HW116715   4.048   3.079  13.427  0.5496  1.1449  0.5134
 1751SOL    HW216716   3.984   2.956  13.442  0.2369  1.2735 -0.9781
 1752SOL     OW16717   0.891   3.166  12.618  0.4589 -0.2043 -0.0550
 1752SOL    HW116718   0.955   3.224  12.576 -0.9532  2.7719  1.8792
 1752SOL    HW216719   0.825   3.235  12.623  0.7907  0.2793 -2.3833
 1753SOL     OW16720   3.453   0.904  11.773 -0.4151 -0.0321  0.2569
 1753SOL    HW116721   3.386   0.970  11.759  0.0969 -0.3976 -3.8175
 1753SOL    HW216722   3.469   0.921  11.866  0.9961 -0.7328  0.1526
 1754SOL     OW16723   4.334   1.291   3.941 -0.4513 -0.4911  0.0042
 1754SOL    HW116724   4.253   1.260   3.901 -0.2561 -2.6157  1.2720
 1754SOL    HW216725   4.321   1.385   3.930  2.8259  0.1870  1.8290
 1755SOL     OW16726   0.056   3.314   8.454 -0.6678 -0.5356  0.4970
 1755SOL    HW116727   4.702   3.372   8.478 -1.1427 -0.2829 -1.5124
 1755SOL    HW216728   0.108   3.382   8.412 -2.0208  0.6525  0.7531
 1756SOL     OW16729   2.340   1.230   1.275 -0.2980 -0.3792 -0.1112
 1756SOL    HW116730   2.302   1.163   1.219 -0.6960  1.0039 -1.5059
 1756SOL    HW216731   2.418   1.185   1.308  1.0083  0.9333 -1.3741
 1757SOL     OW16732   2.594   2.157   5.793 -0.4709  0.1974  0.0322
 1757SOL    HW116733   2.596   2.062   5.782  0.5809  0.0866  1.2310
 1757SOL    HW216734   2.645   2.165   5.873  0.4990  2.0903 -0.7843
 1758SOL     OW16735   2.717   2.915   8.537  0.4584 -0.0481 -0.6634
 1758SOL    HW116736   2.787   2.925   8.472 -0.4900  1.6403 -1.4087
 1758SOL    HW216737   2.703   3.002   8.575 -1.0256  0.3096 -2.0254
 1759SOL     OW16738   0.645   2.739   9.755 -0.3301  0.0243 -0.2883
 1759SOL    HW116739   0.652   2.811   9.692  0.4466 -0.7446 -1.0768
 1759SOL    HW216740   0.736   2.743   9.787  0.2293  0.7683 -1.9624
 1760SOL     OW16741   3.574   2.849   0.218 -0.3383  0.6253  0.0815
 1760SOL    HW116742   3.545   2.855   0.309 -0.4226 -0.7219  0.1467
 1760SOL    HW216743   3.649   2.791   0.230  0.0364  1.2470  0.7335
 1761SOL     OW16744   0.623   4.274  16.471  0.2735  0.2157  0.0605
 1761SOL    HW116745   0.612   4.363  16.439 -0.1922  0.1517  0.0441
 1761SOL    HW216746   0.717   4.264  16.457  0.3699 -1.4874  1.8303
 1762SOL     OW16747   2.075   4.169   2.725 -0.7702  0.1390 -0.2842
 1762SOL    HW116748   2.104   4.190   2.814 -1.2423  0.8966 -0.3101
 1762SOL    HW216749   2.122   4.234   2.674  0.0577  0.6777  1.1632
 1763SOL     OW16750   0.289   0.807   7.709 -0.1476 -0.0609  0.9736
 1763SOL    HW116751   0.290   0.898   7.740  0.4186 -0.2487  1.5058
 1763SOL    HW216752   0.361   0.773   7.764  0.9983  1.2963  0.3246
 1764SOL     OW16753   1.949   3.884   2.767  0.5382 -0.2103 -0.2883
 1764SOL    HW116754   1.987   3.797   2.758  0.9172 -0.0515 -0.2247
 1764SOL    HW216755   2.025   3.939   2.788  0.9372 -0.7541 -0.3179
 1765SOL     OW16756   0.189   0.424  15.146  0.0315 -0.0070  0.4744
 1765SOL    HW116757   0.276   0.455  15.123 -0.4637 -1.0108 -2.7756
 1765SOL    HW216758   0.140   0.484  15.089 -0.4019 -1.6648 -0.8987
 1766SOL     OW16759   4.026   2.533  15.393 -0.7743 -0.5637  0.0238
 1766SOL    HW116760   3.978   2.595  15.448 -0.4237 -1.3402  1.2238
 1766SOL    HW216761   4.043   2.464  15.457 -0.2965 -0.0469  0.4533
 1767SOL     OW16762   3.962   3.018   5.822  0.0699 -0.7387  0.1125
 1767SOL    HW116763   3.994   2.928   5.826 -0.7520 -0.9757  1.3744
 1767SOL    HW216764   3.870   3.005   5.796  0.4401 -2.3292 -0.4146
 1768SOL     OW16765   4.661   2.485   1.275 -0.0637  0.2516  0.2918
 1768SOL    HW116766   4.654   2.577   1.247 -1.2217 -0.3495 -1.4037
 1768SOL    HW216767   4.572   2.448   1.274  0.8057 -1.7748 -0.6940
 1769SOL     OW16768   3.813   2.751   7.221  0.1927  0.4097  0.2010
 1769SOL    HW116769   3.854   2.677   7.267 -1.3865  0.4488  1.6771
 1769SOL    HW216770   3.865   2.761   7.142  1.8317 -0.7960  1.1065
 1770SOL     OW16771   3.658   2.283   9.914  0.3982  0.1943 -0.1841
 1770SOL    HW116772   3.604   2.360   9.898  0.9876  0.4699 -0.8569
 1770SOL    HW216773   3.610   2.254   9.992  1.9889 -0.6015  0.5101
 1771SOL     OW16774   3.258   4.292   2.837  0.0756 -0.0935 -0.0322
 1771SOL    HW116775   3.177   4.285   2.787  1.4478 -0.3799 -2.2070
 1771SOL    HW216776   3.235   4.242   2.915  1.8417 -1.3661 -0.3100
 1772SOL     OW16777   3.566   3.761  15.049 -0.0107 -0.8952 -0.2788
 1772SOL    HW116778   3.613   3.818  14.989  0.0293  0.4252  1.0249
 1772SOL    HW216779   3.582   3.821  15.122 -1.5927 -3.1129  1.9205
 1773SOL     OW16780   4.510   1.736   5.338 -0.3022  0.4534  0.0711
 1773SOL    HW116781   4.502   1.830   5.351 -0.3465  0.3255  0.9193
 1773SOL    HW216782   4.584   1.709   5.392 -1.8323 -0.1654  1.8496
 1774SOL     OW16783   3.876   0.996   3.968 -0.6367  0.3093 -0.2982
 1774SOL    HW116784   3.783   0.972   3.970 -0.0393 -1.6527  3.4703
 1774SOL    HW216785   3.875   1.089   3.994  0.9623 -0.2411  1.7027
 1775SOL     OW16786   4.479   2.853   3.036  0.1117 -0.3968 -0.1694
 1775SOL    HW116787   4.395   2.810   3.051 -0.3806  1.3117  1.9949
 1775SOL    HW216788   4.478   2.867   2.941  2.4404  1.9797  0.1369
 1776SOL     OW16789   1.084   3.511  13.707 -0.5223  0.4349  0.0954
 1776SOL    HW116790   1.111   3.548  13.791 -0.8997  0.2254  0.3112
 1776SOL    HW216791   1.080   3.593  13.658 -0.4572  0.5955  0.3584
 1777SOL     OW16792   0.900   3.789   4.140  0.4717 -0.5287 -0.1295
 1777SOL    HW116793   0.868   3.726   4.204 -2.4070  0.5329 -0.5304
 1777SOL    HW216794   0.952   3.842   4.200 -0.5051  0.8824 -0.5255
 1778SOL     OW16795   2.757   2.453  14.933 -0.5872 -0.1608  0.4655
 1778SOL    HW116796   2.675   2.434  14.979  0.6247 -1.6838  1.9496
 1778SOL    HW216797   2.734   2.387  14.868  0.6813 -2.0012  1.8739
 1779SOL     OW16798   1.473   0.862   4.374 -0.2345 -0.2593 -0.8017
 1779SOL    HW116799   1.545   0.825   4.425 -0.9040 -1.1682 -0.5196
 1779SOL    HW216800   1.472   0.809   4.295  1.1634 -0.5944 -0.5850
 1780SOL     OW16801   0.859   3.747  14.815 -0.1187 -0.2419 -0.3716
 1780SOL    HW116802   0.782   3.700  14.782  0.7142 -1.7067 -0.2046
 1780SOL    HW216803   0.863   3.820  14.752 -2.2886 -0.0243 -0.2388
 1781SOL     OW16804   3.202   3.663   4.532  0.2448  0.6083 -0.2973
 1781SOL    HW116805   3.209   3.713   4.613 -0.6157  1.1112 -0.5384
 1781SOL    HW216806   3.124   3.609   4.549 -0.2467  1.1644 -0.8134
 1782SOL     OW16807   2.585   0.203   7.803  0.3754 -0.3459  0.4954
 1782SOL    HW116808   2.597   0.111   7.780 -1.1223 -0.3161 -0.4413
 1782SOL    HW216809   2.566   0.245   7.719 -0.0111  0.4608  0.9773
 1783SOL     OW16810   1.347   3.311   6.461 -0.5067  0.6719 -0.4269
 1783SOL    HW116811   1.434   3.326   6.423 -0.7198 -0.1991 -1.2626
 1783SOL    HW216812   1.380   3.240   6.516  1.6369  0.0608 -2.4490
 1784SOL     OW16813   2.401   2.251   4.687 -0.9164 -0.3480 -1.0342
 1784SOL    HW116814   2.332   2.202   4.731 -0.7197  2.1022  2.0246
 1784SOL    HW216815   2.437   2.188   4.624  1.1670 -0.1832 -0.0300
 1785SOL     OW16816   4.470   2.678   7.091  0.4070  0.1381 -0.7199
 1785SOL    HW116817   4.480   2.740   7.019  3.6998 -1.0828 -1.3033
 1785SOL    HW216818   4.507   2.595   7.060  0.5645  0.2250 -0.7644
 1786SOL     OW16819   1.351   2.748   4.680 -0.3021  0.0745 -0.1337
 1786SOL    HW116820   1.392   2.831   4.703  0.1309 -0.8223  2.2758
 1786SOL    HW216821   1.432   2.705   4.655 -1.4295  0.1703 -3.9717
 1787SOL     OW16822   2.990   2.711   9.662  0.7177 -0.0140 -0.1866
 1787SOL    HW116823   3.002   2.624   9.699  1.4225  0.5469  0.8969
 1787SOL    HW216824   2.903   2.709   9.623 -0.3003 -1.3954  2.2023
 1788SOL     OW16825   2.561   2.406   3.476 -0.2569 -0.3098 -0.5456
 1788SOL    HW116826   2.561   2.478   3.413 -0.8000 -1.1729 -1.5203
 1788SOL    HW216827   2.580   2.343   3.407 -0.8099  0.3985 -1.3489
 1789SOL     OW16828   1.301   2.130   5.169  0.4337  0.3701 -0.0573
 1789SOL    HW116829   1.226   2.115   5.112  0.7555 -0.3659 -0.2836
 1789SOL    HW216830   1.264   2.088   5.246 -2.1099  3.3652  0.3773
 1790SOL     OW16831   0.336   1.613   9.367 -0.2588  0.3002  0.2826
 1790SOL    HW116832   0.333   1.560   9.446  0.9118 -0.5349 -0.2223
 1790SOL    HW216833   0.247   1.616   9.331 -0.3929  0.8943  0.6727
 1791SOL     OW16834   3.268   4.102   1.460  0.0381  0.2973  0.3850
 1791SOL    HW116835   3.190   4.143   1.423 -0.2931 -1.0888 -0.4182
 1791SOL    HW216836   3.333   4.167   1.433 -2.0205  2.1815 -0.0038
 1792SOL     OW16837   4.615   1.640  15.502 -0.2680 -0.3695  0.1129
 1792SOL    HW116838   4.529   1.665  15.470  0.1685  0.4825 -0.4099
 1792SOL    HW216839   4.596   1.634  15.596 -0.8981  2.6999  0.1736
 1793SOL     OW16840   1.430   3.469   7.405  0.3593 -0.2012 -0.0842
 1793SOL    HW116841   1.361   3.452   7.469 -0.8921 -0.3061 -1.4709
 1793SOL    HW216842   1.503   3.488   7.464  1.0338  0.6557 -1.1848
 1794SOL     OW16843   4.517   4.703   2.746  0.4727 -0.1017 -0.1705
 1794SOL    HW116844   4.562   4.621   2.729  0.9833  0.3890 -1.2112
 1794SOL    HW216845   4.562   0.047   2.688  1.3210  0.1566  0.7637
 1795SOL     OW16846   0.937   1.136   7.086  0.3521 -0.3716  0.1351
 1795SOL    HW116847   1.026   1.129   7.053 -0.4104 -1.8816 -1.6070
 1795SOL    HW216848   0.953   1.130   7.180  3.2780  0.6570 -0.2991
 1796SOL     OW16849   3.587   0.300   0.175  0.5798  0.0724  0.1853
 1796SOL    HW116850   3.662   0.359   0.182 -0.3558  1.3133 -0.3186
 1796SOL    HW216851   3.585   0.249   0.256 -1.2366  1.9853  1.3729
 1797SOL     OW16852   4.410   4.255   4.157 -0.5167 -0.4237 -0.2342
 1797SOL    HW116853   4.341   4.251   4.091 -1.8141 -0.6040  1.1374
 1797SOL    HW216854   4.374   4.262   4.245 -1.8705  0.4256 -0.8614
 1798SOL     OW16855   1.724   3.401  16.783 -0.0243  0.1026  0.1338
 1798SOL    HW116856   1.648   3.456  16.805  0.3902  0.7464 -0.0614
 1798SOL    HW216857   1.755   3.391  16.873 -0.2093 -1.9399 -0.0109
 1799SOL     OW16858   0.555   4.251   0.454  0.1513  0.1379  0.0039
 1799SOL    HW116859   0.630   4.309   0.446  2.3004 -2.4991  1.3653
 1799SOL    HW216860   0.568   4.194   0.529  1.1056 -1.4494 -1.3662
 1800SOL     OW16861   1.152   2.975   5.797  0.2532 -0.1780 -0.3684
 1800SOL    HW116862   1.225   3.000   5.741  0.3296 -0.3070 -0.3261
 1800SOL    HW216863   1.178   3.000   5.886 -0.0124  0.3750 -0.4419
 1801SOL     OW16864   1.813   1.656   7.485  0.1365  0.0550  0.5600
 1801SOL    HW116865   1.850   1.743   7.499  1.5115 -0.6645  1.3913
 1801SOL    HW216866   1.809   1.631   7.577 -1.2805 -0.4501  0.3608
 1802SOL     OW16867   4.486   1.862   3.077  0.2517  0.4017 -0.1065
 1802SOL    HW116868   4.573   1.823   3.083  0.2079  0.0679 -1.5024
 1802SOL    HW216869   4.518   1.946   3.108  1.4065 -0.9362  2.2802
 1803SOL     OW16870   2.615   1.223   8.089  0.4937 -0.4478 -0.3064
 1803SOL    HW116871   2.588   1.164   8.019 -1.3905 -0.3698  0.3516
 1803SOL    HW216872   2.665   1.278   8.029  0.3802 -0.0967 -0.0770
 1804SOL     OW16873   3.813   3.591   7.739 -0.0088  0.0699 -0.3031
 1804SOL    HW116874   3.864   3.561   7.815  0.0322 -1.0271 -0.7555
 1804SOL    HW216875   3.803   3.516   7.680  0.4612 -0.1485 -0.1070
 1805SOL     OW16876   2.000   2.921  13.727  0.3599  0.8951  0.1458
 1805SOL    HW116877   2.026   2.982  13.796  0.3837  0.6734  0.3320
 1805SOL    HW216878   2.049   2.959  13.654  1.9868  1.1522  1.3939
 1806SOL     OW16879   4.556   3.392   4.994  0.0621  0.3049  0.3955
 1806SOL    HW116880   4.568   3.424   5.084  0.4425  2.5111 -0.4490
 1806SOL    HW216881   4.476   3.340   5.005 -0.2960  1.2103  2.0924
 1807SOL     OW16882   2.384   1.169   1.805  0.0374  0.3380 -0.3349
 1807SOL    HW116883   2.388   1.237   1.872 -3.0477 -0.3873  0.5959
 1807SOL    HW216884   2.306   1.201   1.759 -0.9794 -0.5568  0.7413
 1808SOL     OW16885   0.913   3.151   0.937  0.0698  0.3321 -0.4210
 1808SOL    HW116886   0.894   3.071   0.987  1.3818 -0.0766 -0.5730
 1808SOL    HW216887   0.967   3.113   0.868  0.4795  0.1369  0.0118
 1809SOL     OW16888   1.799   0.648   5.876  0.0345  0.5752  0.2751
 1809SOL    HW116889   1.784   0.716   5.942 -1.9783 -0.6481  1.0652
 1809SOL    HW216890   1.844   0.575   5.919 -0.2580  0.1509 -0.1386
 1810SOL     OW16891   2.222   4.153   7.774  0.0462  0.7514 -0.1563
 1810SOL    HW116892   2.175   4.188   7.698 -1.3305 -1.0979 -0.1389
 1810SOL    HW216893   2.230   4.066   7.735 -0.2481  0.2729  0.8453
 1811SOL     OW16894   0.741   1.661   8.911  0.2384  0.3278 -0.1382
 1811SOL    HW116895   0.685   1.583   8.916 -0.5686  0.7589 -2.3891
 1811SOL    HW216896   0.692   1.716   8.850 -1.4938 -1.3264 -0.2326
 1812SOL     OW16897   0.294   4.023   0.005  0.4616 -0.2476  0.1228
 1812SOL    HW116898   0.341   4.050  17.602  0.7666  0.7165  0.6310
 1812SOL    HW216899   0.364   3.997   0.065  0.5753 -0.6631 -0.1882
 1813SOL     OW16900   0.451   1.520   6.117 -0.0018  0.1698  0.2069
 1813SOL    HW116901   0.505   1.540   6.193 -2.2252  0.3677  1.7539
 1813SOL    HW216902   0.381   1.470   6.160  0.8096 -1.5368 -0.4831
 1814SOL     OW16903   0.418   2.172   4.881  0.1028 -0.8183 -0.4669
 1814SOL    HW116904   0.368   2.150   4.802  0.3037  2.3502 -1.4675
 1814SOL    HW216905   0.380   2.109   4.943  1.1915 -1.6440 -0.6512
 1815SOL     OW16906   0.750   1.320   7.049 -0.0892 -0.4624  0.5454
 1815SOL    HW116907   0.811   1.246   7.053 -1.4770 -1.4568  3.0952
 1815SOL    HW216908   0.750   1.349   7.141  0.3300 -1.9262  1.0021
 1816SOL     OW16909   3.299   2.067  10.063 -0.3856 -0.0360 -0.3824
 1816SOL    HW116910   3.224   2.011  10.085  0.4042 -0.4383  1.2937
 1816SOL    HW216911   3.247   2.131  10.015 -0.2019  2.3465  2.5797
 1817SOL     OW16912   0.088   3.766   4.482 -0.1338 -0.0225  0.1206
 1817SOL    HW116913   0.139   3.743   4.405 -2.4360  2.0462 -2.0114
 1817SOL    HW216914   0.012   3.709   4.471 -1.2239  1.5850 -0.6361
 1818SOL     OW16915   0.315   4.266   4.668 -0.9073  0.0655  0.2897
 1818SOL    HW116916   0.374   4.276   4.594  0.5825 -0.5854  1.3818
 1818SOL    HW216917   0.262   4.195   4.634 -0.2636  0.1639 -0.8939
 1819SOL     OW16918   2.202   3.261   0.126 -0.3282  0.1726 -0.0212
 1819SOL    HW116919   2.247   3.176   0.131  0.9051  0.8694  0.7003
 1819SOL    HW216920   2.137   3.252   0.196  0.0502 -0.1239  0.2917
 1820SOL     OW16921   4.440   3.534  12.893 -0.3198 -0.1445 -0.0451
 1820SOL    HW116922   4.488   3.538  12.976  1.7814 -0.2132 -1.2587
 1820SOL    HW216923   4.390   3.456  12.917  0.2060 -0.4712 -0.0058
 1821SOL     OW16924   2.545   1.906   5.738 -0.2379  0.0136  0.3593
 1821SOL    HW116925   2.628   1.884   5.696 -0.7555  0.4380 -0.8777
 1821SOL    HW216926   2.573   1.887   5.828  1.5084  1.3648  0.1062
 1822SOL     OW16927   4.402   4.187   0.617 -0.1196  0.0437  0.0851
 1822SOL    HW116928   4.497   4.195   0.628 -0.0929 -0.1733  0.0101
 1822SOL    HW216929   4.377   4.267   0.663  0.6048  1.9498 -2.8530
 1823SOL     OW16930   3.028   2.392   9.695  0.5962  0.4466 -0.1688
 1823SOL    HW116931   2.970   2.325   9.657  1.3685 -0.2955 -0.0343
 1823SOL    HW216932   3.063   2.431   9.615  0.8510  0.2936 -0.1322
 1824SOL     OW16933   1.878   2.312   8.387  0.5135 -0.1782  0.4557
 1824SOL    HW116934   1.847   2.224   8.408 -0.2744 -0.3039 -1.2273
 1824SOL    HW216935   1.902   2.337   8.476  0.9254  0.3902  0.1793
 1825SOL     OW16936   1.646   3.010   3.974  0.1141 -0.2617 -0.1805
 1825SOL    HW116937   1.669   2.936   3.917  1.2709 -0.9211  1.1455
 1825SOL    HW216938   1.730   3.012   4.020  1.5852 -0.6754 -2.8182
 1826SOL     OW16939   0.341   2.561   5.829  0.1282  0.2104 -0.7144
 1826SOL    HW116940   0.313   2.613   5.905 -0.7406  1.0668 -1.6129
 1826SOL    HW216941   0.316   2.471   5.849  1.8165 -0.0777  0.0552
 1827SOL     OW16942   4.717   1.719   8.536  0.0985 -0.7241 -0.2526
 1827SOL    HW116943   4.679   1.772   8.606  1.4088 -0.7758  0.4961
 1827SOL    HW216944   0.071   1.677   8.583 -0.5190 -0.1541  1.2254
 1828SOL     OW16945   4.227   4.446   2.408 -0.7986 -0.3029  0.0774
 1828SOL    HW116946   4.201   4.518   2.465 -0.3369  0.4259 -0.6297
 1828SOL    HW216947   4.226   4.378   2.475  0.5142  0.0294  0.4450
 1829SOL     OW16948   2.732   0.927  14.898 -0.3245 -0.3048  0.0920
 1829SOL    HW116949   2.765   0.838  14.911  0.0223 -0.0942  0.6688
 1829SOL    HW216950   2.791   0.944  14.824  0.5044 -2.3607  0.2786
 1830SOL     OW16951   4.164   0.135   6.917 -0.1916  0.4834 -1.3294
 1830SOL    HW116952   4.233   0.136   6.983  0.3286  1.4339 -1.9067
 1830SOL    HW216953   4.114   0.209   6.952  0.0868 -0.6570  1.5349
 1831SOL     OW16954   4.534   2.399   4.650  0.1832 -0.5702 -0.7652
 1831SOL    HW116955   4.618   2.418   4.608 -0.0639  2.2649  0.0124
 1831SOL    HW216956   4.548   2.319   4.699 -1.9083 -2.0562 -2.5707
 1832SOL     OW16957   2.385   3.899  15.145 -0.5569 -0.0131  0.2723
 1832SOL    HW116958   2.453   3.836  15.122 -1.2703 -0.2282 -1.2899
 1832SOL    HW216959   2.322   3.871  15.078 -1.1460 -1.1423  1.2825
 1833SOL     OW16960   3.827   4.227  17.533 -0.0014  0.1586 -0.2247
 1833SOL    HW116961   3.753   4.167  17.542  0.3465 -0.6867 -3.0936
 1833SOL    HW216962   3.883   4.164  17.487  0.5777  0.0703  0.5985
 1834SOL     OW16963   3.926   0.442   3.491  0.0758 -1.2368  0.2478
 1834SOL    HW116964   4.019   0.456   3.473  0.5330 -1.5694  2.2897
 1834SOL    HW216965   3.887   0.462   3.407  2.0861  1.1636 -0.1104
 1835SOL     OW16966   0.671   3.420   4.496  0.3443  0.7637  0.1682
 1835SOL    HW116967   0.579   3.429   4.522 -0.5544 -2.5673 -1.9339
 1835SOL    HW216968   0.713   3.482   4.555  0.1034  0.0517  1.0916
 1836SOL     OW16969   1.090   2.201   2.851 -0.3013  0.1325  0.6053
 1836SOL    HW116970   1.098   2.179   2.944 -1.8347  0.0991  0.7274
 1836SOL    HW216971   1.030   2.138   2.812 -1.2286  1.5784 -0.3156
 1837SOL     OW16972   1.010   2.541  14.069 -0.0515 -0.4861  0.5190
 1837SOL    HW116973   0.970   2.628  14.067 -0.2513 -0.6089 -0.7210
 1837SOL    HW216974   0.974   2.506  13.988  0.5318  0.5605 -0.1844
 1838SOL     OW16975   2.162   4.416  15.747  0.8756  0.2623  0.1919
 1838SOL    HW116976   2.072   4.387  15.733  1.5505 -1.1896 -1.1085
 1838SOL    HW216977   2.213   4.345  15.709 -0.1495  0.0527 -0.8000
 1839SOL     OW16978   1.365   4.581   9.278  0.4904 -0.2141 -0.0658
 1839SOL    HW116979   1.437   4.541   9.327 -0.4949  1.4081  2.7089
 1839SOL    HW216980   1.389   4.671   9.257  1.0074 -0.9980 -2.8307
 1840SOL     OW16981   3.997   3.297   1.418  0.0277  0.4050  0.0867
 1840SOL    HW116982   3.975   3.385   1.387  1.4687  1.0151  0.7860
 1840SOL    HW216983   4.001   3.250   1.335  2.0246 -0.4639  0.6737
 1841SOL     OW16984   2.382   3.289   2.317  0.3976 -0.4254 -0.3102
 1841SOL    HW116985   2.359   3.223   2.252  0.1464 -0.7428  0.1029
 1841SOL    HW216986   2.294   3.323   2.336 -0.3853 -0.5155 -3.7459
 1842SOL     OW16987   1.005   0.569   8.426 -0.6567  0.2388  0.1539
 1842SOL    HW116988   1.019   0.595   8.517  0.1817  0.4225 -0.0312
 1842SOL    HW216989   1.037   0.642   8.372 -1.2497  0.3366 -0.0695
 1843SOL     OW16990   3.595   2.179  10.779 -0.1495 -0.3328  0.1152
 1843SOL    HW116991   3.546   2.260  10.770  2.6798  1.6246  2.0574
 1843SOL    HW216992   3.541   2.123  10.835  1.3506 -2.3423 -0.4651
 1844SOL     OW16993   1.542   1.141   9.101  0.1476 -1.1717 -0.3584
 1844SOL    HW116994   1.557   1.110   9.012 -0.7885 -1.5340 -0.3968
 1844SOL    HW216995   1.582   1.066   9.146 -2.9658 -2.0829  0.9011
 1845SOL     OW16996   3.138   0.971  14.977  0.6064 -0.0085  0.1431
 1845SOL    HW116997   3.181   1.055  14.995  0.6162 -0.0412  0.2694
 1845SOL    HW216998   3.129   0.981  14.882  0.8041 -0.4793  0.0736
 1846SOL     OW16999   2.142   2.942   9.215  0.2989  0.6702  0.2248
 1846SOL    HW117000   2.148   2.994   9.295  2.5451  0.9527 -0.1457
 1846SOL    HW217001   2.142   3.010   9.147  0.5115 -0.8369 -1.2870
 1847SOL     OW17002   1.560   2.679   0.752  0.1077 -0.3407 -0.7057
 1847SOL    HW117003   1.614   2.718   0.820  0.7850 -0.3752 -1.2122
 1847SOL    HW217004   1.598   2.590   0.750  0.3312 -0.2673  0.8290
 1848SOL     OW17005   1.045   2.070   5.007 -0.2436  0.1527  0.1259
 1848SOL    HW117006   0.982   2.093   5.075 -0.0347 -0.3556  0.4900
 1848SOL    HW217007   1.061   2.152   4.959  3.4091 -1.3589 -1.2456
 1849SOL     OW17008   1.650   3.778   3.025 -0.2023  0.0054  0.3890
 1849SOL    HW117009   1.576   3.726   3.058  0.1545  0.1130  1.3480
 1849SOL    HW217010   1.611   3.852   2.978 -1.4190 -0.7091  0.2660
 1850SOL     OW17011   2.200   3.627   3.812 -0.1906  0.4896 -0.8512
 1850SOL    HW117012   2.193   3.621   3.907 -1.7559 -0.0923 -1.0028
 1850SOL    HW217013   2.120   3.668   3.780  0.7249  3.6883  0.9636
 1851SOL     OW17014   4.571   2.198   8.401  0.2350 -0.0649 -0.7216
 1851SOL    HW117015   4.640   2.190   8.468 -0.9257  1.1552  0.6310
 1851SOL    HW217016   4.600   2.132   8.338  2.3624  2.3739 -2.3011
 1852SOL     OW17017   3.378   4.537   4.660  0.0576 -0.0374  0.2180
 1852SOL    HW117018   3.322   4.587   4.718 -1.0386  0.2607 -1.0947
 1852SOL    HW217019   3.363   4.587   4.580 -0.4939  0.4735  0.6458
 1853SOL     OW17020   4.684   3.954  17.191  0.3425  0.7167  0.1727
 1853SOL    HW117021   4.694   3.860  17.176 -2.2224  0.3910  0.3935
 1853SOL    HW217022   4.692   4.003  17.109 -1.5198 -1.3626 -1.2656
 1854SOL     OW17023   0.747   3.830   2.740 -0.7870 -0.5714 -0.0523
 1854SOL    HW117024   0.691   3.755   2.719 -1.5681 -0.1520  0.5158
 1854SOL    HW217025   0.729   3.834   2.834 -1.0244  2.4056 -0.2100
 1855SOL     OW17026   2.755   1.548   6.696  0.1425 -0.0231  1.0123
 1855SOL    HW117027   2.763   1.627   6.750 -1.3450  0.4542  0.5449
 1855SOL    HW217028   2.664   1.523   6.713  0.0737  1.4889  2.9783
 1856SOL     OW17029   3.966   3.263   7.412  0.0449  0.6527 -0.6340
 1856SOL    HW117030   4.045   3.209   7.417 -1.5045 -1.4501  1.6480
 1856SOL    HW217031   3.967   3.285   7.319  2.6299 -0.0421 -0.7643
 1857SOL     OW17032   1.967   0.207   7.128 -0.9196  0.7190  0.6090
 1857SOL    HW117033   2.005   0.268   7.065 -0.6827 -0.9627 -0.8453
 1857SOL    HW217034   1.872   0.217   7.123 -1.0681 -1.0015  0.1090
 1858SOL     OW17035   0.485   0.628   7.838  0.0026  0.3575  0.1591
 1858SOL    HW117036   0.506   0.581   7.919 -1.7134  0.0874  0.4442
 1858SOL    HW217037   0.401   0.591   7.810  0.4546  0.4897 -1.3907
 1859SOL     OW17038   0.112   0.809  13.226 -0.0071  0.0510  0.1710
 1859SOL    HW117039   0.039   0.752  13.250  0.9064 -0.3384  2.0570
 1859SOL    HW217040   0.186   0.768  13.272  0.2036 -0.6760 -0.8141
 1860SOL     OW17041   1.432   1.306  13.098 -0.3324 -0.2217 -0.0374
 1860SOL    HW117042   1.433   1.345  13.011  0.6036 -0.0906  0.0332
 1860SOL    HW217043   1.352   1.253  13.101  0.9391 -2.0897  0.6375
 1861SOL     OW17044   3.464   1.527   7.570 -0.9945 -0.0149  0.1841
 1861SOL    HW117045   3.418   1.511   7.487 -0.3047  3.4434 -0.8811
 1861SOL    HW217046   3.455   1.621   7.585 -0.8102  0.3204 -1.7218
 1862SOL     OW17047   4.253   4.475   2.858  0.3740 -0.3151  0.3488
 1862SOL    HW117048   4.331   4.488   2.804 -0.5593 -0.6722 -1.0991
 1862SOL    HW217049   4.211   4.559   2.841 -0.2462 -0.9117 -1.0984
 1863SOL     OW17050   1.616   0.052   4.571 -0.3030 -0.1594  0.7663
 1863SOL    HW117051   1.532   0.043   4.526  0.5534  1.2893 -1.0719
 1863SOL    HW217052   1.587   0.032   4.661  0.1678 -0.8389  0.7676
 1864SOL     OW17053   4.704   0.755   1.419  0.5094 -0.0944 -0.3681
 1864SOL    HW117054   4.660   0.763   1.504 -0.2078 -1.3538 -0.6193
 1864SOL    HW217055   0.035   0.838   1.422  1.8023 -0.8812  0.2513
 1865SOL     OW17056   2.946   4.161  10.557 -0.0792 -0.5562  0.0949
 1865SOL    HW117057   2.988   4.215  10.490  1.8214 -1.7339  0.3538
 1865SOL    HW217058   2.915   4.230  10.616  0.8823  1.5648 -1.8664
 1866SOL     OW17059   1.142   2.156  14.388  0.1576 -0.2969  0.5674
 1866SOL    HW117060   1.049   2.177  14.378  0.5632 -0.4611 -3.6496
 1866SOL    HW217061   1.169   2.244  14.360  1.6954 -0.8930  0.1548
 1867SOL     OW17062   1.005   3.270  15.063 -0.0335 -0.1479 -0.0739
 1867SOL    HW117063   0.972   3.302  15.147  2.0792 -2.2274  1.5263
 1867SOL    HW217064   1.066   3.343  15.049 -1.1061  1.1003  1.7400
 1868SOL     OW17065   2.822   2.003   7.570 -0.1575 -0.5873 -0.2088
 1868SOL    HW117066   2.768   1.946   7.515 -0.4437 -1.7003  1.2365
 1868SOL    HW217067   2.760   2.011   7.642 -0.8631  0.8692 -0.9768
 1869SOL     OW17068   3.616   4.165   8.649  1.0237  0.6413 -0.1430
 1869SOL    HW117069   3.536   4.217   8.657  0.4710 -0.1373 -0.6817
 1869SOL    HW217070   3.678   4.228   8.686 -0.0603  0.7377  1.4999
 1870SOL     OW17071   1.004   2.419   0.497  0.4017  0.7474  0.0254
 1870SOL    HW117072   1.027   2.394   0.586 -1.4238 -0.6513  0.0878
 1870SOL    HW217073   0.996   2.332   0.458 -0.2793  0.5394  0.6455
 1871SOL     OW17074   0.237   3.701   5.355  0.1113  0.0826 -1.0345
 1871SOL    HW117075   0.285   3.647   5.417 -1.0491  1.3125  0.9329
 1871SOL    HW217076   0.316   3.718   5.304  1.8625  0.1039  1.7377
 1872SOL     OW17077   3.996   3.295   7.030 -0.2161 -0.2796 -0.0474
 1872SOL    HW117078   3.979   3.355   7.103  1.2230 -0.2004  0.2245
 1872SOL    HW217079   4.088   3.274   7.044 -0.8822 -3.1309 -0.0064
 1873SOL     OW17080   0.800   4.383   0.528  0.3918 -0.2276  0.0931
 1873SOL    HW117081   0.804   4.389   0.624 -1.0759 -1.8310  0.2455
 1873SOL    HW217082   0.767   4.471   0.509 -1.5123 -0.2380  3.3232
 1874SOL     OW17083   3.916   2.571   7.407  0.1650 -0.5650  0.6029
 1874SOL    HW117084   3.847   2.534   7.462 -0.7578  1.0524  0.5401
 1874SOL    HW217085   3.997   2.548   7.454  0.5507 -1.8706 -0.7092
 1875SOL     OW17086   3.981   2.113   4.109  0.0602  0.3150  0.0604
 1875SOL    HW117087   4.066   2.107   4.066 -0.1150 -0.4980 -0.1755
 1875SOL    HW217088   3.970   2.207   4.125  0.5222 -0.2557  3.6988
 1876SOL     OW17089   4.529   2.595  14.990 -0.0036 -0.0661  0.6164
 1876SOL    HW117090   4.479   2.677  14.988  0.7893  0.3804 -2.1493
 1876SOL    HW217091   4.606   2.626  14.942 -2.1928  3.1886 -0.8558
 1877SOL     OW17092   0.912   3.230   2.532  0.2720 -0.3671  0.2697
 1877SOL    HW117093   0.920   3.289   2.606  1.0191  0.3567 -0.3982
 1877SOL    HW217094   0.903   3.288   2.456 -1.7009 -0.0071  0.7799
 1878SOL     OW17095   4.461   1.640  10.463 -0.1433 -0.0585  0.1246
 1878SOL    HW117096   4.515   1.572  10.504 -3.1428 -3.2720 -1.1753
 1878SOL    HW217097   4.405   1.580  10.412 -1.3995  3.4987 -2.6198
 1879SOL     OW17098   2.960   1.088   2.838  0.0268 -0.0657  0.1629
 1879SOL    HW117099   3.008   1.085   2.755 -0.9305  0.1782 -0.3966
 1879SOL    HW217100   3.033   1.095   2.899 -0.4122  1.4540  0.5126
 1880SOL     OW17101   3.105   2.193   4.404 -0.7168 -0.1747 -0.2077
 1880SOL    HW117102   3.024   2.243   4.390 -1.0106 -0.6488 -0.2008
 1880SOL    HW217103   3.123   2.216   4.495  2.9066  3.0521 -1.7128
 1881SOL     OW17104   3.397   3.526   7.929 -0.0817  0.2560  0.6730
 1881SOL    HW117105   3.342   3.456   7.966 -0.1050  0.4842  1.0698
 1881SOL    HW217106   3.474   3.523   7.985 -0.2422  0.7461  0.9186
 1882SOL     OW17107   2.877   3.780  16.943 -0.5063  0.1592 -0.6163
 1882SOL    HW117108   2.962   3.773  16.901 -1.1735 -1.0915 -1.7604
 1882SOL    HW217109   2.875   3.875  16.956  0.9886  0.4784 -2.7468
 1883SOL     OW17110   0.650   3.050  12.116 -0.0766 -1.1059 -0.1201
 1883SOL    HW117111   0.722   2.996  12.149 -0.7011 -3.4391 -2.5157
 1883SOL    HW217112   0.574   3.013  12.163 -1.1608  2.3065  0.8052
 1884SOL     OW17113   4.293   1.685   3.066  0.2640  0.3298 -0.0956
 1884SOL    HW117114   4.336   1.766   3.095  0.6721 -0.4285  1.4312
 1884SOL    HW217115   4.211   1.712   3.108  1.0225  0.7022  1.1658
 1885SOL     OW17116   1.985   3.780   7.055 -0.1547  0.4281  0.2629
 1885SOL    HW117117   1.947   3.719   6.992  2.9631 -1.9787  0.6930
 1885SOL    HW217118   2.076   3.751   7.049 -0.6605 -1.4889  1.5846
 1886SOL     OW17119   4.533   0.853   2.938 -0.6588 -0.5889 -0.5254
 1886SOL    HW117120   4.578   0.772   2.914 -2.2008 -0.4575 -3.8570
 1886SOL    HW217121   4.447   0.811   2.938  0.0495 -2.0428  0.6092
 1887SOL     OW17122   0.494   3.541   5.435  0.0328  0.2933  0.5008
 1887SOL    HW117123   0.504   3.600   5.360 -5.2092 -0.0024 -0.4352
 1887SOL    HW217124   0.511   3.609   5.501 -2.3758  1.2678  0.1241
 1888SOL     OW17125   1.909   0.487   0.647  0.6918  0.5131 -0.3130
 1888SOL    HW117126   1.919   0.407   0.700  0.6521  0.9592  0.3660
 1888SOL    HW217127   1.838   0.453   0.593  0.1332  0.4323  0.4730
 1889SOL     OW17128   3.072   2.985   2.190 -0.2458  0.4377 -0.2555
 1889SOL    HW117129   3.153   3.019   2.151  0.0913  0.9178  0.8745
 1889SOL    HW217130   3.110   2.933   2.261 -0.8010 -1.6530 -1.4773
 1890SOL     OW17131   1.341   2.044   8.345 -0.0033  0.2510  0.0284
 1890SOL    HW117132   1.425   2.002   8.329 -1.4358 -3.0031  1.0344
 1890SOL    HW217133   1.342   2.028   8.440  2.7856  0.0751 -0.0458
 1891SOL     OW17134   1.163   0.324   5.525 -0.1226  0.4176 -0.0761
 1891SOL    HW117135   1.148   0.234   5.498  2.0427  0.3617 -1.0928
 1891SOL    HW217136   1.257   0.328   5.509 -0.3268 -0.7344 -1.5512
 1892SOL     OW17137   3.335   0.810  11.283  0.2653  0.1284 -0.5098
 1892SOL    HW117138   3.365   0.792  11.372  3.1339  0.8497 -1.3077
 1892SOL    HW217139   3.270   0.741  11.277  0.6141 -0.1703 -0.8784
 1893SOL     OW17140   3.463   2.492   0.317 -0.0778  0.1193 -0.1542
 1893SOL    HW117141   3.526   2.562   0.332  0.1455  0.5804 -3.3181
 1893SOL    HW217142   3.381   2.532   0.287 -0.6805 -0.5106  0.6147
 1894SOL     OW17143   2.792   0.626  14.080 -0.1457 -0.0114  0.9262
 1894SOL    HW117144   2.754   0.567  14.146  0.2015 -1.2752 -0.0060
 1894SOL    HW217145   2.738   0.705  14.086  0.5144  0.4485  0.6961
 1895SOL     OW17146   3.390   3.773   3.247  0.2626 -0.3460 -0.1155
 1895SOL    HW117147   3.398   3.844   3.183 -0.5381  2.4365  2.8847
 1895SOL    HW217148   3.303   3.740   3.227 -0.0945 -0.4337  1.6289
 1896SOL     OW17149   0.070   0.697   7.382  0.2731  0.2606  0.0655
 1896SOL    HW117150   0.095   0.789   7.374  0.7013  0.0813 -0.7141
 1896SOL    HW217151   4.707   0.698   7.332  0.5740 -1.9076 -0.4815
 1897SOL     OW17152   2.779   3.465   6.529 -0.1275 -0.0793 -0.6854
 1897SOL    HW117153   2.692   3.494   6.557 -0.2756 -0.2587 -0.9603
 1897SOL    HW217154   2.831   3.541   6.555  0.1964 -1.0883  1.5692
 1898SOL     OW17155   1.350   2.113   4.101  0.0700  0.1133 -0.0847
 1898SOL    HW117156   1.286   2.184   4.105 -0.8531 -0.6998 -0.5313
 1898SOL    HW217157   1.410   2.134   4.173 -1.6251  3.0435  0.4655
 1899SOL     OW17158   4.191   1.668   5.397  0.4101 -0.4760  0.3738
 1899SOL    HW117159   4.177   1.648   5.490 -0.8929 -3.2474 -0.4136
 1899SOL    HW217160   4.284   1.692   5.400  0.3875 -0.3879  0.3737
 1900SOL     OW17161   1.600   2.102  11.435  0.3339 -0.3564  0.1961
 1900SOL    HW117162   1.575   2.052  11.512 -1.4385  1.9210  1.0976
 1900SOL    HW217163   1.515   2.140  11.414  1.0145  0.5163 -0.9972
 1901SOL     OW17164   0.117   3.074   2.361 -0.1771  0.0606 -0.3367
 1901SOL    HW117165   0.193   3.129   2.342 -0.4948  0.3443 -0.7947
 1901SOL    HW217166   0.047   3.125   2.319 -1.3893 -1.2564  0.0699
 1902SOL     OW17167   1.784   3.886   3.450  0.0513  0.1124  0.1995
 1902SOL    HW117168   1.813   3.880   3.359 -1.9402 -0.8852 -0.3614
 1902SOL    HW217169   1.719   3.816   3.459  0.0621  0.4187  2.8120
 1903SOL     OW17170   1.755   1.376  12.406  0.4206  0.4367 -0.5818
 1903SOL    HW117171   1.768   1.419  12.322  0.2386 -1.1984 -1.4387
 1903SOL    HW217172   1.673   1.410  12.441  0.6279  1.2549 -0.8883
 1904SOL     OW17173   4.492   1.040   3.263  0.3707  0.0545 -0.3186
 1904SOL    HW117174   4.453   1.124   3.288 -0.2761 -0.0212 -1.0441
 1904SOL    HW217175   4.427   0.976   3.291  1.0126 -0.5546 -0.2184
 1905SOL     OW17176   1.135   2.661  15.842  0.3469  0.2573 -0.2171
 1905SOL    HW117177   1.185   2.579  15.834  0.1025 -0.1476  2.5786
 1905SOL    HW217178   1.198   2.732  15.854  0.7614 -0.3765  1.2949
 1906SOL     OW17179   2.482   3.123   2.764 -0.1688 -0.1911  0.2420
 1906SOL    HW117180   2.565   3.087   2.793 -0.4840 -1.4422 -0.4434
 1906SOL    HW217181   2.500   3.166   2.680  0.7688  0.2188  0.6523
 1907SOL     OW17182   1.384   2.971   5.377  0.0901 -0.1627  0.5306
 1907SOL    HW117183   1.406   2.915   5.451  1.9235 -1.9351 -1.3329
 1907SOL    HW217184   1.364   2.903   5.312  1.7486  0.4983 -0.6911
 1908SOL     OW17185   4.372   4.599   8.477 -0.0946 -0.4911  0.3605
 1908SOL    HW117186   4.291   4.589   8.527 -1.3315  0.8945 -1.4043
 1908SOL    HW217187   4.417   4.522   8.513 -0.2332 -0.9808 -0.5278
 1909SOL     OW17188   0.303   1.239  16.970 -0.0010 -0.6372 -0.3015
 1909SOL    HW117189   0.317   1.149  16.938 -0.7706 -0.3114 -1.5384
 1909SOL    HW217190   0.260   1.282  16.897 -1.5311 -1.3973  0.1568
 1910SOL     OW17191   0.088   1.190   7.383 -0.1214 -0.2136 -0.5998
 1910SOL    HW117192   0.048   1.272   7.353  0.9224  0.4536 -0.1649
 1910SOL    HW217193   0.036   1.173   7.462 -0.0478 -0.1302 -0.5343
 1911SOL     OW17194   4.488   1.251  12.768 -0.3927 -0.4386  0.6924
 1911SOL    HW117195   4.538   1.184  12.723 -1.7724 -1.5706  0.8411
 1911SOL    HW217196   4.491   1.328  12.710  2.3183 -0.0345  1.3889
 1912SOL     OW17197   4.432   4.663  10.230 -0.8485  0.2418 -0.0763
 1912SOL    HW117198   4.492   4.709  10.288  3.0816 -1.2759 -2.9153
 1912SOL    HW217199   4.351   4.661  10.280 -0.0086 -1.5410  1.1910
 1913SOL     OW17200   3.674   1.786  10.766 -0.0318 -0.8268  0.0151
 1913SOL    HW117201   3.607   1.840  10.725 -0.8195 -0.5217  1.7118
 1913SOL    HW217202   3.749   1.821  10.718 -0.4998  0.7836  0.4306
 1914SOL     OW17203   3.628   0.923   3.987  0.2684  0.1344  0.3063
 1914SOL    HW117204   3.547   0.963   4.019  1.0332  1.8166  0.1298
 1914SOL    HW217205   3.594   0.834   3.980  1.0080  0.1086 -2.8031
 1915SOL     OW17206   4.148   3.608   9.968  0.2542 -0.0530  0.2490
 1915SOL    HW117207   4.162   3.633   9.876  0.8320  0.0776  0.3748
 1915SOL    HW217208   4.116   3.690  10.006 -0.4109 -0.4172  0.4771
 1916SOL     OW17209   2.535   0.487  10.425 -0.0662  0.4368  0.0670
 1916SOL    HW117210   2.555   0.503  10.518 -0.5815 -2.0823  0.6253
 1916SOL    HW217211   2.473   0.417  10.446  1.2031 -1.1134 -1.3184
 1917SOL     OW17212   3.065   0.505   4.345  1.0132  0.1558 -0.3826
 1917SOL    HW117213   3.060   0.593   4.307 -1.3129  0.1114 -0.1993
 1917SOL    HW217214   3.096   0.447   4.276  0.3765 -1.5063  0.7197
 1918SOL     OW17215   2.877   3.793  14.317 -0.0967 -0.2435 -0.3856
 1918SOL    HW117216   2.789   3.828  14.327 -0.0082 -0.1704  0.1395
 1918SOL    HW217217   2.879   3.782  14.222 -2.7725  0.1495 -0.4808
 1919SOL     OW17218   1.324   4.221   1.681 -0.7317  0.3410  0.1343
 1919SOL    HW117219   1.398   4.282   1.674  0.9395 -1.6834  0.2551
 1919SOL    HW217220   1.302   4.248   1.771 -1.1575  1.6953 -0.3636
 1920SOL     OW17221   1.573   1.324   5.879 -0.4357 -0.2353 -0.0592
 1920SOL    HW117222   1.653   1.277   5.852  0.9482  1.3798  1.1992
 1920SOL    HW217223   1.556   1.280   5.962 -0.7610 -0.4503 -0.2420
 1921SOL     OW17224   3.241   4.361  15.165  0.3517 -0.6542  0.3107
 1921SOL    HW117225   3.275   4.446  15.136  1.3234 -1.0202  0.3714
 1921SOL    HW217226   3.183   4.382  15.238 -1.0039 -1.0360 -0.6439
 1922SOL     OW17227   2.829   3.697   3.589 -0.1986  0.2238 -0.4053
 1922SOL    HW117228   2.779   3.657   3.660 -0.5439  0.2734 -0.6240
 1922SOL    HW217229   2.755   3.743   3.550  0.1236 -0.1545 -1.4793
 1923SOL     OW17230   1.197   3.071   6.646  0.1201  0.2479  0.5963
 1923SOL    HW117231   1.137   3.037   6.580  0.1153 -0.6223  1.0570
 1923SOL    HW217232   1.284   3.066   6.606 -1.0720 -0.6030 -1.8480
 1924SOL     OW17233   3.458   3.571   2.057 -0.6633  0.3226 -0.1790
 1924SOL    HW117234   3.417   3.634   2.116 -0.8934 -1.9589  2.0610
 1924SOL    HW217235   3.390   3.563   1.989 -2.3586  1.0531  1.4215
 1925SOL     OW17236   2.062   4.239   7.570  0.1917  0.0971 -0.0633
 1925SOL    HW117237   1.981   4.188   7.562 -0.2561  1.0909 -1.6467
 1925SOL    HW217238   2.099   4.208   7.488  0.9559  0.2017  0.2395
 1926SOL     OW17239   1.876   2.164   7.885 -0.2717 -0.2702  0.0220
 1926SOL    HW117240   1.936   2.191   7.955 -0.9621  1.9608 -0.2508
 1926SOL    HW217241   1.886   2.069   7.884  1.5555 -0.0794 -0.0041
 1927SOL     OW17242   1.118   1.161   9.097 -0.3696  0.5010 -0.0686
 1927SOL    HW117243   1.177   1.086   9.107  0.9552  1.6725  1.1318
 1927SOL    HW217244   1.178   1.231   9.071  1.1731 -0.9344 -0.3988
 1928SOL     OW17245   0.986   4.311   0.329 -0.1306  0.2704  0.1753
 1928SOL    HW117246   1.030   4.235   0.367 -1.1132 -0.6474 -0.5295
 1928SOL    HW217247   0.930   4.329   0.405  0.5421 -0.4531  0.8439
 1929SOL     OW17248   0.476   3.257   6.370  0.0907  0.7295  0.1517
 1929SOL    HW117249   0.511   3.168   6.385 -0.0721  0.7266  0.5002
 1929SOL    HW217250   0.488   3.299   6.455  1.2469  1.5319 -0.4083
 1930SOL     OW17251   0.442   3.580   5.895  0.5259  0.1206  0.5469
 1930SOL    HW117252   0.426   3.616   5.983  0.2366 -0.9006  0.9050
 1930SOL    HW217253   0.378   3.509   5.893  1.5081 -0.7538  0.5261
 1931SOL     OW17254   2.559   2.848   2.493 -0.5791  0.0958  0.1701
 1931SOL    HW117255   2.517   2.824   2.576 -1.9873 -1.9219 -1.1385
 1931SOL    HW217256   2.650   2.844   2.520  0.1734 -0.7429 -2.5403
 1932SOL     OW17257   4.297   3.817   7.146 -0.3406  0.0395  0.1435
 1932SOL    HW117258   4.370   3.766   7.111 -1.2323 -2.4640  1.8575
 1932SOL    HW217259   4.252   3.748   7.195  0.7296 -1.0996 -0.4785
 1933SOL     OW17260   3.522   3.025  10.059 -0.2715 -0.1708 -0.1670
 1933SOL    HW117261   3.571   3.082   9.999  0.5173  1.5985  2.1731
 1933SOL    HW217262   3.445   3.023  10.001  1.0691 -1.5019 -1.9093
 1934SOL     OW17263   2.529   2.252   8.801 -0.8107  0.4879 -0.6687
 1934SOL    HW117264   2.492   2.340   8.805  0.5957  0.9629  2.5497
 1934SOL    HW217265   2.520   2.220   8.891 -1.6906  1.2794 -0.4788
 1935SOL     OW17266   1.817   4.331   9.653  0.4253  0.4743 -0.1480
 1935SOL    HW117267   1.880   4.397   9.680  1.3513 -0.2574 -0.5349
 1935SOL    HW217268   1.875   4.268   9.611  1.1297  0.0391  1.4986
 1936SOL     OW17269   3.229   1.811  11.531  0.0949  0.5344  0.3202
 1936SOL    HW117270   3.283   1.753  11.477 -1.0988  0.4633 -0.7811
 1936SOL    HW217271   3.208   1.881  11.469  2.2910 -1.1828 -2.3786
 1937SOL     OW17272   3.569   4.654   1.845  0.7421 -0.1092 -0.1946
 1937SOL    HW117273   3.487   4.696   1.873  3.3095  2.8046  2.9842
 1937SOL    HW217274   3.611   0.018   1.820  0.6828 -0.2667 -0.8065
 1938SOL     OW17275   3.517   4.309   4.549  0.5022  0.1903  0.3991
 1938SOL    HW117276   3.461   4.237   4.579 -0.8021  0.8670 -0.3843
 1938SOL    HW217277   3.490   4.385   4.601 -1.5114 -0.4461  0.3051
 1939SOL     OW17278   3.840   2.453   4.842  0.3870 -0.5896 -0.5723
 1939SOL    HW117279   3.859   2.467   4.749  0.6566  1.6684 -0.1710
 1939SOL    HW217280   3.818   2.360   4.829  0.2959 -0.6821  0.2493
 1940SOL     OW17281   4.413   0.292  14.595  0.1240 -0.4238 -0.0622
 1940SOL    HW117282   4.505   0.267  14.599 -0.5403 -2.6622  1.1381
 1940SOL    HW217283   4.405   0.358  14.526 -0.3725 -0.8255 -0.3947
 1941SOL     OW17284   3.085   2.256  13.208  0.1203  0.0895 -0.5802
 1941SOL    HW117285   3.004   2.209  13.188 -0.4521  1.2365 -0.9320
 1941SOL    HW217286   3.077   2.270  13.302 -1.2560  0.1792 -0.7181
 1942SOL     OW17287   1.989   2.875   6.931 -0.3244 -0.3211 -0.4341
 1942SOL    HW117288   1.915   2.831   6.890 -2.1464  1.2536  1.1663
 1942SOL    HW217289   1.949   2.928   7.000  0.9620  0.1485 -0.0409
 1943SOL     OW17290   0.654   3.553  10.495 -0.2888 -0.1062 -0.1258
 1943SOL    HW117291   0.730   3.580  10.546  0.9675 -3.1150 -0.3728
 1943SOL    HW217292   0.597   3.625  10.522 -0.4715 -0.1392 -0.4230
 1944SOL     OW17293   3.619   3.204   7.961  0.0495  0.3279 -0.1690
 1944SOL    HW117294   3.594   3.234   8.048 -0.5316  1.2065 -0.6328
 1944SOL    HW217295   3.712   3.187   7.973  0.5893  3.6282  0.1961
 1945SOL     OW17296   1.304   3.827   6.165  0.5406 -0.0259  0.2391
 1945SOL    HW117297   1.271   3.821   6.076 -0.4100  3.8311  0.3134
 1945SOL    HW217298   1.254   3.896   6.209 -0.7847 -1.2441  0.6563
 1946SOL     OW17299   0.305   0.395   8.182 -0.4620  0.0596 -0.0086
 1946SOL    HW117300   0.236   0.356   8.235  0.6425 -0.0728  1.3153
 1946SOL    HW217301   0.250   0.462   8.142  1.1544  2.1575  1.2915
 1947SOL     OW17302   3.333   2.312   3.548 -0.5524 -0.4800  0.0570
 1947SOL    HW117303   3.358   2.228   3.508 -0.2266 -0.2547 -0.2144
 1947SOL    HW217304   3.420   2.348   3.568 -1.0830  0.5615  0.4642
 1948SOL     OW17305   4.695   1.855  10.407  0.3403 -0.0181 -0.2074
 1948SOL    HW117306   0.014   1.799  10.339  1.2983  0.2666  0.0848
 1948SOL    HW217307   4.655   1.788  10.463 -2.1337  1.3900 -0.2790
 1949SOL     OW17308   0.782   3.825   9.004 -0.4530 -0.0698 -0.1660
 1949SOL    HW117309   0.750   3.872   8.928 -1.3052  4.1824  2.8504
 1949SOL    HW217310   0.739   3.872   9.075  1.3089  2.5678 -0.8575
 1950SOL     OW17311   4.417   3.773   1.759  0.4868 -0.0057  0.3476
 1950SOL    HW117312   4.479   3.716   1.716 -1.5410 -0.7881 -1.5251
 1950SOL    HW217313   4.352   3.710   1.791 -0.8856  2.1829  1.9125
 1951SOL     OW17314   1.719   4.344  14.501 -0.0345  0.3796  0.6770
 1951SOL    HW117315   1.725   4.249  14.491 -1.2567  0.4380 -0.4106
 1951SOL    HW217316   1.771   4.373  14.426  0.4337  0.1754  0.9191
 1952SOL     OW17317   3.990   2.259   2.769  0.1694  0.0972 -0.1735
 1952SOL    HW117318   4.041   2.323   2.818 -0.6518  0.3307  0.3951
 1952SOL    HW217319   4.027   2.176   2.799 -3.5200 -0.9349  1.5801
 1953SOL     OW17320   3.224   2.036   1.910  0.1841 -0.0377  0.1016
 1953SOL    HW117321   3.304   2.011   1.863  1.9916  0.4215  2.9505
 1953SOL    HW217322   3.263   2.099   1.970 -1.6297  0.1704  1.0373
 1954SOL     OW17323   2.608   2.934  17.277  0.1563  0.2119 -0.2921
 1954SOL    HW117324   2.604   2.894  17.190  1.2878 -0.0835 -0.2054
 1954SOL    HW217325   2.514   2.921  17.294  0.1742  1.9292  1.0273
 1955SOL     OW17326   2.602   1.868   7.045  0.1562 -0.8258  0.0708
 1955SOL    HW117327   2.669   1.934   7.028 -0.5072  0.0080  0.6667
 1955SOL    HW217328   2.650   1.801   7.093 -1.4230 -0.6750  1.8445
 1956SOL     OW17329   1.402   0.458   8.224 -1.2410 -0.3163 -0.4489
 1956SOL    HW117330   1.468   0.514   8.183  0.2099 -1.1230  0.7674
 1956SOL    HW217331   1.392   0.508   8.305 -0.1327 -3.3723  1.5783
 1957SOL     OW17332   4.325   2.686   8.321  0.0537  0.1331  0.0402
 1957SOL    HW117333   4.347   2.633   8.398 -0.3838 -0.3752 -0.1880
 1957SOL    HW217334   4.250   2.639   8.286 -0.1956  0.5425  0.0285
 1958SOL     OW17335   3.157   0.528  12.744  0.1799  0.3357 -0.0811
 1958SOL    HW117336   3.226   0.476  12.703  0.3667  1.3376 -1.0374
 1958SOL    HW217337   3.166   0.610  12.696  0.3365  0.6694  0.5148
 1959SOL     OW17338   0.862   4.676   5.988  0.5409 -0.2177 -0.0844
 1959SOL    HW117339   0.839   0.039   6.032  1.1987  0.9328 -1.8789
 1959SOL    HW217340   0.949   4.693   5.952  0.8105 -2.1953 -0.3662
 1960SOL     OW17341   3.042   3.401   7.550  0.4816  0.3119  0.5004
 1960SOL    HW117342   3.106   3.353   7.602  0.6209  0.1479  0.1792
 1960SOL    HW217343   3.052   3.492   7.575 -1.1093  0.2075  1.4855
 1961SOL     OW17344   3.580   2.147  10.417 -1.0337  0.0176 -0.6566
 1961SOL    HW117345   3.527   2.226  10.407 -0.9828 -0.0936 -1.8130
 1961SOL    HW217346   3.656   2.185  10.460 -1.9158 -0.5005  1.3702
 1962SOL     OW17347   2.343   0.063  16.486  0.4776 -0.0127 -0.5586
 1962SOL    HW117348   2.291   0.078  16.565  0.5444 -1.3891 -0.2441
 1962SOL    HW217349   2.286   0.016  16.425  1.6733 -0.7410 -1.1233
 1963SOL     OW17350   1.925   1.332  11.881  0.4680  0.0994  0.2025
 1963SOL    HW117351   1.842   1.286  11.889 -0.4043  1.6338 -0.0991
 1963SOL    HW217352   1.930   1.342  11.786  0.7455  0.5563  0.2662
 1964SOL     OW17353   4.009   0.957   4.233  0.1422 -0.4498 -0.8287
 1964SOL    HW117354   4.092   0.996   4.258  0.8265 -2.6820  0.4263
 1964SOL    HW217355   4.000   0.999   4.147 -1.5292  0.4739 -0.2063
 1965SOL     OW17356   4.504   4.140   1.675  0.0521 -0.5061  0.3611
 1965SOL    HW117357   4.493   4.229   1.641  1.4143 -0.7521 -0.7242
 1965SOL    HW217358   4.431   4.102   1.625  1.4807  1.8360 -3.5383
 1966SOL     OW17359   1.947   0.031   8.274  0.4975 -0.2903  0.3429
 1966SOL    HW117360   2.013   4.680   8.276  1.0222  0.1668 -1.1499
 1966SOL    HW217361   1.992   0.075   8.202 -0.8052  1.1094  0.3942
 1967SOL     OW17362   1.470   1.503   2.375 -0.4220 -0.7280  0.8578
 1967SOL    HW117363   1.471   1.407   2.376  1.9118 -0.7360 -2.5686
 1967SOL    HW217364   1.507   1.529   2.290 -2.6410 -0.3613  0.0032
 1968SOL     OW17365   3.705   4.358  12.059  0.4659  0.5340  0.0071
 1968SOL    HW117366   3.750   4.406  12.129  1.2270  0.6176 -0.5360
 1968SOL    HW217367   3.782   4.315  12.021 -0.3177 -0.7493 -0.1241
 1969SOL     OW17368   0.530   0.222   9.702 -0.0085  0.2146 -0.1146
 1969SOL    HW117369   0.568   0.142   9.664 -1.2194 -0.7716  0.7659
 1969SOL    HW217370   0.450   0.228   9.650 -0.4396 -2.1109  0.2671
 1970SOL     OW17371   3.917   4.538  16.817 -0.1287  0.0467  0.0289
 1970SOL    HW117372   3.832   4.565  16.784  0.3157 -1.0897 -2.0688
 1970SOL    HW217373   3.971   4.604  16.773 -0.6687  0.7824  0.4786
 1971SOL     OW17374   2.836   2.964  10.958  0.1264 -0.1213 -0.1187
 1971SOL    HW117375   2.847   3.018  10.879 -0.3861 -0.0231 -0.1248
 1971SOL    HW217376   2.910   3.001  11.006 -0.4952  3.1773 -1.7366
 1972SOL     OW17377   4.364   2.618   1.020 -0.0974  0.0541 -0.6666
 1972SOL    HW117378   4.273   2.614   0.990 -0.2833 -1.4518  0.0783
 1972SOL    HW217379   4.391   2.530   0.993  1.8701  0.3100  0.4049
 1973SOL     OW17380   0.169   3.152   3.924  0.5283 -0.2087  0.4985
 1973SOL    HW117381   0.141   3.116   3.840  0.6487  0.0156  0.3609
 1973SOL    HW217382   0.264   3.148   3.922  0.5572  0.1748  1.1882
 1974SOL     OW17383   3.750   4.282   9.137 -0.3500  0.8551 -0.1285
 1974SOL    HW117384   3.841   4.309   9.146  1.0230 -2.9752 -2.1812
 1974SOL    HW217385   3.716   4.354   9.084  2.6706  0.7887 -2.1086
 1975SOL     OW17386   3.479   4.349   0.101  0.1522 -0.0313 -0.3780
 1975SOL    HW117387   3.499   4.291   0.027 -2.2279 -1.5108  0.1516
 1975SOL    HW217388   3.511   4.283   0.163 -0.2442  1.7639  1.6835
 1976SOL     OW17389   3.738   2.486   2.350 -0.1301  0.6258  0.3294
 1976SOL    HW117390   3.823   2.475   2.309  0.3467  4.9033  0.1032
 1976SOL    HW217391   3.755   2.442   2.433  0.5092  0.3531  0.0499
 1977SOL     OW17392   2.003   2.523   6.619 -0.0449 -0.3736 -0.2110
 1977SOL    HW117393   2.016   2.484   6.706  0.7422 -1.3810 -0.7791
 1977SOL    HW217394   2.090   2.508   6.581 -0.3342  0.1785 -1.0819
 1978SOL     OW17395   3.816   4.187  15.302  0.2856  0.5234  0.1149
 1978SOL    HW117396   3.744   4.128  15.324  0.3383  0.9848  1.5172
 1978SOL    HW217397   3.772   4.235  15.231 -1.8391 -1.9708 -0.2391
 1979SOL     OW17398   0.580   1.722  14.035 -0.7198 -0.4061  0.1669
 1979SOL    HW117399   0.514   1.777  13.993 -1.0608 -0.8312  0.1439
 1979SOL    HW217400   0.534   1.687  14.111 -3.5906  0.3369 -1.2369
 1980SOL     OW17401   1.750   4.600   7.301  0.8821 -0.3250 -0.0794
 1980SOL    HW117402   1.762   4.647   7.384  0.1132  0.3884 -0.3695
 1980SOL    HW217403   1.843   4.590   7.284  0.5119 -2.8707 -0.6359
 1981SOL     OW17404   3.544   0.489   8.344  0.7287 -0.5792  0.1904
 1981SOL    HW117405   3.477   0.434   8.385 -1.3953  1.5114 -0.4856
 1981SOL    HW217406   3.533   0.569   8.395  0.4197 -0.8344  0.5233
 1982SOL     OW17407   3.823   2.516   4.551  0.1965 -0.1564  0.5028
 1982SOL    HW117408   3.916   2.494   4.557  0.2330  0.3326  1.6195
 1982SOL    HW217409   3.796   2.432   4.514  0.4134 -0.3862  0.8671
 1983SOL     OW17410   3.584   2.912   3.941  0.2626 -0.2520  0.7617
 1983SOL    HW117411   3.566   2.829   3.898  0.5529  0.1796 -0.1937
 1983SOL    HW217412   3.583   2.899   4.036  1.7622  0.4494  0.8877
 1984SOL     OW17413   1.078   1.656   6.030 -0.8194 -0.1169  0.2060
 1984SOL    HW117414   1.077   1.661   6.125 -0.0523 -0.0532  0.2125
 1984SOL    HW217415   1.110   1.571   6.001 -0.1955 -0.5157  2.0859
 1985SOL     OW17416   3.383   2.420  17.336 -0.3684 -0.2342 -0.2206
 1985SOL    HW117417   3.334   2.496  17.306  1.2063  0.4629 -1.0479
 1985SOL    HW217418   3.348   2.354  17.276 -0.6450  2.3780 -2.9147
 1986SOL     OW17419   1.720   0.613   6.592  0.0967 -0.0262 -0.4646
 1986SOL    HW117420   1.717   0.654   6.506  0.2436 -1.8677 -1.3426
 1986SOL    HW217421   1.772   0.669   6.648  0.0545 -0.4038 -0.0441
 1987SOL     OW17422   4.685   4.201   2.782 -0.3530  0.3974 -0.4715
 1987SOL    HW117423   4.666   4.111   2.754 -2.2579 -0.4098  3.4139
 1987SOL    HW217424   0.050   4.191   2.827 -0.1252  0.3323 -0.9110
 1988SOL     OW17425   2.142   1.377  15.602 -0.2109 -0.1045  0.4526
 1988SOL    HW117426   2.123   1.409  15.690  0.4668 -0.1205  0.6070
 1988SOL    HW217427   2.194   1.299  15.621 -0.7883 -0.7702 -0.7597
 1989SOL     OW17428   1.208   3.952   5.937 -0.5742  0.1874 -0.3673
 1989SOL    HW117429   1.201   4.034   5.889 -0.1460  0.5480  0.1715
 1989SOL    HW217430   1.120   3.919   5.951 -0.1097 -0.6173  0.6704
 1990SOL     OW17431   2.546   3.485   8.378  0.2716  0.4783 -0.0293
 1990SOL    HW117432   2.555   3.448   8.290 -0.6944  1.1797 -0.4229
 1990SOL    HW217433   2.631   3.526   8.395  0.8175 -0.5056 -0.3597
 1991SOL     OW17434   2.338   4.124  17.202 -0.3088  0.3958  0.3442
 1991SOL    HW117435   2.373   4.188  17.140 -0.3001 -0.8032 -0.8682
 1991SOL    HW217436   2.411   4.066  17.222 -0.6520 -0.5114 -1.0422
 1992SOL     OW17437   4.416   3.336  11.876  0.2780  0.1414 -0.0910
 1992SOL    HW117438   4.419   3.256  11.823  0.0436  0.3285 -0.3847
 1992SOL    HW217439   4.416   3.413  11.818 -1.9954 -0.7859 -1.2849
 1993SOL     OW17440   2.736   1.560  11.652  1.2968  0.2185 -0.0373
 1993SOL    HW117441   2.787   1.510  11.717  0.2169 -1.6832 -0.6644
 1993SOL    HW217442   2.791   1.534  11.578 -0.8911 -2.7087 -0.6278
 1994SOL     OW17443   2.592   1.236   4.930 -0.3023  1.0005  0.1617
 1994SOL    HW117444   2.551   1.199   4.852  2.1004 -1.2013 -0.0221
 1994SOL    HW217445   2.547   1.191   5.001  0.6418  0.4761  0.4195
 1995SOL     OW17446   1.054   2.368   2.489  0.1758 -0.8320 -0.3168
 1995SOL    HW117447   1.058   2.356   2.584  3.7047  3.2620  0.0480
 1995SOL    HW217448   0.964   2.339   2.476  0.7231 -2.4279 -0.4606
 1996SOL     OW17449   2.808   0.985   1.197 -0.1216  0.1392 -0.3280
 1996SOL    HW117450   2.801   0.903   1.244 -3.0434 -0.0000 -1.0303
 1996SOL    HW217451   2.902   0.978   1.179  0.2150  0.7085  1.2454
 1997SOL     OW17452   1.098   1.879   8.788  0.3540 -0.0265 -0.3073
 1997SOL    HW117453   1.172   1.905   8.843 -0.4166  2.4056 -0.4301
 1997SOL    HW217454   1.027   1.931   8.825  0.7156 -0.7042  1.3585
 1998SOL     OW17455   1.078   0.276  15.874  0.1172  0.5744 -0.1641
 1998SOL    HW117456   1.132   0.327  15.935  2.3294 -1.8854 -0.0667
 1998SOL    HW217457   1.019   0.342  15.837  0.9654  1.0315 -0.6931
 1999SOL     OW17458   1.701   1.611   1.224 -0.5188  0.4721 -0.0124
 1999SOL    HW117459   1.748   1.694   1.218  1.3009 -0.6409 -1.0096
 1999SOL    HW217460   1.760   1.555   1.274 -1.9914  0.2902  1.5255
 2000SOL     OW17461   1.793   2.394   2.153  0.4777 -0.3798 -0.3643
 2000SOL    HW117462   1.737   2.403   2.231  1.6219  0.4893  0.3635
 2000SOL    HW217463   1.787   2.481   2.113 -1.0535  1.2217  3.3086
 2001SOL     OW17464   1.065   1.891   1.072  0.0349 -0.2800 -0.0040
 2001SOL    HW117465   0.990   1.843   1.038  2.0250 -2.4539 -1.3084
 2001SOL    HW217466   1.029   1.939   1.146 -1.4466  1.1441 -1.6487
 2002SOL     OW17467   1.954   0.922   2.453 -0.1816  0.4152  0.6351
 2002SOL    HW117468   1.881   0.871   2.489  0.3325  0.2038  1.3719
 2002SOL    HW217469   1.942   0.916   2.358  0.0322 -2.4551  0.7850
 2003SOL     OW17470   3.670   1.683   6.604  0.1431  0.7610 -0.6501
 2003SOL    HW117471   3.733   1.626   6.561  0.8639  0.8510  0.2879
 2003SOL    HW217472   3.706   1.771   6.596 -1.2405  1.3609 -0.3851
 2004SOL     OW17473   1.159   2.018   9.800 -0.6307 -0.5005 -0.0736
 2004SOL    HW117474   1.100   2.038   9.873 -0.0170  2.3459 -0.3677
 2004SOL    HW217475   1.236   1.989   9.849 -0.8252  2.1073  1.7607
 2005SOL     OW17476   4.633   2.157   1.881  0.7774  0.2138 -0.1535
 2005SOL    HW117477   4.560   2.105   1.846  1.6579  0.1430 -1.8644
 2005SOL    HW217478   4.662   2.109   1.959  2.2711 -0.8707 -1.3762
 2006SOL     OW17479   2.055   4.596  12.855  0.4420  1.1083  0.3104
 2006SOL    HW117480   1.980   4.586  12.914  1.2289 -0.8003  0.9847
 2006SOL    HW217481   2.094   4.670  12.901  1.3540  0.9081 -0.1580
 2007SOL     OW17482   0.601   1.973   6.118  0.1132 -0.1732 -0.4796
 2007SOL    HW117483   0.639   1.889   6.093  2.1975  0.9176 -0.9766
 2007SOL    HW217484   0.571   1.998   6.030 -1.1379 -1.7977 -0.5197
 2008SOL     OW17485   3.363   0.674  16.689 -0.6410  0.3104 -0.0931
 2008SOL    HW117486   3.374   0.581  16.709  1.0060  0.5520  0.1245
 2008SOL    HW217487   3.422   0.698  16.618 -0.7711  0.7117 -0.0670
 2009SOL     OW17488   2.615   4.155  12.235 -0.4591 -0.0237 -0.2892
 2009SOL    HW117489   2.574   4.068  12.241  0.6807 -0.5672 -0.4778
 2009SOL    HW217490   2.702   4.128  12.206  0.3331  1.8661  0.3258
 2010SOL     OW17491   3.030   3.080  15.073  0.1039  0.0810 -0.1645
 2010SOL    HW117492   3.057   2.990  15.054  0.0815 -0.3723  1.9218
 2010SOL    HW217493   2.939   3.084  15.045 -0.6006  0.2249  2.0762
 2011SOL     OW17494   3.360   0.526  16.113 -0.0541  0.3849 -0.4393
 2011SOL    HW117495   3.285   0.490  16.065  0.4386  0.4841 -1.2937
 2011SOL    HW217496   3.323   0.562  16.193 -0.7216  0.5048 -0.8020
 2012SOL     OW17497   0.638   0.597  16.601 -0.2187  0.0609  0.0700
 2012SOL    HW117498   0.551   0.570  16.571  0.0362 -1.9759  1.1586
 2012SOL    HW217499   0.637   0.689  16.627  1.4671 -0.4533  1.9397
 2013SOL     OW17500   3.640   4.644   8.479  0.3241 -0.0310 -0.0091
 2013SOL    HW117501   3.580   4.592   8.532  1.0185 -1.1474 -0.3140
 2013SOL    HW217502   3.672   4.699   8.550 -2.0235  2.4318 -0.8732
 2014SOL     OW17503   0.114   0.241   6.604  0.0804 -0.8642 -0.6950
 2014SOL    HW117504   0.175   0.220   6.675  0.9196 -0.1899 -1.2203
 2014SOL    HW217505   0.038   0.197   6.641 -0.3844 -0.0115 -0.6463
 2015SOL     OW17506   2.035   2.523   0.629 -0.4601 -0.3321  0.5700
 2015SOL    HW117507   1.973   2.457   0.599  3.6471 -3.3597 -1.2454
 2015SOL    HW217508   1.992   2.596   0.586 -2.6409 -0.5129  2.4595
 2016SOL     OW17509   2.771   4.271   3.005  0.3300  0.0989 -0.6214
 2016SOL    HW117510   2.726   4.313   3.079  1.1206 -0.9570  0.4613
 2016SOL    HW217511   2.742   4.330   2.935  2.1218 -2.8604 -3.8568
 2017SOL     OW17512   0.088   4.567   1.144  0.3667  0.4665 -0.2531
 2017SOL    HW117513   0.077   4.657   1.114  2.7808  0.7100 -0.4207
 2017SOL    HW217514   0.173   4.551   1.103  0.1276  0.4172 -0.7217
 2018SOL     OW17515   1.005   3.479  17.296 -1.2430  0.2163  0.3094
 2018SOL    HW117516   1.020   3.573  17.285  1.1037  0.2393  3.6706
 2018SOL    HW217517   1.073   3.439  17.243 -0.8337 -0.8822  1.6653
 2019SOL     OW17518   1.176   4.580  15.080 -0.5629 -0.3078  0.4338
 2019SOL    HW117519   1.140   4.525  15.010  0.8972 -1.0693  0.2887
 2019SOL    HW217520   1.204   4.653  15.024 -0.4195  0.1597  1.1163
 2020SOL     OW17521   4.046   4.413   5.484 -0.0273  0.7106  0.0433
 2020SOL    HW117522   3.977   4.466   5.524  0.1784 -1.3239  3.0621
 2020SOL    HW217523   4.058   4.340   5.545 -2.4275  0.6116  0.4018
 2021SOL     OW17524   2.557   1.112   3.726  0.4342 -0.3475 -0.7745
 2021SOL    HW117525   2.580   1.073   3.810 -0.9754  0.8918  0.1736
 2021SOL    HW217526   2.502   1.040   3.694 -1.1189  0.7403 -0.5262
 2022SOL     OW17527   1.984   1.010   6.486  0.8493 -0.5047 -0.4221
 2022SOL    HW117528   1.994   1.093   6.439 -1.8205 -0.3640 -0.7451
 2022SOL    HW217529   2.004   1.038   6.576  0.6970  0.5997 -0.7257
 2023SOL     OW17530   3.922   4.535  11.858  0.3659  0.4110  0.1897
 2023SOL    HW117531   4.006   4.537  11.812 -0.4250  1.7343 -1.2317
 2023SOL    HW217532   3.926   4.445  11.889  0.0168  0.6334  0.8656
 2024SOL     OW17533   1.043   0.209  10.181 -0.2872  0.2696  0.0733
 2024SOL    HW117534   1.093   0.137  10.143 -0.2095  0.9881 -1.1973
 2024SOL    HW217535   0.996   0.159  10.248 -0.4536 -0.6143 -0.6996
 2025SOL     OW17536   1.956   2.087   2.391  0.4094  0.3690 -0.4082
 2025SOL    HW117537   1.897   2.150   2.351 -0.6650 -0.8489 -0.7555
 2025SOL    HW217538   1.892   2.016   2.397  0.3457  0.4470 -0.1739
 2026SOL     OW17539   3.335   3.773   6.732  0.4795 -0.4314 -0.7515
 2026SOL    HW117540   3.353   3.860   6.766 -0.5778 -0.2326 -0.6990
 2026SOL    HW217541   3.415   3.735   6.767 -0.5253 -0.5720  1.3881
 2027SOL     OW17542   3.968   1.676  14.017  0.3935 -0.3900 -0.4977
 2027SOL    HW117543   3.937   1.595  14.058  0.4725 -1.2960 -2.2399
 2027SOL    HW217544   3.952   1.739  14.088 -0.0022  1.1767 -1.9867
 2028SOL     OW17545   0.527   3.350   2.451 -0.3375  0.0836  0.0057
 2028SOL    HW117546   0.439   3.342   2.412 -0.5130 -1.6865  0.7388
 2028SOL    HW217547   0.568   3.406   2.386 -1.3214  0.3683 -0.3699
 2029SOL     OW17548   0.791   0.130   1.448 -0.1482  0.0792 -0.5615
 2029SOL    HW117549   0.760   0.081   1.372  2.0605  0.6698 -1.8710
 2029SOL    HW217550   0.750   0.210   1.415 -0.4407 -0.5854 -1.8206
 2030SOL     OW17551   1.363   3.944   1.613 -0.0832 -0.3642  0.6749
 2030SOL    HW117552   1.299   3.937   1.684 -1.4585 -0.2330 -0.5454
 2030SOL    HW217553   1.363   4.040   1.617 -0.7867 -0.2242 -2.2503
 2031SOL     OW17554   4.477   2.276  13.171 -0.3872  0.3349  0.1854
 2031SOL    HW117555   4.382   2.272  13.182  0.0504 -0.1085  3.5840
 2031SOL    HW217556   4.511   2.219  13.240 -1.6622 -0.5691  0.0711
 2032SOL     OW17557   0.718   0.555   6.353  0.3190 -0.2658  0.9168
 2032SOL    HW117558   0.657   0.498   6.398  0.6561 -1.6785 -0.4313
 2032SOL    HW217559   0.658   0.630   6.347  0.3240 -0.2295  1.3052
 2033SOL     OW17560   0.117   1.286   9.769  1.1621 -0.2394  0.8689
 2033SOL    HW117561   0.078   1.366   9.734  2.7441  0.6262  1.0605
 2033SOL    HW217562   0.042   1.228   9.756  0.1498  1.3207 -0.3046
 2034SOL     OW17563   3.495   3.722   1.506 -0.2342 -0.6348 -0.6380
 2034SOL    HW117564   3.406   3.750   1.484 -0.6997 -0.9942  0.7753
 2034SOL    HW217565   3.529   3.804   1.542 -0.0658 -0.0873 -2.0307
 2035SOL     OW17566   3.033   1.803   4.638 -0.3193  0.2606  0.3563
 2035SOL    HW117567   2.971   1.875   4.623 -0.2558  0.5953  1.6337
 2035SOL    HW217568   3.068   1.832   4.723  0.0779  1.0255 -0.0686
 2036SOL     OW17569   1.487   3.330   6.103  0.2185  0.1672  0.4126
 2036SOL    HW117570   1.411   3.386   6.118 -0.4262 -0.8014  0.7174
 2036SOL    HW217571   1.484   3.300   6.012 -1.4738 -1.5763  1.0494
 2037SOL     OW17572   3.303   4.548   8.002 -0.1933  0.1826 -0.1692
 2037SOL    HW117573   3.239   4.554   7.931 -0.5569  0.0374  0.1465
 2037SOL    HW217574   3.251   4.509   8.072  0.7163 -2.8918 -1.2357
 2038SOL     OW17575   0.320   4.436   4.121 -0.5291 -0.8674 -0.2914
 2038SOL    HW117576   0.296   4.409   4.209  0.4731  1.2789  0.6231
 2038SOL    HW217577   0.270   4.517   4.115  2.0763  0.8563  1.3098
 2039SOL     OW17578   4.366   3.428   6.235 -0.3152 -0.6032 -0.4450
 2039SOL    HW117579   4.358   3.513   6.279 -0.5657 -0.1321 -1.4105
 2039SOL    HW217580   4.383   3.375   6.313 -0.2885  0.9430  0.5988
 2040SOL     OW17581   3.483   4.181   0.419  0.4058 -0.0756  0.0659
 2040SOL    HW117582   3.453   4.111   0.477 -1.5394  0.6311 -0.0680
 2040SOL    HW217583   3.525   4.134   0.347  0.5997 -0.9064  0.7315
 2041SOL     OW17584   0.379   1.484   7.809 -0.3051  0.2960 -0.2396
 2041SOL    HW117585   0.444   1.424   7.847 -1.9843 -1.1903  0.2742
 2041SOL    HW217586   0.432   1.524   7.740  1.4461 -1.3698  0.1370
 2042SOL     OW17587   0.379   3.502   7.971 -0.4087 -0.0321 -0.0520
 2042SOL    HW117588   0.438   3.460   8.034 -1.3662  0.0056  0.8729
 2042SOL    HW217589   0.384   3.593   8.000 -0.8844 -0.6233  1.8897
 2043SOL     OW17590   4.597   0.375   5.466 -0.0656 -0.2526 -0.2242
 2043SOL    HW117591   4.510   0.336   5.465  0.2732 -1.0067 -0.6798
 2043SOL    HW217592   4.634   0.327   5.391 -1.0548  1.2986 -1.6984
 2044SOL     OW17593   1.388   2.782   3.704  0.5369  0.0371 -0.6805
 2044SOL    HW117594   1.413   2.874   3.695 -0.5557  0.4805  0.8897
 2044SOL    HW217595   1.474   2.747   3.726 -1.3495 -4.0476  0.2501
 2045SOL     OW17596   1.616   1.222   8.258  0.1563  0.1241  0.0790
 2045SOL    HW117597   1.585   1.253   8.173  1.3346 -0.5744 -0.6024
 2045SOL    HW217598   1.533   1.176   8.275  2.2794 -3.2796  1.2737
 2046SOL     OW17599   3.394   1.085   6.466 -0.3441 -0.3203 -0.2732
 2046SOL    HW117600   3.470   1.140   6.447  0.5639 -1.0617  1.2304
 2046SOL    HW217601   3.392   1.096   6.561 -0.6109  0.1585 -0.3338
 2047SOL     OW17602   2.886   2.740   8.039 -0.4215  0.5611  0.0086
 2047SOL    HW117603   2.867   2.646   8.038 -0.0867  0.4856  1.1104
 2047SOL    HW217604   2.798   2.773   8.021 -0.3859  2.1099  2.7681
 2048SOL     OW17605   2.228   0.606   7.870  0.8410 -0.0108  0.5154
 2048SOL    HW117606   2.211   0.688   7.915  1.4258  1.0752 -1.2419
 2048SOL    HW217607   2.214   0.546   7.943 -0.9544  0.0861  0.2532
 2049SOL     OW17608   3.277   4.002  14.980  0.1083 -0.8268 -0.4501
 2049SOL    HW117609   3.222   4.080  14.973  2.4985  1.1849  2.5958
 2049SOL    HW217610   3.329   4.015  15.060 -0.8574 -1.4596  0.2894
 2050SOL     OW17611   3.550   2.833   5.680  0.2070 -0.2689  0.0095
 2050SOL    HW117612   3.528   2.791   5.597  0.4078 -2.9405  1.3249
 2050SOL    HW217613   3.644   2.828   5.662 -0.0690 -2.2026 -0.9240
 2051SOL     OW17614   1.331   1.190  16.882  0.2518  0.3677 -0.2284
 2051SOL    HW117615   1.343   1.273  16.837  0.9495 -0.3004 -1.2647
 2051SOL    HW217616   1.236   1.187  16.884  0.3400 -3.8241 -2.9612
 2052SOL     OW17617   0.256   0.204   2.961 -0.0437  0.0418  0.2739
 2052SOL    HW117618   0.290   0.238   2.878 -2.0404 -0.1662 -0.6285
 2052SOL    HW217619   0.295   0.264   3.024 -0.6392 -0.0706  0.7508
 2053SOL     OW17620   4.584   3.753   6.496  0.3139  0.8673  0.2611
 2053SOL    HW117621   4.523   3.706   6.440  0.1634  0.9447  0.3603
 2053SOL    HW217622   4.656   3.692   6.513 -1.1875 -0.0957  3.0993
 2054SOL     OW17623   1.881   2.886   0.659 -0.0517  0.4750 -0.1016
 2054SOL    HW117624   1.862   2.825   0.587 -0.7699 -0.4483  0.8707
 2054SOL    HW217625   1.871   2.966   0.606 -1.4528  0.3373 -0.0404
 2055SOL     OW17626   4.398   4.656  11.704 -0.0878 -0.2849 -0.0700
 2055SOL    HW117627   4.491   4.667  11.724 -0.1432  1.4135 -0.7539
 2055SOL    HW217628   4.400   4.592  11.632  2.7217 -0.0699 -0.1786
 2056SOL     OW17629   1.271   2.075  12.987 -0.3318  0.0557  0.7069
 2056SOL    HW117630   1.242   2.159  12.954  0.2735 -0.0361 -0.0751
 2056SOL    HW217631   1.364   2.098  12.997 -0.3046 -0.4612  1.5888
 2057SOL     OW17632   1.930   0.452   7.000  0.5624  0.1320 -0.1531
 2057SOL    HW117633   1.846   0.470   6.959  0.5625  0.3741 -0.0520
 2057SOL    HW217634   1.938   0.520   7.068 -1.5110  1.0813 -0.8467
 2058SOL     OW17635   0.032   1.257   1.102 -0.0189  0.3218 -0.6958
 2058SOL    HW117636   0.077   1.335   1.069 -0.0561  0.2366 -0.9423
 2058SOL    HW217637   4.694   1.234   1.028 -0.7499  0.1633 -0.0977
 2059SOL     OW17638   2.863   1.778   1.536 -0.1473  0.2002 -0.5339
 2059SOL    HW117639   2.844   1.692   1.574 -0.6328  0.9370  0.8768
 2059SOL    HW217640   2.927   1.820   1.593 -0.0937  1.7785 -1.7666
 2060SOL     OW17641   0.782   0.583   0.152  0.0579  0.2631  0.2080
 2060SOL    HW117642   0.739   0.594   0.067  0.1061 -0.8427  0.0458
 2060SOL    HW217643   0.717   0.531   0.198  0.4628 -0.9749 -0.6032
 2061SOL     OW17644   3.149   2.402   0.637  0.0393 -0.2328  0.2558
 2061SOL    HW117645   3.110   2.375   0.554  4.9654  2.3310 -2.9159
 2061SOL    HW217646   3.179   2.320   0.677 -2.1369  0.6779  3.7884
 2062SOL     OW17647   2.492   4.363   7.196 -0.0965  0.2051  0.5472
 2062SOL    HW117648   2.485   4.270   7.173 -2.6165 -0.1996  2.9877
 2062SOL    HW217649   2.447   4.407   7.124  1.3149 -1.9476 -1.6556
 2063SOL     OW17650   2.254   0.373   5.896 -0.0022  0.5596 -0.8461
 2063SOL    HW117651   2.240   0.312   5.969 -0.1592  0.1151 -1.2442
 2063SOL    HW217652   2.206   0.320   5.831 -2.2668 -0.5647  1.7482
 2064SOL     OW17653   3.217   3.709  12.300  0.4375 -0.1263  0.2635
 2064SOL    HW117654   3.160   3.639  12.269  1.3650 -0.8877  0.2979
 2064SOL    HW217655   3.153   3.776  12.324  0.2598  1.1758 -3.9425
 2065SOL     OW17656   0.894   3.491   2.401 -0.2949 -0.7324  0.6124
 2065SOL    HW117657   0.922   3.506   2.310 -0.2654 -2.0879  0.3960
 2065SOL    HW217658   0.806   3.528   2.388 -0.5559 -2.1272 -1.6050
 2066SOL     OW17659   2.944   4.424   8.358 -1.0591 -0.4602  0.8211
 2066SOL    HW117660   2.926   4.474   8.437  0.1360  0.1476  0.7164
 2066SOL    HW217661   2.963   4.335   8.387 -0.9786 -1.0551 -1.0568
 2067SOL     OW17662   0.095   2.420   2.455 -0.2067 -1.0944  0.1163
 2067SOL    HW117663   0.174   2.419   2.400 -0.5874 -2.6347 -0.3916
 2067SOL    HW217664   0.045   2.493   2.417  3.6321  1.9188  0.7701
 2068SOL     OW17665   4.360   2.016  15.030  0.0044 -0.0510  0.5758
 2068SOL    HW117666   4.372   1.924  15.054  3.3506  0.5425  1.1190
 2068SOL    HW217667   4.444   2.046  15.063  1.0864 -2.2583 -0.1449
 2069SOL     OW17668   3.034   1.901   1.708 -0.0385 -0.3438 -0.2047
 2069SOL    HW117669   3.105   1.953   1.747 -0.8468  1.0782 -0.6440
 2069SOL    HW217670   2.983   1.876   1.784  0.1340 -2.1215 -0.6889
 2070SOL     OW17671   0.116   4.091  10.645 -0.1010 -0.4495 -0.1351
 2070SOL    HW117672   0.105   4.184  10.665  0.2043 -0.1874 -1.2344
 2070SOL    HW217673   0.120   4.097  10.550  2.2980  1.4179  0.1036
 2071SOL     OW17674   0.108   2.807   6.020  0.3210  0.2090 -0.3673
 2071SOL    HW117675   0.065   2.729   6.057  0.8984  0.1324  0.1371
 2071SOL    HW217676   0.197   2.803   6.055  0.0136 -0.6671  0.3270
 2072SOL     OW17677   4.017   0.186   6.697  0.3701 -0.1117 -0.0515
 2072SOL    HW117678   4.011   0.093   6.676  0.8596 -0.0950 -0.2688
 2072SOL    HW217679   4.096   0.191   6.751  1.7159  0.5003 -2.0854
 2073SOL     OW17680   0.776   2.398   7.776  1.2577 -0.2593  0.4473
 2073SOL    HW117681   0.721   2.475   7.790  1.4983  0.0527 -0.3385
 2073SOL    HW217682   0.806   2.408   7.686 -0.9750  1.5272 -0.0839
 2074SOL     OW17683   2.837   0.411   5.875 -0.5616  0.1277 -0.4186
 2074SOL    HW117684   2.886   0.437   5.797  1.4565  1.1868  1.2081
 2074SOL    HW217685   2.803   0.498   5.893  2.1371  0.6009  2.4486
 2075SOL     OW17686   0.956   4.071  11.426 -0.1067 -0.1193 -0.0528
 2075SOL    HW117687   0.896   4.020  11.373  0.5662 -0.5579 -0.3865
 2075SOL    HW217688   1.037   4.028  11.400  1.0014  0.9199  1.6941
 2076SOL     OW17689   4.055   0.825   3.114  0.7549  0.0716 -0.3839
 2076SOL    HW117690   3.964   0.854   3.103  1.0075  1.4781  1.2314
 2076SOL    HW217691   4.064   0.777   3.032 -0.8471  0.5218 -0.8383
 2077SOL     OW17692   3.172   1.577  12.343 -0.5780 -0.1726  0.4089
 2077SOL    HW117693   3.175   1.514  12.415 -1.3610  0.5181  1.0484
 2077SOL    HW217694   3.197   1.515  12.275 -2.6606 -1.4528  0.7784
 2078SOL     OW17695   3.876   3.618  17.601 -0.1381 -0.0586 -0.1295
 2078SOL    HW117696   3.877   3.612   0.020 -0.1375 -0.2398 -0.1404
 2078SOL    HW217697   3.964   3.590  17.579 -0.9872 -1.2979 -1.9523
 2079SOL     OW17698   3.401   3.473   0.542 -0.6069 -0.4662  0.5150
 2079SOL    HW117699   3.342   3.547   0.556  0.6728  0.5190  0.6915
 2079SOL    HW217700   3.352   3.407   0.493 -1.4987 -0.9554  2.0430
 2080SOL     OW17701   3.871   2.559   5.987 -0.1592 -0.5352 -0.4703
 2080SOL    HW117702   3.949   2.546   6.041 -1.1459  1.1980  1.3892
 2080SOL    HW217703   3.802   2.576   6.052 -1.4944 -1.6898 -1.6039
 2081SOL     OW17704   1.213   0.651   3.301  0.5893  0.2302  0.6441
 2081SOL    HW117705   1.292   0.697   3.273  0.4546 -1.1554 -1.9300
 2081SOL    HW217706   1.156   0.668   3.227  1.9524 -1.9110 -0.8855
 2082SOL     OW17707   2.986   4.388   4.525 -0.3208  0.0766  0.5257
 2082SOL    HW117708   3.029   4.473   4.522  1.7772 -0.9814  0.6596
 2082SOL    HW217709   2.948   4.393   4.613 -1.4220 -1.8206  0.1733
 2083SOL     OW17710   4.060   1.741   1.038 -0.1722  0.0934  0.5982
 2083SOL    HW117711   3.991   1.806   1.055 -0.2717 -0.1987  1.2786
 2083SOL    HW217712   4.018   1.656   1.052 -2.2363  1.1323  0.8250
 2084SOL     OW17713   1.024   3.671   1.441  0.3241 -0.1680  0.3713
 2084SOL    HW117714   0.988   3.587   1.413  2.4237 -0.9129 -0.1430
 2084SOL    HW217715   1.117   3.648   1.431  0.0940 -0.1907 -1.7739
 2085SOL     OW17716   0.753   1.534   9.332  0.5737  0.5681 -0.9250
 2085SOL    HW117717   0.835   1.484   9.339 -0.0199 -0.5349 -1.7745
 2085SOL    HW217718   0.709   1.502   9.410  3.2740 -1.1135 -0.1005
 2086SOL     OW17719   2.289   3.172   0.523 -0.0431  0.1929 -0.0503
 2086SOL    HW117720   2.238   3.226   0.463 -0.2332 -0.7376 -0.7321
 2086SOL    HW217721   2.256   3.192   0.610  1.8750  1.6504  0.3415
 2087SOL     OW17722   1.209   4.613   9.801  0.2678  0.2153 -0.1415
 2087SOL    HW117723   1.201   4.546   9.734  0.6232 -0.7918  0.8184
 2087SOL    HW217724   1.304   4.601   9.806  0.3257  0.9475  0.5915
 2088SOL     OW17725   4.301   2.405  17.389 -0.0516 -0.0374  0.6380
 2088SOL    HW117726   4.243   2.411  17.313  1.7752 -0.7523 -0.8046
 2088SOL    HW217727   4.238   2.421  17.459 -1.2798  2.0741 -0.9642
 2089SOL     OW17728   0.551   3.576  11.940  0.2827  0.4357 -0.3713
 2089SOL    HW117729   0.589   3.492  11.914  0.1615 -0.3618  2.0239
 2089SOL    HW217730   0.622   3.632  11.911  0.7327  0.6653  1.1808
 2090SOL     OW17731   0.403   2.989   8.514 -0.0519  0.1312  0.4445
 2090SOL    HW117732   0.342   2.997   8.441  1.5777 -0.4887 -1.0008
 2090SOL    HW217733   0.465   2.929   8.472 -0.1547  0.6229 -0.4121
 2091SOL     OW17734   3.596   4.039   6.993 -0.2041 -0.0367 -0.6008
 2091SOL    HW117735   3.588   4.003   6.905  3.5941 -0.4980 -0.7644
 2091SOL    HW217736   3.504   4.029   7.018  1.3695 -0.4855  5.0246
 2092SOL     OW17737   2.185   1.955  17.340 -0.0917  0.3301 -0.4196
 2092SOL    HW117738   2.092   1.936  17.341  0.4266 -1.9613  1.9634
 2092SOL    HW217739   2.221   1.899  17.409  1.4131 -1.2394 -2.4608
 2093SOL     OW17740   3.130   3.903   8.137 -0.2017 -0.1152  0.0324
 2093SOL    HW117741   3.134   3.956   8.057  1.1201 -1.4540 -0.7655
 2093SOL    HW217742   3.215   3.862   8.152 -0.6915 -0.5397  1.6354
 2094SOL     OW17743   0.074   4.008  17.414  0.0811 -0.2226 -0.5998
 2094SOL    HW117744   0.030   3.993  17.330 -0.2529 -0.2266 -0.4246
 2094SOL    HW217745   0.152   3.954  17.404 -0.9733 -1.4064 -2.4699
 2095SOL     OW17746   1.399   1.005   7.206  0.2956 -0.4694 -0.1558
 2095SOL    HW117747   1.467   0.988   7.141 -0.1765  0.4827 -0.9013
 2095SOL    HW217748   1.413   1.096   7.236  1.1195 -1.2155  1.7433
 2096SOL     OW17749   0.378   2.231  13.472 -0.5421 -0.7861  0.3711
 2096SOL    HW117750   0.412   2.269  13.553 -1.2402 -0.1711  0.3815
 2096SOL    HW217751   0.286   2.257  13.470 -0.0092  1.4406  3.2650
 2097SOL     OW17752   2.186   4.419  15.148  0.4730 -0.1729  0.1487
 2097SOL    HW117753   2.110   4.361  15.143  0.3352 -0.1431  1.8286
 2097SOL    HW217754   2.231   4.404  15.064 -0.1294 -0.6667 -0.0835
 2098SOL     OW17755   4.310   3.974   3.236  0.6861  0.2680  0.2562
 2098SOL    HW117756   4.242   3.963   3.169 -0.0411 -0.6139  1.1435
 2098SOL    HW217757   4.286   4.062   3.264 -1.2761  0.6464 -2.6241
 2099SOL     OW17758   3.719   3.982   3.265  0.1821 -0.0836  0.0556
 2099SOL    HW117759   3.750   4.055   3.318 -0.5259 -0.2672  0.7182
 2099SOL    HW217760   3.643   4.024   3.226 -0.0680 -0.2517  0.3600
 2100SOL     OW17761   0.620   1.401   5.105 -0.2076  0.7392 -0.2231
 2100SOL    HW117762   0.553   1.352   5.058 -1.0312  2.8902 -1.2760
 2100SOL    HW217763   0.694   1.353   5.070 -0.1953 -0.1034  0.9432
 2101SOL     OW17764   2.370   3.018   4.524 -0.2261  0.4837 -0.4134
 2101SOL    HW117765   2.326   3.022   4.609  0.5800 -0.4375  0.0550
 2101SOL    HW217766   2.456   3.052   4.547  1.4652 -2.8879 -1.7951
 2102SOL     OW17767   3.562   1.779   4.187  0.1357 -0.0481  0.5389
 2102SOL    HW117768   3.625   1.850   4.195  0.8217 -0.5401 -0.5909
 2102SOL    HW217769   3.481   1.830   4.192  0.0505  0.0551 -1.9622
 2103SOL     OW17770   3.253   2.732   8.320 -0.8096  0.4996 -0.0028
 2103SOL    HW117771   3.188   2.695   8.260  0.1290 -1.3895  0.1506
 2103SOL    HW217772   3.228   2.705   8.409 -2.0094  0.8840 -0.2142
 2104SOL     OW17773   0.152   2.893   4.383  0.4546 -0.2643 -0.3260
 2104SOL    HW117774   0.231   2.920   4.429 -0.5376  1.3584  0.4379
 2104SOL    HW217775   0.128   2.981   4.352 -1.9656 -1.1703 -0.9946
 2105SOL     OW17776   3.312   2.454   6.872  0.6331 -0.3033 -1.0453
 2105SOL    HW117777   3.382   2.455   6.807  0.4214  1.2728 -1.2482
 2105SOL    HW217778   3.233   2.487   6.829 -0.5617 -1.8656 -0.0478
 2106SOL     OW17779   4.636   3.271   5.689  0.5438  0.5148 -0.2050
 2106SOL    HW117780   4.552   3.282   5.645  0.2013 -2.2987 -0.2853
 2106SOL    HW217781   4.627   3.190   5.739  0.6564 -0.0619 -1.1286
 2107SOL     OW17782   1.962   0.346   3.798 -0.3506  0.6426  0.5677
 2107SOL    HW117783   2.048   0.387   3.813  1.2508 -2.0547 -1.1444
 2107SOL    HW217784   1.922   0.367   3.882 -1.3825 -0.8787  0.4516
 2108SOL     OW17785   2.465   3.357   5.147  0.2233  0.3531  0.0808
 2108SOL    HW117786   2.525   3.373   5.220  0.8693 -0.2562 -0.3216
 2108SOL    HW217787   2.400   3.305   5.196  1.1565 -1.1828 -0.3054
 2109SOL     OW17788   1.383   4.451   4.688  0.4561  0.2259  0.1907
 2109SOL    HW117789   1.432   4.478   4.611 -0.1321 -3.0151 -1.3248
 2109SOL    HW217790   1.349   4.534   4.723  2.6614  0.4688  1.7192
 2110SOL     OW17791   1.044   2.235  15.357  0.2617 -0.0778  0.4285
 2110SOL    HW117792   1.037   2.301  15.426 -1.1847 -0.5519  0.7444
 2110SOL    HW217793   1.082   2.292  15.291 -0.4834 -0.6436 -0.4931
 2111SOL     OW17794   2.724   3.294   8.923  0.1596  0.7623 -0.4436
 2111SOL    HW117795   2.639   3.287   8.879 -0.9024  2.7204  1.2878
 2111SOL    HW217796   2.699   3.357   8.991 -1.2373 -0.6368  0.3393
 2112SOL     OW17797   2.522   0.646   7.904  0.1310 -0.2041  0.3121
 2112SOL    HW117798   2.436   0.630   7.864  0.9169 -1.5001 -0.8878
 2112SOL    HW217799   2.519   0.735   7.937 -1.2617  0.2832 -1.1203
 2113SOL     OW17800   3.097   3.938   9.389 -0.4931 -0.7246  0.2876
 2113SOL    HW117801   3.123   3.849   9.367 -1.9236 -1.1306  0.2198
 2113SOL    HW217802   3.173   3.994   9.375 -1.4882  0.9074  1.4889
 2114SOL     OW17803   3.436   1.587   3.787  0.3104 -0.7043  0.5742
 2114SOL    HW117804   3.365   1.614   3.845  0.6902  0.0499  0.6817
 2114SOL    HW217805   3.508   1.575   3.849  2.6347  0.4103 -1.9582
 2115SOL     OW17806   1.148   1.144   8.677 -0.5552  0.1898 -0.6071
 2115SOL    HW117807   1.237   1.107   8.677 -0.3381  0.7128  0.5151
 2115SOL    HW217808   1.105   1.105   8.601  0.0276 -0.8975 -0.3861
 2116SOL     OW17809   0.848   0.519   4.917 -0.1294 -0.2137  0.1220
 2116SOL    HW117810   0.880   0.489   5.002  0.4022  1.7570  0.6279
 2116SOL    HW217811   0.928   0.515   4.864 -0.3237  0.0119 -0.1869
 2117SOL     OW17812   3.031   0.417   6.768 -0.0975  0.3193 -0.2493
 2117SOL    HW117813   3.069   0.332   6.790 -2.8923 -0.2281  2.4134
 2117SOL    HW217814   2.941   0.390   6.751  0.1573 -1.1151  0.6761
 2118SOL     OW17815   2.660   3.755   8.595  0.9422 -0.0639  0.2952
 2118SOL    HW117816   2.711   3.674   8.595  0.8919 -0.0962  0.7263
 2118SOL    HW217817   2.682   3.783   8.506  0.7333 -0.4286  0.1275
 2119SOL     OW17818   1.780   1.171   2.532 -0.1669  0.0210 -0.0550
 2119SOL    HW117819   1.860   1.123   2.556 -0.5357 -0.3947  0.3487
 2119SOL    HW217820   1.782   1.184   2.437 -2.0045 -3.0749 -0.5300
 2120SOL     OW17821   4.003   0.554   6.856 -0.6836 -0.1678  0.0812
 2120SOL    HW117822   4.023   0.646   6.839  1.3122 -0.2771  1.8560
 2120SOL    HW217823   4.062   0.508   6.797  0.3480 -1.5641  2.1627
 2121SOL     OW17824   1.823   2.001   0.738  0.2774 -0.0584 -0.2194
 2121SOL    HW117825   1.845   2.010   0.645 -0.3606  1.0299 -0.2675
 2121SOL    HW217826   1.836   1.908   0.754 -0.9849 -0.6724 -2.7701
 2122SOL     OW17827   2.033   3.024   6.023  0.0706  0.4177  0.6245
 2122SOL    HW117828   2.095   3.097   6.035 -0.8440  1.1066  1.1241
 2122SOL    HW217829   1.972   3.034   6.096 -1.7372  0.6878 -0.9233
 2123SOL     OW17830   2.739   4.436   7.223 -0.5411 -0.2738 -0.0451
 2123SOL    HW117831   2.647   4.409   7.222 -0.4320 -0.6539  0.2422
 2123SOL    HW217832   2.753   4.440   7.128 -0.8819 -0.0890 -0.0892
 2124SOL     OW17833   0.924   1.247   6.038  0.4868 -0.0211  0.3583
 2124SOL    HW117834   0.892   1.257   5.949  2.5546 -0.1919 -0.4000
 2124SOL    HW217835   1.000   1.195   6.011  0.6115 -0.5989  1.8341
 2125SOL     OW17836   2.326   0.030  16.079  0.3936  0.0855 -0.6675
 2125SOL    HW117837   2.290   0.118  16.089  1.6166  0.0730  3.9727
 2125SOL    HW217838   2.283   0.001  15.999 -0.6012  2.4838 -0.9697
 2126SOL     OW17839   1.350   4.335   6.969  0.5048 -0.4836  0.5587
 2126SOL    HW117840   1.285   4.322   6.901  1.1945 -0.4567 -0.0977
 2126SOL    HW217841   1.304   4.407   7.014 -1.6718 -1.3419 -0.3009
 2127SOL     OW17842   1.543   1.411   3.636 -0.1471 -0.2862  0.3512
 2127SOL    HW117843   1.454   1.428   3.669  0.0135  2.1138 -0.4396
 2127SOL    HW217844   1.586   1.485   3.679  2.0398 -1.3729  0.0122
 2128SOL     OW17845   0.394   4.654  14.414  0.4478  0.3095 -0.3654
 2128SOL    HW117846   0.461   4.598  14.376  1.3749 -0.3459  2.2091
 2128SOL    HW217847   0.314   4.623  14.373  0.3320 -0.3856  0.3730
 2129SOL     OW17848   1.409   3.304   1.822  0.7602 -0.4109  0.0584
 2129SOL    HW117849   1.367   3.236   1.770 -1.5517  0.2750  1.0619
 2129SOL    HW217850   1.501   3.296   1.796  0.3075 -0.5967 -1.4697
 2130SOL     OW17851   4.174   1.700   6.451 -0.1537  0.4133 -0.2509
 2130SOL    HW117852   4.168   1.765   6.382  3.1744 -1.1049 -1.9948
 2130SOL    HW217853   4.249   1.739   6.496  0.0107 -0.9473  0.6763
 2131SOL     OW17854   2.042   3.496   7.165 -0.3587 -0.4570  0.4471
 2131SOL    HW117855   2.110   3.430   7.153 -2.2241 -2.3606  0.3280
 2131SOL    HW217856   2.096   3.569   7.197  1.6399 -1.3376 -0.9399
 2132SOL     OW17857   2.844   4.677   7.934 -0.1279  0.5366 -0.2868
 2132SOL    HW117858   2.771   4.653   7.877 -0.7820 -1.5004  1.4298
 2132SOL    HW217859   2.843   4.598   7.987  1.0486 -0.2872 -1.4830
 2133SOL     OW17860   0.142   0.490  14.638  0.6610  0.1283 -0.3148
 2133SOL    HW117861   0.049   0.509  14.628  0.2871 -2.1737 -1.2008
 2133SOL    HW217862   0.155   0.399  14.611 -0.1546  0.0017 -0.3027
 2134SOL     OW17863   0.234   3.881   3.816  0.2496 -0.1113 -0.5750
 2134SOL    HW117864   0.188   3.798   3.830 -2.3803  1.2833 -0.9083
 2134SOL    HW217865   0.227   3.869   3.722  0.2113  1.6523 -0.8003
 2135SOL     OW17866   3.425   4.393   4.901 -0.2053  0.0988  0.2959
 2135SOL    HW117867   3.418   4.457   4.831 -0.0934 -1.7160 -1.3751
 2135SOL    HW217868   3.402   4.446   4.978 -0.2535  2.2290 -1.2024
 2136SOL     OW17869   0.465   4.544   0.599 -0.6011 -0.2627  0.2836
 2136SOL    HW117870   0.506   4.628   0.578 -0.6015 -0.4987 -0.6605
 2136SOL    HW217871   0.516   4.509   0.672 -0.9603  0.0488  0.6885
 2137SOL     OW17872   2.767   4.424   6.224  0.2822 -0.4810  0.2288
 2137SOL    HW117873   2.745   4.478   6.300  2.1288  0.7039 -0.0641
 2137SOL    HW217874   2.852   4.392   6.254  1.3642  0.8305 -1.4676
 2138SOL     OW17875   4.179   2.913   1.315  0.7100 -0.3863 -0.2011
 2138SOL    HW117876   4.263   2.887   1.278  1.2577 -0.1393  0.8918
 2138SOL    HW217877   4.112   2.889   1.251  0.7965 -3.9252  1.0127
 2139SOL     OW17878   0.700   3.478  13.220  0.4789  0.5991  0.4946
 2139SOL    HW117879   0.614   3.444  13.246 -0.1295  1.6282 -0.1725
 2139SOL    HW217880   0.729   3.413  13.156 -0.5866  2.0225 -1.4353
 2140SOL     OW17881   0.900   1.418   3.530  0.0970  0.0255  0.0682
 2140SOL    HW117882   0.905   1.372   3.446  1.6869 -0.1899  0.2752
 2140SOL    HW217883   0.956   1.495   3.520 -1.0910  0.9838  0.7718
 2141SOL     OW17884   1.852   2.024   9.064 -0.5958 -0.4958 -0.0582
 2141SOL    HW117885   1.827   1.971   9.140  2.6347 -0.8077  0.7495
 2141SOL    HW217886   1.779   2.087   9.073  0.1362  0.1892  1.0918
 2142SOL     OW17887   3.471   1.671  10.433  0.0508 -0.1105  0.1651
 2142SOL    HW117888   3.391   1.670  10.380  0.1553 -0.7865  0.0198
 2142SOL    HW217889   3.525   1.740  10.395  2.2989 -0.3237  3.0115
 2143SOL     OW17890   0.018   0.717   5.332  0.3079  0.4740  0.2370
 2143SOL    HW117891   4.702   0.698   5.245 -0.2113 -1.2442  0.8036
 2143SOL    HW217892   0.101   0.671   5.319 -0.8052 -1.6666  0.6330
 2144SOL     OW17893   2.194   0.996   7.818 -0.6726 -0.0130 -0.0898
 2144SOL    HW117894   2.151   1.044   7.748 -0.4237  1.7063  0.9332
 2144SOL    HW217895   2.272   0.965   7.772 -1.6789 -1.3297 -0.8797
 2145SOL     OW17896   1.138   3.698   3.701  0.0128 -0.7738  0.4176
 2145SOL    HW117897   1.043   3.701   3.691  0.0476  0.0474  0.3066
 2145SOL    HW217898   1.147   3.738   3.787  1.6518 -2.2683  0.9367
 2146SOL     OW17899   1.207   2.750   5.317  0.1579  0.0781 -0.3172
 2146SOL    HW117900   1.193   2.655   5.312 -0.1638 -0.0356  2.4526
 2146SOL    HW217901   1.154   2.763   5.396  2.1631 -0.3165  1.1115
 2147SOL     OW17902   0.920   2.952  12.200 -0.3124 -0.7572 -1.0878
 2147SOL    HW117903   0.958   2.916  12.120 -0.5583 -0.1651 -1.4682
 2147SOL    HW217904   0.995   2.973  12.255 -3.1211 -0.0019  2.4702
 2148SOL     OW17905   3.602   3.480   6.000  0.3751  0.0049 -0.1068
 2148SOL    HW117906   3.565   3.547   6.057  0.1447  2.2903 -3.0044
 2148SOL    HW217907   3.607   3.402   6.057 -0.3839  0.6597  0.8574
 2149SOL     OW17908   0.471   1.629   5.051 -0.6515  0.4201 -0.0693
 2149SOL    HW117909   0.382   1.603   5.029 -1.1412  1.7646  0.3366
 2149SOL    HW217910   0.519   1.546   5.061 -1.8503 -0.1528  0.8425
 2150SOL     OW17911   2.853   2.741  16.736  0.4586 -0.7177  1.0774
 2150SOL    HW117912   2.791   2.671  16.716 -0.4807  0.9375 -1.8595
 2150SOL    HW217913   2.931   2.723  16.683 -0.3270 -0.6125 -0.1108
 2151SOL     OW17914   2.321   0.256   6.242 -0.0381 -0.0467  0.1692
 2151SOL    HW117915   2.360   0.227   6.160  0.9878 -1.1374  1.0487
 2151SOL    HW217916   2.291   0.169   6.271 -1.1877 -0.3260 -1.8628
 2152SOL     OW17917   4.707   2.560  10.652  0.4656  0.0543  0.0534
 2152SOL    HW117918   4.659   2.493  10.603 -0.3982  1.3988 -0.9596
 2152SOL    HW217919   4.698   2.635  10.593  1.5378  0.3009  0.2041
 2153SOL     OW17920   4.290   1.125   1.880  0.2711 -0.2459 -0.0574
 2153SOL    HW117921   4.373   1.098   1.919 -0.5250 -0.2876  1.6160
 2153SOL    HW217922   4.295   1.077   1.798 -0.9634  1.7447 -1.2920
 2154SOL     OW17923   0.607   4.653   6.557  0.0559 -0.3837  0.0286
 2154SOL    HW117924   0.591   4.588   6.488 -2.3007 -0.3529  0.5458
 2154SOL    HW217925   0.561   0.012   6.526  0.0841  0.3624  1.8579
 2155SOL     OW17926   3.666   2.026   4.422 -0.4154 -0.4986  0.2533
 2155SOL    HW117927   3.622   2.022   4.338  1.5585 -0.6521 -0.7621
 2155SOL    HW217928   3.748   1.987   4.392 -0.5446 -0.7196  0.1890
 2156SOL     OW17929   3.191   3.423  17.450  0.0936 -0.0953 -0.6125
 2156SOL    HW117930   3.174   3.514  17.429  1.5430  0.1579 -0.6892
 2156SOL    HW217931   3.107   3.380  17.433  0.0548  0.1693 -1.0762
 2157SOL     OW17932   1.369   1.801   6.205 -1.0143  0.1834  0.1526
 2157SOL    HW117933   1.336   1.764   6.123 -4.0218  3.2254 -0.0026
 2157SOL    HW217934   1.424   1.870   6.169  0.3384  0.2875  2.3832
 2158SOL     OW17935   1.350   0.063   8.542 -0.4424  0.4993 -0.3235
 2158SOL    HW117936   1.443   0.050   8.561 -1.2422 -2.9302  1.2456
 2158SOL    HW217937   1.312   4.716   8.601  0.1383 -0.0456 -0.5504
 2159SOL     OW17938   1.308   3.393  11.865 -0.6915 -0.0666 -0.5771
 2159SOL    HW117939   1.280   3.463  11.923 -0.3378 -1.4813  1.3181
 2159SOL    HW217940   1.312   3.317  11.924  1.6240  1.0634  0.7100
 2160SOL     OW17941   0.649   4.609  13.354 -0.0872 -0.1411  0.2867
 2160SOL    HW117942   0.695   4.687  13.323 -1.3004  0.9005  1.1072
 2160SOL    HW217943   0.624   4.573  13.268  0.5171  0.3184 -0.0804
 2161SOL     OW17944   1.104   1.386   2.483 -0.3605 -0.5053  0.6969
 2161SOL    HW117945   1.199   1.375   2.486 -0.2326  0.1088 -1.3197
 2161SOL    HW217946   1.106   1.402   2.389  0.2452 -0.0865  0.7837
 2162SOL     OW17947   2.959   2.602  10.854  0.0947  0.2148  0.1488
 2162SOL    HW117948   3.045   2.569  10.879 -0.8488 -1.8529  0.6466
 2162SOL    HW217949   2.907   2.535  10.898 -2.3456  1.1853 -1.2631
 2163SOL     OW17950   0.444   0.309   7.182  0.8513 -0.3332 -0.1474
 2163SOL    HW117951   0.362   0.333   7.224  1.4487 -0.5658  1.1587
 2163SOL    HW217952   0.493   0.387   7.207 -2.4309  1.7256 -0.1566
 2164SOL     OW17953   1.050   3.062   1.613 -0.0737  0.0490 -0.1611
 2164SOL    HW117954   1.094   2.985   1.578 -0.4121 -0.4728  0.5611
 2164SOL    HW217955   1.110   3.082   1.684  1.8546 -1.4466 -1.3833
 2165SOL     OW17956   1.332   0.199   3.218 -0.1238 -0.4828 -0.0798
 2165SOL    HW117957   1.396   0.153   3.272  0.1589  1.4013  1.1622
 2165SOL    HW217958   1.274   0.246   3.277  0.1703 -0.8161  0.4717
 2166SOL     OW17959   0.106   0.092   7.168 -0.0203  0.5851  0.0160
 2166SOL    HW117960   0.200   0.101   7.187  0.2123 -3.7169  0.7935
 2166SOL    HW217961   0.072   0.097   7.258  1.2992 -0.6594  0.5908
 2167SOL     OW17962   1.468   0.224   8.048 -0.2844  0.0004 -0.3572
 2167SOL    HW117963   1.417   0.283   8.102 -1.4788 -0.1272 -1.3280
 2167SOL    HW217964   1.479   0.154   8.112 -1.0612  1.3781  1.2535
 2168SOL     OW17965   2.022   0.186   9.587  0.0372  0.2019  0.7244
 2168SOL    HW117966   2.107   0.190   9.631  0.0120 -2.4489  1.0131
 2168SOL    HW217967   1.967   0.143   9.653 -0.7016 -1.4571 -0.9675
 2169SOL     OW17968   1.462   1.609   5.161 -0.1352 -0.2768 -0.4189
 2169SOL    HW117969   1.519   1.683   5.182 -0.9013  0.0743  0.3783
 2169SOL    HW217970   1.430   1.587   5.248  1.1293 -0.6812 -0.0622
 2170SOL     OW17971   1.200   4.517   5.248 -0.7418 -0.2027  0.5735
 2170SOL    HW117972   1.286   4.528   5.206 -1.9698 -0.9669 -2.1211
 2170SOL    HW217973   1.156   4.588   5.201  1.0592  0.7213  0.2894
 2171SOL     OW17974   1.343   3.914   4.983  0.0803  0.9829  0.8737
 2171SOL    HW117975   1.406   3.853   4.945 -0.8432 -0.5139  1.7422
 2171SOL    HW217976   1.283   3.847   5.016  1.5885 -0.9911 -0.3971
 2172SOL     OW17977   2.955   1.562   8.084  0.0224 -0.3199  0.1994
 2172SOL    HW117978   2.972   1.619   8.009  0.0320  1.3245  1.4524
 2172SOL    HW217979   2.904   1.492   8.043  0.8604 -0.1995 -1.0616
 2173SOL     OW17980   4.600   4.543   3.328  0.1442 -0.1359  0.5156
 2173SOL    HW117981   4.675   4.565   3.272  0.0820 -0.2311  0.3952
 2173SOL    HW217982   4.532   4.608   3.310  1.5847  0.6341 -2.1679
 2174SOL     OW17983   1.800   1.150   2.270  0.5902  0.9342  0.2068
 2174SOL    HW117984   1.752   1.231   2.250 -1.2353 -0.2365 -0.0846
 2174SOL    HW217985   1.731   1.084   2.267  0.7399  0.7313  1.7257
 2175SOL     OW17986   4.503   1.281   7.551  0.1135 -0.0227 -0.0627
 2175SOL    HW117987   4.560   1.358   7.558 -0.0162  0.2829 -2.3062
 2175SOL    HW217988   4.572   1.223   7.583  1.6276  1.6690 -0.2568
 2176SOL     OW17989   4.572   2.176   4.804 -0.6235  0.6632  0.1828
 2176SOL    HW117990   4.541   2.122   4.877  1.1049  0.9278  1.1243
 2176SOL    HW217991   4.638   2.119   4.764  0.6086  1.0095  1.7212
 2177SOL     OW17992   0.075   1.185   5.388  0.7037 -0.1985  0.0457
 2177SOL    HW117993   0.001   1.245   5.378  0.3968 -0.7988 -1.1968
 2177SOL    HW217994   0.133   1.217   5.319  2.8474 -0.1761  1.8488
 2178SOL     OW17995   0.988   0.658   0.326 -0.1957 -0.4362  0.6170
 2178SOL    HW117996   1.031   0.735   0.289  1.5277 -0.2903  2.9005
 2178SOL    HW217997   0.908   0.666   0.275  0.1503  0.2950  0.1951
 2179SOL     OW17998   1.601   1.782   8.922 -0.0065  0.1464 -0.8571
 2179SOL    HW117999   1.642   1.774   9.009 -0.1103  0.4072 -0.7826
 2179SOL    HW218000   1.648   1.858   8.889 -0.4304  1.1662  0.8503
 2180SOL     OW18001   1.191   2.237   8.283 -0.2448  0.2089  0.2388
 2180SOL    HW118002   1.246   2.164   8.311  0.0997  0.7637  0.9737
 2180SOL    HW218003   1.228   2.287   8.356 -0.4767  3.3785 -1.8182
 2181SOL     OW18004   0.249   2.667  16.954 -0.4806 -0.0336 -0.0428
 2181SOL    HW118005   0.311   2.709  16.893 -2.1744 -0.0733 -1.8052
 2181SOL    HW218006   0.207   2.749  16.979  1.5321  0.2690  2.3356
 2182SOL     OW18007   3.067   3.033   8.661  0.0195 -0.9648 -0.2436
 2182SOL    HW118008   3.052   3.019   8.754  0.4665  0.1137 -0.0097
 2182SOL    HW218009   3.119   2.954   8.646 -2.3307 -3.0879  2.8706
 2183SOL     OW18010   1.417   0.009   4.370  0.5551 -0.1014 -0.2627
 2183SOL    HW118011   1.343   4.672   4.395 -0.3171  0.6948 -1.0481
 2183SOL    HW218012   1.363   0.080   4.333  0.4404 -0.5315 -0.9332
 2184SOL     OW18013   3.709   2.958  12.606 -0.5793  0.3992  0.2498
 2184SOL    HW118014   3.724   2.867  12.584  1.5574  1.1510 -1.3460
 2184SOL    HW218015   3.732   2.947  12.699  0.0476  0.1274  0.0646
 2185SOL     OW18016   1.019   0.604   3.560  0.1602  0.3506 -0.3863
 2185SOL    HW118017   1.079   0.679   3.559 -2.9650  2.8686  2.1536
 2185SOL    HW218018   0.956   0.615   3.630 -1.1331  0.4806 -1.5594
 2186SOL     OW18019   4.074   0.807   3.981  0.0075  0.7824 -0.9612
 2186SOL    HW118020   4.004   0.864   3.952 -0.6274 -0.4093 -1.7522
 2186SOL    HW218021   4.148   0.860   3.952  0.1901  0.4225 -1.1497
 2187SOL     OW18022   0.644   2.179   8.330 -0.2154 -0.3727 -0.1744
 2187SOL    HW118023   0.660   2.085   8.342 -0.4250 -0.2836  0.7832
 2187SOL    HW218024   0.732   2.216   8.329 -0.0154 -0.7688  3.3493
 2188SOL     OW18025   2.088   2.965   6.667  0.1215  0.3581  0.5794
 2188SOL    HW118026   2.067   2.908   6.741  0.9019 -1.5039 -0.6473
 2188SOL    HW218027   2.011   2.957   6.610  1.0593 -0.8044 -0.5095
 2189SOL     OW18028   4.208   0.238   5.663  0.0073 -0.3207  0.5309
 2189SOL    HW118029   4.120   0.258   5.696 -0.0626 -1.8989  1.2821
 2189SOL    HW218030   4.249   0.177   5.724  4.4270  0.3879 -1.7576
 2190SOL     OW18031   3.456   0.704   7.388  0.1163 -0.4117  0.2899
 2190SOL    HW118032   3.469   0.610   7.375  2.0112 -0.2142  0.6859
 2190SOL    HW218033   3.527   0.722   7.449 -0.0045  0.7985  0.0694
 2191SOL     OW18034   0.831   0.299   5.539 -0.2325  0.2594  0.2300
 2191SOL    HW118035   0.823   0.393   5.553 -1.2858  0.0022  1.3651
 2191SOL    HW218036   0.836   0.291   5.444  0.9863  1.4988  0.1911
 2192SOL     OW18037   2.929   1.809   6.745 -0.0651  0.3295  0.3443
 2192SOL    HW118038   2.871   1.884   6.740 -0.5163 -0.1964 -2.4372
 2192SOL    HW218039   3.011   1.854   6.724  1.2426 -0.8294  2.8911
 2193SOL     OW18040   3.039   3.247  13.658 -0.1368  0.1667  0.0848
 2193SOL    HW118041   3.053   3.214  13.746 -0.0503  0.6597  0.2546
 2193SOL    HW218042   3.111   3.214  13.603  0.9493  0.4321  1.3390
 2194SOL     OW18043   0.717   3.804   5.264  0.4242  0.3832  0.6902
 2194SOL    HW118044   0.758   3.804   5.350  2.0354 -0.6332 -0.0751
 2194SOL    HW218045   0.659   3.879   5.277  2.4587  2.0590  0.1052
 2195SOL     OW18046   2.636   3.256   0.416  0.0613 -0.0947 -0.7747
 2195SOL    HW118047   2.711   3.273   0.472  1.4952 -0.5614 -2.5343
 2195SOL    HW218048   2.621   3.162   0.423  0.1590 -0.1317 -1.0443
 2196SOL     OW18049   4.441   2.373   2.682  0.6956  0.3355  0.0773
 2196SOL    HW118050   4.460   2.291   2.728 -1.3400 -1.0970 -1.6742
 2196SOL    HW218051   4.422   2.344   2.593  3.3883 -2.8685  0.5273
 2197SOL     OW18052   0.227   0.625  12.753  0.6366  0.2714 -0.0604
 2197SOL    HW118053   0.159   0.616  12.820 -0.1220 -1.3654 -1.0318
 2197SOL    HW218054   0.297   0.649  12.812  0.8144  1.4512 -0.7422
 2198SOL     OW18055   2.915   4.434   1.909  0.3980  0.3088 -0.0586
 2198SOL    HW118056   2.878   4.421   1.822  1.8039 -0.2558 -0.5828
 2198SOL    HW218057   2.837   4.411   1.959 -0.0033 -0.7862 -1.1987
 2199SOL     OW18058   4.343   4.063   6.193 -0.2575  0.1441  0.1513
 2199SOL    HW118059   4.251   4.056   6.169  0.2762 -0.2137 -1.7828
 2199SOL    HW218060   4.379   3.989   6.145 -1.7729  0.0089 -0.7612
 2200SOL     OW18061   3.101   0.163   4.606  0.0292  0.3370  0.9745
 2200SOL    HW118062   3.158   0.220   4.554 -0.0884  1.7560  2.3653
 2200SOL    HW218063   3.022   0.217   4.609 -0.1909  0.0888 -0.7387
 2201SOL     OW18064   1.673   1.737  12.596 -0.2917  0.0194 -0.0310
 2201SOL    HW118065   1.721   1.761  12.518  0.0842 -1.6388 -0.3154
 2201SOL    HW218066   1.590   1.703  12.563  0.6680 -2.1267 -0.2550
 2202SOL     OW18067   0.625   2.660   2.986 -0.2476  0.6479  0.7540
 2202SOL    HW118068   0.580   2.744   2.984  0.3781  1.0053  1.6520
 2202SOL    HW218069   0.704   2.675   3.038  0.1717  0.7770  0.0894
 2203SOL     OW18070   3.005   1.575  14.211 -0.4826  0.3894 -0.0123
 2203SOL    HW118071   3.054   1.632  14.271  0.3546  0.2397 -0.5558
 2203SOL    HW218072   3.038   1.600  14.125  3.2499 -1.2426  0.9791
 2204SOL     OW18073   3.219   2.645   5.402 -0.0717 -0.2078 -0.1903
 2204SOL    HW118074   3.193   2.632   5.310  2.3465  0.3665 -0.9541
 2204SOL    HW218075   3.195   2.737   5.412  1.7055 -0.0804  2.8923
 2205SOL     OW18076   3.455   1.633   7.206  0.2426 -0.2280  0.3173
 2205SOL    HW118077   3.532   1.577   7.192  0.0778 -0.6362  1.0573
 2205SOL    HW218078   3.497   1.717   7.221 -0.6973  0.4101 -0.6498
 2206SOL     OW18079   0.127   3.945  16.553  0.6301 -0.1748 -0.0713
 2206SOL    HW118080   0.044   3.990  16.534  1.5962  1.3348 -0.6922
 2206SOL    HW218081   0.102   3.853  16.567  0.1219  0.1366  1.0646
 2207SOL     OW18082   0.682   3.425  15.787 -0.8537  0.2732 -0.0151
 2207SOL    HW118083   0.642   3.338  15.794 -0.6165  0.3244  2.0464
 2207SOL    HW218084   0.711   3.423  15.696  2.0411 -1.0533  0.9128
 2208SOL     OW18085   3.861   3.535  16.361 -0.0477 -0.1711 -0.4187
 2208SOL    HW118086   3.913   3.506  16.286  0.4512 -3.2469  1.1533
 2208SOL    HW218087   3.931   3.570  16.416 -0.6260  0.3014  0.0130
 2209SOL     OW18088   2.340   4.474  14.916  0.0024  0.1832 -0.0785
 2209SOL    HW118089   2.434   4.459  14.920 -0.0026  0.1869  0.0596
 2209SOL    HW218090   2.319   4.488  14.824  1.9701  0.6352 -0.4483
 2210SOL     OW18091   2.416   3.423  14.501 -0.2925 -0.0654 -0.2551
 2210SOL    HW118092   2.424   3.410  14.596 -0.4489 -0.3509 -0.2815
 2210SOL    HW218093   2.474   3.498  14.493 -0.1795  0.0488  1.5043
 2211SOL     OW18094   1.992   0.189   2.224 -0.2660 -0.1890  0.3443
 2211SOL    HW118095   2.038   0.254   2.277 -2.8337 -0.0263  2.3487
 2211SOL    HW218096   2.013   0.215   2.134  0.5812 -1.0372  0.2897
 2212SOL     OW18097   3.416   2.753  16.764 -0.2688 -0.2009 -0.0478
 2212SOL    HW118098   3.486   2.816  16.776 -2.7260  2.5848 -0.3764
 2212SOL    HW218099   3.460   2.669  16.754 -2.5965 -1.2285 -1.8624
 2213SOL     OW18100   1.926   3.716   4.503  0.4074 -0.5243 -0.1962
 2213SOL    HW118101   1.911   3.799   4.547  0.7969  0.9991 -2.9244
 2213SOL    HW218102   2.018   3.730   4.481  0.4996  2.1130  1.8864
 2214SOL     OW18103   4.542   0.320   3.156 -0.4285  0.7268  0.0520
 2214SOL    HW118104   4.447   0.322   3.145 -0.4802 -0.7278  0.3112
 2214SOL    HW218105   4.549   0.292   3.248  0.7193  0.4295 -0.1263
 2215SOL     OW18106   1.301   4.246  10.626  0.4420 -0.5214  0.4300
 2215SOL    HW118107   1.293   4.327  10.676  2.8700  0.6730 -1.1431
 2215SOL    HW218108   1.353   4.273  10.551 -1.1064  1.1505 -0.0285
 2216SOL     OW18109   2.756   0.608  16.245  0.5305 -0.2545 -0.0836
 2216SOL    HW118110   2.667   0.575  16.256 -0.7764  3.5493  0.6667
 2216SOL    HW218111   2.729   0.695  16.215 -0.0945 -0.7193 -0.8769
 2217SOL     OW18112   2.770   2.350   1.250 -0.5367  0.4380  0.0534
 2217SOL    HW118113   2.850   2.308   1.280 -1.1503 -0.6787  0.1124
 2217SOL    HW218114   2.717   2.361   1.329 -2.7516 -0.1927 -1.3433
 2218SOL     OW18115   3.219   4.288   1.711  0.0888  0.0684 -0.2688
 2218SOL    HW118116   3.305   4.328   1.719  0.6772 -1.4944  1.4094
 2218SOL    HW218117   3.239   4.223   1.643 -0.4332  1.3908 -1.6846
 2219SOL     OW18118   3.616   2.341   6.102  0.2645  0.6510  0.5434
 2219SOL    HW118119   3.646   2.318   6.015 -0.6336  2.6111 -0.2946
 2219SOL    HW218120   3.527   2.305   6.105  0.4257  0.4462  3.0514
 2220SOL     OW18121   3.666   1.675   1.130 -0.2746  0.0247  0.0332
 2220SOL    HW118122   3.651   1.671   1.224 -0.1136 -0.8391  0.0220
 2220SOL    HW218123   3.725   1.603   1.104 -0.6810  0.1499 -1.2108
 2221SOL     OW18124   2.661   4.697   2.496  0.2926  0.0213  0.1727
 2221SOL    HW118125   2.671   4.677   2.403  0.5684  1.3844 -0.0988
 2221SOL    HW218126   2.732   4.643   2.530 -0.2284 -0.6045  0.2653
 2222SOL     OW18127   3.060   4.693   3.652  0.5588 -0.2627  0.1064
 2222SOL    HW118128   3.060   4.651   3.566 -3.7063 -2.6844  1.2721
 2222SOL    HW218129   2.976   4.661   3.687  1.9712 -2.0287  1.9423
 2223SOL     OW18130   0.039   1.308   2.447  0.1266  0.7335 -0.0039
 2223SOL    HW118131   4.699   1.375   2.483 -1.9339 -1.4016  0.6187
 2223SOL    HW218132   0.110   1.306   2.512 -0.7273 -0.2923  0.8953
 2224SOL     OW18133   0.695   3.965   4.060  0.1919 -0.0270 -0.5363
 2224SOL    HW118134   0.770   3.905   4.071  0.7063  0.1646 -3.0119
 2224SOL    HW218135   0.739   4.040   4.019  1.0397  0.5669  1.4510
 2225SOL     OW18136   4.574   4.401  16.179 -0.4636  0.3191  0.0061
 2225SOL    HW118137   4.481   4.418  16.166 -0.5374  0.7481  1.0415
 2225SOL    HW218138   4.592   4.493  16.159  0.3063 -0.0869 -1.2155
 2226SOL     OW18139   3.526   2.521  16.769 -0.0957 -0.1873 -0.3334
 2226SOL    HW118140   3.500   2.441  16.724 -0.1972 -1.3604  1.8422
 2226SOL    HW218141   3.519   2.485  16.857  0.3711 -1.2127 -0.7155
 2227SOL     OW18142   4.084   3.747   4.919  0.2849 -0.0660 -0.6970
 2227SOL    HW118143   4.173   3.769   4.948  0.0148 -0.9140  0.7656
 2227SOL    HW218144   4.089   3.658   4.954  2.0836 -0.1900 -1.2617
 2228SOL     OW18145   3.264   4.043   7.319  0.0467  0.5646 -0.1779
 2228SOL    HW118146   3.207   4.031   7.395  0.0800  0.6828 -0.1344
 2228SOL    HW218147   3.350   4.014   7.350 -0.6603 -0.7216  0.5902
 2229SOL     OW18148   4.355   3.173   1.728  0.0078 -0.1020  0.4491
 2229SOL    HW118149   4.366   3.123   1.647 -0.4884 -0.7283  0.7627
 2229SOL    HW218150   4.275   3.219   1.704 -0.8494  0.1930  3.7712
 2230SOL     OW18151   3.549   2.097  14.740  0.6399  0.1332 -0.4723
 2230SOL    HW118152   3.619   2.063  14.796 -0.7840 -0.0719  1.1886
 2230SOL    HW218153   3.530   2.183  14.779 -1.8945 -1.0570  0.9031
 2231SOL     OW18154   4.710   4.232  11.909 -0.1520  0.3535 -0.1782
 2231SOL    HW118155   4.650   4.305  11.923 -0.7454 -0.2806  0.5893
 2231SOL    HW218156   0.020   4.253  11.819  0.2312 -2.1440 -0.6239
 2232SOL     OW18157   0.607   4.379   6.150 -0.3198  0.0320 -0.3815
 2232SOL    HW118158   0.652   4.454   6.190 -0.1699  0.9743 -2.3450
 2232SOL    HW218159   0.674   4.359   6.085 -1.2782 -1.0918 -1.0227
 2233SOL     OW18160   0.542   4.001   9.429 -0.8087  0.0283 -0.1909
 2233SOL    HW118161   0.603   4.010   9.502 -3.5943 -0.2609  2.1700
 2233SOL    HW218162   0.508   3.913   9.444  1.6648 -0.5233  2.2947
 2234SOL     OW18163   0.931   1.352   8.329 -0.5241  0.3913 -0.1445
 2234SOL    HW118164   0.962   1.432   8.287  0.0487  0.7959  1.0604
 2234SOL    HW218165   0.884   1.386   8.405 -0.3366 -0.2756  0.2681
 2235SOL     OW18166   0.301   1.480   9.602  0.1966 -0.2042  0.1613
 2235SOL    HW118167   0.226   1.515   9.650  0.0442 -0.0722 -0.1754
 2235SOL    HW218168   0.363   1.550   9.624  0.2522 -0.6278  1.3847
 2236SOL     OW18169   3.035   3.628  17.385 -0.1553  0.0535  0.4931
 2236SOL    HW118170   2.984   3.609  17.306  2.4356 -0.7035 -1.0152
 2236SOL    HW218171   2.982   3.698  17.424  0.9665  0.4293  1.3447
 2237SOL     OW18172   3.450   2.004  10.958  0.3012  0.3491  0.2443
 2237SOL    HW118173   3.452   1.974  11.049  0.0778 -0.2852  0.0466
 2237SOL    HW218174   3.447   1.923  10.907  0.2326  1.3959 -1.4036
 2238SOL     OW18175   0.395   0.130   8.926  0.1416 -0.0375  0.1763
 2238SOL    HW118176   0.307   0.095   8.910 -0.0776  0.8058 -0.4554
 2238SOL    HW218177   0.382   0.222   8.903 -1.5218 -0.6957 -1.4862
 2239SOL     OW18178   2.919   3.982   4.215 -0.4626  0.1677 -0.1598
 2239SOL    HW118179   3.007   3.971   4.181 -0.3055  1.1194 -0.0583
 2239SOL    HW218180   2.877   3.903   4.181 -0.7909  0.2805 -0.0187
 2240SOL     OW18181   2.939   3.487   6.819  0.0992 -0.0003  0.3656
 2240SOL    HW118182   3.013   3.495   6.759  0.0126  3.4213  0.6998
 2240SOL    HW218183   2.933   3.392   6.834  0.2129  0.0877  0.9716
 2241SOL     OW18184   0.505   0.889   8.269  0.0019 -0.2319  0.1879
 2241SOL    HW118185   0.413   0.890   8.298  0.3766 -0.3262  1.3526
 2241SOL    HW218186   0.510   0.805   8.222  1.2491  0.1959 -0.4349
 2242SOL     OW18187   2.200   4.666  15.859 -0.1048  0.5901 -0.2816
 2242SOL    HW118188   2.151   4.585  15.860 -0.7393  0.9747 -0.4543
 2242SOL    HW218189   2.135   0.003  15.817  1.2461  2.3851 -0.0294
 2243SOL     OW18190   4.718   0.647   3.844  0.4432  0.0903 -0.1039
 2243SOL    HW118191   4.665   0.649   3.764  0.5444  2.1205 -0.1228
 2243SOL    HW218192   0.087   0.655   3.805  1.2353 -1.0823  1.4307
 2244SOL     OW18193   0.640   2.568   4.859 -0.3526 -0.1516 -0.2316
 2244SOL    HW118194   0.577   2.603   4.922  2.2744  1.1019  1.6849
 2244SOL    HW218195   0.585   2.539   4.786 -0.4245  1.0303 -0.6479
 2245SOL     OW18196   4.572   3.519  15.722  0.2555  0.3339 -0.0775
 2245SOL    HW118197   4.521   3.531  15.642 -1.6697 -0.0144  1.1192
 2245SOL    HW218198   4.645   3.473  15.680 -1.3083 -0.5670 -1.8023
 2246SOL     OW18199   4.630   4.167   8.424 -0.1902  0.5635  0.1939
 2246SOL    HW118200   0.000   4.180   8.390  0.1149 -0.4326  0.5902
 2246SOL    HW218201   4.624   4.074   8.446  2.3205  0.2760 -0.3076
 2247SOL     OW18202   0.538   0.004   4.029  0.2619  0.2670 -0.2121
 2247SOL    HW118203   0.592   4.686   3.959 -1.9384  1.0832 -2.3236
 2247SOL    HW218204   0.603   0.006   4.099  1.9590  2.1460 -1.8730
 2248SOL     OW18205   4.112   1.650   6.756 -0.0319  0.0735 -0.4022
 2248SOL    HW118206   4.106   1.652   6.660 -0.4004  3.2949 -0.2886
 2248SOL    HW218207   4.046   1.716   6.777  0.3618 -0.1631  1.5420
 2249SOL     OW18208   2.402   3.567  14.039  0.0329 -0.2444  0.5737
 2249SOL    HW118209   2.355   3.545  14.119  1.8961 -0.3033  1.6541
 2249SOL    HW218210   2.348   3.638  14.004 -1.1956 -2.2033 -1.4808
 2250SOL     OW18211   2.606   4.346   8.698  0.0433 -0.5680 -0.7109
 2250SOL    HW118212   2.595   4.431   8.741  4.2596  0.5106 -1.6969
 2250SOL    HW218213   2.610   4.290   8.775  2.5340  0.6658  0.0634
 2251SOL     OW18214   1.430   2.272  15.192 -0.6929  0.5030 -0.4754
 2251SOL    HW118215   1.437   2.192  15.140  0.8034  0.8702 -0.8614
 2251SOL    HW218216   1.518   2.308  15.176  0.3605 -1.5919  0.7102
 2252SOL     OW18217   1.433   0.170   3.554 -0.4001  0.1654  0.3057
 2252SOL    HW118218   1.452   0.257   3.589  1.1472  0.1903 -0.6032
 2252SOL    HW218219   1.481   0.167   3.471 -1.3135 -0.4598 -0.2055
 2253SOL     OW18220   3.096   0.429   2.826 -0.1916  0.2582 -0.4913
 2253SOL    HW118221   3.181   0.387   2.810  0.8997  2.1869  0.2886
 2253SOL    HW218222   3.039   0.391   2.759 -0.7161 -0.5610  0.4188
 2254SOL     OW18223   1.103   1.083   5.914  0.6444  0.8367  0.0924
 2254SOL    HW118224   1.124   1.107   5.823  1.9991 -0.8930 -0.0571
 2254SOL    HW218225   1.164   1.009   5.920 -0.4116 -0.0449  0.0341
 2255SOL     OW18226   1.507   1.724  13.721 -0.0852 -0.3482  0.7449
 2255SOL    HW118227   1.511   1.800  13.779  0.3127 -0.5996  1.0466
 2255SOL    HW218228   1.600   1.701  13.717 -0.3399 -1.3136  0.4606
 2256SOL     OW18229   0.572   1.013   3.759  0.1726 -0.7861 -0.2956
 2256SOL    HW118230   0.625   0.966   3.823 -0.4309 -0.3350  0.5383
 2256SOL    HW218231   0.485   0.983   3.784  0.1262  0.5288  1.0804
 2257SOL     OW18232   2.011   3.556  17.599  0.5980  0.0188  0.5961
 2257SOL    HW118233   1.923   3.518  17.592  1.1231 -1.2114  0.8137
 2257SOL    HW218234   2.036   3.551  17.506  1.0496 -0.4965  0.7471
 2258SOL     OW18235   2.001   1.095  12.326  0.5802 -0.1533  0.3169
 2258SOL    HW118236   1.925   1.079  12.270  1.1117 -1.3116 -0.0669
 2258SOL    HW218237   2.004   1.022  12.388 -1.2620  0.5731  1.2540
 2259SOL     OW18238   3.465   2.471  17.044  0.1890  0.3500  0.2960
 2259SOL    HW118239   3.410   2.535  17.089 -0.5622 -0.9024  1.1514
 2259SOL    HW218240   3.547   2.494  17.087  0.4157 -1.0790  0.6195
 2260SOL     OW18241   1.651   1.105  13.887  0.6068  0.2519  0.0789
 2260SOL    HW118242   1.589   1.156  13.835  0.9128 -0.4701 -0.9751
 2260SOL    HW218243   1.712   1.175  13.911  0.6885  0.4026 -0.5792
 2261SOL     OW18244   2.321   1.294   2.560 -0.1366  0.4528 -0.3198
 2261SOL    HW118245   2.388   1.226   2.556 -0.1960  0.1528  3.2714
 2261SOL    HW218246   2.321   1.331   2.472  0.0059 -2.5556 -1.5866
 2262SOL     OW18247   0.859   3.289   6.447 -0.5501 -0.1129  0.2948
 2262SOL    HW118248   0.942   3.330   6.470 -0.2866 -0.5034  0.0404
 2262SOL    HW218249   0.845   3.315   6.356 -1.7493  1.8903  1.0405
 2263SOL     OW18250   2.591   1.781   8.879  0.4193  0.2531  0.0837
 2263SOL    HW118251   2.580   1.686   8.872  1.4067  0.0944  0.7214
 2263SOL    HW218252   2.538   1.794   8.957  0.2899 -0.5257  0.1271
 2264SOL     OW18253   3.681   0.475   9.150 -0.1623  0.1753  0.0373
 2264SOL    HW118254   3.599   0.434   9.179 -1.1727  0.3885 -2.4741
 2264SOL    HW218255   3.705   0.406   9.088 -0.5631 -0.7458  0.8957
 2265SOL     OW18256   2.840   0.518   6.459  0.1108 -0.2733 -0.1023
 2265SOL    HW118257   2.758   0.497   6.415  1.0083 -0.5392 -1.6308
 2265SOL    HW218258   2.911   0.479   6.408  0.3429 -1.1353  0.8700
 2266SOL     OW18259   4.030   1.428   7.251  0.0089  0.4159  0.3520
 2266SOL    HW118260   3.984   1.434   7.335  2.9774 -3.2262  2.2273
 2266SOL    HW218261   4.098   1.368   7.282  0.2685  0.7129  0.3634
 2267SOL     OW18262   0.506   2.837   7.003 -0.4516 -0.0930  0.2079
 2267SOL    HW118263   0.544   2.824   6.916  0.1590  0.7498  0.3479
 2267SOL    HW218264   0.413   2.853   6.984  0.1651  0.8545 -2.0455
 2268SOL     OW18265   2.467   2.886   4.973  0.4754  0.2184 -0.2213
 2268SOL    HW118266   2.394   2.867   5.031  0.9666  2.0528  0.9831
 2268SOL    HW218267   2.546   2.884   5.028 -0.9419  1.6265  1.8380
 2269SOL     OW18268   2.181   0.011   7.908 -0.5412 -0.1324  0.6472
 2269SOL    HW118269   2.153   0.053   7.990  0.9189  0.1797  0.9918
 2269SOL    HW218270   2.106   4.669   7.903 -1.9700  1.6336  0.8828
 2270SOL     OW18271   3.447   2.016   1.754 -0.4388 -0.6660  0.0730
 2270SOL    HW118272   3.522   1.961   1.776  0.1606 -0.0105 -0.3252
 2270SOL    HW218273   3.488   2.099   1.781 -2.3838 -0.2359  1.6583
 2271SOL     OW18274   1.098   4.346   6.834  0.1637 -0.2811 -0.4085
 2271SOL    HW118275   1.099   4.348   6.739 -0.2122  1.4791 -0.3806
 2271SOL    HW218276   1.089   4.438   6.862  2.1521 -0.6642  1.4720
 2272SOL     OW18277   2.449   0.243   8.054  0.1612  0.7956  0.0881
 2272SOL    HW118278   2.520   0.245   8.118 -0.3119 -1.5848  0.6821
 2272SOL    HW218279   2.495   0.218   7.974 -0.6634 -2.7219  0.6991
 2273SOL     OW18280   2.114   2.252  13.014 -0.6970 -0.2487  0.2924
 2273SOL    HW118281   2.136   2.191  13.084 -1.2747 -0.0588  0.6422
 2273SOL    HW218282   2.116   2.335  13.061  0.5897  0.6205 -1.3030
 2274SOL     OW18283   3.888   2.317   7.053  0.2899 -0.2402  0.4867
 2274SOL    HW118284   3.816   2.326   7.115 -0.6731 -1.2533 -0.4978
 2274SOL    HW218285   3.867   2.246   6.993  0.2242  0.0509  0.1662
 2275SOL     OW18286   2.171   2.033   6.058  0.5307 -0.0088  0.5752
 2275SOL    HW118287   2.082   1.998   6.057 -0.3081  2.1858 -0.4240
 2275SOL    HW218288   2.182   2.073   5.971  1.3612  0.5370  0.9278
 2276SOL     OW18289   1.538   3.505   2.017 -0.6961  0.2414  0.1824
 2276SOL    HW118290   1.626   3.466   2.024 -0.8401 -0.1334 -0.1278
 2276SOL    HW218291   1.485   3.428   2.038 -1.7525  0.1226 -3.0578
 2277SOL     OW18292   3.343   0.874  14.680 -0.4486  0.1476 -0.4243
 2277SOL    HW118293   3.367   0.895  14.590 -0.0230  0.3741 -0.2569
 2277SOL    HW218294   3.369   0.956  14.722  0.4548  0.1524 -1.0070
 2278SOL     OW18295   1.324   2.340   2.417  0.0069  0.3129 -0.6402
 2278SOL    HW118296   1.317   2.248   2.391 -1.8245  0.9790 -2.5285
 2278SOL    HW218297   1.239   2.357   2.457  0.8844 -1.5211  1.9240
 2279SOL     OW18298   2.412   0.496   5.656 -0.7099 -0.0450  0.0943
 2279SOL    HW118299   2.455   0.433   5.598 -0.1546  1.1023 -0.7347
 2279SOL    HW218300   2.377   0.438   5.724  1.2886  0.8063  1.8443
 2280SOL     OW18301   3.395   3.494  13.947 -0.1736 -0.1795  0.3134
 2280SOL    HW118302   3.453   3.490  14.023  0.4821  0.5752 -0.1479
 2280SOL    HW218303   3.403   3.585  13.918  1.8662 -0.1578  0.9791
 2281SOL     OW18304   4.672   2.357   6.002  0.1547 -0.6318  0.7610
 2281SOL    HW118305   0.049   2.357   6.009  0.1577 -1.8322  0.7077
 2281SOL    HW218306   4.649   2.274   5.960  0.5762 -0.3506 -0.0302
 2282SOL     OW18307   0.333   4.004   0.859  0.2436 -0.2190 -0.5341
 2282SOL    HW118308   0.371   4.080   0.815  1.3966 -1.0548 -0.9883
 2282SOL    HW218309   0.388   3.989   0.936 -1.8813 -2.7083  0.5227
 2283SOL     OW18310   0.146   2.781   6.366  0.7215 -0.1512 -0.1641
 2283SOL    HW118311   0.168   2.688   6.374  1.5670  0.0504 -0.0641
 2283SOL    HW218312   0.236   2.814   6.375  0.3452  0.8838 -0.2456
 2284SOL     OW18313   3.919   1.290  10.560 -0.1407  0.0243 -0.1659
 2284SOL    HW118314   3.864   1.222  10.600 -0.8534 -0.5371 -2.0859
 2284SOL    HW218315   3.871   1.367  10.593 -0.8559 -1.3970  2.0833
 2285SOL     OW18316   2.953   3.306  14.107 -0.2104  0.0625  0.0849
 2285SOL    HW118317   3.019   3.374  14.096 -0.1828  0.1161  0.6029
 2285SOL    HW218318   2.980   3.238  14.046  2.7510  1.7847 -0.5124
 2286SOL     OW18319   1.609   0.637   8.219 -0.2246 -0.1895 -0.1384
 2286SOL    HW118320   1.682   0.613   8.276  1.1992  1.4971 -1.2592
 2286SOL    HW218321   1.656   0.701   8.167 -0.5681  1.4048  1.5107
 2287SOL     OW18322   2.404   3.324   8.515 -0.1160  0.0247  0.0906
 2287SOL    HW118323   2.463   3.391   8.483 -2.0310  2.0071  0.6775
 2287SOL    HW218324   2.325   3.378   8.511 -0.9901 -1.4053 -2.0446
 2288SOL     OW18325   3.296   2.145  14.340 -0.4484 -0.3321 -0.0104
 2288SOL    HW118326   3.208   2.145  14.303 -0.4322 -0.9745 -0.0510
 2288SOL    HW218327   3.342   2.075  14.294  1.6494  0.9370  0.1517
 2289SOL     OW18328   0.801   0.502   9.505 -0.1317  0.1331  0.3655
 2289SOL    HW118329   0.848   0.424   9.534 -1.5316 -1.1071 -0.7164
 2289SOL    HW218330   0.729   0.463   9.456  3.2449 -2.4100 -2.5790
 2290SOL     OW18331   4.370   1.292  14.999  0.0328 -0.1158  0.1474
 2290SOL    HW118332   4.445   1.265  15.051 -0.1937 -0.7552  0.1511
 2290SOL    HW218333   4.367   1.238  14.920  0.3169  3.4258 -2.3068
 2291SOL     OW18334   3.754   4.463  17.120  0.4457 -0.0748 -0.5542
 2291SOL    HW118335   3.749   4.531  17.186  1.2807 -1.8136  1.2992
 2291SOL    HW218336   3.680   4.492  17.066 -0.9801 -0.1029  1.4073
 2292SOL     OW18337   4.604   1.268  15.891  0.1913  0.0167  0.4450
 2292SOL    HW118338   4.646   1.353  15.881  1.3878 -0.8997 -2.0947
 2292SOL    HW218339   4.654   1.199  15.848  1.1040  0.7408  0.3447
 2293SOL     OW18340   3.831   1.946   8.201  0.0449  0.2295 -0.7167
 2293SOL    HW118341   3.815   1.897   8.282 -0.2263  1.0427 -0.2824
 2293SOL    HW218342   3.757   2.007   8.203 -1.6991 -1.8171 -2.2275
 2294SOL     OW18343   2.131   0.898   4.953 -0.1447 -0.0681  0.5563
 2294SOL    HW118344   2.159   0.956   5.025  1.8463  1.0891 -1.1617
 2294SOL    HW218345   2.038   0.921   4.952 -0.3182 -0.7351  1.6381
 2295SOL     OW18346   2.588   0.625   8.201  0.2897 -0.0773 -0.1305
 2295SOL    HW118347   2.593   0.704   8.254  0.6278 -0.3896  0.3076
 2295SOL    HW218348   2.502   0.586   8.219  0.0367  0.3295 -0.4697
 2296SOL     OW18349   0.663   2.209   9.095 -0.0418  0.1403 -0.7347
 2296SOL    HW118350   0.601   2.235   9.163  0.3595 -0.8050  0.0119
 2296SOL    HW218351   0.668   2.115   9.112  0.9021  0.5157  1.1956
 2297SOL     OW18352   2.238   0.390   3.873  0.0173 -0.3183  0.1239
 2297SOL    HW118353   2.280   0.311   3.910  0.0641 -0.0688  0.6038
 2297SOL    HW218354   2.196   0.412   3.956 -0.9913  0.8220 -0.6983
 2298SOL     OW18355   1.946   0.228   9.313  0.1212 -0.1453  0.4186
 2298SOL    HW118356   1.904   0.171   9.377 -1.8285  0.1151 -0.6052
 2298SOL    HW218357   2.034   0.208   9.343  0.1993  1.1223  1.0052
 2299SOL     OW18358   3.478   1.804  11.931  0.3832  0.5498  0.1545
 2299SOL    HW118359   3.525   1.741  11.985 -2.0338 -0.7271  0.7581
 2299SOL    HW218360   3.470   1.881  11.988  1.1895  0.6323  0.1666
 2300SOL     OW18361   0.327   1.869   4.964  0.1867  0.0524 -0.0379
 2300SOL    HW118362   0.386   1.798   4.988  0.5330  0.8574  1.5000
 2300SOL    HW218363   0.297   1.839   4.879 -0.2859  0.6272 -0.0720
 2301SOL     OW18364   2.899   0.156   7.357  0.1118  0.1444 -0.3653
 2301SOL    HW118365   2.889   0.248   7.383 -0.6547 -0.0254 -0.0451
 2301SOL    HW218366   2.844   0.120   7.427  1.4413 -0.1606  0.5199
 2302SOL     OW18367   3.513   1.882   2.103 -0.3535 -0.0833  0.5655
 2302SOL    HW118368   3.515   1.863   2.009  0.3728  3.8066 -0.2169
 2302SOL    HW218369   3.593   1.933   2.118  0.8190 -1.2234 -1.8629
 2303SOL     OW18370   1.259   0.137   9.431  0.2867 -0.1410  0.1723
 2303SOL    HW118371   1.206   0.136   9.511 -1.6272 -0.2070 -1.1122
 2303SOL    HW218372   1.303   0.222   9.436 -0.7367  0.5226 -2.5989
 2304SOL     OW18373   1.954   2.909  11.377 -0.8354 -0.2162  0.1775
 2304SOL    HW118374   1.959   2.896  11.472  0.7631 -2.2770 -0.1641
 2304SOL    HW218375   1.951   2.820  11.342  0.1046  0.8407 -2.5586
 2305SOL     OW18376   3.800   2.114   6.886 -0.0226 -0.2815  0.0157
 2305SOL    HW118377   3.714   2.146   6.858 -0.4761 -1.9049 -0.4316
 2305SOL    HW218378   3.851   2.105   6.806  0.9378  1.1469  0.4703
 2306SOL     OW18379   4.226   0.279   7.517 -0.3293 -0.2245  0.2104
 2306SOL    HW118380   4.155   0.341   7.500 -0.0344 -0.4482 -1.7910
 2306SOL    HW218381   4.175   0.198   7.511 -0.7845  0.0873 -0.2057
 2307SOL     OW18382   4.174   1.183   5.284 -0.0928  0.3150 -0.3251
 2307SOL    HW118383   4.144   1.117   5.221  2.4089 -1.2358  0.1375
 2307SOL    HW218384   4.099   1.242   5.299 -0.6641 -0.3322 -0.6069
 2308SOL     OW18385   0.648   3.533  16.956  0.8956  0.4277  0.6680
 2308SOL    HW118386   0.729   3.516  16.907  1.1674 -0.9294  1.5980
 2308SOL    HW218387   0.664   3.619  16.994 -0.0033 -0.0916  2.2076
 2309SOL     OW18388   2.076   1.061   9.177 -0.5910  0.3461 -0.4228
 2309SOL    HW118389   2.091   1.136   9.235  0.6856  1.7356 -2.5651
 2309SOL    HW218390   2.151   1.062   9.118  0.4066 -0.6976  0.8353
 2310SOL     OW18391   0.706   1.181   7.666 -0.5063  0.2411 -0.2009
 2310SOL    HW118392   0.761   1.258   7.676  0.0749 -0.3384  1.1439
 2310SOL    HW218393   0.713   1.159   7.573 -2.0479  0.3927 -0.3517
 2311SOL     OW18394   1.331   2.153  14.756 -0.3156 -0.4809 -0.0916
 2311SOL    HW118395   1.396   2.086  14.737  0.6452  0.5153 -0.2909
 2311SOL    HW218396   1.393   2.224  14.772 -1.4767  0.8753 -1.5969
 2312SOL     OW18397   3.438   0.245   4.228  0.1587 -0.6270  0.4113
 2312SOL    HW118398   3.455   0.199   4.145  1.3752  0.2891  0.1623
 2312SOL    HW218399   3.520   0.292   4.237 -0.8622  0.8896  1.6729
 2313SOL     OW18400   4.056   2.875   3.504  0.2791 -0.0068 -0.4836
 2313SOL    HW118401   3.995   2.904   3.572 -0.8302  1.7575 -2.2589
 2313SOL    HW218402   4.034   2.923   3.425  2.6756  0.2051 -1.0261
 2314SOL     OW18403   0.843   1.339  11.126  0.2675 -0.3364 -0.0152
 2314SOL    HW118404   0.829   1.296  11.042 -1.8388 -0.8400  0.5883
 2314SOL    HW218405   0.904   1.280  11.171 -0.1079 -1.6029 -1.1651
 2315SOL     OW18406   1.577   3.598  14.291  0.3778  0.2614 -0.4239
 2315SOL    HW118407   1.627   3.583  14.372 -1.1218 -2.1906  0.0225
 2315SOL    HW218408   1.647   3.629  14.234  2.6896 -0.5958  1.9566
 2316SOL     OW18409   1.722   4.672   8.077 -0.2557  0.8855  0.0963
 2316SOL    HW118410   1.662   4.622   8.132 -0.1222 -0.2337 -0.7739
 2316SOL    HW218411   1.765   0.011   8.141  0.0091  1.5710 -0.6982
 2317SOL     OW18412   1.101   2.490   5.587  0.2667  0.1827  0.0100
 2317SOL    HW118413   1.065   2.401   5.587 -0.9109  0.6554 -0.7948
 2317SOL    HW218414   1.191   2.479   5.559  0.8354 -2.8012  3.0734
 2318SOL     OW18415   1.478   3.905   3.283  0.6096 -0.1036 -0.3043
 2318SOL    HW118416   1.432   3.904   3.367 -0.9972 -2.4882 -1.1846
 2318SOL    HW218417   1.431   3.848   3.222  2.3810  0.7899 -2.5006
 2319SOL     OW18418   1.127   2.618   4.713 -0.1088  0.0867  0.3289
 2319SOL    HW118419   1.211   2.660   4.699  0.9492 -1.4126  2.2593
 2319SOL    HW218420   1.109   2.654   4.800 -0.0884 -0.5314  0.5947
 2320SOL     OW18421   0.981   2.958  15.757 -0.2964 -0.1615 -0.2996
 2320SOL    HW118422   0.966   3.036  15.810 -1.0971  1.0918 -2.3442
 2320SOL    HW218423   0.949   2.894  15.820  0.2684  0.0697  0.2253
 2321SOL     OW18424   0.414   4.163   5.048 -0.2926  0.5854 -0.1696
 2321SOL    HW118425   0.472   4.136   5.119 -2.8698 -1.7456  1.0783
 2321SOL    HW218426   0.359   4.086   5.032 -0.9150  1.2284 -1.1016
 2322SOL     OW18427   2.628   3.175   6.912  0.4762  0.5305 -0.0148
 2322SOL    HW118428   2.701   3.153   6.969 -0.0479 -2.9444 -0.6621
 2322SOL    HW218429   2.604   3.085   6.890  1.1914  0.5463 -0.8667
 2323SOL     OW18430   2.523   3.514   4.589 -0.0815  0.1916 -0.3985
 2323SOL    HW118431   2.574   3.440   4.623 -1.4527 -0.8718 -0.6508
 2323SOL    HW218432   2.541   3.510   4.495 -0.3312 -0.4455 -0.4224
 2324SOL     OW18433   1.543   0.748   2.005  0.4539 -0.1125 -0.3276
 2324SOL    HW118434   1.494   0.678   1.962 -0.9540  1.2209 -0.9021
 2324SOL    HW218435   1.538   0.722   2.097 -2.0988 -0.1912 -0.4888
 2325SOL     OW18436   3.638   1.982   4.707 -0.2023  0.7489 -0.4175
 2325SOL    HW118437   3.696   2.051   4.740 -0.5570  1.4100 -1.1917
 2325SOL    HW218438   3.650   1.998   4.613 -0.4217 -3.0593 -1.0874
 2326SOL     OW18439   4.590   1.774   5.837 -0.0496  0.1512  0.1093
 2326SOL    HW118440   4.635   1.717   5.900 -0.1174 -1.7620 -1.5682
 2326SOL    HW218441   4.644   1.764   5.758 -1.1756  0.0742 -0.6530
 2327SOL     OW18442   0.352   4.517   5.138 -0.4622 -0.0648  0.0996
 2327SOL    HW118443   0.266   4.483   5.115 -1.1011  1.3324  0.4562
 2327SOL    HW218444   0.374   4.477   5.223  0.6368  0.9397  0.2866
 2328SOL     OW18445   3.616   1.707   8.224 -0.1416 -0.1167 -0.5762
 2328SOL    HW118446   3.678   1.657   8.277  0.7522  0.6423 -0.9011
 2328SOL    HW218447   3.538   1.656   8.245 -0.2655  1.1159  1.9889
 2329SOL     OW18448   3.028   0.267  17.241  0.3588 -0.5221  0.4851
 2329SOL    HW118449   2.945   0.310  17.222  0.7577  1.2352  2.7146
 2329SOL    HW218450   3.017   0.172  17.250  1.1821 -0.6249  0.4074
 2330SOL     OW18451   4.242   4.046   0.448 -0.2028  0.2539 -0.8515
 2330SOL    HW118452   4.316   3.996   0.414 -0.2631 -0.1728 -0.3400
 2330SOL    HW218453   4.291   4.099   0.510 -1.8205  1.1563 -0.3434
 2331SOL     OW18454   1.195   3.591  13.947  0.1753  0.0507 -0.5229
 2331SOL    HW118455   1.275   3.551  13.980 -0.2771  2.0227  2.9535
 2331SOL    HW218456   1.228   3.676  13.918  0.4679 -0.2045 -0.9401
 2332SOL     OW18457   0.002   4.618  13.469 -0.3230  0.1854  0.0461
 2332SOL    HW118458   4.681   4.689  13.520 -0.5560  1.7458 -2.3036
 2332SOL    HW218459   0.038   4.660  13.391 -0.9420  1.2431  0.3315
 2333SOL     OW18460   4.210   4.500   8.139 -0.5070 -0.6185  0.1571
 2333SOL    HW118461   4.125   4.545   8.130 -0.4266 -0.4094  0.4777
 2333SOL    HW218462   4.277   4.567   8.131  0.3112 -1.5126 -0.4738
 2334SOL     OW18463   4.268   2.373  10.587 -0.3083  0.1002  0.4805
 2334SOL    HW118464   4.244   2.366  10.680 -1.1911 -2.2662  0.0761
 2334SOL    HW218465   4.195   2.423  10.550  1.2696  1.1542 -1.1953
 2335SOL     OW18466   4.382   0.311  10.116  0.8696  0.2130  0.0238
 2335SOL    HW118467   4.432   0.278  10.191  0.1993 -0.2536  0.2658
 2335SOL    HW218468   4.311   0.247  10.120  1.5182 -0.5303 -0.3236
 2336SOL     OW18469   0.441   3.401   3.776 -0.2643 -0.0611 -0.4674
 2336SOL    HW118470   0.508   3.407   3.844  1.5532  1.4680 -2.3733
 2336SOL    HW218471   0.440   3.483   3.727  0.7948  0.3857  0.2663
 2337SOL     OW18472   4.409   0.504  16.857  0.1132  0.6777 -0.0151
 2337SOL    HW118473   4.350   0.466  16.792 -1.7170  2.3339  0.6711
 2337SOL    HW218474   4.367   0.458  16.929 -2.0341  0.6839 -1.2582
 2338SOL     OW18475   2.473   4.505  15.577  0.1942 -0.1387  0.3842
 2338SOL    HW118476   2.489   4.466  15.663  2.0358  2.4760  1.2359
 2338SOL    HW218477   2.394   4.555  15.594  1.0250  1.8403 -1.4496
 2339SOL     OW18478   0.887   2.703   2.394 -0.0202 -0.1680 -0.0126
 2339SOL    HW118479   0.926   2.688   2.480  0.0908  1.3909  0.1990
 2339SOL    HW218480   0.796   2.731   2.407  0.4115  0.9859  0.4544
 2340SOL     OW18481   0.887   2.779  14.120 -0.2544 -0.1659  0.2742
 2340SOL    HW118482   0.845   2.862  14.146 -0.5941  0.2277 -1.5726
 2340SOL    HW218483   0.915   2.747  14.206  0.3249  0.4957  0.3274
 2341SOL     OW18484   2.796   0.314  12.935  0.4104  0.0312  0.3735
 2341SOL    HW118485   2.886   0.347  12.936  0.7134 -0.7614 -1.0541
 2341SOL    HW218486   2.773   0.339  13.025 -3.3567  2.2841 -1.2338
 2342SOL     OW18487   1.629   4.578   3.271  0.0599  0.1619 -0.9574
 2342SOL    HW118488   1.614   4.491   3.308 -0.3086  0.3484 -0.6697
 2342SOL    HW218489   1.722   4.599   3.276 -0.0698  0.1551  1.1356
 2343SOL     OW18490   3.448   1.569   4.900 -0.1191 -0.4396 -0.0218
 2343SOL    HW118491   3.524   1.521   4.866  0.3828  0.5202 -0.2477
 2343SOL    HW218492   3.448   1.640   4.836  1.0396  0.9522  1.5381
 2344SOL     OW18493   1.639   2.245   8.991 -0.0518 -0.1965  1.0551
 2344SOL    HW118494   1.688   2.250   8.909 -0.5951 -0.1752  0.7340
 2344SOL    HW218495   1.644   2.336   9.020 -0.7474  0.5515 -1.1764
 2345SOL     OW18496   2.820   3.575   6.046  0.1088  0.5811  0.0334
 2345SOL    HW118497   2.875   3.623   6.108  1.2837 -2.9395  1.7129
 2345SOL    HW218498   2.799   3.653   5.995 -0.1385  0.8173  0.5001
 2346SOL     OW18499   2.655   4.267   9.354  0.2626  0.5320  0.3559
 2346SOL    HW118500   2.660   4.354   9.395  1.0458  0.5651  0.1854
 2346SOL    HW218501   2.725   4.229   9.407  0.7158  1.2596  0.2738
 2347SOL     OW18502   4.024   3.568   2.974  0.6434  0.6045  0.0826
 2347SOL    HW118503   4.009   3.546   3.066 -2.1282 -1.8906 -0.9612
 2347SOL    HW218504   3.941   3.609   2.949  0.8497 -1.0709 -3.3676
 2348SOL     OW18505   0.749   3.073  15.121  0.5124  0.2854  0.1258
 2348SOL    HW118506   0.740   3.109  15.209 -1.1443 -0.9612  0.4671
 2348SOL    HW218507   0.832   3.112  15.093 -0.5123  1.0806 -1.8420
 2349SOL     OW18508   4.371   0.016   3.403 -0.1042  0.1227 -0.8906
 2349SOL    HW118509   4.326   0.081   3.458 -1.4163  0.0205 -1.8363
 2349SOL    HW218510   4.330   4.655   3.437 -2.0447  2.7981  3.1383
 2350SOL     OW18511   2.648   3.450   5.708  0.1583  0.3602 -0.1773
 2350SOL    HW118512   2.610   3.519   5.763 -2.0126  0.1721 -1.4411
 2350SOL    HW218513   2.572   3.420   5.658  0.7094 -0.3324 -0.5949
 2351SOL     OW18514   3.570   4.558   7.137 -0.5638  0.2323 -0.0051
 2351SOL    HW118515   3.582   4.591   7.048  0.2731 -0.9128 -0.3052
 2351SOL    HW218516   3.551   4.641   7.181 -2.1720 -0.5806  0.8415
 2352SOL     OW18517   4.465   3.655  12.470  0.4753  0.0516  0.2438
 2352SOL    HW118518   4.496   3.745  12.465 -1.0860  0.6571  1.4023
 2352SOL    HW218519   4.510   3.618  12.546  0.1467 -1.8120 -0.4506
 2353SOL     OW18520   2.421   4.053   6.311 -0.5204 -0.1440  0.0560
 2353SOL    HW118521   2.496   4.026   6.365  0.0107 -0.6061 -0.9107
 2353SOL    HW218522   2.437   4.147   6.309  1.8298 -0.5280  0.7891
 2354SOL     OW18523   4.286   1.736   4.351  0.2735 -0.4189 -0.3385
 2354SOL    HW118524   4.334   1.659   4.319  1.7900 -0.0919  1.1571
 2354SOL    HW218525   4.343   1.808   4.324 -0.1741  0.2672  0.5586
 2355SOL     OW18526   4.544   0.894   7.609  0.5594  0.2986 -0.4102
 2355SOL    HW118527   4.456   0.861   7.628 -0.4757  2.8801 -0.7015
 2355SOL    HW218528   4.603   0.828   7.645  0.8661  1.4821  1.2813
 2356SOL     OW18529   1.909   4.022   3.736 -0.3144 -0.4050 -0.1698
 2356SOL    HW118530   1.909   3.998   3.828  1.2781 -1.1213 -0.3693
 2356SOL    HW218531   1.819   4.053   3.722  0.3742  0.7359 -2.1483
 2357SOL     OW18532   0.591   4.633   5.114 -0.2847 -0.5154  0.3273
 2357SOL    HW118533   0.509   4.585   5.108 -0.2322 -0.3240 -1.8256
 2357SOL    HW218534   0.551   0.001   5.110 -0.8950 -0.9418 -2.9421
 2358SOL     OW18535   2.139   3.510  10.426 -0.5715 -0.2810  0.0666
 2358SOL    HW118536   2.150   3.444  10.495 -1.6306 -0.7636 -0.2322
 2358SOL    HW218537   2.152   3.459  10.346  1.1701 -0.7247  0.6400
 2359SOL     OW18538   2.652   0.117   5.032 -0.6473  0.1652  0.2242
 2359SOL    HW118539   2.616   0.203   5.009  0.7833  1.0384  1.2816
 2359SOL    HW218540   2.699   0.092   4.953 -1.3367  0.3497 -0.2461
 2360SOL     OW18541   4.575   2.328   7.846  0.3753  0.1180  0.4620
 2360SOL    HW118542   4.522   2.294   7.918 -0.8961  0.6264 -0.2349
 2360SOL    HW218543   4.614   2.247   7.814 -0.6476  0.1779 -0.9268
 2361SOL     OW18544   3.471   3.147   4.575  0.6973  0.2228 -0.1139
 2361SOL    HW118545   3.473   3.223   4.632 -1.8066 -0.9127  1.4818
 2361SOL    HW218546   3.413   3.172   4.503 -0.4142 -0.6365  0.4685
 2362SOL     OW18547   2.038   3.845  11.085 -0.1036  0.3989 -0.1362
 2362SOL    HW118548   2.014   3.763  11.127 -3.0950  1.9500  1.1286
 2362SOL    HW218549   2.019   3.914  11.148 -2.9335  0.5585 -1.1629
 2363SOL     OW18550   1.179   0.700  17.072  0.2656  0.2768 -0.3177
 2363SOL    HW118551   1.203   0.610  17.049  0.3431 -0.0768  1.1809
 2363SOL    HW218552   1.084   0.698  17.066  0.3713 -0.5915 -1.7962
 2364SOL     OW18553   0.057   1.547   3.240  0.2793  0.1815 -0.5070
 2364SOL    HW118554   4.702   1.486   3.247  0.5511 -0.0134  0.6274
 2364SOL    HW218555   0.116   1.501   3.180  1.7807 -0.7946  1.7453
 2365SOL     OW18556   2.587   3.026   3.877  0.2504 -0.7070  0.0459
 2365SOL    HW118557   2.611   3.026   3.970 -0.5625  0.8226  0.2503
 2365SOL    HW218558   2.492   3.021   3.892  0.0332  3.5971  0.1309
 2366SOL     OW18559   1.883   1.499   1.418 -0.2262  0.1971 -0.2797
 2366SOL    HW118560   1.942   1.505   1.494  3.4600 -1.6456 -3.0413
 2366SOL    HW218561   1.926   1.429   1.368 -1.5312 -0.0556 -1.0366
 2367SOL     OW18562   2.344   1.404  10.016  0.2753  0.1301  0.1804
 2367SOL    HW118563   2.371   1.467   9.948 -0.3155  1.0748  0.8219
 2367SOL    HW218564   2.249   1.409  10.026  0.2365  2.0196 -1.1240
 2368SOL     OW18565   4.242   3.301   6.047  0.1815 -0.6999  0.3830
 2368SOL    HW118566   4.278   3.347   5.972 -1.1867  0.7253  0.6010
 2368SOL    HW218567   4.280   3.347   6.122 -0.9578  2.2984 -0.9150
 2369SOL     OW18568   4.542   0.305   8.366 -0.2344  0.0825 -0.3969
 2369SOL    HW118569   4.563   0.340   8.452  2.2680  0.3984 -1.1507
 2369SOL    HW218570   4.620   0.256   8.342  1.4619  2.4771  0.2913
 2370SOL     OW18571   1.232   1.840   2.908  0.4417  0.1887  0.2638
 2370SOL    HW118572   1.183   1.768   2.868  2.1868 -1.9190  1.9594
 2370SOL    HW218573   1.164   1.904   2.931  1.3563  2.0106 -2.1579
 2371SOL     OW18574   3.884   1.394   4.478  0.2811  0.1620  0.8400
 2371SOL    HW118575   3.886   1.338   4.556  0.1625 -0.3024  0.5094
 2371SOL    HW218576   3.838   1.329   4.424  1.5995 -0.8674  0.9523
 2372SOL     OW18577   2.564   0.018   7.066  0.0673  0.9767 -0.3091
 2372SOL    HW118578   2.556   4.687   6.984  0.7938  1.6851 -0.8020
 2372SOL    HW218579   2.614   0.093   7.036 -1.3015  2.2251  0.5552
 2373SOL     OW18580   1.585   3.943   2.287  0.2401  0.3236 -0.0052
 2373SOL    HW118581   1.524   3.869   2.294  0.1078  0.3999 -0.4051
 2373SOL    HW218582   1.639   3.912   2.215 -0.7305 -0.7923 -0.2564
 2374SOL     OW18583   0.076   0.788   6.103 -0.4449 -0.1494 -0.2002
 2374SOL    HW118584   0.130   0.729   6.156 -0.3966 -0.0906 -0.1836
 2374SOL    HW218585   0.077   0.745   6.017  1.0211  0.3769 -0.4571
 2375SOL     OW18586   0.794   2.342   2.389 -0.5978 -0.6893 -0.0369
 2375SOL    HW118587   0.829   2.284   2.321  0.4637 -0.7677  0.5686
 2375SOL    HW218588   0.726   2.394   2.345 -0.0573 -0.4112 -0.5529
 2376SOL     OW18589   2.223   2.074  14.213  0.2190 -0.2402 -0.3778
 2376SOL    HW118590   2.282   2.076  14.138 -1.7818  3.4429 -1.8404
 2376SOL    HW218591   2.269   2.014  14.272 -0.2339  0.3378  0.5610
 2377SOL     OW18592   0.643   3.277   2.807 -0.2966 -0.1618 -0.0607
 2377SOL    HW118593   0.620   3.290   2.715  0.1842 -0.3580 -0.2067
 2377SOL    HW218594   0.562   3.314   2.843 -0.0785 -0.0186  0.2833
 2378SOL     OW18595   0.174   1.315   7.742 -0.2767 -0.2445 -0.1820
 2378SOL    HW118596   0.149   1.389   7.797  0.1747  0.5628 -1.0738
 2378SOL    HW218597   0.263   1.337   7.716  0.7284 -0.8267  2.7710
 2379SOL     OW18598   3.144   1.004   9.115 -0.1445 -0.3759  0.0178
 2379SOL    HW118599   3.130   0.982   9.023  1.5632 -1.1969 -0.0504
 2379SOL    HW218600   3.151   1.099   9.123 -1.0600 -0.1859 -1.3842
 2380SOL     OW18601   3.486   0.231  14.940 -0.8713 -0.1622 -0.5043
 2380SOL    HW118602   3.490   0.325  14.919  0.5039 -0.4630 -1.6094
 2380SOL    HW218603   3.450   0.238  15.029  0.5535 -3.7040  0.3451
 2381SOL     OW18604   2.495   3.596   5.037  0.3820 -0.6320 -0.6730
 2381SOL    HW118605   2.471   3.505   5.054 -2.7767  0.0802 -1.3286
 2381SOL    HW218606   2.560   3.617   5.104 -1.5351 -0.8475  1.2326
 2382SOL     OW18607   0.309   3.025   1.293 -0.4188 -0.0907  0.1337
 2382SOL    HW118608   0.377   2.959   1.280  0.5393  1.4401 -2.5145
 2382SOL    HW218609   0.308   3.033   1.388 -1.6511 -0.7426  0.1854
 2383SOL     OW18610   3.797   1.551   8.369 -0.0564  0.1509  0.2356
 2383SOL    HW118611   3.812   1.460   8.346  4.7505  1.1627 -0.6817
 2383SOL    HW218612   3.888   1.571   8.391  0.9000 -0.4300 -3.1085
 2384SOL     OW18613   2.385   1.531   3.958  0.0181 -1.0821  0.0013
 2384SOL    HW118614   2.480   1.533   3.971  0.0151  0.8196 -0.2596
 2384SOL    HW218615   2.377   1.464   3.890  0.2368 -1.0206 -0.0857
 2385SOL     OW18616   4.654   1.991   3.657  0.1279  0.1920 -0.0964
 2385SOL    HW118617   0.019   1.945   3.662 -0.4464 -0.8646 -0.1768
 2385SOL    HW218618   4.667   2.019   3.567  0.2417 -0.8282 -0.3964
 2386SOL     OW18619   2.389   4.566   7.798 -0.5334 -0.7857  0.6917
 2386SOL    HW118620   2.328   4.628   7.838  0.7361  0.0177  1.3785
 2386SOL    HW218621   2.339   4.524   7.728 -0.9703  0.9170 -0.0159
 2387SOL     OW18622   0.172   4.582   6.938 -0.6583  0.1452 -0.7809
 2387SOL    HW118623   0.166   4.500   6.987  2.1069 -1.0428 -2.4158
 2387SOL    HW218624   0.219   4.642   6.996 -0.5392 -1.3743  0.6903
 2388SOL     OW18625   2.466   3.894   3.997 -0.0059  0.4030  0.2935
 2388SOL    HW118626   2.459   3.799   4.001 -0.3170  0.4251  0.3027
 2388SOL    HW218627   2.554   3.917   3.968 -0.5699  0.0789 -1.6586
 2389SOL     OW18628   1.506   4.145   5.462 -0.5536  0.6069  0.0738
 2389SOL    HW118629   1.478   4.181   5.378 -2.4601 -0.8607  0.1064
 2389SOL    HW218630   1.436   4.086   5.489 -0.1262  0.9036  1.8429
 2390SOL     OW18631   3.452   3.475   5.023  0.5716  0.5976  0.4435
 2390SOL    HW118632   3.493   3.490   4.937  0.7865  1.1745  0.6417
 2390SOL    HW218633   3.474   3.558   5.067 -0.2519  0.9141  0.2624
 2391SOL     OW18634   1.400   0.523   1.937 -0.4644 -0.4558 -0.4182
 2391SOL    HW118635   1.415   0.494   1.847  0.8321 -0.7463 -0.1037
 2391SOL    HW218636   1.431   0.444   1.982 -2.2905 -1.3834 -0.7867
 2392SOL     OW18637   4.627   3.242   1.607  0.9984 -0.6725 -0.3381
 2392SOL    HW118638   4.607   3.168   1.549 -1.0539 -0.3902  0.0037
 2392SOL    HW218639   4.546   3.293   1.598  0.3680 -1.7417 -0.6575
 2393SOL     OW18640   2.359   2.788   8.723 -0.9674 -0.0720  0.1049
 2393SOL    HW118641   2.392   2.824   8.641 -0.5520 -1.1067 -0.1824
 2393SOL    HW218642   2.285   2.843   8.751 -1.6705 -2.6650  3.4692
 2394SOL     OW18643   4.513   4.437   3.750 -0.2957 -0.2304 -0.3922
 2394SOL    HW118644   4.502   4.531   3.769 -1.6457 -1.2387  3.8477
 2394SOL    HW218645   4.598   4.438   3.706 -0.3611 -2.5211 -0.5747
 2395SOL     OW18646   2.999   2.390   0.404 -0.0423 -0.1720  0.5129
 2395SOL    HW118647   2.904   2.395   0.397  0.0410 -1.1239 -1.1751
 2395SOL    HW218648   3.030   2.343   0.327 -0.8349  0.7327 -0.3599
 2396SOL     OW18649   3.625   4.267  14.876  0.4922  0.3684  0.7071
 2396SOL    HW118650   3.572   4.246  14.798  1.2858  0.7126  0.0774
 2396SOL    HW218651   3.700   4.314  14.840  1.2213 -1.9347 -0.8407
 2397SOL     OW18652   2.784   1.763   5.235 -0.2845  0.2807  0.4596
 2397SOL    HW118653   2.869   1.745   5.274 -0.0987 -1.8820 -0.9736
 2397SOL    HW218654   2.809   1.808   5.155  0.0478  0.3007  0.5754
 2398SOL     OW18655   0.347   0.931   9.323 -0.2579 -1.0207 -0.2315
 2398SOL    HW118656   0.388   0.881   9.393  0.6195 -0.3254 -0.2545
 2398SOL    HW218657   0.355   1.020   9.356 -1.9098 -0.1938 -2.0257
 2399SOL     OW18658   2.126   3.660  11.797 -0.4978  0.1681  0.1739
 2399SOL    HW118659   2.112   3.744  11.754 -0.7023  1.1070  2.0462
 2399SOL    HW218660   2.150   3.679  11.888  1.6659  1.3533 -0.6323
 2400SOL     OW18661   0.924   2.398  15.559 -0.2005  0.1653  0.7225
 2400SOL    HW118662   0.939   2.320  15.612 -1.3730 -0.7443 -0.2725
 2400SOL    HW218663   0.849   2.364  15.509  1.1750  0.0538 -1.2725
 2401SOL     OW18664   3.374   2.392  15.980 -0.0616 -0.5992 -0.3687
 2401SOL    HW118665   3.391   2.302  15.951  0.1117  0.2004 -2.7483
 2401SOL    HW218666   3.318   2.372  16.055  0.0054 -2.1181 -0.7249
 2402SOL     OW18667   2.663   1.020   5.299  0.2251 -0.1122  0.2512
 2402SOL    HW118668   2.722   1.094   5.284  0.4528 -0.3387  0.0495
 2402SOL    HW218669   2.589   1.072   5.332 -0.9223 -0.9486 -0.9862
 2403SOL     OW18670   1.099   3.305   5.941 -0.2173 -0.9507  0.1301
 2403SOL    HW118671   1.086   3.221   5.985  3.0811 -1.7210 -0.3937
 2403SOL    HW218672   1.010   3.332   5.916 -0.6317 -2.9155 -0.4603
 2404SOL     OW18673   2.309   1.089   9.048  0.3006  0.3853 -0.3316
 2404SOL    HW118674   2.296   1.003   9.009  1.0084  0.5127 -0.8541
 2404SOL    HW218675   2.292   1.141   8.969 -0.9716  0.0445 -0.2865
 2405SOL     OW18676   2.553   2.466  12.614  0.5896  0.1053 -0.1871
 2405SOL    HW118677   2.471   2.478  12.565  0.8199 -1.3929 -0.9232
 2405SOL    HW218678   2.614   2.441  12.545  0.9791 -1.4331  0.7107
 2406SOL     OW18679   2.937   0.726   7.400  0.3748  0.1759  0.6813
 2406SOL    HW118680   2.890   0.801   7.365 -1.3625 -0.8972  0.7146
 2406SOL    HW218681   3.013   0.729   7.342  0.0246 -0.4903  0.1865
 2407SOL     OW18682   1.786   2.761   7.984 -0.3485 -0.6449 -0.2938
 2407SOL    HW118683   1.777   2.731   7.893  1.7987 -0.7208 -0.4809
 2407SOL    HW218684   1.847   2.835   7.978 -0.5985 -0.4864 -0.8246
 2408SOL     OW18685   0.255   3.667   4.251 -0.0929 -0.4426 -0.3266
 2408SOL    HW118686   0.292   3.750   4.222  0.4651 -0.3642  0.5920
 2408SOL    HW218687   0.212   3.622   4.178  2.1165 -2.5764 -0.3502
 2409SOL     OW18688   1.583   0.968   4.919 -0.1525  0.1987 -0.1395
 2409SOL    HW118689   1.534   0.892   4.951  2.8739 -1.6635  0.0818
 2409SOL    HW218690   1.537   0.977   4.836  0.3402 -1.4892 -0.6040
 2410SOL     OW18691   3.355   0.097   8.685  0.0442  0.3475 -0.0096
 2410SOL    HW118692   3.400   0.014   8.704 -0.0208  0.3036 -0.0476
 2410SOL    HW218693   3.281   0.083   8.744  1.4187 -2.7957  1.0006
 2411SOL     OW18694   2.183   2.849   9.992  0.1267 -0.1361  0.4541
 2411SOL    HW118695   2.090   2.852   9.970  0.2757  2.0604  0.1153
 2411SOL    HW218696   2.213   2.940   9.997  0.7145 -0.2878 -0.2368
 2412SOL     OW18697   4.118   2.663   3.253 -0.5915 -0.2358  0.0524
 2412SOL    HW118698   4.032   2.704   3.257 -1.0603 -1.3130  0.9955
 2412SOL    HW218699   4.096   2.594   3.316  0.3816  1.0864  1.8620
 2413SOL     OW18700   0.303   2.240   5.756  0.4504 -0.5687  0.6794
 2413SOL    HW118701   0.240   2.175   5.723 -0.3116  0.6714 -0.2773
 2413SOL    HW218702   0.257   2.279   5.831 -1.3300 -1.0500 -0.1539
 2414SOL     OW18703   0.940   2.222  16.044  0.0883 -0.6184 -0.0048
 2414SOL    HW118704   0.998   2.298  16.043  1.3073 -1.5636 -2.1373
 2414SOL    HW218705   0.905   2.236  16.131  0.2863 -0.6328  0.0769
 2415SOL     OW18706   3.842   2.676  15.557  0.0827 -0.4167  0.2794
 2415SOL    HW118707   3.753   2.647  15.574 -0.1456 -0.2361 -0.5832
 2415SOL    HW218708   3.826   2.769  15.540 -1.5395 -1.2091 -2.4899
 2416SOL     OW18709   3.603   1.175  13.210  0.2125  0.0891  0.3331
 2416SOL    HW118710   3.536   1.182  13.142 -1.1171  2.5363  1.9010
 2416SOL    HW218711   3.681   1.148  13.161 -0.2099 -0.2004 -0.1842
 2417SOL     OW18712   0.214   2.317  16.877  0.6946 -0.2504 -0.1111
 2417SOL    HW118713   0.138   2.356  16.833  0.6525 -2.1894 -1.7666
 2417SOL    HW218714   0.225   2.235  16.829 -1.3336 -0.2021 -0.6584
 2418SOL     OW18715   0.133   3.129   1.755  0.1453 -0.2585  0.1789
 2418SOL    HW118716   0.198   3.193   1.784  0.7891  0.0191 -1.8774
 2418SOL    HW218717   0.075   3.192   1.713  1.3567 -0.2569 -1.5378
 2419SOL     OW18718   3.029   2.478  14.960  0.2289 -0.3915 -0.1633
 2419SOL    HW118719   2.934   2.481  14.950  0.2180  0.9679  0.3381
 2419SOL    HW218720   3.044   2.403  15.016 -0.2018 -0.1352  0.2961
 2420SOL     OW18721   1.175   2.897   4.513 -0.3512 -0.4090  0.0371
 2420SOL    HW118722   1.234   2.822   4.521 -0.6591 -0.7639 -1.0797
 2420SOL    HW218723   1.172   2.924   4.605 -0.5373 -0.0549 -0.0736
 2421SOL     OW18724   4.471   1.868  15.924  0.0794  0.3384  0.2910
 2421SOL    HW118725   4.461   1.960  15.948  0.1838  0.9852 -2.2139
 2421SOL    HW218726   4.387   1.860  15.879 -0.4412 -0.0729  1.3100
 2422SOL     OW18727   0.609   3.985   6.064  0.4446 -0.0237 -0.1205
 2422SOL    HW118728   0.519   4.006   6.090  0.9770 -0.1455  1.8145
 2422SOL    HW218729   0.636   4.065   6.020  0.8991  0.0924  0.3823
 2423SOL     OW18730   1.475   3.119   4.437 -0.1883  0.0959 -0.8767
 2423SOL    HW118731   1.458   3.038   4.389 -0.7506 -0.8368  0.9233
 2423SOL    HW218732   1.457   3.186   4.371  1.7474 -2.3972 -3.9536
 2424SOL     OW18733   0.759   0.101   4.831  0.6843  0.0318 -0.8585
 2424SOL    HW118734   0.762   0.196   4.846  0.7585  0.2851 -2.4496
 2424SOL    HW218735   0.807   0.099   4.748 -0.8148 -0.0846 -1.7295
 2425SOL     OW18736   0.031   0.963   7.922  0.2459  0.0724  0.0329
 2425SOL    HW118737   0.126   0.973   7.920  0.2568 -0.8330 -2.8370
 2425SOL    HW218738   0.016   0.903   7.849  0.5942 -2.2108  1.8077
 2426SOL     OW18739   2.855   3.459   5.526  0.1775  0.0394  0.1535
 2426SOL    HW118740   2.926   3.414   5.572 -0.5520  0.8449  2.0880
 2426SOL    HW218741   2.784   3.463   5.591  0.3715  0.2768  0.3510
 2427SOL     OW18742   0.896   4.207  10.343 -0.1375  0.3103 -0.3318
 2427SOL    HW118743   0.934   4.289  10.373  1.0021 -0.0587 -0.7576
 2427SOL    HW218744   0.961   4.141  10.367 -0.6480 -1.4821 -3.8883
 2428SOL     OW18745   1.859   2.697   8.286 -0.2500 -0.6002 -0.5549
 2428SOL    HW118746   1.808   2.627   8.246 -0.4087 -2.0127  2.1599
 2428SOL    HW218747   1.896   2.657   8.365  2.6004  1.6808 -0.7264
 2429SOL     OW18748   3.998   0.036   7.326 -0.5155  0.1791  0.2879
 2429SOL    HW118749   4.041   0.031   7.411 -1.2936  0.1612  0.6827
 2429SOL    HW218750   4.011   4.668   7.287  0.1439  0.2061  0.4489
 2430SOL     OW18751   1.238   1.598  17.593 -0.1340  0.2753  0.2642
 2430SOL    HW118752   1.206   1.687  17.610 -0.4330 -0.0501  1.3766
 2430SOL    HW218753   1.332   1.610  17.582 -0.8445  2.0665 -3.6978
 2431SOL     OW18754   4.202   1.190   8.872  0.1946  0.2949  0.2363
 2431SOL    HW118755   4.198   1.217   8.964  1.1044  0.1510  0.3223
 2431SOL    HW218756   4.297   1.176   8.870  0.0322 -0.6265 -0.8276
 2432SOL     OW18757   4.370   2.625   4.775 -0.2853  0.6940  0.1063
 2432SOL    HW118758   4.432   2.564   4.815  1.0539  1.1843 -1.2185
 2432SOL    HW218759   4.416   2.709   4.783 -0.3195  0.7346 -0.1322
 2433SOL     OW18760   1.135   0.040   8.366 -0.5017  0.1785  0.1024
 2433SOL    HW118761   1.096   0.112   8.317 -1.2285 -1.4965 -1.8016
 2433SOL    HW218762   1.189   0.085   8.431 -0.4443 -0.0236  0.1969
 2434SOL     OW18763   2.210   0.517   3.570 -0.4976  0.4634  0.5574
 2434SOL    HW118764   2.129   0.560   3.599 -0.1789  1.0688  0.5445
 2434SOL    HW218765   2.262   0.597   3.559 -0.7640  0.4042 -1.1462
 2435SOL     OW18766   2.970   2.215   5.455 -0.7317  0.0369  0.0524
 2435SOL    HW118767   2.973   2.246   5.545 -3.1210 -0.3767  0.2915
 2435SOL    HW218768   3.001   2.124   5.452  1.1471  0.6148  2.3589
 2436SOL     OW18769   4.114   0.078  17.362 -0.5053 -0.6818 -0.6647
 2436SOL    HW118770   4.139   0.069  17.453  0.3769 -2.6403 -1.1023
 2436SOL    HW218771   4.084   0.168  17.368  0.3484 -0.3536 -1.2154
 2437SOL     OW18772   0.830   3.023   5.260  0.6238 -0.3665 -0.1588
 2437SOL    HW118773   0.786   3.078   5.196 -0.8254 -1.2641  0.0783
 2437SOL    HW218774   0.890   2.970   5.208  0.4165 -2.8593  2.1307
 2438SOL     OW18775   0.227   2.492   4.916 -0.6128  0.3615 -0.6631
 2438SOL    HW118776   0.218   2.402   4.882 -1.0985  0.1319  0.0859
 2438SOL    HW218777   0.153   2.540   4.881 -0.0740  2.0275  0.4848
 2439SOL     OW18778   2.892   4.048   7.207  0.1687 -0.8305 -0.3244
 2439SOL    HW118779   2.937   4.087   7.283 -0.2314  2.0530 -1.5658
 2439SOL    HW218780   2.881   4.122   7.147  1.5499 -0.5810 -0.2701
 2440SOL     OW18781   0.411   0.519  12.592 -0.2991 -0.3074  0.1969
 2440SOL    HW118782   0.354   0.546  12.664  0.3284  0.8836  0.2514
 2440SOL    HW218783   0.369   0.554  12.513 -1.1866  1.1667  1.3066
 2441SOL     OW18784   1.963   1.389   2.241 -0.8868  0.3020  0.0461
 2441SOL    HW118785   1.956   1.294   2.251 -1.7229  0.3084 -0.4941
 2441SOL    HW218786   1.874   1.414   2.218 -1.7149 -0.2916  2.6752
 2442SOL     OW18787   3.423   3.276  16.520 -0.6176  0.0646 -0.2070
 2442SOL    HW118788   3.380   3.324  16.450  1.4204 -0.6340 -1.9367
 2442SOL    HW218789   3.514   3.304  16.518 -0.7236  0.2932 -1.7545
 2443SOL     OW18790   2.724   2.134  17.021 -0.3632  0.0479  0.2984
 2443SOL    HW118791   2.710   2.219  17.063 -0.7067 -0.2288  0.7444
 2443SOL    HW218792   2.716   2.067  17.089  0.9263 -1.3738 -0.9408
 2444SOL     OW18793   1.631   0.607   8.781 -0.0109 -0.6789  0.5648
 2444SOL    HW118794   1.588   0.635   8.700 -0.9590  0.8977  1.6108
 2444SOL    HW218795   1.710   0.560   8.755  0.3229  0.2461 -0.0760
 2445SOL     OW18796   4.341   4.434   0.782  0.1967  0.3596 -0.4380
 2445SOL    HW118797   4.419   4.443   0.835 -0.5473 -1.6025  0.9914
 2445SOL    HW218798   4.272   4.419   0.847 -0.6888  0.5954 -1.3122
 2446SOL     OW18799   3.926   4.470   7.727 -0.2858  0.0200 -0.0764
 2446SOL    HW118800   3.926   4.550   7.779 -0.8106 -0.9734  1.4609
 2446SOL    HW218801   3.853   4.420   7.763 -0.1825 -2.2238 -3.0306
 2447SOL     OW18802   2.224   2.865   8.352 -0.0088  0.1218 -0.0823
 2447SOL    HW118803   2.235   2.928   8.424  1.3021  0.4406 -0.5603
 2447SOL    HW218804   2.315   2.863   8.324 -0.3566  2.8866 -1.4778
 2448SOL     OW18805   0.046   1.809   3.173 -0.2343  0.5072  0.2812
 2448SOL    HW118806   0.034   1.718   3.201  0.5005  0.0415 -0.9504
 2448SOL    HW218807   0.137   1.819   3.201  0.4169 -1.3377 -1.2046
 2449SOL     OW18808   1.152   3.831   3.972 -0.8163 -0.8054 -0.5340
 2449SOL    HW118809   1.091   3.871   4.034  0.4558 -0.6375  0.6168
 2449SOL    HW218810   1.118   3.742   3.973 -0.6261 -0.9002 -2.1732
 2450SOL     OW18811   2.385   3.215   5.398  0.1536  0.0697 -0.1957
 2450SOL    HW118812   2.464   3.269   5.398 -0.8249  1.5130  2.8845
 2450SOL    HW218813   2.403   3.164   5.477  1.6569  1.7208  0.5258
 2451SOL     OW18814   3.846   2.498  15.780 -0.1615  0.1559  0.1117
 2451SOL    HW118815   3.837   2.565  15.712 -1.6671  0.3694  0.5303
 2451SOL    HW218816   3.930   2.528  15.816  1.5775 -0.6773 -3.2301
 2452SOL     OW18817   1.670   3.708  11.162 -0.1322  0.3586  0.6069
 2452SOL    HW118818   1.670   3.723  11.256 -2.0915 -0.1574  0.6797
 2452SOL    HW218819   1.680   3.797  11.129  1.2638  0.5380  1.5089
 2453SOL     OW18820   0.308   2.529   3.173  0.1270  0.5359 -0.3442
 2453SOL    HW118821   0.253   2.486   3.108  0.7870 -1.0848  0.1900
 2453SOL    HW218822   0.250   2.498   3.242 -0.9585  1.7754 -0.7050
 2454SOL     OW18823   4.489   0.479  16.310 -0.5407  0.1276 -0.0714
 2454SOL    HW118824   4.476   0.534  16.387  1.1520 -0.4258  0.6278
 2454SOL    HW218825   4.578   0.505  16.285 -0.4208 -1.3306 -1.1759
 2455SOL     OW18826   2.830   1.346   5.012 -0.1793  0.0549  0.6665
 2455SOL    HW118827   2.875   1.351   4.927 -1.2023 -2.3899 -0.0057
 2455SOL    HW218828   2.742   1.328   4.980 -0.4548  0.2288  1.3440
 2456SOL     OW18829   1.234   4.154   7.305 -0.2066  0.2906 -0.7291
 2456SOL    HW118830   1.262   4.075   7.258 -0.2155 -0.7345  0.9737
 2456SOL    HW218831   1.286   4.217   7.256 -2.0023  1.5562 -0.9989
 2457SOL     OW18832   4.295   0.900  16.950 -0.3450  0.0114  0.5970
 2457SOL    HW118833   4.204   0.910  16.923 -0.6041  1.2542  1.9286
 2457SOL    HW218834   4.315   0.993  16.961 -0.4022  0.4441 -2.8413
 2458SOL     OW18835   0.790   1.542   8.471  0.3716  0.4392  0.4938
 2458SOL    HW118836   0.842   1.581   8.542 -1.1825 -0.3552  2.0876
 2458SOL    HW218837   0.752   1.622   8.435  1.0318  0.3455 -0.3895
 2459SOL     OW18838   1.724   4.527   3.645  0.5668 -0.1480  0.2904
 2459SOL    HW118839   1.770   4.575   3.576 -0.6438 -0.2546 -0.5841
 2459SOL    HW218840   1.635   4.562   3.646  0.9275  0.7699  0.7501
 2460SOL     OW18841   1.638   0.068  16.108 -0.2399  0.6029  0.7870
 2460SOL    HW118842   1.572   0.026  16.052  2.1037  0.0511 -1.5484
 2460SOL    HW218843   1.717   0.019  16.085 -1.7134 -2.4635  2.2318
 2461SOL     OW18844   2.654   0.629  13.814 -0.4367  0.1763  0.2175
 2461SOL    HW118845   2.583   0.565  13.809  0.4315 -0.9844  2.6549
 2461SOL    HW218846   2.650   0.672  13.900  2.5870  1.1891 -0.1572
 2462SOL     OW18847   0.762   3.674   5.036 -0.3450  0.0339  0.1847
 2462SOL    HW118848   0.811   3.594   5.052  0.7293  0.2922 -1.8315
 2462SOL    HW218849   0.748   3.705   5.125 -0.3478 -1.7935  0.8087
 2463SOL     OW18850   4.288   2.054   4.547 -0.4032  0.5569 -0.6609
 2463SOL    HW118851   4.313   2.145   4.538 -0.5699  0.8740  1.9732
 2463SOL    HW218852   4.286   2.026   4.455  0.6525 -1.5187 -0.0677
 2464SOL     OW18853   0.099   2.374   1.484  0.0470 -0.1364  0.0520
 2464SOL    HW118854   0.091   2.464   1.515 -0.1989 -0.3675  0.6534
 2464SOL    HW218855   0.054   2.381   1.400 -0.6997 -0.0948  0.4577
 2465SOL     OW18856   4.087   2.377  10.261 -0.2740 -0.5222 -0.4556
 2465SOL    HW118857   4.182   2.381  10.256 -0.4118  0.8881 -2.0723
 2465SOL    HW218858   4.056   2.450  10.208  0.5081  0.1245 -0.0184
 2466SOL     OW18859   0.251   4.324   1.292 -0.7672 -0.5382 -0.2900
 2466SOL    HW118860   0.343   4.348   1.275 -0.0770  0.0784  4.3326
 2466SOL    HW218861   0.248   4.239   1.249  0.4931 -0.6122 -0.2509
 2467SOL     OW18862   3.134   2.771   3.119 -0.1951  0.5255  0.0126
 2467SOL    HW118863   3.150   2.756   3.026 -2.5409 -1.1527 -0.1522
 2467SOL    HW218864   3.110   2.683   3.150  2.1006 -0.5507 -1.2703
 2468SOL     OW18865   0.858   1.538  10.032  0.1046  0.0036  0.3119
 2468SOL    HW118866   0.821   1.519  10.119 -1.1874  1.8656  0.1685
 2468SOL    HW218867   0.906   1.621  10.033 -2.5258  1.5539 -2.2162
 2469SOL     OW18868   4.345   3.908   7.635 -0.0956  0.3293  0.6190
 2469SOL    HW118869   4.264   3.936   7.594  0.4085  2.3163  0.9561
 2469SOL    HW218870   4.366   3.821   7.601 -0.4391  0.2028  0.7402
 2470SOL     OW18871   1.001   1.300  15.705 -0.0679  0.1550 -0.4078
 2470SOL    HW118872   0.914   1.298  15.745 -0.2789 -0.8850 -0.9176
 2470SOL    HW218873   0.988   1.374  15.645  0.6760  2.2144  1.9674
 2471SOL     OW18874   2.737   4.389   2.729  0.5714 -0.4824 -0.2044
 2471SOL    HW118875   2.645   4.415   2.737  0.4032 -1.1518  0.0416
 2471SOL    HW218876   2.786   4.461   2.690 -0.9512  0.8143  0.2857
 2472SOL     OW18877   4.383   1.603  13.091  0.4645  0.2250  0.2382
 2472SOL    HW118878   4.344   1.688  13.075  0.9955  1.0571  3.3025
 2472SOL    HW218879   4.462   1.609  13.037 -0.2462 -0.6242 -0.9007
 2473SOL     OW18880   2.621   3.099   1.490  0.3941 -0.2595 -0.4349
 2473SOL    HW118881   2.686   3.146   1.542 -0.9728  1.1566 -0.0090
 2473SOL    HW218882   2.545   3.156   1.492  0.2847 -0.3684 -1.4614
 2474SOL     OW18883   3.298   0.611  13.610  0.1656  0.2673  0.2639
 2474SOL    HW118884   3.270   0.610  13.701  1.6713  0.3256  0.7395
 2474SOL    HW218885   3.378   0.665  13.613  0.2008  0.2085  0.3971
 2475SOL     OW18886   0.868   3.733   7.554 -0.6205  0.0104 -0.5342
 2475SOL    HW118887   0.950   3.686   7.538 -0.6196 -0.3988  0.6587
 2475SOL    HW218888   0.900   3.798   7.617 -0.6244  2.0369 -2.6181
 2476SOL     OW18889   4.174   3.405   7.546  0.3384 -0.1696  0.1849
 2476SOL    HW118890   4.258   3.372   7.578  0.2495  1.3421  1.9209
 2476SOL    HW218891   4.111   3.363   7.604  1.1707 -0.4920  0.8590
 2477SOL     OW18892   1.694   4.563   0.989  0.0750 -0.0833  0.4385
 2477SOL    HW118893   1.789   4.576   0.979  0.1686 -2.0882 -1.2136
 2477SOL    HW218894   1.671   4.520   0.907 -0.0468  0.0480  0.4044
 2478SOL     OW18895   3.174   3.153   0.163 -0.0873 -0.2238  0.6588
 2478SOL    HW118896   3.091   3.146   0.117 -0.8839  2.4770  1.7328
 2478SOL    HW218897   3.204   3.232   0.119 -1.7792  0.4970  0.8095
 2479SOL     OW18898   3.696   3.048   1.783  0.3819  0.0237 -0.3427
 2479SOL    HW118899   3.653   3.132   1.795  1.0359  0.2488  0.3910
 2479SOL    HW218900   3.730   3.053   1.693  2.3563  1.0919  0.4568
 2480SOL     OW18901   3.583   0.547  11.998 -0.0432 -0.5963 -0.1682
 2480SOL    HW118902   3.523   0.549  12.072 -0.3517 -0.5433 -0.4185
 2480SOL    HW218903   3.658   0.592  12.037 -0.1444 -1.6326  1.2442
 2481SOL     OW18904   3.393   1.664   2.235 -0.2114  0.0825 -0.8102
 2481SOL    HW118905   3.459   1.732   2.221  0.5890 -0.6653 -0.7338
 2481SOL    HW218906   3.325   1.720   2.198 -0.5907  0.9475  1.1784
 2482SOL     OW18907   0.279   2.797   5.213 -0.1314 -0.4089  0.0354
 2482SOL    HW118908   0.199   2.758   5.250 -0.1443  0.7236  1.2077
 2482SOL    HW218909   0.271   2.885   5.249 -1.3275 -1.0755  1.3843
 2483SOL     OW18910   4.316   2.212   7.078  0.1416 -0.0027  0.0531
 2483SOL    HW118911   4.304   2.303   7.049 -1.2685  0.5183  2.3198
 2483SOL    HW218912   4.265   2.155   7.021 -0.7346 -1.1190  2.0060
 2484SOL     OW18913   0.398   0.521   9.462  0.7989 -0.1929  0.1956
 2484SOL    HW118914   0.455   0.595   9.483 -1.0392  0.8158  1.5932
 2484SOL    HW218915   0.461   0.456   9.433 -0.9924 -0.0772 -4.0460
 2485SOL     OW18916   0.598   1.043   0.782  0.5954  0.4726  0.2174
 2485SOL    HW118917   0.660   1.038   0.855 -0.0304 -1.5804  0.6329
 2485SOL    HW218918   0.635   0.973   0.728 -1.5845 -0.9691  0.5683
 2486SOL     OW18919   4.137   1.837   6.147 -0.1785  0.1259 -0.1603
 2486SOL    HW118920   4.220   1.874   6.175  0.3937 -0.1166 -1.5485
 2486SOL    HW218921   4.107   1.897   6.079 -1.0605  0.1852  0.2823
 2487SOL     OW18922   0.858   2.779  12.984 -0.5407  0.4318  0.2756
 2487SOL    HW118923   0.815   2.709  12.935  1.1937 -0.3114 -0.1818
 2487SOL    HW218924   0.858   2.839  12.910  0.5807 -0.9954 -0.8817
 2488SOL     OW18925   3.488   0.106   7.202  0.1811 -0.3372  0.3019
 2488SOL    HW118926   3.454   0.063   7.280 -0.7205 -0.7900 -0.3452
 2488SOL    HW218927   3.521   0.184   7.248  1.4176 -0.2322 -0.7681
 2489SOL     OW18928   1.783   3.005   7.214  0.2149 -0.2092  0.3827
 2489SOL    HW118929   1.815   3.051   7.291  0.6228  0.7002 -0.3256
 2489SOL    HW218930   1.792   2.915   7.243 -0.7408  0.1740  1.8434
 2490SOL     OW18931   2.702   0.775   4.288  0.0612 -0.4668  0.1791
 2490SOL    HW118932   2.619   0.745   4.251  1.0697  0.7517 -3.0608
 2490SOL    HW218933   2.764   0.763   4.216  1.4033  2.5457  0.8416
 2491SOL     OW18934   1.426   3.633   3.102 -0.2443  0.0509  0.2812
 2491SOL    HW118935   1.359   3.607   3.038  1.7234 -1.4995 -1.1646
 2491SOL    HW218936   1.411   3.566   3.168 -0.5430  2.4427  2.6088
 2492SOL     OW18937   1.821   4.321   5.776 -0.5007 -0.2467  0.1877
 2492SOL    HW118938   1.746   4.348   5.724 -0.3051 -3.2416 -1.6114
 2492SOL    HW218939   1.794   4.338   5.867  3.0448  0.6855  1.0755
 2493SOL     OW18940   2.815   4.152   9.112 -0.1703 -0.4660 -0.0593
 2493SOL    HW118941   2.773   4.176   9.030 -0.7259 -2.8822 -0.4854
 2493SOL    HW218942   2.752   4.169   9.181 -1.4933 -1.1266 -1.1029
 2494SOL     OW18943   3.116   4.105  15.430 -0.7435  0.0505 -0.2445
 2494SOL    HW118944   3.073   4.177  15.477  0.8419  2.2096 -2.1144
 2494SOL    HW218945   3.063   4.109  15.351 -0.0018  1.0702 -0.6904
 2495SOL     OW18946   0.594   0.864  16.333 -0.1980  0.6079 -0.4753
 2495SOL    HW118947   0.567   0.930  16.396  1.0625  1.6870 -1.0631
 2495SOL    HW218948   0.644   0.794  16.376 -2.3598 -0.6931 -0.0966
 2496SOL     OW18949   2.390   3.415   5.645  0.8362  0.0291 -0.6860
 2496SOL    HW118950   2.315   3.358   5.626 -1.0364  0.6675  4.8886
 2496SOL    HW218951   2.379   3.430   5.739 -1.7533 -0.3622 -0.9183
 2497SOL     OW18952   3.938   1.402   8.020 -0.2111 -0.3997 -0.1173
 2497SOL    HW118953   3.935   1.356   8.104 -1.9409 -3.3537 -1.7956
 2497SOL    HW218954   3.991   1.335   7.975  0.7751  1.7686 -2.1793
 2498SOL     OW18955   1.059   3.198   3.741 -0.0976  0.3615 -0.2535
 2498SOL    HW118956   1.038   3.159   3.657 -2.5731  3.1151 -0.9413
 2498SOL    HW218957   1.090   3.129   3.800 -0.9878  1.1605  1.1680
 2499SOL     OW18958   3.671   4.691  10.514 -0.0312 -0.1056  0.5952
 2499SOL    HW118959   3.621   4.711  10.593 -0.9932 -1.9820  0.4733
 2499SOL    HW218960   3.744   0.035  10.514  2.3109 -2.8170 -1.2012
 2500SOL     OW18961   2.016   2.455   1.359 -0.0109 -0.5384  0.4551
 2500SOL    HW118962   1.924   2.484   1.363 -0.0794 -0.4344 -1.9240
 2500SOL    HW218963   2.058   2.531   1.320 -0.1815 -1.2907 -1.1612
 2501SOL     OW18964   0.339   4.045   3.159 -0.5715 -0.2282  0.0422
 2501SOL    HW118965   0.346   4.111   3.228 -2.6643 -0.1254  0.1535
 2501SOL    HW218966   0.266   4.083   3.110 -0.7892 -2.0885 -1.0555
 2502SOL     OW18967   3.757   2.029   9.535  0.3984 -0.6984  0.5081
 2502SOL    HW118968   3.790   2.103   9.587 -3.0502  1.7739 -0.8021
 2502SOL    HW218969   3.670   2.007   9.570 -0.3075  0.3615 -0.5734
 2503SOL     OW18970   3.701   3.029  11.513 -0.2344  0.2545 -0.1719
 2503SOL    HW118971   3.688   3.116  11.549 -0.1870  0.3563 -0.3958
 2503SOL    HW218972   3.671   2.968  11.580 -0.4388 -0.2094 -0.6779
 2504SOL     OW18973   3.704   3.315  16.443  0.4301 -0.0034  0.8923
 2504SOL    HW118974   3.767   3.385  16.425 -0.6291  0.0702 -2.6890
 2504SOL    HW218975   3.689   3.285  16.353  1.4995  0.6665  0.4911
 2505SOL     OW18976   2.592   0.608   4.916 -0.2052  0.0231  0.1161
 2505SOL    HW118977   2.588   0.602   4.821  0.2313  1.0923  0.0328
 2505SOL    HW218978   2.560   0.698   4.926 -1.8698 -0.9393  3.6719
 2506SOL     OW18979   4.148   1.875   2.324 -0.2284 -0.0222  0.5280
 2506SOL    HW118980   4.239   1.858   2.298 -0.4598  0.7179 -0.7812
 2506SOL    HW218981   4.104   1.893   2.241 -1.8686  0.2841  1.4747
 2507SOL     OW18982   2.425   1.884   1.936 -0.0476  0.1174  0.2072
 2507SOL    HW118983   2.341   1.911   1.973 -0.2520 -1.0166  0.5933
 2507SOL    HW218984   2.414   1.789   1.928  0.4223 -0.1032  2.1881
 2508SOL     OW18985   3.814   3.073   0.392  0.5377 -0.4809  0.1824
 2508SOL    HW118986   3.739   3.032   0.436 -0.1898  0.0877 -0.5224
 2508SOL    HW218987   3.785   3.163   0.374 -0.0482 -0.6832  0.1214
 2509SOL     OW18988   1.297   1.321   5.536  0.2624 -0.0260 -0.2404
 2509SOL    HW118989   1.274   1.254   5.472 -0.8094 -0.1535  0.2884
 2509SOL    HW218990   1.229   1.304   5.600 -0.5573 -2.1125 -1.6586
 2510SOL     OW18991   1.919   3.221   8.260  0.1601 -0.4690  0.2393
 2510SOL    HW118992   1.839   3.210   8.209  0.9440 -2.8118 -0.4725
 2510SOL    HW218993   1.971   3.145   8.235  0.4576 -0.6376  1.3456
 2511SOL     OW18994   3.278   0.372   8.142  0.4245  0.0891 -0.5501
 2511SOL    HW118995   3.302   0.307   8.209  0.5411  1.2111  0.5002
 2511SOL    HW218996   3.271   0.312   8.068 -1.0735  1.4894 -1.5205
 2512SOL     OW18997   0.614   3.444  12.267  0.3485  0.2441  0.9446
 2512SOL    HW118998   0.577   3.532  12.263  2.8878  1.2497 -0.2893
 2512SOL    HW218999   0.697   3.454  12.313  1.1847  0.0547 -0.5420
 2513SOL     OW19000   4.036   3.964   8.121  0.5215 -0.8591  0.1483
 2513SOL    HW119001   4.130   3.948   8.120  0.1639 -2.9448  0.0713
 2513SOL    HW219002   4.046   4.054   8.091  1.9031 -0.7092  1.0905
 2514SOL     OW19003   0.566   2.304  12.733 -0.2187 -0.4955 -0.4821
 2514SOL    HW119004   0.552   2.230  12.793  0.3730  0.8188  1.2834
 2514SOL    HW219005   0.520   2.376  12.776  0.7409 -1.1588  1.6642
 2515SOL     OW19006   3.638   4.321  15.141 -0.2161  0.0953  0.4602
 2515SOL    HW119007   3.624   4.335  15.048  1.6210 -1.8072 -0.1307
 2515SOL    HW219008   3.635   4.414  15.164  2.3948 -0.0813  1.5481
 2516SOL     OW19009   3.862   4.072   1.004 -0.6489  0.0434  0.2017
 2516SOL    HW119010   3.879   4.030   0.920  0.2403 -0.3801  0.5973
 2516SOL    HW219011   3.785   4.025   1.038 -1.3987  1.6486  0.7589
 2517SOL     OW19012   3.279   0.482   4.972 -0.5039  0.5604 -0.1668
 2517SOL    HW119013   3.207   0.418   4.973  0.4619 -0.5779 -2.5448
 2517SOL    HW219014   3.241   0.551   4.916  0.6537  2.6976  1.6854
 2518SOL     OW19015   0.010   1.759   4.558  0.2516  0.7245  0.4539
 2518SOL    HW119016   0.009   1.741   4.464 -1.2979 -2.0384  0.9992
 2518SOL    HW219017   4.700   1.670   4.581  0.5073  0.7892  1.0249
 2519SOL     OW19018   0.878   1.423   4.248 -0.3478  0.0170 -0.7477
 2519SOL    HW119019   0.954   1.367   4.231  0.5114  0.1193  2.7260
 2519SOL    HW219020   0.868   1.457   4.159  0.3636  1.0055 -0.4521
 2520SOL     OW19021   2.633   1.010   0.795 -0.9137  0.3124  0.4208
 2520SOL    HW119022   2.663   0.921   0.776  1.2522  1.3182 -0.7593
 2520SOL    HW219023   2.540   1.001   0.776 -0.3166 -1.6305 -1.5766
 2521SOL     OW19024   0.170   3.434   0.150 -0.3745 -0.5354 -0.5626
 2521SOL    HW119025   0.229   3.406   0.080  1.9499  1.9148  0.4362
 2521SOL    HW219026   0.184   3.357   0.206 -0.6592 -1.3225 -1.5667
 2522SOL     OW19027   2.940   2.402   2.408  0.0953 -0.0898 -1.0693
 2522SOL    HW119028   3.001   2.380   2.337  0.0644  0.3305 -1.2231
 2522SOL    HW219029   2.963   2.335   2.472 -0.1322  1.5699  0.7330
 2523SOL     OW19030   3.685   0.448  15.817  0.2867  0.0206  0.3532
 2523SOL    HW119031   3.705   0.465  15.724 -0.9564  0.9493  0.2655
 2523SOL    HW219032   3.635   0.367  15.820  0.5182 -0.1300  0.2141
 2524SOL     OW19033   3.691   2.392  15.336  0.4693  0.3662 -0.6063
 2524SOL    HW119034   3.774   2.360  15.299  1.0991 -1.0071  2.0011
 2524SOL    HW219035   3.697   2.483  15.309  3.2873  1.4181  3.7104
 2525SOL     OW19036   4.023   2.083   3.147 -0.3014  0.2664 -0.4615
 2525SOL    HW119037   4.070   2.047   3.222 -0.6241 -1.7884 -1.2262
 2525SOL    HW219038   4.015   2.175   3.172 -0.1151  0.2804 -0.4510
 2526SOL     OW19039   1.901   3.035   4.060 -0.4357  0.2348 -0.0771
 2526SOL    HW119040   1.958   3.109   4.080 -0.5825  0.3259  0.0010
 2526SOL    HW219041   1.971   2.973   4.041 -0.4681  0.8993 -2.3640
 2527SOL     OW19042   2.586   1.750   7.866 -0.1380  0.1614 -0.1694
 2527SOL    HW119043   2.670   1.764   7.909 -0.1419 -0.5185  0.0595
 2527SOL    HW219044   2.549   1.679   7.919  0.1317  1.2160  1.4339
 2528SOL     OW19045   2.293   3.078   8.555  0.0478 -0.5019  0.1097
 2528SOL    HW119046   2.344   3.157   8.572 -0.6806 -0.3367  1.4748
 2528SOL    HW219047   2.207   3.120   8.562  0.2620 -0.2971  1.4518
 2529SOL     OW19048   0.773   1.474   7.608 -0.0263  0.5505 -0.1009
 2529SOL    HW119049   0.737   1.560   7.630 -1.8967 -0.1612 -0.3906
 2529SOL    HW219050   0.816   1.457   7.693  0.4637 -1.5941 -0.7678
 2530SOL     OW19051   4.276   3.397   5.117 -0.1838  0.2848 -1.0859
 2530SOL    HW119052   4.267   3.485   5.154  0.1124  0.1769 -0.7604
 2530SOL    HW219053   4.183   3.376   5.119 -0.3074  0.6184 -3.0467
 2531SOL     OW19054   2.817   1.246   5.266  0.2827  0.3568 -0.2821
 2531SOL    HW119055   2.894   1.290   5.302  0.6616  1.8732 -2.9379
 2531SOL    HW219056   2.831   1.268   5.174 -0.2503 -0.4454 -0.5599
 2532SOL     OW19057   0.501   2.627   9.185 -0.2199 -0.1143  0.0747
 2532SOL    HW119058   0.567   2.688   9.154 -0.4996 -0.7633 -1.8056
 2532SOL    HW219059   0.435   2.691   9.214  0.1340 -0.3356  1.4043
 2533SOL     OW19060   0.772   1.541   4.512  0.8121 -0.3071 -0.1299
 2533SOL    HW119061   0.787   1.515   4.421  1.9203  1.7650 -0.5512
 2533SOL    HW219062   0.678   1.558   4.519  0.4121 -2.2674 -0.7202
 2534SOL     OW19063   0.126   1.656   1.721 -0.0689  0.6644  0.1107
 2534SOL    HW119064   0.071   1.664   1.643 -0.6389  3.5580  0.8383
 2534SOL    HW219065   0.167   1.742   1.724  0.8839  0.2281 -0.6254
 2535SOL     OW19066   3.512   1.369   2.743  0.1515 -0.1410 -0.4664
 2535SOL    HW119067   3.608   1.373   2.738  0.1880 -0.0056  0.3974
 2535SOL    HW219068   3.488   1.295   2.687 -3.0280  0.2492  0.3759
 2536SOL     OW19069   2.598   0.423   5.415  0.3942 -0.4452 -0.1019
 2536SOL    HW119070   2.532   0.491   5.404  0.3461 -0.4825 -0.0444
 2536SOL    HW219071   2.670   0.448   5.357  0.8224 -1.4452 -0.0000
 2537SOL     OW19072   4.560   3.384   6.696  0.3322  0.2059  0.1879
 2537SOL    HW119073   4.654   3.404   6.700  0.6305 -0.5816 -3.4994
 2537SOL    HW219074   4.527   3.465   6.733 -3.1946 -0.8971 -0.5381
 2538SOL     OW19075   2.160   2.285  10.568 -0.0184  0.1584 -0.3474
 2538SOL    HW119076   2.222   2.327  10.628  1.0365 -1.1912 -0.5089
 2538SOL    HW219077   2.085   2.342  10.587  1.4358  1.2451  2.0792
 2539SOL     OW19078   2.044   2.148   0.150 -0.8399 -0.5375 -0.2111
 2539SOL    HW119079   2.120   2.118   0.101  0.1652 -0.8809  1.5655
 2539SOL    HW219080   2.002   2.063   0.165 -0.9707 -0.3346  0.5601
 2540SOL     OW19081   3.344   3.065  14.802 -0.2303  0.0293 -0.3311
 2540SOL    HW119082   3.300   2.980  14.799  0.1335 -0.1666 -0.0680
 2540SOL    HW219083   3.387   3.054  14.887 -2.2842  2.7068  1.0341
 2541SOL     OW19084   0.492   2.407   0.613  0.8435 -0.4892  0.2420
 2541SOL    HW119085   0.397   2.400   0.616  0.9953 -0.4240  5.6109
 2541SOL    HW219086   0.520   2.321   0.642  0.5751 -0.3767  0.8415
 2542SOL     OW19087   1.273   2.112   3.259  0.1199 -0.1037 -0.1094
 2542SOL    HW119088   1.321   2.089   3.338 -0.2627  0.6751  0.3532
 2542SOL    HW219089   1.322   2.068   3.190 -1.0087 -2.5784  0.6527
 2543SOL     OW19090   1.355   3.748  13.705  0.3410 -0.2619  0.0248
 2543SOL    HW119091   1.401   3.697  13.772 -1.2490 -1.1712  0.4223
 2543SOL    HW219092   1.427   3.800  13.671  3.1481 -2.0966  3.1672
 2544SOL     OW19093   4.092   2.696  11.888  0.1992  0.2372  0.8889
 2544SOL    HW119094   4.136   2.671  11.806 -1.6133  1.6648 -0.5240
 2544SOL    HW219095   4.152   2.751  11.938  0.5600 -0.4109  1.1721
 2545SOL     OW19096   1.772   3.089  13.535  0.3083 -0.1013  0.2420
 2545SOL    HW119097   1.686   3.054  13.515  0.1739  1.4459 -1.9648
 2545SOL    HW219098   1.831   3.046  13.473  2.2711  1.5698  0.9302
 2546SOL     OW19099   2.189   1.862  12.228  0.3575 -0.3550  0.3136
 2546SOL    HW119100   2.239   1.901  12.300  1.8698 -1.6660 -0.0202
 2546SOL    HW219101   2.246   1.788  12.209  0.8372 -0.7136  3.2472
 2547SOL     OW19102   3.333   2.957   5.590  0.3408 -0.0583 -0.0879
 2547SOL    HW119103   3.412   2.926   5.634  1.2920 -0.2072 -1.8934
 2547SOL    HW219104   3.355   3.044   5.558 -2.1826  0.5866 -0.0863
 2548SOL     OW19105   1.444   4.181   7.592  0.4199  0.1399  0.0631
 2548SOL    HW119106   1.429   4.162   7.685  0.9566  1.1752  0.3614
 2548SOL    HW219107   1.377   4.249   7.589  0.5729  0.4759  3.6994
 2549SOL     OW19108   3.049   1.326   4.192 -0.0364  0.0158  0.6247
 2549SOL    HW119109   3.121   1.358   4.246 -0.1367 -1.2267  1.4731
 2549SOL    HW219110   3.092   1.329   4.106 -0.0651  1.9703  0.6892
 2550SOL     OW19111   0.320   0.930  16.917  0.1102 -0.4654  0.0109
 2550SOL    HW119112   0.228   0.952  16.901  0.7209  1.5928 -0.6906
 2550SOL    HW219113   0.320   0.859  16.853  0.5288 -2.8913  2.6884
 2551SOL     OW19114   0.307   1.807   4.240  0.3086  0.4238  0.4828
 2551SOL    HW119115   0.302   1.884   4.183 -0.8006 -0.8006 -1.0466
 2551SOL    HW219116   0.399   1.791   4.219  0.9366  1.4247  2.4387
 2552SOL     OW19117   1.214   2.794   2.653  0.4406 -0.3846  0.8118
 2552SOL    HW119118   1.174   2.881   2.649  1.5639  0.0758 -0.7061
 2552SOL    HW219119   1.304   2.826   2.667  0.3175 -0.8702  2.5911
 2553SOL     OW19120   4.003   1.064   8.439 -0.3198 -0.1342 -0.1476
 2553SOL    HW119121   3.918   1.073   8.481  1.2602 -0.9829  3.2747
 2553SOL    HW219122   3.972   1.029   8.356  1.4618 -0.7839 -0.5425
 2554SOL     OW19123   0.481   0.155   6.377 -0.7817  0.0652 -0.3316
 2554SOL    HW119124   0.394   0.115   6.379 -0.9149  0.3488 -0.4379
 2554SOL    HW219125   0.490   0.115   6.290 -0.1062 -0.7023  0.0900
 2555SOL     OW19126   3.245   3.070  13.204  0.2418 -0.3048  0.2450
 2555SOL    HW119127   3.197   3.120  13.270  1.5771 -1.0862  1.8190
 2555SOL    HW219128   3.326   3.042  13.248  0.6618  2.2249  1.0867
 2556SOL     OW19129   0.496   4.352   1.543  0.3688 -0.3275 -0.0392
 2556SOL    HW119130   0.531   4.344   1.454 -2.3746 -0.4865 -1.0985
 2556SOL    HW219131   0.497   4.258   1.565 -1.5338 -0.7186 -1.6468
 2557SOL     OW19132   0.969   3.843   5.983  0.5483 -0.0441  0.1138
 2557SOL    HW119133   0.957   3.798   6.067  1.0026 -1.7665 -0.7338
 2557SOL    HW219134   0.895   3.902   5.969  0.9893  0.8622  1.5972
 2558SOL     OW19135   3.532   0.144   6.215  0.0548  0.3991 -0.0479
 2558SOL    HW119136   3.608   0.134   6.273 -0.6953  0.9898  1.0558
 2558SOL    HW219137   3.562   0.227   6.177 -0.5903  0.9744  0.6821
 2559SOL     OW19138   3.581   3.950  17.308  0.2707  0.0503  0.0061
 2559SOL    HW119139   3.532   3.983  17.232 -1.4840  0.8136  1.4870
 2559SOL    HW219140   3.651   3.903  17.263 -0.3810 -2.7023  1.8955
 2560SOL     OW19141   4.689   1.535  15.921 -0.2934 -0.4096 -0.2241
 2560SOL    HW119142   4.655   1.583  15.846 -3.5630 -0.8494  0.9933
 2560SOL    HW219143   4.657   1.588  15.994 -0.2336  0.3722 -0.7601
 2561SOL     OW19144   4.608   3.529   4.577  0.2220 -0.2028  0.2619
 2561SOL    HW119145   4.564   3.592   4.635 -0.5097  0.1498 -0.6796
 2561SOL    HW219146   4.540   3.522   4.511  1.5256 -1.9995 -0.8896
 2562SOL     OW19147   1.126   2.011   7.321  0.2515  0.3090 -0.3088
 2562SOL    HW119148   1.087   2.033   7.405 -1.2849 -3.1200 -0.1378
 2562SOL    HW219149   1.074   2.061   7.259 -0.4504 -1.6636 -1.2834
 2563SOL     OW19150   2.517   4.183  11.070 -0.5536  0.2699  0.2174
 2563SOL    HW119151   2.529   4.205  11.162 -1.3960  0.0863  0.3689
 2563SOL    HW219152   2.533   4.266  11.025  0.8504  1.0998  2.2513
 2564SOL     OW19153   1.422   0.433   6.579 -0.2133 -0.9288  0.3982
 2564SOL    HW119154   1.454   0.435   6.670  3.4168 -1.6688 -0.8396
 2564SOL    HW219155   1.335   0.399   6.598  0.0999 -2.1216 -0.3128
 2565SOL     OW19156   2.732   1.670   8.252 -0.5675 -0.0429  0.4218
 2565SOL    HW119157   2.744   1.751   8.201 -2.2765 -0.0077  0.0970
 2565SOL    HW219158   2.803   1.622   8.210 -0.9034 -1.0280  0.9944
 2566SOL     OW19159   2.579   1.145   7.475  0.5555 -0.0738  0.0172
 2566SOL    HW119160   2.675   1.137   7.479  0.7823  1.2864 -2.4667
 2566SOL    HW219161   2.562   1.153   7.381 -2.9859  1.1997  0.7802
 2567SOL     OW19162   0.997   0.666  10.726  0.3126  0.0779  0.9517
 2567SOL    HW119163   0.925   0.657  10.788 -1.0453 -1.4202 -0.8327
 2567SOL    HW219164   1.057   0.595  10.750  0.9705  0.4191  0.3246
 2568SOL     OW19165   3.653   4.613   7.608  0.2473 -0.4317  0.6596
 2568SOL    HW119166   3.636   4.534   7.659  1.6693 -1.9895 -1.2894
 2568SOL    HW219167   3.741   4.594   7.574 -0.2163  0.3698 -1.0123
 2569SOL     OW19168   2.902   0.692  12.825  0.1685 -0.2196  0.3641
 2569SOL    HW119169   2.892   0.600  12.800  1.0928 -0.4505  0.8399
 2569SOL    HW219170   2.860   0.690  12.911 -2.0929  0.1299 -0.7448
 2570SOL     OW19171   0.321   0.986   5.152  0.4214  0.0986  0.0273
 2570SOL    HW119172   0.337   0.918   5.086 -0.9597 -0.6441  0.4579
 2570SOL    HW219173   0.371   1.061   5.118 -0.6687  0.9100  0.2217
 2571SOL     OW19174   3.477   2.963  15.803  0.4677 -0.3479  0.0904
 2571SOL    HW119175   3.438   3.026  15.742  0.1069 -2.3429 -1.7689
 2571SOL    HW219176   3.442   2.998  15.885 -3.9813 -3.6826 -0.3308
 2572SOL     OW19177   4.030   2.438   1.770 -1.4503  0.1168  0.5141
 2572SOL    HW119178   3.997   2.527   1.785  2.6680  1.6600  0.3884
 2572SOL    HW219179   3.991   2.426   1.683 -0.4848 -1.2718  0.2885
 2573SOL     OW19180   1.408   0.491   7.850 -0.4605  0.5124  0.2368
 2573SOL    HW119181   1.403   0.415   7.791 -1.1153  1.8191 -1.3857
 2573SOL    HW219182   1.502   0.506   7.854  0.1772 -2.9488 -1.4237
 2574SOL     OW19183   0.190   1.317   2.673 -0.0824 -0.2861 -0.1167
 2574SOL    HW119184   0.251   1.365   2.729 -1.1882  1.5556 -0.4887
 2574SOL    HW219185   0.117   1.291   2.729 -1.3508  0.0742 -1.5924
 2575SOL     OW19186   2.906   1.755   3.052  0.1060 -0.9770 -0.4008
 2575SOL    HW119187   2.890   1.813   2.978  0.0642  0.1082  0.4500
 2575SOL    HW219188   2.987   1.784   3.094  1.4469 -0.5728 -3.3210
 2576SOL     OW19189   3.615   1.376   4.740  0.0299 -0.1191 -0.4859
 2576SOL    HW119190   3.597   1.432   4.664 -2.5135 -1.8479 -1.1419
 2576SOL    HW219191   3.707   1.356   4.722 -0.1335 -0.6212 -0.7382
 2577SOL     OW19192   2.430   3.366  17.167  0.0258  0.1665  0.0321
 2577SOL    HW119193   2.426   3.322  17.082  0.1720  1.2879 -0.5594
 2577SOL    HW219194   2.432   3.289  17.224 -0.2282 -0.0078 -0.1972
 2578SOL     OW19195   0.513   1.861   7.288  0.0631  0.1808 -0.3543
 2578SOL    HW119196   0.430   1.910   7.284 -1.3491 -2.1527  0.2058
 2578SOL    HW219197   0.479   1.778   7.323 -2.4158  1.1330 -0.4728
 2579SOL     OW19198   4.131   1.185  16.728 -0.0042 -0.1140  0.4387
 2579SOL    HW119199   4.130   1.199  16.823 -0.5856 -1.2434  0.5989
 2579SOL    HW219200   4.223   1.157  16.726 -0.1579 -0.5450 -0.4141
 2580SOL     OW19201   0.657   3.601   4.791  0.1885 -0.2696 -0.0520
 2580SOL    HW119202   0.690   3.621   4.879 -0.2861  0.0320  0.0551
 2580SOL    HW219203   0.608   3.682   4.775 -0.4778 -0.9530 -1.4743
 2581SOL     OW19204   2.145   1.541  11.908 -0.0869 -0.0441  0.1743
 2581SOL    HW119205   2.168   1.479  11.977  0.9326 -1.6149 -1.5736
 2581SOL    HW219206   2.071   1.491  11.875 -0.3975  0.6582 -0.1930
 2582SOL     OW19207   0.210   3.902   2.580 -0.1539  0.1088 -0.3219
 2582SOL    HW119208   0.190   3.864   2.494  1.5149  2.6011 -1.7961
 2582SOL    HW219209   0.262   3.976   2.550  1.7907 -0.9952  0.3763
 2583SOL     OW19210   2.325   0.151   2.984 -0.3199  0.5478 -0.1317
 2583SOL    HW119211   2.304   0.144   3.077  1.5592 -0.9034  0.1843
 2583SOL    HW219212   2.237   0.155   2.946 -0.6688 -0.4203  0.5929
 2584SOL     OW19213   0.919   2.776  15.954 -0.1993  0.0164  0.4261
 2584SOL    HW119214   0.992   2.719  15.930 -0.0463  0.6918 -0.7229
 2584SOL    HW219215   0.854   2.707  15.970  0.0211 -0.5229 -0.9807
 2585SOL     OW19216   1.139   2.569   5.862 -0.4096 -0.1149  0.0495
 2585SOL    HW119217   1.189   2.648   5.840 -1.0352  0.7061  1.5582
 2585SOL    HW219218   1.132   2.532   5.774  0.2047 -0.8956  0.3218
 2586SOL     OW19219   2.721   3.242  17.329  0.2817 -0.3473 -0.3069
 2586SOL    HW119220   2.716   3.225  17.235 -1.9068 -1.8057  0.0986
 2586SOL    HW219221   2.659   3.175  17.356 -1.8947  0.7013 -2.8404
 2587SOL     OW19222   4.201   3.063   3.986  0.2053 -0.3590  0.1869
 2587SOL    HW119223   4.180   3.151   3.955  1.1007  0.5014  2.0411
 2587SOL    HW219224   4.187   3.074   4.080  1.6336  0.4287  0.3083
 2588SOL     OW19225   0.523   1.965   7.686 -0.5969 -0.1214  0.4369
 2588SOL    HW119226   0.547   1.998   7.772 -0.3769 -0.0394  0.3439
 2588SOL    HW219227   0.604   1.971   7.636 -0.7783 -2.0112 -0.0922
 2589SOL     OW19228   2.207   3.265   7.094  0.0837  0.2578 -0.2597
 2589SOL    HW119229   2.197   3.240   7.002  1.0382  0.5183 -0.4401
 2589SOL    HW219230   2.167   3.194   7.143 -3.2586  1.0171 -1.8919
 2590SOL     OW19231   3.503   4.571   8.759  0.3811 -0.1121  0.0360
 2590SOL    HW119232   3.598   4.578   8.764  0.4229  0.0383 -0.8522
 2590SOL    HW219233   3.486   4.540   8.848 -2.6384 -1.5420 -1.0183
 2591SOL     OW19234   2.665   3.600   2.353  0.0322  0.1824 -0.4836
 2591SOL    HW119235   2.643   3.659   2.280 -1.3633  0.3164  0.0503
 2591SOL    HW219236   2.755   3.631   2.367  0.7977 -2.4154  0.4134
 2592SOL     OW19237   3.969   3.891   9.674  0.5729 -0.4746 -0.3963
 2592SOL    HW119238   4.060   3.871   9.695  0.4534 -0.1162  0.4839
 2592SOL    HW219239   3.950   3.844   9.593  0.6410 -1.2707  0.0540
 2593SOL     OW19240   1.518   0.137   8.278  0.2148 -0.1474  0.3475
 2593SOL    HW119241   1.563   0.172   8.354  0.6181  0.1908 -0.0455
 2593SOL    HW219242   1.432   0.128   8.320 -0.6139  0.6875 -1.1459
 2594SOL     OW19243   1.988   0.414   9.984 -0.0933  0.1943  0.3313
 2594SOL    HW119244   1.898   0.395   9.957  0.1720 -2.6141  1.3863
 2594SOL    HW219245   2.023   0.413   9.895 -2.4126 -0.7701 -0.5967
 2595SOL     OW19246   1.760   1.176   5.759 -0.4500 -0.0704  0.8190
 2595SOL    HW119247   1.794   1.197   5.672 -0.7770 -1.6962  0.3136
 2595SOL    HW219248   1.757   1.081   5.752  0.1865 -0.0175 -0.1933
 2596SOL     OW19249   1.188   3.972   4.706  0.7206  0.2377  0.3440
 2596SOL    HW119250   1.241   3.923   4.768 -0.0289  0.4105  1.1158
 2596SOL    HW219251   1.240   4.052   4.692  1.0081 -0.1114 -0.5707
 2597SOL     OW19252   3.293   1.940   4.469  0.0374 -0.0678 -0.0688
 2597SOL    HW119253   3.339   1.999   4.530 -0.0356  0.1162 -0.1921
 2597SOL    HW219254   3.208   1.939   4.514  0.2607 -1.8506  0.3030
 2598SOL     OW19255   1.362   3.050   3.399 -0.8377  0.0228 -0.1890
 2598SOL    HW119256   1.343   3.074   3.308 -0.2865  2.3313  0.3087
 2598SOL    HW219257   1.388   2.960   3.378  3.2260  0.9344  0.8609
 2599SOL     OW19258   4.582   2.695   7.745 -0.3044 -0.0699  0.5491
 2599SOL    HW119259   4.618   2.610   7.719  0.2033  0.1031  0.6912
 2599SOL    HW219260   4.624   2.708   7.829  0.5949  2.2340 -0.2531
 2600SOL     OW19261   2.360   4.180   5.729 -0.1472  0.5076  0.0757
 2600SOL    HW119262   2.270   4.197   5.756  0.5318 -0.5170  2.9739
 2600SOL    HW219263   2.389   4.271   5.722 -2.0326  1.1285  0.4430
 2601SOL     OW19264   4.466   4.188   8.185  0.1779 -0.1075 -0.1396
 2601SOL    HW119265   4.523   4.260   8.157 -1.3330  1.0343 -0.2569
 2601SOL    HW219266   4.515   4.161   8.263  0.3738  0.4906 -0.0516
 2602SOL     OW19267   2.239   0.420   8.090 -0.3908 -0.1636  0.1369
 2602SOL    HW119268   2.284   0.448   8.169  0.5948 -2.3818  0.3308
 2602SOL    HW219269   2.308   0.366   8.052  0.2099  0.3971  0.4405
 2603SOL     OW19270   2.142   3.248   6.093 -0.6290 -0.0693  0.5162
 2603SOL    HW119271   2.164   3.311   6.162  1.2473 -0.3688  0.1870
 2603SOL    HW219272   2.216   3.259   6.034 -0.5997 -1.3822  0.3079
 2604SOL     OW19273   3.456   3.318   1.091 -0.5236  0.4964 -0.1513
 2604SOL    HW119274   3.392   3.387   1.108 -1.1446 -0.3008  0.7482
 2604SOL    HW219275   3.400   3.241   1.101 -1.1208  0.7546 -1.6308
 2605SOL     OW19276   1.797   0.051   9.920 -0.1081 -0.3074 -0.0590
 2605SOL    HW119277   1.890   0.044   9.944 -0.4910  0.9904  1.8187
 2605SOL    HW219278   1.809   0.006   9.836  0.9891  0.2949 -0.2196
 2606SOL     OW19279   1.515   3.803  17.600  0.6342  0.1083 -0.2948
 2606SOL    HW119280   1.607   3.800  17.623  0.2034 -4.5770  0.7472
 2606SOL    HW219281   1.480   3.808   0.013 -1.9281 -0.4711 -1.2443
 2607SOL     OW19282   1.230   4.291  17.632  0.0796  0.2551 -0.2092
 2607SOL    HW119283   1.307   4.248  17.669  0.3210  0.4801 -0.4492
 2607SOL    HW219284   1.265   4.319  17.547 -0.3725  3.6122  0.6896
 2608SOL     OW19285   3.947   1.910  15.965 -0.0557  0.2928  0.4505
 2608SOL    HW119286   3.918   1.823  15.937  1.6883 -0.2202  0.1834
 2608SOL    HW219287   3.893   1.955  15.901  0.8536 -1.2280 -1.3959
 2609SOL     OW19288   0.299   4.500   5.417 -0.2269  0.1836  0.0023
 2609SOL    HW119289   0.350   4.566   5.465  0.1366 -0.5000  0.5572
 2609SOL    HW219290   0.304   4.428   5.480  0.0846 -0.1710 -0.4258
 2610SOL     OW19291   2.061   3.952   6.069  0.3245  0.5884  0.2600
 2610SOL    HW119292   2.039   3.938   5.977  2.5084  2.5371 -0.5933
 2610SOL    HW219293   1.982   3.990   6.107 -0.1359 -0.1300  0.0016
 2611SOL     OW19294   1.429   4.487  15.181  0.8214  0.3349 -0.3401
 2611SOL    HW119295   1.431   4.405  15.131  2.8843  0.1270  0.0654
 2611SOL    HW219296   1.342   4.521  15.161 -0.5714 -2.5059  0.7902
 2612SOL     OW19297   0.789   0.813   1.287 -0.6298 -0.0203  0.0218
 2612SOL    HW119298   0.760   0.872   1.356  1.9713 -0.1073  1.2091
 2612SOL    HW219299   0.882   0.811   1.310 -0.7628 -1.5248  0.3778
 2613SOL     OW19300   3.694   3.178  15.877 -0.2749  0.1594 -1.0463
 2613SOL    HW119301   3.606   3.168  15.841 -0.8702 -0.4113  0.5440
 2613SOL    HW219302   3.740   3.100  15.848 -1.7131  0.2128 -3.4188
 2614SOL     OW19303   2.596   1.136   6.552 -0.6614 -0.4803  0.1524
 2614SOL    HW119304   2.576   1.184   6.472  0.8393  1.7432  1.1083
 2614SOL    HW219305   2.686   1.107   6.536 -0.1422  1.0120  0.4152
 2615SOL     OW19306   4.033   2.101  16.418  0.0053 -0.4270 -0.3116
 2615SOL    HW119307   4.026   2.006  16.404 -2.6767 -0.4950  1.5213
 2615SOL    HW219308   3.956   2.113  16.474  0.6530  0.0455  0.4714
 2616SOL     OW19309   4.153   3.698   0.395 -0.2443  0.5702  0.5723
 2616SOL    HW119310   4.066   3.715   0.432 -0.8595 -1.4255  0.0089
 2616SOL    HW219311   4.204   3.779   0.409  1.1019 -0.1705 -0.0297
 2617SOL     OW19312   3.362   0.882   5.698 -0.6089  0.4397 -0.0914
 2617SOL    HW119313   3.322   0.930   5.625 -0.8886 -1.1315 -0.9750
 2617SOL    HW219314   3.319   0.796   5.698 -2.6778  1.4706 -1.8379
 2618SOL     OW19315   0.048   2.955  13.220  0.3098  0.2081  0.5075
 2618SOL    HW119316   0.102   3.025  13.182 -0.5337  0.8799  0.5379
 2618SOL    HW219317   4.710   2.936  13.145  0.9927  0.2463 -0.0230
 2619SOL     OW19318   4.134   2.714  15.654  0.1847  0.0306  0.4013
 2619SOL    HW119319   4.040   2.703  15.642  0.5486 -0.6246 -1.7600
 2619SOL    HW219320   4.135   2.764  15.736 -3.4185 -0.6454  0.8592
 2620SOL     OW19321   0.481   3.817   5.509 -0.3543 -0.6584 -0.5538
 2620SOL    HW119322   0.423   3.828   5.584 -1.9151 -0.9880 -1.7056
 2620SOL    HW219323   0.472   3.906   5.475  0.9958  0.0395  0.9112
 2621SOL     OW19324   0.586   3.606  16.367  0.5100  0.0232  0.0961
 2621SOL    HW119325   0.543   3.608  16.452  0.4069 -0.8916  0.0693
 2621SOL    HW219326   0.518   3.565  16.315 -0.1162 -0.1519  1.0511
 2622SOL     OW19327   0.715   4.051   7.849 -0.2762  0.2495 -0.0228
 2622SOL    HW119328   0.796   4.006   7.829  1.4604  2.9025  1.0810
 2622SOL    HW219329   0.700   4.090   7.763 -0.9029 -2.3080 -1.0793
 2623SOL     OW19330   1.816   1.256   7.779  0.1400  0.2993 -0.7759
 2623SOL    HW119331   1.910   1.246   7.766  0.0970 -0.1151 -0.7617
 2623SOL    HW219332   1.805   1.286   7.869  1.2942  0.3507 -0.6492
 2624SOL     OW19333   0.860   4.546   8.389  0.2856 -0.5352  0.0472
 2624SOL    HW119334   0.819   4.471   8.431  0.5796  0.7402  2.6611
 2624SOL    HW219335   0.950   4.531   8.418 -0.2284 -1.6283  1.0723
 2625SOL     OW19336   2.518   4.164   2.843  0.1970 -0.2371  0.1760
 2625SOL    HW119337   2.550   4.226   2.908 -0.0877  0.2852 -0.1839
 2625SOL    HW219338   2.447   4.118   2.889 -0.5081  0.1591 -0.5111
 2626SOL     OW19339   2.261   2.247   8.303  0.1041 -0.1533  0.3973
 2626SOL    HW119340   2.312   2.183   8.353  2.0652  0.3142 -0.9610
 2626SOL    HW219341   2.247   2.203   8.219  0.2543 -2.6754  1.6838
 2627SOL     OW19342   1.177   2.195  15.070 -0.2411  0.4822 -0.7320
 2627SOL    HW119343   1.140   2.147  14.997 -0.1570  0.2303 -0.6073
 2627SOL    HW219344   1.206   2.125  15.128  1.1156  3.1408  1.8167
 2628SOL     OW19345   2.963   3.604   3.899 -0.0730 -0.3310  0.0046
 2628SOL    HW119346   2.983   3.680   3.844  0.7747  1.2966  2.5575
 2628SOL    HW219347   3.036   3.545   3.880  0.0118  0.2812 -1.6148
 2629SOL     OW19348   2.552   2.046   4.942 -0.2572  0.1882 -0.3237
 2629SOL    HW119349   2.554   1.957   4.977 -0.7224  0.2960 -0.0193
 2629SOL    HW219350   2.608   2.050   4.865  0.0093  2.8408  0.0186
 2630SOL     OW19351   1.533   0.048   4.859  0.6280  0.3041  0.2776
 2630SOL    HW119352   1.510   0.131   4.900  0.5004  0.1608  0.5007
 2630SOL    HW219353   1.454   4.713   4.848  2.0795 -1.6578 -0.6908
 2631SOL     OW19354   0.305   4.067  16.089 -0.0927  0.1923  0.7018
 2631SOL    HW119355   0.352   4.109  16.162  0.6895  1.1115 -0.3290
 2631SOL    HW219356   0.299   3.979  16.125  0.6815 -1.0866 -2.3205
 2632SOL     OW19357   4.224   1.514   8.928 -0.6141  0.2596 -0.2710
 2632SOL    HW119358   4.171   1.498   8.851  2.1150 -1.4950 -1.7972
 2632SOL    HW219359   4.187   1.595   8.962  0.8418  1.0543 -0.5735
 2633SOL     OW19360   0.691   2.348   0.879 -0.1518 -0.0629  0.5815
 2633SOL    HW119361   0.655   2.279   0.823 -1.4314  0.5609  0.6502
 2633SOL    HW219362   0.622   2.412   0.870 -0.0100  0.2929  1.9804
 2634SOL     OW19363   0.656   0.110   7.343 -0.2056 -0.2985  0.3016
 2634SOL    HW119364   0.699   0.104   7.257 -0.7392 -0.0400  0.0138
 2634SOL    HW219365   0.715   0.167   7.391  1.8375 -0.9660 -1.4183
 2635SOL     OW19366   3.518   3.362   4.736 -0.2767  0.0215  0.0884
 2635SOL    HW119367   3.606   3.393   4.757 -0.4159  0.0589  0.6163
 2635SOL    HW219368   3.484   3.428   4.675  0.5672  0.0100 -0.4053
 2636SOL     OW19369   2.255   2.073   0.683 -0.3340 -0.0107  0.4520
 2636SOL    HW119370   2.251   2.127   0.762  0.2386  0.7374 -0.0368
 2636SOL    HW219371   2.301   1.998   0.722  1.7629  0.7263 -0.6126
 2637SOL     OW19372   0.132   1.926   2.919 -0.2692  0.4293 -0.3160
 2637SOL    HW119373   0.148   2.020   2.930 -1.6566  1.0627 -3.6723
 2637SOL    HW219374   0.084   1.904   2.999  1.6217 -2.1810  0.0902
 2638SOL     OW19375   2.707   2.035   6.672 -0.4305  0.0373 -0.6898
 2638SOL    HW119376   2.719   2.038   6.577  2.6902 -1.6447 -0.3466
 2638SOL    HW219377   2.612   2.033   6.683 -0.2984  0.4860  0.5617
 2639SOL     OW19378   3.079   1.452   3.314  0.4350  0.3808  0.1507
 2639SOL    HW119379   3.023   1.399   3.257 -1.3206  2.9161 -0.5023
 2639SOL    HW219380   3.024   1.529   3.328 -0.9228 -0.4345 -0.6913
 2640SOL     OW19381   3.718   4.583  15.795  0.5585  0.0710  0.2767
 2640SOL    HW119382   3.791   4.530  15.828  2.5442  2.1996 -0.7050
 2640SOL    HW219383   3.763   4.664  15.771  3.3941 -1.8660 -0.9147
 2641SOL     OW19384   0.290   3.842  10.304 -0.3749  0.2644  0.3243
 2641SOL    HW119385   0.340   3.767  10.334 -2.1995  0.7203  4.5909
 2641SOL    HW219386   0.345   3.919  10.321 -0.2624 -0.2149  2.1944
 2642SOL     OW19387   3.322   2.752   7.534  0.3609  0.0807  0.2111
 2642SOL    HW119388   3.351   2.842   7.550 -0.6223  0.0972  1.9212
 2642SOL    HW219389   3.348   2.737   7.444  0.2916  1.5614 -0.0563
 2643SOL     OW19390   3.813   4.620  14.970 -0.1633  0.0235  0.2578
 2643SOL    HW119391   3.842   4.531  14.953 -2.4837 -0.8477  0.7527
 2643SOL    HW219392   3.730   4.601  15.015 -1.0230  0.3373 -1.1739
 2644SOL     OW19393   4.688   1.520   0.097 -0.0311  0.5512 -0.2886
 2644SOL    HW119394   0.005   1.441   0.058  0.8960  0.9711 -0.2904
 2644SOL    HW219395   4.631   1.481   0.164  1.9895 -0.9721  0.5234
 2645SOL     OW19396   3.975   1.337  13.075  0.4211  0.6790 -0.4677
 2645SOL    HW119397   3.938   1.379  12.998 -1.1407 -2.6898 -1.5487
 2645SOL    HW219398   3.970   1.410  13.137  2.2430 -0.5778  1.1632
 2646SOL     OW19399   1.781   2.725   4.753 -0.2980  0.0814 -0.1536
 2646SOL    HW119400   1.710   2.695   4.809 -0.0812 -1.3580 -0.6675
 2646SOL    HW219401   1.842   2.653   4.766 -1.3327 -0.4030  1.9750
 2647SOL     OW19402   2.349   2.000   5.233  0.7130 -0.3095 -0.4466
 2647SOL    HW119403   2.341   1.928   5.171 -0.6457  0.8766 -1.6591
 2647SOL    HW219404   2.418   1.970   5.292  1.3499  1.2936 -0.3681
 2648SOL     OW19405   3.727   0.483   1.324 -0.1520 -0.1265  0.5962
 2648SOL    HW119406   3.797   0.546   1.306 -0.2883 -0.6145 -1.5386
 2648SOL    HW219407   3.701   0.510   1.413  0.0412 -0.3770  0.7281
 2649SOL     OW19408   2.207   2.451   7.493  0.3878  0.3053  0.2653
 2649SOL    HW119409   2.204   2.483   7.403 -1.0678 -1.7869 -0.4386
 2649SOL    HW219410   2.228   2.360   7.472 -0.3014  0.0484  0.6619
 2650SOL     OW19411   3.332   0.407  16.828  0.0869 -0.5120  0.8636
 2650SOL    HW119412   3.349   0.359  16.909 -0.7322 -2.3215 -0.0266
 2650SOL    HW219413   3.414   0.397  16.781 -1.6332  1.8545 -2.6359
 2651SOL     OW19414   2.066   2.424   5.683  0.3513  0.0882  0.2108
 2651SOL    HW119415   2.093   2.504   5.728  3.7265 -2.2322  2.3379
 2651SOL    HW219416   1.981   2.401   5.720  0.0220  3.4059  1.4892
 2652SOL     OW19417   2.453   3.482   2.128  0.9012 -0.4629  0.1924
 2652SOL    HW119418   2.448   3.428   2.207  1.7790 -0.5835  0.1724
 2652SOL    HW219419   2.367   3.486   2.088  3.1077  1.6908 -4.3465
 2653SOL     OW19420   1.499   3.127   8.540 -0.1864 -0.1745  0.2892
 2653SOL    HW119421   1.502   3.065   8.467 -0.7005 -1.7329  1.6062
 2653SOL    HW219422   1.520   3.211   8.499 -1.0240  0.2495  0.7420
 2654SOL     OW19423   1.870   3.059   2.490  0.1301 -0.2079  0.8936
 2654SOL    HW119424   1.929   3.024   2.556  0.1682 -1.4090  0.2039
 2654SOL    HW219425   1.864   2.986   2.429 -0.5929  0.1314  0.5511
 2655SOL     OW19426   3.857   0.910   8.225  0.0499  0.6375 -0.1509
 2655SOL    HW119427   3.837   0.825   8.185  2.5165  0.4266 -0.9824
 2655SOL    HW219428   3.780   0.909   8.281  1.5332 -0.7537  1.9087
 2656SOL     OW19429   3.511   1.978  13.991 -0.6526  0.0402  0.1367
 2656SOL    HW119430   3.430   1.991  13.942  0.1232  0.7414 -0.9566
 2656SOL    HW219431   3.480   1.961  14.080  0.3636  1.8519  0.8479
 2657SOL     OW19432   0.808   2.364   4.834 -0.8542 -0.5819 -0.1992
 2657SOL    HW119433   0.761   2.447   4.843 -0.1485 -0.0984 -0.8746
 2657SOL    HW219434   0.852   2.350   4.918 -0.4504  0.3981 -0.2433
 2658SOL     OW19435   3.406   2.553   4.708 -0.1626 -0.2401  0.2927
 2658SOL    HW119436   3.359   2.592   4.782 -2.4187 -2.9253  0.2564
 2658SOL    HW219437   3.342   2.568   4.639  0.9401  1.0870 -0.4403
 2659SOL     OW19438   4.540   2.428   6.693  0.7339  0.1280 -0.0261
 2659SOL    HW119439   4.625   2.471   6.688  1.1085 -0.5408  0.6219
 2659SOL    HW219440   4.472   2.494   6.680 -1.2438 -1.6256  1.3975
 2660SOL     OW19441   1.528   2.168   7.209  0.0585  0.1354 -0.5551
 2660SOL    HW119442   1.498   2.083   7.243 -1.0706  0.7524  0.0121
 2660SOL    HW219443   1.460   2.223   7.248  0.4424 -0.9833  1.6967
 2661SOL     OW19444   4.559   4.429   2.719  0.5023  0.7501 -0.1350
 2661SOL    HW119445   4.608   4.360   2.764  1.0560  1.0192 -0.3232
 2661SOL    HW219446   4.587   4.424   2.627  0.4049 -0.8629 -0.0896
 2662SOL     OW19447   1.171   3.868  11.375  0.2183  0.6166  0.0156
 2662SOL    HW119448   1.183   3.864  11.280 -0.8078 -0.8036 -0.0592
 2662SOL    HW219449   1.235   3.803  11.404 -2.7214 -2.6896 -0.8036
 2663SOL     OW19450   4.280   1.933  15.747  0.1862  0.2566 -0.3030
 2663SOL    HW119451   4.203   1.989  15.761  1.9182  2.7066 -0.6195
 2663SOL    HW219452   4.293   1.934  15.652  1.5778 -2.6468 -0.1533
 2664SOL     OW19453   4.183   3.733   3.393  0.2140 -0.1513 -0.0840
 2664SOL    HW119454   4.248   3.663   3.395 -0.1309 -0.4701 -0.2049
 2664SOL    HW219455   4.216   3.788   3.321 -0.4257 -0.2384 -0.4433
 2665SOL     OW19456   0.580   0.975  16.910  0.7395  0.2935 -0.2884
 2665SOL    HW119457   0.577   0.911  16.839  1.7076  0.5727 -0.5738
 2665SOL    HW219458   0.489   0.968  16.939  0.9379 -1.7595 -0.1547
 2666SOL     OW19459   1.247   0.201   3.805  0.0428 -0.2241  0.2827
 2666SOL    HW119460   1.185   0.145   3.851  1.8310 -0.5938  2.2105
 2666SOL    HW219461   1.247   0.155   3.721  0.3557 -0.7642  0.5787
 2667SOL     OW19462   4.692   1.620  17.520  1.0749 -0.1151 -0.0996
 2667SOL    HW119463   4.694   1.593  17.612  0.4296 -1.6507 -0.5418
 2667SOL    HW219464   4.597   1.631  17.510  1.5819  1.4925 -2.9926
 2668SOL     OW19465   3.893   1.329  16.157 -0.1870 -0.6073  0.6612
 2668SOL    HW119466   3.894   1.342  16.062 -0.7648  0.6515  0.8356
 2668SOL    HW219467   3.815   1.277  16.174  0.6153 -1.7028  1.0203
 2669SOL     OW19468   3.734   1.721   6.208 -0.1517  0.3610  0.2793
 2669SOL    HW119469   3.750   1.715   6.114  2.6425  1.2831  0.6934
 2669SOL    HW219470   3.798   1.661   6.245 -2.1489 -1.9378 -0.0456
 2670SOL     OW19471   3.141   2.262   4.651  0.2783  0.1666  0.2162
 2670SOL    HW119472   3.185   2.185   4.688  1.1055  0.2845 -0.5080
 2670SOL    HW219473   3.115   2.297   4.736 -1.7003 -0.1920 -0.2416
 2671SOL     OW19474   3.831   2.145   1.958 -0.4221 -0.0797 -0.1755
 2671SOL    HW119475   3.907   2.088   1.947  0.3957  0.7845  0.9681
 2671SOL    HW219476   3.789   2.094   2.028 -2.2840  3.2355  1.1257
 2672SOL     OW19477   3.301   4.427   6.274  0.0316 -0.2456  0.0866
 2672SOL    HW119478   3.347   4.493   6.222 -0.2809 -1.0808 -1.2463
 2672SOL    HW219479   3.333   4.448   6.362  2.1924  1.5428 -1.1311
 2673SOL     OW19480   3.091   1.645   4.308 -0.2956 -0.5705 -0.0973
 2673SOL    HW119481   3.120   1.708   4.243 -2.4290  2.1694  1.5761
 2673SOL    HW219482   3.177   1.608   4.326  0.8347  0.7786 -2.7800
 2674SOL     OW19483   4.026   3.907  12.979  0.2602  0.6011 -0.0458
 2674SOL    HW119484   4.118   3.898  12.955 -0.3305 -0.5500 -1.8661
 2674SOL    HW219485   4.007   3.814  12.992 -1.8960  1.0733  0.1917
 2675SOL     OW19486   0.277   2.127   6.642  0.0802  0.9752  0.0563
 2675SOL    HW119487   0.227   2.134   6.561  0.6376  1.2280 -0.2707
 2675SOL    HW219488   0.224   2.152   6.717  0.2265  2.0506 -0.1889
 2676SOL     OW19489   2.940   0.397  12.554  0.4047 -0.0758 -0.4687
 2676SOL    HW119490   3.027   0.363  12.572  0.7984  0.2484 -1.7377
 2676SOL    HW219491   2.913   0.344  12.479 -0.4399 -0.3473  0.0242
 2677SOL     OW19492   2.836   3.735   5.581  0.0022  0.0482 -0.2718
 2677SOL    HW119493   2.744   3.743   5.553  0.2750  1.0804 -0.8655
 2677SOL    HW219494   2.860   3.655   5.535 -0.5605  0.8161 -1.9193
 2678SOL     OW19495   1.464   0.590  17.377  0.3009 -0.3426  0.2381
 2678SOL    HW119496   1.418   0.672  17.361 -1.0234 -1.0261  0.5310
 2678SOL    HW219497   1.391   0.532  17.396 -0.0269  0.1522  0.4761
 2679SOL     OW19498   4.595   0.486   7.693 -0.1558  0.8192 -0.2595
 2679SOL    HW119499   4.523   0.472   7.755  0.6405  0.9016  0.6812
 2679SOL    HW219500   4.634   0.399   7.689 -0.6419  0.5819  0.0505
 2680SOL     OW19501   1.875   0.888   7.495 -0.3117 -0.3671 -0.9871
 2680SOL    HW119502   1.875   0.872   7.401 -2.1743  2.8011 -1.5135
 2680SOL    HW219503   1.782   0.903   7.507 -0.3822  1.2116 -3.6095
 2681SOL     OW19504   0.913   4.350  16.523 -0.3651  0.2964 -0.1899
 2681SOL    HW119505   0.870   4.415  16.467 -1.8922 -0.3125  0.2806
 2681SOL    HW219506   0.887   4.386  16.607 -0.7694  0.3829 -0.3513
 2682SOL     OW19507   0.013   3.171   2.115  0.1880 -0.0170 -0.0582
 2682SOL    HW119508   0.013   3.267   2.112 -0.6816  0.0416  2.0233
 2682SOL    HW219509   0.047   3.144   2.030  0.1077 -0.6906  0.1272
 2683SOL     OW19510   0.502   4.073   6.381 -0.7589  0.8359 -0.1429
 2683SOL    HW119511   0.579   4.130   6.379 -0.7395  0.8312  0.3268
 2683SOL    HW219512   0.440   4.109   6.317 -1.7829 -1.4220 -0.4058
 2684SOL     OW19513   1.620   4.000   8.515 -0.2731 -0.3458 -0.2321
 2684SOL    HW119514   1.549   3.987   8.578 -0.0177  1.6977  0.4670
 2684SOL    HW219515   1.677   3.938   8.561 -1.0818  0.4688  1.8606
 2685SOL     OW19516   1.699   0.157   6.742  0.0873  0.1355 -0.1208
 2685SOL    HW119517   1.669   0.096   6.675 -2.1690  2.2122 -1.0460
 2685SOL    HW219518   1.615   0.195   6.770  0.1377  1.3036 -1.5149
 2686SOL     OW19519   1.941   3.243   2.854 -0.1514 -0.0240 -0.7911
 2686SOL    HW119520   1.987   3.326   2.844  0.2475 -0.1240  0.2395
 2686SOL    HW219521   1.987   3.191   2.789 -0.6628  0.7197 -1.7416
 2687SOL     OW19522   1.726   0.719   5.501  0.4627 -0.0467 -0.2233
 2687SOL    HW119523   1.662   0.790   5.508  0.6612  0.3919 -2.7272
 2687SOL    HW219524   1.770   0.743   5.419 -1.8738  2.8600 -0.6400
 2688SOL     OW19525   1.236   3.540   8.072 -0.0616 -0.2930 -0.5052
 2688SOL    HW119526   1.205   3.596   8.001 -0.6901  2.8945  2.2749
 2688SOL    HW219527   1.309   3.588   8.112 -0.4399 -0.0977 -0.0491
 2689SOL     OW19528   3.255   4.414   4.205 -0.0137 -0.6349 -0.0984
 2689SOL    HW119529   3.166   4.380   4.192 -0.0036 -0.3914 -0.7855
 2689SOL    HW219530   3.282   4.374   4.288 -1.4846 -0.1661  0.6081
 2690SOL     OW19531   0.946   4.539   2.320  0.0097  0.0168 -0.1675
 2690SOL    HW119532   0.888   4.603   2.362 -1.8562 -1.6338 -0.2346
 2690SOL    HW219533   0.958   4.589   2.240  2.0474 -0.5984 -0.2446
 2691SOL     OW19534   0.638   4.142  14.510 -0.0121 -0.5392 -0.4206
 2691SOL    HW119535   0.710   4.081  14.529 -1.8359 -1.9238  2.0044
 2691SOL    HW219536   0.570   4.090  14.553 -1.3668  1.0050 -0.7146
 2692SOL     OW19537   2.788   1.510   2.948  0.2776  0.1439 -0.0783
 2692SOL    HW119538   2.858   1.571   2.969 -0.3384  1.1427 -0.9379
 2692SOL    HW219539   2.826   1.443   2.892  0.5200 -1.0399  1.4825
 2693SOL     OW19540   3.469   2.744   9.020  0.3133 -0.1845 -0.3224
 2693SOL    HW119541   3.511   2.760   8.936  0.9949 -0.2215  0.0118
 2693SOL    HW219542   3.390   2.696   8.994  1.3490 -0.7900 -2.2693
 2694SOL     OW19543   0.966   3.633   0.502 -0.3466 -0.5224  0.3151
 2694SOL    HW119544   0.872   3.653   0.513 -0.4780  0.7726 -3.0718
 2694SOL    HW219545   0.991   3.610   0.591 -0.9054 -3.1578 -0.2063
 2695SOL     OW19546   2.815   1.911  16.403 -0.1943  0.0296  0.3160
 2695SOL    HW119547   2.821   2.000  16.438  1.4926  1.0107 -2.5418
 2695SOL    HW219548   2.722   1.894  16.418 -0.5443 -1.1395 -3.2679
 2696SOL     OW19549   1.295   0.306   9.783  0.0351  0.4480  0.0767
 2696SOL    HW119550   1.212   0.263   9.765 -0.1399  1.0029 -0.4389
 2696SOL    HW219551   1.340   0.303   9.698  0.0090  0.3512  0.0664
 2697SOL     OW19552   2.737   1.233   0.656  0.0757 -0.3481  0.3047
 2697SOL    HW119553   2.666   1.294   0.637 -0.3372 -0.8217  0.3461
 2697SOL    HW219554   2.705   1.151   0.693 -1.3521 -0.3938 -1.0301
 2698SOL     OW19555   2.305   2.195   5.866  0.5386  0.0782  0.5310
 2698SOL    HW119556   2.312   2.189   5.770 -0.7758  1.4386  0.3419
 2698SOL    HW219557   2.394   2.223   5.884  0.6012 -1.0189  1.8608
 2699SOL     OW19558   0.169   0.534   6.996 -0.8866  0.5428  0.0396
 2699SOL    HW119559   0.106   0.572   6.935 -0.0376  2.0999  0.1249
 2699SOL    HW219560   0.117   0.464   7.034  1.3451 -0.3675  1.4121
 2700SOL     OW19561   2.153   2.239  15.536  0.0877  0.4649  0.2405
 2700SOL    HW119562   2.244   2.228  15.512 -0.0699 -2.4815  0.9969
 2700SOL    HW219563   2.153   2.230  15.632 -0.2208  0.7624  0.2685
 2701SOL     OW19564   2.463   3.707   7.330 -0.4098  0.3390  0.1631
 2701SOL    HW119565   2.452   3.666   7.416  1.4151 -0.2239  0.1223
 2701SOL    HW219566   2.484   3.796   7.357  1.9436 -0.5233  1.1887
 2702SOL     OW19567   4.062   0.945   1.656 -0.1118  0.0934 -0.0018
 2702SOL    HW119568   4.022   0.910   1.735  2.3384 -2.0028  0.3330
 2702SOL    HW219569   4.155   0.938   1.677 -0.3627  0.7845  1.3165
 2703SOL     OW19570   3.522   2.519   9.925  0.0713  0.9986  0.6421
 2703SOL    HW119571   3.441   2.512   9.875  1.6868 -0.4325 -1.7730
 2703SOL    HW219572   3.570   2.577   9.866 -0.2525 -0.6094 -1.1953
 2704SOL     OW19573   3.430   1.563   9.601 -0.0981 -0.1400 -0.0788
 2704SOL    HW119574   3.393   1.490   9.651  0.5242 -0.2796  0.1717
 2704SOL    HW219575   3.454   1.625   9.669  2.2559 -1.3721  0.2120
 2705SOL     OW19576   3.913   2.227  15.288  0.7181  0.3216  0.3403
 2705SOL    HW119577   3.906   2.149  15.343 -1.0704 -0.6367 -1.2342
 2705SOL    HW219578   3.963   2.280  15.349  0.8292  1.6897 -0.9358
 2706SOL     OW19579   3.751   0.148   3.071 -0.8150  0.0858 -0.2870
 2706SOL    HW119580   3.681   0.197   3.114  0.4801  1.7372 -0.0693
 2706SOL    HW219581   3.705   0.066   3.055 -1.5197  0.4900 -0.2974
 2707SOL     OW19582   1.590   3.957   7.442  0.1755 -0.7968  0.3219
 2707SOL    HW119583   1.504   4.001   7.447  0.6543  0.2212 -0.4866
 2707SOL    HW219584   1.616   3.939   7.533 -3.5554 -2.7928  0.9950
 2708SOL     OW19585   3.660   3.217   6.816 -0.0278 -0.7443 -0.7587
 2708SOL    HW119586   3.585   3.274   6.800  1.4859  1.1185 -1.2180
 2708SOL    HW219587   3.704   3.230   6.732  0.9590  2.2461  0.2267
 2709SOL     OW19588   1.479   2.542   5.962  0.2162 -0.4774 -0.4006
 2709SOL    HW119589   1.469   2.576   6.052  0.3768 -0.4293 -0.4006
 2709SOL    HW219590   1.536   2.611   5.928 -0.2499 -0.7040 -1.6101
 2710SOL     OW19591   3.412   2.912   4.698  0.3720  0.3186 -0.1053
 2710SOL    HW119592   3.474   2.903   4.770  1.0038 -1.9938 -0.9307
 2710SOL    HW219593   3.433   3.002   4.672 -3.4730  1.6064  1.2243
 2711SOL     OW19594   2.843   4.196  11.686 -0.2713 -0.1442  0.2223
 2711SOL    HW119595   2.909   4.217  11.620 -0.3352 -0.2151  0.1350
 2711SOL    HW219596   2.881   4.230  11.767 -1.0487  0.5162  0.3091
 2712SOL     OW19597   1.677   2.468   7.424 -0.0563 -0.4122  0.0196
 2712SOL    HW119598   1.643   2.480   7.513 -1.2523  3.2358 -0.9486
 2712SOL    HW219599   1.638   2.536   7.369  1.3066  1.6243  1.5643
 2713SOL     OW19600   2.817   2.865   2.107 -0.2198 -0.1727  0.3996
 2713SOL    HW119601   2.899   2.909   2.129 -0.2271 -0.1450  0.3711
 2713SOL    HW219602   2.743   2.906   2.152 -0.6297 -1.4703  0.9188
 2714SOL     OW19603   4.352   1.364   5.771 -0.0914  0.3618  0.0097
 2714SOL    HW119604   4.409   1.441   5.770  1.2492 -0.6034  0.5221
 2714SOL    HW219605   4.371   1.342   5.862  0.3342 -0.3982 -0.2640
 2715SOL     OW19606   2.840   3.275   5.810 -0.6908  0.2349 -0.2817
 2715SOL    HW119607   2.831   3.230   5.894 -1.6794 -1.5285 -1.3320
 2715SOL    HW219608   2.769   3.340   5.810 -0.6127  0.3229 -2.0232
 2716SOL     OW19609   1.857   0.019   0.729 -0.2725  0.1020  0.0587
 2716SOL    HW119610   1.876   4.645   0.710  3.2659  1.3231 -2.3036
 2716SOL    HW219611   1.790   0.042   0.665  0.8237  0.2348 -1.0371
 2717SOL     OW19612   2.559   0.798  14.047 -0.7432  0.1161  0.8377
 2717SOL    HW119613   2.539   0.880  14.092  0.7743  1.7808 -1.4912
 2717SOL    HW219614   2.486   0.741  14.071  0.7346 -2.8865 -1.8405
 2718SOL     OW19615   0.547   4.066   2.817 -0.3357 -0.2860  0.2142
 2718SOL    HW119616   0.512   3.982   2.789 -0.7966  0.1754 -0.5855
 2718SOL    HW219617   0.486   4.076   2.890  0.0023 -0.0703  0.4694
 2719SOL     OW19618   1.574   0.500   4.880 -0.3100 -0.1935 -0.2042
 2719SOL    HW119619   1.507   0.557   4.918 -0.0024  1.5643 -2.3243
 2719SOL    HW219620   1.640   0.521   4.946  0.5530 -1.2359 -0.7409
 2720SOL     OW19621   2.206   0.268  16.054 -0.2925  0.2391 -0.0349
 2720SOL    HW119622   2.219   0.362  16.045 -1.3194  0.3324 -0.5634
 2720SOL    HW219623   2.154   0.244  15.977 -0.3120 -2.4841  0.8196
 2721SOL     OW19624   0.630   3.534   2.281  0.1637 -0.5304  0.1558
 2721SOL    HW119625   0.624   3.627   2.262  0.9675 -0.8217 -1.5267
 2721SOL    HW219626   0.622   3.489   2.197  3.4602  1.4513 -1.1940
 2722SOL     OW19627   4.279   3.575   1.887  0.3417  0.4317 -1.0001
 2722SOL    HW119628   4.239   3.596   1.971  1.3762  1.2139 -0.7037
 2722SOL    HW219629   4.346   3.511   1.913 -1.4840 -1.8775 -2.0364
 2723SOL     OW19630   3.849   0.202   1.326  0.3356  0.2951 -0.3627
 2723SOL    HW119631   3.839   0.295   1.309 -1.4350 -0.3746 -2.9504
 2723SOL    HW219632   3.924   0.201   1.386  0.8775  0.9495 -1.0416
 2724SOL     OW19633   3.941   2.101   7.593 -0.0305  0.3551  0.8414
 2724SOL    HW119634   3.923   2.175   7.535  0.8456 -1.4269 -1.6862
 2724SOL    HW219635   3.926   2.031   7.529  0.9413  0.0263  0.9831
 2725SOL     OW19636   1.843   2.141  11.584 -0.1457 -0.0385  0.1163
 2725SOL    HW119637   1.751   2.144  11.560 -0.6654 -3.0168  1.6679
 2725SOL    HW219638   1.860   2.047  11.582 -3.2280 -0.5492 -1.3774
 2726SOL     OW19639   4.182   2.398  12.297  0.3046  0.4259  0.2447
 2726SOL    HW119640   4.226   2.432  12.219 -0.6119 -0.9264 -0.8597
 2726SOL    HW219641   4.096   2.370  12.267  1.0758 -2.9267  1.2333
 2727SOL     OW19642   0.404   2.718   7.556 -0.3336  0.2189 -0.2495
 2727SOL    HW119643   0.353   2.773   7.615  4.3484  1.0328  3.1246
 2727SOL    HW219644   0.385   2.626   7.577  1.4755 -0.1536 -0.2498
 2728SOL     OW19645   3.005   4.638   6.115  0.0239  0.2474 -0.0130
 2728SOL    HW119646   2.922   4.668   6.152 -0.1802  1.0534 -1.1368
 2728SOL    HW219647   3.022   4.573   6.184  0.8555 -1.4628 -1.8567
 2729SOL     OW19648   2.365   2.219   1.409 -0.3431 -0.4124 -0.0187
 2729SOL    HW119649   2.300   2.194   1.475  1.3003  0.7503  2.0322
 2729SOL    HW219650   2.309   2.249   1.338 -0.8078  1.6145  1.1946
 2730SOL     OW19651   1.140   2.529   2.693 -0.0836 -0.5944  0.0299
 2730SOL    HW119652   1.215   2.477   2.720  1.9973  2.4839  0.1756
 2730SOL    HW219653   1.175   2.614   2.669 -0.2162 -0.8322 -0.9886
 2731SOL     OW19654   3.764   1.543  15.415 -0.2042 -1.1081  0.1170
 2731SOL    HW119655   3.791   1.594  15.339 -0.3219 -0.1539  0.7067
 2731SOL    HW219656   3.842   1.532  15.469  1.0080 -0.3201 -1.4564
 2732SOL     OW19657   2.603   2.522   5.422  0.0050 -0.0544  0.0548
 2732SOL    HW119658   2.512   2.551   5.418 -0.0228  0.3798  3.4293
 2732SOL    HW219659   2.584   2.441   5.470  1.7483 -0.4280  0.1225
 2733SOL     OW19660   2.750   4.399   6.885  0.3146 -0.0829 -0.0325
 2733SOL    HW119661   2.661   4.427   6.903  0.1439  0.7287 -2.1282
 2733SOL    HW219662   2.734   4.336   6.814  0.5059  0.4208 -0.5276
 2734SOL     OW19663   3.333   2.159   2.146  0.1328 -0.3827 -0.3469
 2734SOL    HW119664   3.361   2.101   2.217  2.1275 -0.7554 -1.4358
 2734SOL    HW219665   3.415   2.199   2.115  0.9157 -1.5460  0.2043
 2735SOL     OW19666   3.933   0.936  16.657  0.0779 -0.4022  0.3653
 2735SOL    HW119667   3.934   0.946  16.562  2.2857 -2.8464  0.1357
 2735SOL    HW219668   3.903   0.846  16.672 -1.3211  0.3268  2.1108
 2736SOL     OW19669   0.753   2.668   3.970  0.6925 -0.4193  0.1827
 2736SOL    HW119670   0.702   2.646   4.049 -0.6800 -1.6624 -1.0459
 2736SOL    HW219671   0.681   2.674   3.907  1.3767 -2.0526 -0.7609
 2737SOL     OW19672   4.497   0.904   8.745 -0.3072 -0.3540  0.2937
 2737SOL    HW119673   4.449   0.866   8.671 -2.1375 -1.6274  2.1266
 2737SOL    HW219674   4.547   0.834   8.785  1.2485  0.4662 -0.2288
 2738SOL     OW19675   0.501   4.380   2.974  0.9512 -0.3461 -0.4027
 2738SOL    HW119676   0.585   4.367   2.929  0.9133  1.3340 -0.9532
 2738SOL    HW219677   0.475   4.461   2.930  0.1117  0.5839  1.7732
 2739SOL     OW19678   0.445   4.262  13.132 -0.5572 -0.8699  0.2279
 2739SOL    HW119679   0.420   4.222  13.215 -0.3957  1.4943  1.4044
 2739SOL    HW219680   0.534   4.295  13.140 -1.0239  0.9588 -1.9752
 2740SOL     OW19681   3.097   2.179  12.373  0.1996 -0.3712  0.2166
 2740SOL    HW119682   3.129   2.102  12.419  0.2170 -1.3081 -1.3666
 2740SOL    HW219683   3.174   2.235  12.380  0.0980 -0.2001 -0.0042
 2741SOL     OW19684   0.818   4.233   4.024  0.0136 -0.0251 -0.2917
 2741SOL    HW119685   0.747   4.293   4.000 -1.2215 -0.3878  2.4784
 2741SOL    HW219686   0.902   4.279   4.017  0.4289 -0.5771  0.9105
 2742SOL     OW19687   1.767   3.148   5.188  0.3141 -0.4590  0.5447
 2742SOL    HW119688   1.801   3.237   5.200 -2.3791  0.4200  1.7844
 2742SOL    HW219689   1.694   3.146   5.250 -0.4636 -2.7699 -0.4688
 2743SOL     OW19690   0.874   3.158   2.907 -0.2953  0.2151  0.4171
 2743SOL    HW119691   0.861   3.087   2.844  0.0634  2.0994 -1.7885
 2743SOL    HW219692   0.818   3.225   2.868  0.8174 -0.0512 -1.6114
 2744SOL     OW19693   0.826   3.282  16.224 -0.3269 -0.3150 -0.2276
 2744SOL    HW119694   0.787   3.364  16.192  0.5733  0.6452  1.1045
 2744SOL    HW219695   0.745   3.232  16.215 -0.8860  0.6079 -0.3486
 2745SOL     OW19696   2.177   0.801   8.087 -0.1500  0.3060 -0.6532
 2745SOL    HW119697   2.155   0.755   8.168  0.5174  0.8801 -0.1454
 2745SOL    HW219698   2.241   0.865   8.120  0.8986 -0.2126 -1.6970
 2746SOL     OW19699   0.961   3.530  10.328  0.0018  0.2852 -0.7405
 2746SOL    HW119700   0.946   3.587  10.403 -1.1507 -0.2183 -0.5799
 2746SOL    HW219701   1.004   3.460  10.377 -0.5592  0.4469 -0.0152
 2747SOL     OW19702   4.323   4.378  10.374  1.0002  0.6130  0.4693
 2747SOL    HW119703   4.346   4.349  10.463 -1.0786 -1.8882  0.1963
 2747SOL    HW219704   4.251   4.439  10.385  1.5574  1.4005 -0.3016
 2748SOL     OW19705   2.691   1.130   1.503 -0.3107  0.6402  0.1997
 2748SOL    HW119706   2.777   1.095   1.479  0.3264  1.5649  1.1267
 2748SOL    HW219707   2.698   1.148   1.596 -1.9669  1.6904  0.1135
 2749SOL     OW19708   3.763   4.240   3.801  0.7541  0.2699 -0.4312
 2749SOL    HW119709   3.826   4.177   3.767 -0.5543 -2.1842  1.7111
 2749SOL    HW219710   3.782   4.323   3.757  0.5564  1.5493  1.8852
 2750SOL     OW19711   1.357   3.944   9.673  0.2462 -0.4753  0.1188
 2750SOL    HW119712   1.295   3.895   9.728 -1.6588  2.0806  0.2396
 2750SOL    HW219713   1.371   4.023   9.725  0.9412 -1.1689  0.9914
 2751SOL     OW19714   2.026   2.930   8.148 -0.1168  0.4096 -0.0434
 2751SOL    HW119715   2.113   2.929   8.188  0.5573 -0.2771 -1.5241
 2751SOL    HW219716   1.987   2.862   8.204 -0.1426  1.3132  1.0347
 2752SOL     OW19717   1.815   1.563   6.042  0.2152 -1.0063  0.7305
 2752SOL    HW119718   1.778   1.615   5.971  3.7937  1.0098  0.3380
 2752SOL    HW219719   1.901   1.604   6.051 -1.3836  2.3483  0.9102
 2753SOL     OW19720   3.243   3.991   2.125 -0.7826 -0.5659 -0.0626
 2753SOL    HW119721   3.207   4.005   2.038 -0.8362  0.3738  0.1144
 2753SOL    HW219722   3.314   4.054   2.120 -0.3112 -1.0994 -0.1495
 2754SOL     OW19723   1.850   3.614   0.405  0.3497  0.9510 -0.8022
 2754SOL    HW119724   1.939   3.598   0.375 -0.2041  1.0597 -2.4782
 2754SOL    HW219725   1.837   3.709   0.397 -2.6698  0.5287 -0.8861
 2755SOL     OW19726   2.729   3.358  13.945  0.1391  0.1491 -0.1562
 2755SOL    HW119727   2.671   3.300  13.992  0.2328  1.6005  1.7484
 2755SOL    HW219728   2.802   3.339  14.004  0.0900 -1.5948 -0.6680
 2756SOL     OW19729   0.370   0.199  12.926  0.7374  0.1497  0.3973
 2756SOL    HW119730   0.335   0.282  12.958  1.9193  0.8734 -0.1537
 2756SOL    HW219731   0.340   0.210  12.836  0.1584  3.8926  1.0471
 2757SOL     OW19732   1.207   3.959   1.290 -0.0285 -0.2884 -0.4038
 2757SOL    HW119733   1.221   3.870   1.324 -2.2949 -1.0688 -1.4992
 2757SOL    HW219734   1.177   4.005   1.368  1.9403  1.7486 -0.8653
 2758SOL     OW19735   1.174   0.202   2.379  0.1318 -0.3644  0.2646
 2758SOL    HW119736   1.133   0.228   2.296  1.2893  0.2038 -0.1320
 2758SOL    HW219737   1.263   0.236   2.373  1.0048 -2.3204  2.8007
 2759SOL     OW19738   1.751   3.053   5.543  0.4877 -0.2384  0.4532
 2759SOL    HW119739   1.740   2.972   5.593 -1.8535 -0.6006 -0.6461
 2759SOL    HW219740   1.837   3.043   5.502 -0.2472 -1.0836 -0.8604
 2760SOL     OW19741   2.064   0.916   0.911 -0.5011 -0.3377 -0.7575
 2760SOL    HW119742   2.088   0.825   0.925 -1.6048 -0.4358  0.4186
 2760SOL    HW219743   1.994   0.896   0.849 -0.8440 -0.5136 -0.3099
 2761SOL     OW19744   1.728   2.455  17.439  0.1434  0.0088  1.1081
 2761SOL    HW119745   1.792   2.408  17.385 -0.0648  0.0773  0.8029
 2761SOL    HW219746   1.653   2.396  17.435  0.0733  0.3661 -2.1871
 2762SOL     OW19747   4.200   2.862   6.555  0.3077  0.1895 -0.1120
 2762SOL    HW119748   4.140   2.935   6.541  0.9583  0.8474  0.5618
 2762SOL    HW219749   4.198   2.851   6.650 -0.0522  0.0862 -0.1287
 2763SOL     OW19750   1.966   0.990  16.059 -0.2753 -0.3645 -0.5213
 2763SOL    HW119751   1.892   1.040  16.093  0.2400  0.0433 -0.0138
 2763SOL    HW219752   2.010   0.969  16.142 -0.7606  0.9610  0.0616
 2764SOL     OW19753   1.640   4.686   9.013  0.0641 -0.5998 -0.3090
 2764SOL    HW119754   1.599   0.012   8.939  0.0558 -0.9429 -0.5103
 2764SOL    HW219755   1.722   0.015   9.021  0.6831 -2.0794  2.0076
 2765SOL     OW19756   1.973   4.267   5.427 -0.2505 -0.0543 -0.1677
 2765SOL    HW119757   1.912   4.195   5.442  1.5138 -1.0530  2.1576
 2765SOL    HW219758   2.054   4.221   5.405  0.8454  1.4729  0.7506
 2766SOL     OW19759   0.464   0.416   5.120  0.3015  0.4743 -0.7129
 2766SOL    HW119760   0.496   0.502   5.147 -1.1002  0.7852 -0.0886
 2766SOL    HW219761   0.424   0.392   5.203  0.3444 -0.1858 -0.8821
 2767SOL     OW19762   0.274   2.676   1.994  0.6475 -0.3990  0.2013
 2767SOL    HW119763   0.255   2.765   1.964  0.1626 -1.4824 -2.7865
 2767SOL    HW219764   0.308   2.631   1.916 -2.8365 -0.5013 -1.2657
 2768SOL     OW19765   0.044   2.582   5.281 -0.3337 -0.5186 -0.0170
 2768SOL    HW119766   4.670   2.606   5.297  0.1158  0.7082  0.7661
 2768SOL    HW219767   0.050   2.517   5.351  0.4856 -0.1291  0.2719
 2769SOL     OW19768   0.584   2.741   1.494 -0.0060 -0.6405  0.2397
 2769SOL    HW119769   0.516   2.675   1.507  1.1408 -1.8512 -0.0141
 2769SOL    HW219770   0.630   2.729   1.577  0.5774  0.2917  0.0549
 2770SOL     OW19771   2.049   0.529   6.595 -0.2791  0.8029 -0.9087
 2770SOL    HW119772   1.976   0.478   6.631 -2.1007  1.9277 -2.9360
 2770SOL    HW219773   2.052   0.500   6.504 -2.1530 -3.0841  0.2471
 2771SOL     OW19774   3.481   4.233   2.598  0.2244 -0.2597  0.4898
 2771SOL    HW119775   3.473   4.328   2.606  0.0420 -0.2972  0.7650
 2771SOL    HW219776   3.411   4.231   2.533 -0.4579  1.9261  1.1465
 2772SOL     OW19777   2.167   2.242   2.452 -0.4824  0.3359  0.0699
 2772SOL    HW119778   2.087   2.196   2.425  0.6123 -0.4352 -1.8506
 2772SOL    HW219779   2.158   2.330   2.415 -0.1288  0.0993 -0.5870
 2773SOL     OW19780   0.403   2.582   8.182 -0.6146  0.0891  0.1959
 2773SOL    HW119781   0.331   2.546   8.234 -0.6191  0.7533  0.6471
 2773SOL    HW219782   0.367   2.667   8.158 -0.6167  0.0200 -0.0494
 2774SOL     OW19783   2.765   3.847   3.215  0.5454  0.0417  0.3631
 2774SOL    HW119784   2.767   3.826   3.308 -0.7525 -0.5681  0.2621
 2774SOL    HW219785   2.681   3.806   3.193  0.1720  0.9748  0.0531
 2775SOL     OW19786   1.665   1.061   0.655 -0.4181  0.1668 -0.2006
 2775SOL    HW119787   1.578   1.056   0.616 -0.7553  0.4360  0.5257
 2775SOL    HW219788   1.653   1.096   0.743  0.8538 -0.2360  0.1438
 2776SOL     OW19789   0.495   0.623   8.200 -0.4178  0.0448 -0.3461
 2776SOL    HW119790   0.430   0.563   8.237 -0.2361 -0.3339 -0.6391
 2776SOL    HW219791   0.519   0.575   8.120 -0.5931  0.7753 -0.8387
 2777SOL     OW19792   3.366   4.261   1.108  0.3517  0.5735 -0.3884
 2777SOL    HW119793   3.447   4.233   1.151 -0.2972  1.5612  1.4567
 2777SOL    HW219794   3.359   4.207   1.029 -0.7532 -0.4136  0.4013
 2778SOL     OW19795   3.453   3.822  10.682 -0.4847  0.6262 -0.3037
 2778SOL    HW119796   3.421   3.758  10.618 -1.6332  0.1792  0.7144
 2778SOL    HW219797   3.508   3.879  10.628  0.4211  1.0905  1.1256
 2779SOL     OW19798   4.285   0.671   7.633 -0.4339 -0.5943  0.2597
 2779SOL    HW119799   4.351   0.606   7.657 -0.8551 -1.0847  0.1079
 2779SOL    HW219800   4.213   0.609   7.643 -0.8344 -0.0812  0.5475
 2780SOL     OW19801   3.268   3.702   0.876 -0.4307 -0.1813  0.1746
 2780SOL    HW119802   3.298   3.733   0.962  0.0478  0.9253 -0.3950
 2780SOL    HW219803   3.241   3.786   0.841 -1.1024 -0.9385 -1.1199
 2781SOL     OW19804   4.396   2.165   8.670 -0.1691 -0.1125  0.0203
 2781SOL    HW119805   4.484   2.182   8.636  0.3382 -1.3182  0.7501
 2781SOL    HW219806   4.367   2.101   8.605 -0.9336  0.8716 -0.5988
 2782SOL     OW19807   0.023   3.935   7.676  0.2380 -0.1933  0.5748
 2782SOL    HW119808   4.690   3.986   7.614  1.6281  0.2431 -0.2344
 2782SOL    HW219809   0.060   4.000   7.736 -0.2138  0.5495  0.0469
 2783SOL     OW19810   1.918   0.808   6.674 -0.5725 -0.3650 -0.7353
 2783SOL    HW119811   1.994   0.752   6.659  0.1966  0.5746 -0.3493
 2783SOL    HW219812   1.912   0.851   6.588 -2.0756  0.9748  0.0552
 2784SOL     OW19813   0.700   0.835   6.809  0.0801  0.8115  0.4334
 2784SOL    HW119814   0.726   0.772   6.742 -0.2493 -0.1896  1.2437
 2784SOL    HW219815   0.664   0.903   6.753 -3.1571 -2.0908 -0.9429
 2785SOL     OW19816   4.713   4.543   9.201  0.7122  0.4687  0.5006
 2785SOL    HW119817   4.628   4.503   9.218  0.2789  0.7789 -0.9295
 2785SOL    HW219818   0.005   4.581   9.288  0.1641  1.2906  0.1985
 2786SOL     OW19819   1.977   4.068   3.165  0.1567 -0.0350 -0.7398
 2786SOL    HW119820   1.952   3.976   3.153  0.7850 -0.3441  0.3561
 2786SOL    HW219821   1.890   4.100   3.189  1.7445  2.9923  0.9116
 2787SOL     OW19822   3.367   2.356   3.953  0.1505 -0.5615  0.1979
 2787SOL    HW119823   3.337   2.289   4.016 -2.6295 -0.0307 -0.6045
 2787SOL    HW219824   3.299   2.367   3.888  0.5462 -0.3856 -0.1827
 2788SOL     OW19825   1.352   1.616   8.363  0.4282  0.3548 -0.5691
 2788SOL    HW119826   1.352   1.525   8.391  1.1090  0.4149 -0.3714
 2788SOL    HW219827   1.382   1.654   8.446  1.4913  3.0447 -2.1789
 2789SOL     OW19828   4.333   4.272   2.613 -0.4777  0.1994 -0.2903
 2789SOL    HW119829   4.375   4.338   2.668 -1.7289  2.4666 -2.0466
 2789SOL    HW219830   4.406   4.240   2.560  0.8121 -1.1517  2.3050
 2790SOL     OW19831   1.849   2.300  12.588 -0.2537 -0.1221 -0.6566
 2790SOL    HW119832   1.765   2.339  12.562 -0.5338 -0.9217 -0.9496
 2790SOL    HW219833   1.881   2.356  12.659  0.2947  0.7055 -1.5548
 2791SOL     OW19834   1.847   2.272   5.787  0.3450  0.1688 -0.2630
 2791SOL    HW119835   1.775   2.279   5.850  1.0299  0.1930  0.5078
 2791SOL    HW219836   1.920   2.263   5.848 -0.8174 -1.0575  0.9536
 2792SOL     OW19837   3.639   3.969  15.208 -0.1934 -0.4568 -0.3187
 2792SOL    HW119838   3.630   3.954  15.302  2.2626  0.2412  0.0310
 2792SOL    HW219839   3.565   4.027  15.192  0.4534  0.1626 -1.0830
 2793SOL     OW19840   0.788   1.055   0.227  0.1594  0.0451  0.1608
 2793SOL    HW119841   0.732   0.992   0.271 -0.2349  0.2562 -0.0312
 2793SOL    HW219842   0.741   1.067   0.144 -0.5748  0.1600  0.5968
 2794SOL     OW19843   3.135   1.356   8.461  1.0875 -0.3673  0.4343
 2794SOL    HW119844   3.108   1.429   8.405  1.0178 -1.2834 -0.7226
 2794SOL    HW219845   3.099   1.387   8.544 -2.9353 -1.3689 -0.9481
 2795SOL     OW19846   4.346   3.681   6.319 -0.3884 -0.5239 -0.0897
 2795SOL    HW119847   4.318   3.750   6.379 -0.2453 -1.6201  1.2449
 2795SOL    HW219848   4.283   3.698   6.249 -0.5590  0.3679  0.2786
 2796SOL     OW19849   1.488   2.556   7.014 -0.0321  0.1411  0.0040
 2796SOL    HW119850   1.480   2.645   6.978  0.4566 -0.2833 -1.1700
 2796SOL    HW219851   1.404   2.515   6.995 -0.9527  2.0811 -0.0973
 2797SOL     OW19852   3.985   1.527  15.577  0.4229 -0.1813 -0.2575
 2797SOL    HW119853   4.035   1.450  15.551  0.1024 -0.2425 -0.6854
 2797SOL    HW219854   3.975   1.513  15.672  2.4482 -0.1194 -0.0381
 2798SOL     OW19855   1.510   4.590   0.022  0.0645  0.6246  0.0663
 2798SOL    HW119856   1.416   4.606   0.030 -0.6159 -5.0661  3.5826
 2798SOL    HW219857   1.535   4.596   0.114 -0.6791 -1.9329  0.4298
 2799SOL     OW19858   3.641   4.262   1.222 -0.0829  0.0712 -0.4081
 2799SOL    HW119859   3.582   4.275   1.296  1.6154  2.3052  0.5321
 2799SOL    HW219860   3.722   4.281   1.268  0.2133  2.0324 -1.7448
 2800SOL     OW19861   4.671   1.030  12.846  0.3378  0.4975 -0.4154
 2800SOL    HW119862   0.030   1.057  12.797  0.4659  2.4007  0.8225
 2800SOL    HW219863   4.679   0.936  12.862  2.6282  0.8645  0.5633
 2801SOL     OW19864   2.728   4.709  16.271  0.0264 -0.1629 -0.0644
 2801SOL    HW119865   2.682   4.633  16.239 -0.9497  0.5519 -0.3421
 2801SOL    HW219866   2.811   4.706  16.223 -0.5501  1.4028 -1.1465
 2802SOL     OW19867   2.786   3.939   3.475 -0.1274  0.0801  0.6347
 2802SOL    HW119868   2.721   3.980   3.531  1.8997  0.5224  2.6577
 2802SOL    HW219869   2.869   3.970   3.510  0.3029  0.5671 -0.8083
 2803SOL     OW19870   1.718   3.351  15.284  0.2950  0.1561 -0.1615
 2803SOL    HW119871   1.691   3.263  15.310 -0.2045  0.7963  1.4712
 2803SOL    HW219872   1.636   3.395  15.307  0.0801  0.2252 -1.0709
 2804SOL     OW19873   2.542   0.180   9.192  0.7628 -0.3708 -0.0603
 2804SOL    HW119874   2.604   0.109   9.174  1.0376  0.1341 -1.0792
 2804SOL    HW219875   2.553   0.194   9.286 -1.5655  1.5553 -0.0698
 2805SOL     OW19876   2.806   1.101   6.295  0.0522 -0.4878  0.1290
 2805SOL    HW119877   2.736   1.141   6.243  0.9710  0.7992 -0.1275
 2805SOL    HW219878   2.782   1.010   6.279  2.2440 -1.2037  0.9621
 2806SOL     OW19879   0.300   2.949   3.635 -0.7812  0.2662  0.2295
 2806SOL    HW119880   0.307   3.044   3.643 -0.8653  0.3280 -0.4521
 2806SOL    HW219881   0.298   2.908   3.721 -1.7052  1.8545  0.9479
 2807SOL     OW19882   4.717   0.268   8.017  0.2141  0.1584 -0.2171
 2807SOL    HW119883   4.623   0.270   7.999  0.3055 -0.1058 -0.7388
 2807SOL    HW219884   4.714   0.206   8.089 -1.2773 -0.6230 -0.9504
 2808SOL     OW19885   2.517   0.489   2.753 -0.5390 -0.5163 -0.2152
 2808SOL    HW119886   2.585   0.491   2.685  0.4100 -1.9469  0.6933
 2808SOL    HW219887   2.518   0.403   2.794 -1.8850 -1.0192 -1.2288
 2809SOL     OW19888   4.548   0.798   5.797  0.0057  0.3695  0.0500
 2809SOL    HW119889   4.613   0.735   5.827 -1.0160 -0.5973  0.2300
 2809SOL    HW219890   4.544   0.769   5.706  0.4445  0.1029  0.1148
 2810SOL     OW19891   2.467   1.204   4.071  0.1769 -0.0284 -0.0989
 2810SOL    HW119892   2.389   1.150   4.056 -0.6404  0.5836  2.0230
 2810SOL    HW219893   2.429   1.286   4.102 -2.4936 -1.2006 -0.3208
 2811SOL     OW19894   1.314   3.693   6.840  0.0259  0.4193 -0.1983
 2811SOL    HW119895   1.347   3.647   6.763  2.7208 -1.2055  1.8970
 2811SOL    HW219896   1.306   3.620   6.901  0.4178 -1.4710 -2.3881
 2812SOL     OW19897   1.331   3.449   5.146  0.1659  0.1860  0.3853
 2812SOL    HW119898   1.252   3.431   5.197  0.5879  3.5157  2.2097
 2812SOL    HW219899   1.299   3.521   5.091  0.7094 -0.4209 -0.7118
 2813SOL     OW19900   4.345   1.786   9.709 -0.1157  0.0797 -0.1768
 2813SOL    HW119901   4.353   1.708   9.764 -3.1365 -0.2766 -0.2364
 2813SOL    HW219902   4.260   1.771   9.667 -0.0717 -1.3719  0.2474
 2814SOL     OW19903   0.827   1.342   8.705  0.2589  0.0484 -0.1788
 2814SOL    HW119904   0.857   1.301   8.786  1.0189  1.6143  0.3390
 2814SOL    HW219905   0.818   1.265   8.649 -1.7634 -0.1460  0.4011
 2815SOL     OW19906   0.867   3.526  11.821  0.0139 -0.4699 -0.7472
 2815SOL    HW119907   0.851   3.620  11.813  0.2311 -0.3189  0.5937
 2815SOL    HW219908   0.869   3.515  11.916 -0.5691 -1.0267 -0.8045
 2816SOL     OW19909   3.154   3.673   4.250 -0.2117 -0.2219  0.2251
 2816SOL    HW119910   3.090   3.603   4.244 -1.2419  0.6597  0.8162
 2816SOL    HW219911   3.139   3.702   4.340 -0.2281 -1.3300  0.5716
 2817SOL     OW19912   0.193   4.225   2.915  0.0637  0.0541 -0.3799
 2817SOL    HW119913   0.193   4.321   2.915  1.9610  0.0517  0.5629
 2817SOL    HW219914   0.156   4.222   3.003  0.3307 -0.6089 -0.2900
 2818SOL     OW19915   0.098   3.470   3.725  0.4808  0.1175 -0.1599
 2818SOL    HW119916   0.166   3.408   3.698 -1.8033 -1.9635 -1.1206
 2818SOL    HW219917   0.103   3.539   3.658  0.8504 -1.0416 -1.3291
 2819SOL     OW19918   0.279   1.053   7.806 -0.0571  0.6549  0.6038
 2819SOL    HW119919   0.369   1.071   7.835 -0.1378  3.5705 -0.9649
 2819SOL    HW219920   0.244   1.140   7.786  0.3267  0.3341 -1.5442
 2820SOL     OW19921   1.107   3.008   3.942  0.0610 -0.3889 -0.1563
 2820SOL    HW119922   1.069   2.921   3.945  0.4514 -0.4486  2.5912
 2820SOL    HW219923   1.177   2.996   4.006  1.1199  0.5622 -1.1326
 2821SOL     OW19924   3.111   3.340   1.883 -0.6293 -0.2555  0.5424
 2821SOL    HW119925   3.019   3.353   1.860 -0.0274  0.2353 -1.5473
 2821SOL    HW219926   3.090   3.314   1.973 -1.8559 -2.0253 -0.2589
 2822SOL     OW19927   3.230   2.318  16.212 -0.5034  1.0352  0.0691
 2822SOL    HW119928   3.305   2.332  16.270 -1.0278  1.5224  0.6325
 2822SOL    HW219929   3.191   2.234  16.236  2.1550 -0.3292 -0.3585
 2823SOL     OW19930   2.584   0.583   4.647 -0.0551  0.3180  0.5745
 2823SOL    HW119931   2.661   0.559   4.596  0.2586  1.2533  0.6020
 2823SOL    HW219932   2.512   0.584   4.584  0.1200  0.4385  0.3756
 2824SOL     OW19933   3.753   4.066  11.230  0.0163  0.3870  0.1732
 2824SOL    HW119934   3.715   4.126  11.166 -1.1549 -0.8192 -0.2695
 2824SOL    HW219935   3.842   4.097  11.245  0.7756 -1.5021 -0.4942
 2825SOL     OW19936   4.586   0.823   1.646 -0.1492 -0.0870  0.2453
 2825SOL    HW119937   4.655   0.867   1.695 -0.0153  0.0552 -0.0736
 2825SOL    HW219938   4.565   0.764   1.719  0.1820 -0.4242  0.0662
 2826SOL     OW19939   0.997   0.054   6.276  0.4375  0.2211  0.2218
 2826SOL    HW119940   0.920   0.109   6.263  0.2158 -0.4375 -1.2222
 2826SOL    HW219941   1.060   0.097   6.218  0.3060  2.2803  1.6012
 2827SOL     OW19942   0.044   4.293  11.613 -0.8102  0.4634 -0.3168
 2827SOL    HW119943   0.122   4.263  11.660 -0.0001  3.0043 -0.0759
 2827SOL    HW219944   0.002   4.210  11.587  0.1127 -0.2616  0.5194
 2828SOL     OW19945   3.897   3.168  15.669 -0.8733 -0.2526  0.3633
 2828SOL    HW119946   3.937   3.203  15.590  0.5522  0.1801  1.2787
 2828SOL    HW219947   3.836   3.238  15.692 -1.9476 -0.3461 -2.2086
 2829SOL     OW19948   4.142   2.343   6.863 -0.3212  0.5291 -0.9618
 2829SOL    HW119949   4.073   2.358   6.927 -0.5852 -0.5971 -0.9896
 2829SOL    HW219950   4.107   2.388   6.785 -0.4718 -2.8075 -2.8273
 2830SOL     OW19951   0.821   3.763   9.782 -0.5375 -0.1001 -0.3724
 2830SOL    HW119952   0.755   3.755   9.713 -2.0751 -1.6367  1.2672
 2830SOL    HW219953   0.774   3.732   9.859 -0.0093  0.8053  0.3177
 2831SOL     OW19954   0.138   4.690  13.230  0.0570  0.4379  0.4041
 2831SOL    HW119955   0.089   0.010  13.156  1.8074 -0.2963 -1.1402
 2831SOL    HW219956   0.206   4.639  13.186 -0.6036 -1.3530  1.4613
 2832SOL     OW19957   0.060   4.048  16.942 -0.1814  0.3547 -0.1459
 2832SOL    HW119958   0.122   4.117  16.967 -0.7578 -0.1075  2.5508
 2832SOL    HW219959   0.117   3.986  16.896  1.5576 -0.0112  2.5116
 2833SOL     OW19960   3.095   4.308   2.078 -0.2891 -0.1192 -0.9247
 2833SOL    HW119961   3.076   4.354   1.996 -1.5321 -2.5279 -1.9616
 2833SOL    HW219962   3.006   4.300   2.114 -0.0325  0.2144 -0.1989
 2834SOL     OW19963   2.602   3.502   2.658 -0.3074 -0.5084 -0.5867
 2834SOL    HW119964   2.647   3.419   2.672 -1.3890 -0.9429  0.2422
 2834SOL    HW219965   2.575   3.487   2.567 -0.3731  0.6253 -0.7534
 2835SOL     OW19966   3.394   1.636  12.903 -0.2977 -0.4826 -0.0771
 2835SOL    HW119967   3.370   1.705  12.965  2.0144 -0.2009  0.5119
 2835SOL    HW219968   3.333   1.653  12.832 -0.9844 -2.5953 -0.0011
 2836SOL     OW19969   3.355   1.165  11.158  1.0029  0.1922  0.0548
 2836SOL    HW119970   3.333   1.256  11.137  1.0465  0.1190 -0.3021
 2836SOL    HW219971   3.450   1.164  11.168  1.3140 -1.8699 -3.3808
 2837SOL     OW19972   4.304   0.027   6.634  0.4215 -0.1873  0.2832
 2837SOL    HW119973   4.336   4.667   6.589  0.5900 -0.2342  0.4867
 2837SOL    HW219974   4.216   4.715   6.659 -0.1869  1.5564  0.2294
 2838SOL     OW19975   3.350   2.402  17.643  0.0631 -0.4245 -0.7330
 2838SOL    HW119976   3.317   2.488  17.668  0.2851 -0.5050 -0.1666
 2838SOL    HW219977   3.383   2.427  17.557 -1.9041  0.5200 -1.2247
 2839SOL     OW19978   4.062   0.286  13.446 -0.2071  0.3276  0.5769
 2839SOL    HW119979   3.974   0.252  13.431  0.7948 -1.8536 -0.2552
 2839SOL    HW219980   4.095   0.230  13.517 -1.1183 -3.3552 -1.8981
 2840SOL     OW19981   2.538   1.736   1.136 -0.0822 -0.1477 -0.1637
 2840SOL    HW119982   2.486   1.670   1.182 -1.7108  1.1714 -0.1036
 2840SOL    HW219983   2.489   1.817   1.154 -1.2371 -1.1874  1.3798
 2841SOL     OW19984   0.068   2.916   3.052 -0.4807 -0.2979 -0.4668
 2841SOL    HW119985   0.099   2.850   2.990 -2.6889 -1.7444 -0.0189
 2841SOL    HW219986   4.694   2.890   3.050 -0.5499  0.0758 -1.9067
 2842SOL     OW19987   2.435   0.606   5.368  0.3733 -0.6666 -0.1972
 2842SOL    HW119988   2.401   0.694   5.380 -0.2577 -0.7194 -1.5848
 2842SOL    HW219989   2.409   0.585   5.278 -1.2974 -2.5859  0.7149
 2843SOL     OW19990   2.149   1.562   5.303 -0.6761 -0.4955  0.1274
 2843SOL    HW119991   2.078   1.563   5.239 -0.0906  0.5661 -0.5200
 2843SOL    HW219992   2.124   1.628   5.367  0.6680  1.0279 -0.9165
 2844SOL     OW19993   3.517   2.665   1.775  0.2878  0.3903  0.1885
 2844SOL    HW119994   3.449   2.733   1.771 -1.0952 -1.1164 -1.9584
 2844SOL    HW219995   3.463   2.587   1.766  0.9084 -0.0376  0.1781
 2845SOL     OW19996   4.294   3.882   8.162 -0.6884 -0.1238 -0.6095
 2845SOL    HW119997   4.336   3.801   8.191  0.6348  0.9266  0.3857
 2845SOL    HW219998   4.295   3.886   8.066 -2.0464  2.0413 -0.5407
 2846SOL     OW19999   1.624   2.620  17.183  0.0895 -0.1148  0.1356
 2846SOL    HW120000   1.587   2.699  17.223 -0.0805  1.0522 -2.2831
 2846SOL    HW220001   1.670   2.581  17.257  0.6493  0.0929 -0.1026
 2847SOL     OW20002   2.058   1.834   9.104  0.1697  0.2355 -0.0448
 2847SOL    HW120003   1.980   1.876   9.068  0.0551  0.5125  0.5169
 2847SOL    HW220004   2.066   1.773   9.031 -0.4751 -0.0796  0.1476
 2848SOL     OW20005   3.114   1.168   7.471 -0.1754 -0.0201  0.4219
 2848SOL    HW120006   3.152   1.112   7.404  1.7888 -1.8914  3.1166
 2848SOL    HW220007   3.178   1.156   7.541  0.0194  1.7604  0.5652
 2849SOL     OW20008   2.417   3.039   5.608  0.0320  0.4699 -1.0017
 2849SOL    HW120009   2.363   2.961   5.596  0.2977 -0.0413  1.0386
 2849SOL    HW220010   2.502   3.010   5.574  0.9911  0.1173  1.6780
 2850SOL     OW20011   2.474   3.532  17.456  0.3737 -0.5457  0.5803
 2850SOL    HW120012   2.429   3.556  17.537  1.8080 -1.0911  1.5381
 2850SOL    HW220013   2.435   3.448  17.431  1.1390 -0.9334  0.6778
 2851SOL     OW20014   0.441   1.134   3.281 -0.1892 -0.2732 -0.0089
 2851SOL    HW120015   0.496   1.074   3.332  0.1104  1.8942  2.2270
 2851SOL    HW220016   0.454   1.100   3.192 -4.7210 -0.5400 -0.5444
 2852SOL     OW20017   2.889   1.649   3.418  0.1773 -0.1841 -0.4592
 2852SOL    HW120018   2.967   1.694   3.452  0.0326  1.6943 -2.6256
 2852SOL    HW220019   2.840   1.640   3.500 -0.5781  0.7382 -0.8052
 2853SOL     OW20020   3.926   2.669   9.731 -0.5642  0.1373  0.4525
 2853SOL    HW120021   3.954   2.579   9.714  0.1296 -0.1207  2.9891
 2853SOL    HW220022   3.833   2.653   9.743 -0.3087 -0.6901  1.3747
 2854SOL     OW20023   4.691   0.244  13.493 -0.4715  0.2201 -0.1073
 2854SOL    HW120024   4.646   0.283  13.419  2.0607  0.0804 -1.7304
 2854SOL    HW220025   4.618   0.188  13.519  0.6826 -0.5631  1.4950
 2855SOL     OW20026   1.431   3.614   2.631  0.0421 -0.2478  0.3848
 2855SOL    HW120027   1.492   3.598   2.559 -0.6789 -0.0006 -0.2836
 2855SOL    HW220028   1.351   3.648   2.591  0.3047  0.4589  0.4682
 2856SOL     OW20029   0.509   0.287   3.315 -0.9290  0.8654  0.1316
 2856SOL    HW120030   0.425   0.241   3.309 -1.6346  2.3658 -1.4096
 2856SOL    HW220031   0.534   0.276   3.407 -0.2872 -1.5255 -0.3073
 2857SOL     OW20032   1.571   4.654  15.022 -0.0459 -0.8202 -0.3647
 2857SOL    HW120033   1.548   0.023  15.053  0.3412 -0.6001 -0.6948
 2857SOL    HW220034   1.545   4.600  15.097  0.5231 -0.0695  0.3653
 2858SOL     OW20035   3.341   4.030   4.247  0.1965  0.4196 -0.3111
 2858SOL    HW120036   3.282   4.082   4.302  1.1326 -0.4801  1.5277
 2858SOL    HW220037   3.420   4.080   4.269  0.5905 -0.3334 -0.0267
 2859SOL     OW20038   4.579   4.642   7.828 -0.3071 -0.0058 -0.3265
 2859SOL    HW120039   4.537   4.697   7.894 -2.5965  0.3312 -2.0919
 2859SOL    HW220040   4.671   4.653   7.852 -0.5711 -0.8283  0.9980
 2860SOL     OW20041   3.926   3.778   7.975  0.7755 -0.0755  0.7261
 2860SOL    HW120042   3.966   3.832   8.043  0.5549 -1.2634  1.8106
 2860SOL    HW220043   3.968   3.693   7.985  0.4471 -0.4651 -1.1825
 2861SOL     OW20044   3.889   0.698   5.121  0.8510 -0.5661 -0.3591
 2861SOL    HW120045   3.813   0.642   5.140 -0.4671  1.4397  0.3101
 2861SOL    HW220046   3.893   0.682   5.026  4.0805  0.4321 -0.3585
 2862SOL     OW20047   0.770   4.292   3.713 -0.0982  0.0090  0.0154
 2862SOL    HW120048   0.819   4.210   3.722  0.3038 -0.0904 -2.9685
 2862SOL    HW220049   0.748   4.288   3.619 -0.0970  1.2970 -0.0487
 2863SOL     OW20050   4.030   4.300   9.430 -0.1722 -0.5322 -0.1443
 2863SOL    HW120051   4.011   4.308   9.337  0.5973 -3.5210 -0.5624
 2863SOL    HW220052   4.053   4.390   9.450 -2.9066 -0.2500  1.7985
 2864SOL     OW20053   1.241   3.868   7.470  0.5158  0.1335  0.6493
 2864SOL    HW120054   1.222   3.951   7.514  0.1763 -0.2506  1.2353
 2864SOL    HW220055   1.265   3.902   7.384  0.4097  0.9368  0.9354
 2865SOL     OW20056   0.870   1.737   8.133 -0.3289 -0.0386 -0.2649
 2865SOL    HW120057   0.819   1.675   8.081  1.3775 -1.4333 -0.2805
 2865SOL    HW220058   0.942   1.684   8.167 -1.9250 -0.5917  2.2172
 2866SOL     OW20059   2.966   0.255   3.828  0.6135 -0.0740 -0.2688
 2866SOL    HW120060   2.926   0.319   3.887  0.2619 -1.3352  0.8388
 2866SOL    HW220061   2.913   0.269   3.749  0.8828  1.9004 -0.1035
 2867SOL     OW20062   3.570   2.122   8.375  0.6494 -0.3389 -0.6338
 2867SOL    HW120063   3.629   2.147   8.446 -2.2947  0.8723  1.3746
 2867SOL    HW220064   3.536   2.037   8.404  0.4814  0.5238  1.6751
 2868SOL     OW20065   2.255   4.238   4.300  0.4038 -0.3802 -0.2453
 2868SOL    HW120066   2.207   4.278   4.227 -1.9304  0.3185  1.6426
 2868SOL    HW220067   2.327   4.209   4.244  0.6097 -0.1287 -0.1133
 2869SOL     OW20068   3.357   3.151  14.422  0.2411  0.5276  0.5198
 2869SOL    HW120069   3.423   3.084  14.407  0.6811  0.9102  0.7585
 2869SOL    HW220070   3.371   3.181  14.512 -0.4022  1.2351  0.3876
 2870SOL     OW20071   3.688   3.878   3.665 -0.4193  0.4977 -0.1984
 2870SOL    HW120072   3.635   3.876   3.586  0.4784 -0.1105 -0.7848
 2870SOL    HW220073   3.771   3.911   3.631 -0.8850 -0.1497 -1.9668
 2871SOL     OW20074   4.294   1.390  11.662  0.1124 -0.1688  0.2377
 2871SOL    HW120075   4.350   1.375  11.739 -0.6367 -0.7489  0.6750
 2871SOL    HW220076   4.219   1.343  11.698 -0.4918  0.9632  0.4233
 2872SOL     OW20077   0.705   0.538  15.707 -0.3689  0.3102  0.6325
 2872SOL    HW120078   0.665   0.595  15.773  2.5956 -0.1769  2.8363
 2872SOL    HW220079   0.788   0.525  15.752 -0.5514 -0.8414  0.6330
 2873SOL     OW20080   3.901   1.622  11.930  0.2551  0.2699  0.1326
 2873SOL    HW120081   3.922   1.545  11.878 -1.0766  0.2006 -0.2959
 2873SOL    HW220082   3.941   1.693  11.881 -1.9777 -0.3081 -2.5256
 2874SOL     OW20083   2.618   2.424   2.787  0.1300  0.0494  0.9001
 2874SOL    HW120084   2.691   2.456   2.733 -0.9936 -2.8429 -2.2924
 2874SOL    HW220085   2.544   2.427   2.727  1.5758 -1.8316 -0.9601
 2875SOL     OW20086   1.134   2.749  12.102 -0.3200 -0.0140  0.2450
 2875SOL    HW120087   1.213   2.793  12.069 -0.2205  0.3062  0.9226
 2875SOL    HW220088   1.063   2.770  12.041 -1.2875  1.7611  2.0069
 2876SOL     OW20089   2.773   2.210   8.724  0.2256 -0.8050  0.4355
 2876SOL    HW120090   2.687   2.232   8.761 -0.8436  1.7814 -3.5442
 2876SOL    HW220091   2.831   2.273   8.768  0.1624 -0.5166  0.1037
 2877SOL     OW20092   4.393   1.387   7.121 -1.0769  0.2637  0.3079
 2877SOL    HW120093   4.335   1.403   7.047 -0.0629 -0.0603 -0.5499
 2877SOL    HW220094   4.409   1.295   7.102  1.0318  1.3761 -3.3520
 2878SOL     OW20095   0.792   4.218   6.674  0.3887  0.3194 -0.4868
 2878SOL    HW120096   0.832   4.301   6.646  1.0244  0.5627  1.1768
 2878SOL    HW220097   0.758   4.239   6.760  0.5158  0.3777 -0.4516
 2879SOL     OW20098   4.322   2.017   7.908  0.3231  0.1586 -0.2683
 2879SOL    HW120099   4.275   2.080   7.854 -0.5491 -0.0677  0.2368
 2879SOL    HW220100   4.383   2.080   7.947 -1.1033  0.5794  1.3081
 2880SOL     OW20101   3.857   0.757  15.872 -0.8098 -0.3066  0.3271
 2880SOL    HW120102   3.815   0.690  15.927  1.0442  0.0074  2.1287
 2880SOL    HW220103   3.784   0.799  15.826 -0.5511  1.0157  1.1473
 2881SOL     OW20104   2.564   4.686   2.979 -0.5865  0.3087  0.1385
 2881SOL    HW120105   2.497   0.010   2.925 -1.8468 -2.2996 -0.3402
 2881SOL    HW220106   2.528   4.684   3.067 -0.0862  0.9567  0.3611
 2882SOL     OW20107   1.326   0.571   3.771 -0.4088  0.2380  0.2415
 2882SOL    HW120108   1.322   0.646   3.713 -0.1791  0.9414  1.1293
 2882SOL    HW220109   1.339   0.502   3.706  0.6398  2.5818 -1.9987
 2883SOL     OW20110   2.371   2.353   4.398  0.2726  0.7734  0.2330
 2883SOL    HW120111   2.297   2.323   4.344 -0.6643 -0.7408  2.3627
 2883SOL    HW220112   2.343   2.415   4.465  0.1254 -0.0487  0.9362
 2884SOL     OW20113   1.494   3.964   7.927  0.0834 -0.0162  0.0626
 2884SOL    HW120114   1.432   3.974   7.999  0.6599  0.9403  0.4250
 2884SOL    HW220115   1.542   4.045   7.941 -0.9717  0.8514 -1.2904
 2885SOL     OW20116   4.404   3.075   7.531 -0.3577 -0.0290 -0.0809
 2885SOL    HW120117   4.388   3.147   7.469  1.1367  0.4999  0.1444
 2885SOL    HW220118   4.342   3.011   7.498  1.0631 -0.9129 -1.0466
 2886SOL     OW20119   4.569   2.413   3.664  0.0872  0.4026 -0.4772
 2886SOL    HW120120   4.615   2.475   3.721  0.8631  0.3324 -1.0275
 2886SOL    HW220121   4.580   2.472   3.590  2.2062  1.2736  0.5381
 2887SOL     OW20122   1.950   1.261   5.153 -0.2698 -0.3273  0.3794
 2887SOL    HW120123   1.867   1.308   5.146 -0.1562 -0.2541 -0.3890
 2887SOL    HW220124   2.004   1.299   5.085  2.9960  2.0597  4.2953
 2888SOL     OW20125   2.299   1.913   5.601  0.0332 -0.1109  0.1796
 2888SOL    HW120126   2.369   1.912   5.665  2.1339 -3.9716 -2.2018
 2888SOL    HW220127   2.286   2.006   5.584  3.4966  0.0010 -1.8098
 2889SOL     OW20128   3.554   4.613  12.555  0.6107  0.2476 -0.0503
 2889SOL    HW120129   3.590   4.614  12.643  0.1348  1.3112  0.1306
 2889SOL    HW220130   3.563   4.706  12.536  0.2057  0.5504  1.2211
 2890SOL     OW20131   3.740   0.477   6.866  0.0648 -0.1120 -0.2240
 2890SOL    HW120132   3.832   0.502   6.876 -0.2346 -0.3740  2.9418
 2890SOL    HW220133   3.692   0.559   6.854  0.0655 -0.1682 -0.6340
 2891SOL     OW20134   0.683   4.290   8.291 -0.0214 -0.3132 -0.0520
 2891SOL    HW120135   0.591   4.287   8.318  0.1871  0.2837  0.7196
 2891SOL    HW220136   0.665   4.331   8.206  1.5820 -1.6864 -1.0376
 2892SOL     OW20137   1.655   4.187  13.079  0.0905 -0.1116  0.0420
 2892SOL    HW120138   1.652   4.104  13.127  3.5059 -0.7526 -0.8751
 2892SOL    HW220139   1.730   4.174  13.022 -0.1280 -2.2737  0.2608
 2893SOL     OW20140   4.400   1.537  14.909 -0.4618 -0.1662  0.0269
 2893SOL    HW120141   4.392   1.443  14.926 -3.6342 -0.0932 -1.0227
 2893SOL    HW220142   4.309   1.553  14.886 -0.7970  1.0549  2.1683
 2894SOL     OW20143   4.666   2.587  17.008  0.4537  0.1393 -0.3059
 2894SOL    HW120144   4.683   2.513  17.065  0.0223  0.5984  0.4202
 2894SOL    HW220145   0.038   2.601  16.980  0.5354  0.6755  0.2139
 2895SOL     OW20146   3.737   2.386  17.656 -0.9180  0.6090  0.0929
 2895SOL    HW120147   3.715   2.348  17.571  1.4689 -0.7921  0.0931
 2895SOL    HW220148   3.736   2.480  17.637  0.0451  0.8427  1.2204
 2896SOL     OW20149   4.267   1.896  14.240  0.5571  0.3987 -0.2455
 2896SOL    HW120150   4.294   1.972  14.190  1.9474 -0.2276 -0.4249
 2896SOL    HW220151   4.227   1.845  14.170 -1.3835 -0.1272  1.2276
 2897SOL     OW20152   4.172   4.249  14.915 -0.4454 -0.0307 -0.4941
 2897SOL    HW120153   4.194   4.225  15.005 -0.7680 -0.3303 -0.4946
 2897SOL    HW220154   4.233   4.195  14.865 -0.3085  1.5663 -2.0297
 2898SOL     OW20155   0.784   3.352   5.909  0.2961 -0.4242 -0.3456
 2898SOL    HW120156   0.759   3.443   5.895 -0.4347 -0.8036 -1.4180
 2898SOL    HW220157   0.707   3.298   5.895 -0.4059  0.8477 -1.3639
 2899SOL     OW20158   2.302   0.011   9.368  0.0380  0.7701  0.2298
 2899SOL    HW120159   2.229   4.679   9.331  0.0131  0.7576  0.2954
 2899SOL    HW220160   2.273   0.007   9.460  1.7414  1.7151  0.8033
 2900SOL     OW20161   2.429   2.269   1.803 -0.2721  0.8643 -0.1099
 2900SOL    HW120162   2.344   2.304   1.831  0.9075  4.1290 -0.5296
 2900SOL    HW220163   2.473   2.353   1.785  0.4841 -0.0447 -2.5166
 2901SOL     OW20164   4.448   0.110   7.988  0.1859  0.2343 -0.5391
 2901SOL    HW120165   4.404   0.086   8.070 -0.7755  2.6813 -0.3671
 2901SOL    HW220166   4.380   0.160   7.943 -0.2903  0.3650  0.3228
 2902SOL     OW20167   1.956   0.770   7.219  1.1086 -0.0661  0.0985
 2902SOL    HW120168   2.034   0.744   7.268  0.8826 -0.2215  0.3781
 2902SOL    HW220169   1.984   0.844   7.165  1.9423 -0.2348  0.3078
 2903SOL     OW20170   2.611   0.117   1.727  0.8343  0.4006  0.1046
 2903SOL    HW120171   2.697   0.132   1.687  0.6001 -0.9847 -0.9185
 2903SOL    HW220172   2.551   0.169   1.674  0.1374  0.7933  1.2818
 2904SOL     OW20173   2.384   4.101  15.363 -0.2331  0.0851 -0.2978
 2904SOL    HW120174   2.475   4.122  15.340 -0.4502  0.6161 -0.6703
 2904SOL    HW220175   2.376   4.026  15.304  2.5608 -1.4659  1.2588
 2905SOL     OW20176   4.588   1.350  16.181  0.4976  0.2721  0.1134
 2905SOL    HW120177   4.594   1.288  16.108  1.2855 -0.7142  1.0099
 2905SOL    HW220178   4.500   1.385  16.166  0.1347 -0.6384  0.1108
 2906SOL     OW20179   3.325   0.362   8.457  0.5338  0.0688 -0.0701
 2906SOL    HW120180   3.232   0.364   8.434  0.5757 -2.7301 -0.5788
 2906SOL    HW220181   3.336   0.267   8.454 -2.2751 -0.2754  0.4960
 2907SOL     OW20182   2.062   0.741   2.774 -0.0392 -0.7581  0.2898
 2907SOL    HW120183   2.144   0.704   2.808 -0.1088 -1.0162  0.1758
 2907SOL    HW220184   2.083   0.835   2.767  0.0688 -1.0068 -2.6245
 2908SOL     OW20185   0.050   4.574   8.323  0.1151  0.0630  0.5050
 2908SOL    HW120186   4.716   4.500   8.352 -1.0443  0.3713 -0.8062
 2908SOL    HW220187   0.109   4.569   8.398 -0.3995 -1.3237  0.8122
 2909SOL     OW20188   4.078   3.382   8.373 -0.4552  0.5833 -0.2696
 2909SOL    HW120189   4.090   3.472   8.344  0.1295  0.1901 -1.2326
 2909SOL    HW220190   4.131   3.327   8.315 -1.0449 -0.1386 -0.1225
 2910SOL     OW20191   3.091   3.971   6.506 -0.0140  0.1614 -0.6015
 2910SOL    HW120192   3.113   4.030   6.434 -0.6252 -0.4614 -1.2917
 2910SOL    HW220193   3.013   4.010   6.546 -0.0062 -0.1814 -0.2461
 2911SOL     OW20194   1.784   3.979   6.962 -0.0131 -0.1373 -0.2242
 2911SOL    HW120195   1.710   3.943   7.010  2.4044 -3.6540  0.9460
 2911SOL    HW220196   1.849   3.910   6.976 -0.4469 -0.0843  2.0383
 2912SOL     OW20197   3.290   2.443   7.897 -0.3568 -0.2463 -0.2960
 2912SOL    HW120198   3.235   2.487   7.833  1.5981  2.5579 -0.0409
 2912SOL    HW220199   3.220   2.432   7.961 -0.6529 -1.9472 -0.8989
 2913SOL     OW20200   1.743   3.347  13.616  0.1960  0.0080  0.0667
 2913SOL    HW120201   1.698   3.340  13.700  1.6428 -0.6684  0.7928
 2913SOL    HW220202   1.751   3.253  13.597  1.3095 -0.1557  1.3230
 2914SOL     OW20203   2.099   0.112   4.987  0.0217 -0.0679  0.0987
 2914SOL    HW120204   2.156   0.042   5.018  1.8708  1.5378  0.3212
 2914SOL    HW220205   2.094   0.161   5.069 -2.2243 -3.8279  2.2079
 2915SOL     OW20206   3.090   2.789   9.066  0.1684 -0.6038  0.5684
 2915SOL    HW120207   3.141   2.786   8.986 -0.9390 -1.4665 -0.1003
 2915SOL    HW220208   3.161   2.822   9.122  0.3055 -1.9881  1.2168
 2916SOL     OW20209   1.374   1.081   8.303 -0.6039 -0.1595  0.0311
 2916SOL    HW120210   1.394   1.016   8.370 -0.9355 -1.3830 -1.0602
 2916SOL    HW220211   1.281   1.089   8.328 -0.1008  2.2900  1.1512
 2917SOL     OW20212   0.073   1.579   9.732  0.2283  0.1237 -0.1162
 2917SOL    HW120213   0.104   1.664   9.765 -0.5419 -1.2207  4.0127
 2917SOL    HW220214   0.004   1.613   9.675  1.8909  1.5260 -1.3199
 2918SOL     OW20215   2.664   4.320   1.939 -0.6096 -1.0362  0.4470
 2918SOL    HW120216   2.623   4.341   2.023 -0.1741 -3.4283  1.2519
 2918SOL    HW220217   2.598   4.263   1.899 -1.7948  1.0165 -0.5325
 2919SOL     OW20218   1.166   3.012   4.773  0.1357  0.1392 -0.1952
 2919SOL    HW120219   1.239   3.058   4.729 -0.7262  1.1699 -0.5483
 2919SOL    HW220220   1.181   3.039   4.863  1.8096 -1.7173  0.0924
 2920SOL     OW20221   1.231   3.216   5.383 -0.1971  1.0084 -0.1989
 2920SOL    HW120222   1.142   3.212   5.417  0.2087  0.7993  0.8181
 2920SOL    HW220223   1.247   3.129   5.347  1.1374 -0.0315  2.9066
 2921SOL     OW20224   0.756   3.069   3.768 -0.3823 -0.4418  0.0175
 2921SOL    HW120225   0.769   3.054   3.862 -1.1346  1.4930  0.4452
 2921SOL    HW220226   0.663   3.084   3.750 -0.6467 -3.1897 -0.9246
 2922SOL     OW20227   2.924   0.983   8.528 -0.7276 -0.4569 -0.1514
 2922SOL    HW120228   2.934   0.981   8.432  0.2350 -0.8980 -0.0405
 2922SOL    HW220229   2.879   1.066   8.541 -0.9035 -0.6580  0.5004
 2923SOL     OW20230   0.606   1.005   4.952  0.2309 -0.0474  0.4398
 2923SOL    HW120231   0.647   1.025   5.036  1.8437  2.0389 -0.8467
 2923SOL    HW220232   0.644   0.919   4.937  3.1760  1.2349  0.6120
 2924SOL     OW20233   0.983   2.507   0.163  1.0764 -0.8192 -0.6951
 2924SOL    HW120234   1.066   2.515   0.211  0.1738  1.4262  0.4920
 2924SOL    HW220235   0.919   2.545   0.223  2.4914 -0.7507  0.7743
 2925SOL     OW20236   3.490   3.609   0.316  0.3199 -0.4664 -0.0072
 2925SOL    HW120237   3.464   3.538   0.375 -0.6762  0.2933  0.4772
 2925SOL    HW220238   3.419   3.674   0.318  1.9419  1.3240  0.0039
 2926SOL     OW20239   2.835   3.842   5.960  0.0334 -0.0332 -0.6841
 2926SOL    HW120240   2.899   3.913   5.963  1.6457 -1.5805  2.5224
 2926SOL    HW220241   2.844   3.807   5.872 -2.4309 -1.7842 -0.2226
 2927SOL     OW20242   2.197   1.788   6.322 -0.0304 -0.2419  0.7846
 2927SOL    HW120243   2.237   1.806   6.407 -0.1865  1.3439  0.5102
 2927SOL    HW220244   2.260   1.828   6.262  0.2254 -0.9959  0.5471
 2928SOL     OW20245   0.509   1.684   6.811 -0.3336 -0.9042  0.2306
 2928SOL    HW120246   0.484   1.645   6.895 -1.7273 -0.1461  0.1574
 2928SOL    HW220247   0.481   1.775   6.813  3.3806  0.2257  0.6334
 2929SOL     OW20248   0.185   0.277   3.619  0.2553 -0.5233 -0.1674
 2929SOL    HW120249   0.117   0.345   3.616  1.0634  0.3522  1.4762
 2929SOL    HW220250   0.257   0.333   3.593 -1.9588  2.4966  0.2340
 2930SOL     OW20251   2.081   4.614   9.266 -0.0423 -0.0315 -0.6468
 2930SOL    HW120252   2.025   4.661   9.205 -2.0957 -1.1400  0.3797
 2930SOL    HW220253   2.014   4.557   9.304  1.4095  0.0345  2.0137
 2931SOL     OW20254   2.373   3.067   0.133  0.5377  0.2584  0.1213
 2931SOL    HW120255   2.426   3.043   0.209  0.4384 -0.3845 -0.0172
 2931SOL    HW220256   2.437   3.065   0.062 -0.3178 -0.1602 -0.6313
 2932SOL     OW20257   3.196   1.781   1.234 -0.5356  0.2003 -0.1563
 2932SOL    HW120258   3.124   1.842   1.250 -0.3160  0.5866 -0.6128
 2932SOL    HW220259   3.144   1.701   1.229 -0.9770  0.4056  1.2892
 2933SOL     OW20260   1.333   1.746   5.652  0.1088 -0.5973 -0.3355
 2933SOL    HW120261   1.338   1.785   5.739  1.2144  0.0739 -0.6944
 2933SOL    HW220262   1.246   1.707   5.658  0.3211 -0.7879  1.3032
 2934SOL     OW20263   0.586   0.696   8.478 -0.2160  0.0290  0.1969
 2934SOL    HW120264   0.528   0.697   8.402 -0.8903  0.7987  0.7347
 2934SOL    HW220265   0.560   0.777   8.522 -0.9416 -0.3603  0.4901
 2935SOL     OW20266   1.521   1.435  14.408  0.6343  0.2610 -0.1676
 2935SOL    HW120267   1.477   1.472  14.484  1.9393  2.1359 -0.3280
 2935SOL    HW220268   1.456   1.404  14.345  0.5605  0.1981 -0.0595
 2936SOL     OW20269   2.911   4.381   4.252  0.1447 -0.1448  0.2748
 2936SOL    HW120270   2.955   4.372   4.337  1.7686  1.4293 -0.3885
 2936SOL    HW220271   2.851   4.444   4.291  2.1556  1.2283  1.1944
 2937SOL     OW20272   3.219   1.987   9.692 -0.2551  0.5866  0.2990
 2937SOL    HW120273   3.144   1.930   9.708 -0.4659  0.9121  0.4642
 2937SOL    HW220274   3.210   2.043   9.768  1.3702  0.6347  0.4542
 2938SOL     OW20275   0.040   0.215   6.326 -0.3932  0.2347  0.0186
 2938SOL    HW120276   0.092   0.269   6.268  0.2471 -0.1814  0.2078
 2938SOL    HW220277   0.086   0.219   6.410  0.2046 -1.7265 -0.2281
 2939SOL     OW20278   0.945   3.745   6.243 -0.3015 -0.0364  0.1377
 2939SOL    HW120279   0.883   3.675   6.263  0.7423 -0.5895  1.4294
 2939SOL    HW220280   1.025   3.716   6.287 -0.9440  0.6636  1.7577
 2940SOL     OW20281   3.746   1.703   7.238  0.2106 -0.0074  0.2166
 2940SOL    HW120282   3.830   1.660   7.257 -0.5239 -0.0033  3.4371
 2940SOL    HW220283   3.716   1.724   7.326  1.6460 -2.2934  1.2636
 2941SOL     OW20284   0.121   2.469   6.966 -0.4797 -0.0768  0.2332
 2941SOL    HW120285   0.038   2.428   6.990  0.4396 -1.1651  1.5515
 2941SOL    HW220286   0.088   2.511   6.887 -0.5091  1.0210  0.8326
 2942SOL     OW20287   0.232   3.504   8.364 -0.2348 -0.0268  0.2264
 2942SOL    HW120288   0.234   3.600   8.372 -1.5944  0.0175 -0.0728
 2942SOL    HW220289   0.325   3.481   8.353 -0.9169 -2.0353 -1.2192
 2943SOL     OW20290   3.279   3.328  14.765 -0.2010  0.3767  0.4090
 2943SOL    HW120291   3.253   3.326  14.858 -1.0476  2.2225  0.2183
 2943SOL    HW220292   3.300   3.236  14.776 -0.4156 -0.1582 -3.8062
 2944SOL     OW20293   3.965   3.602   6.615  0.3225  0.1114  0.0753
 2944SOL    HW120294   3.908   3.678   6.626 -2.9729 -2.3073 -0.5466
 2944SOL    HW220295   4.040   3.649   6.577 -0.6941  1.8066  0.1645
 2945SOL     OW20296   4.303   3.461  10.937 -0.0912  0.2368 -0.2863
 2945SOL    HW120297   4.320   3.514  11.015 -0.3261 -1.3065  0.8218
 2945SOL    HW220298   4.208   3.473  10.936 -0.2562 -1.2155 -0.9461
 2946SOL     OW20299   0.203   0.440   6.222 -0.0607 -0.4674 -0.3077
 2946SOL    HW120300   0.243   0.517   6.181  2.1715 -1.1905  0.5003
 2946SOL    HW220301   0.217   0.464   6.313  0.0757  1.4483 -0.8155
 2947SOL     OW20302   3.605   2.127   7.994 -0.1373  0.5268 -0.5222
 2947SOL    HW120303   3.648   2.194   8.047  3.3201 -0.7109 -1.7779
 2947SOL    HW220304   3.672   2.110   7.929  0.4549 -1.4486  0.6065
 2948SOL     OW20305   3.043   3.168   3.101  0.3051  0.2609 -0.3124
 2948SOL    HW120306   2.990   3.177   3.021 -1.3035 -0.2825  0.6896
 2948SOL    HW220307   2.973   3.141   3.159  0.5890 -0.2771 -0.2255
 2949SOL     OW20308   1.709   2.948  14.825 -0.0476 -0.2111 -0.0273
 2949SOL    HW120309   1.799   2.959  14.857 -0.5902  0.4483  1.2592
 2949SOL    HW220310   1.702   3.029  14.774 -2.3623 -0.1160  0.4549
 2950SOL     OW20311   2.164   3.210   6.818  0.0188 -0.0121 -0.0382
 2950SOL    HW120312   2.237   3.244   6.767  1.8463 -0.3718  2.2987
 2950SOL    HW220313   2.136   3.142   6.758  3.7366 -0.5965 -1.1222
 2951SOL     OW20314   3.398   4.246   4.009 -0.5128  0.0302  0.1036
 2951SOL    HW120315   3.334   4.312   4.039  0.2934  0.5861  0.5955
 2951SOL    HW220316   3.420   4.215   4.096 -0.8831  1.1727  0.6128
 2952SOL     OW20317   1.624   2.608  13.264  0.2409 -0.0384 -0.3596
 2952SOL    HW120318   1.538   2.651  13.264  0.2922  0.0642 -0.3317
 2952SOL    HW220319   1.635   2.592  13.358 -0.1589 -0.9162 -0.4572
 2953SOL     OW20320   2.392   1.805  11.587  0.0662  0.1139 -0.9784
 2953SOL    HW120321   2.440   1.749  11.650 -1.5194  1.5792  1.5381
 2953SOL    HW220322   2.301   1.784  11.605  0.2475 -0.4445 -0.6941
 2954SOL     OW20323   3.856   0.181   9.662  0.1579  0.1639  0.0991
 2954SOL    HW120324   3.841   0.262   9.614  1.2714 -0.0308 -0.5761
 2954SOL    HW220325   3.793   0.185   9.734  0.4686  0.3277  0.3617
 2955SOL     OW20326   1.642   2.222   2.726 -0.3107  0.4907 -0.0889
 2955SOL    HW120327   1.562   2.238   2.776  0.2843  0.7922  0.7589
 2955SOL    HW220328   1.615   2.167   2.653 -0.4490 -0.8461  0.9626
 2956SOL     OW20329   1.221   0.440  13.865  0.1675 -0.1454 -0.2261
 2956SOL    HW120330   1.130   0.469  13.857  0.1538 -0.2385 -0.4257
 2956SOL    HW220331   1.227   0.437  13.960 -1.6843 -3.5303 -0.1866
 2957SOL     OW20332   0.701   1.061   5.219  0.3525 -0.3361 -0.3017
 2957SOL    HW120333   0.625   1.033   5.270 -0.0559 -0.1144 -0.7955
 2957SOL    HW220334   0.764   0.993   5.244  0.5927  0.1505  0.4171
 2958SOL     OW20335   3.253   1.072   3.852 -0.7025 -0.3414  0.3302
 2958SOL    HW120336   3.243   0.996   3.796 -2.8839  0.9527 -1.0572
 2958SOL    HW220337   3.295   1.044   3.933 -0.3851 -0.2145  0.2075
 2959SOL     OW20338   0.728   3.296   3.603  0.1978 -0.0520  0.9492
 2959SOL    HW120339   0.754   3.210   3.636  2.6327  0.5687  0.6019
 2959SOL    HW220340   0.731   3.353   3.679  0.0891  0.2640  0.7167
 2960SOL     OW20341   1.417   0.994   2.872  0.2995 -0.6566 -0.1989
 2960SOL    HW120342   1.427   0.950   2.787  0.0543  2.1582 -1.6911
 2960SOL    HW220343   1.336   0.950   2.901 -0.3152  1.3736  1.1047
 2961SOL     OW20344   0.360   3.771  15.904  0.4659 -0.0436  0.6084
 2961SOL    HW120345   0.287   3.833  15.897  0.6357  0.3463  2.2771
 2961SOL    HW220346   0.346   3.737  15.992 -0.9399 -1.5185 -0.1863
 2962SOL     OW20347   1.956   1.042   3.021 -0.2378 -0.1107  0.1253
 2962SOL    HW120348   1.896   0.996   2.963  1.3475 -0.3979 -1.2843
 2962SOL    HW220349   2.032   1.019   2.967 -0.5740 -0.5607 -0.1427
 2963SOL     OW20350   0.851   3.527   4.282 -0.2375  0.3855 -0.0672
 2963SOL    HW120351   0.897   3.491   4.357 -0.4251  0.3019  0.0067
 2963SOL    HW220352   0.758   3.511   4.299 -0.2744 -0.5754 -1.1092
 2964SOL     OW20353   2.050   1.641   6.156  0.9681 -0.1193 -0.0979
 2964SOL    HW120354   2.114   1.687   6.209  0.1040  0.2109  0.6627
 2964SOL    HW220355   2.059   1.549   6.180  0.7972  0.3924  1.8857
 2965SOL     OW20356   3.346   3.031   2.844  0.1318  0.1625  0.4765
 2965SOL    HW120357   3.343   3.030   2.940 -1.9635  1.2986  0.4323
 2965SOL    HW220358   3.441   3.044   2.841  0.0685  0.9710  1.7429
 2966SOL     OW20359   0.061   4.504   1.996  0.2134  0.8601  0.2172
 2966SOL    HW120360   0.118   4.558   2.050 -0.8628  0.2209  1.9778
 2966SOL    HW220361   4.714   4.478   2.061 -0.4098 -0.4489 -0.9209
 2967SOL     OW20362   1.968   0.576   2.296 -0.6163 -0.2153  0.4905
 2967SOL    HW120363   1.984   0.486   2.326  1.9134 -0.0001 -0.2373
 2967SOL    HW220364   2.037   0.621   2.344  0.3746  0.9201 -2.0045
 2968SOL     OW20365   3.162   4.297   3.470  0.6247 -0.1885  0.4307
 2968SOL    HW120366   3.124   4.208   3.468  0.7495 -0.2349  0.0531
 2968SOL    HW220367   3.087   4.356   3.467  1.0155  0.4693  4.2820
 2969SOL     OW20368   3.568   2.816   4.200 -0.7149 -0.3216  0.2062
 2969SOL    HW120369   3.644   2.790   4.252 -0.7839 -2.5600 -0.8018
 2969SOL    HW220370   3.521   2.733   4.190 -0.7831 -0.1952 -0.5511
 2970SOL     OW20371   2.873   3.755   4.848 -0.2408 -0.1904  0.0057
 2970SOL    HW120372   2.916   3.736   4.765  0.3255  1.2308 -0.0387
 2970SOL    HW220373   2.783   3.770   4.819  0.8797  1.2164 -2.7925
 2971SOL     OW20374   1.965   0.694   9.885  0.1174  0.5024  0.3158
 2971SOL    HW120375   1.995   0.606   9.862  1.3531  1.2623 -1.0263
 2971SOL    HW220376   1.961   0.730   9.797 -1.2557  0.9881  0.5870
 2972SOL     OW20377   4.412   2.392   6.183 -0.8180 -0.1111 -0.4135
 2972SOL    HW120378   4.473   2.364   6.116  0.8808 -1.1066  1.5367
 2972SOL    HW220379   4.403   2.488   6.180 -0.7194 -0.0807  0.1168
 2973SOL     OW20380   3.123   3.772   5.134 -0.0939 -0.6901  0.0320
 2973SOL    HW120381   3.163   3.707   5.076  0.0028  1.2525 -2.0786
 2973SOL    HW220382   3.179   3.850   5.123  0.1608 -0.3507  3.6701
 2974SOL     OW20383   0.892   1.931   4.825 -0.5887 -0.0309 -0.1038
 2974SOL    HW120384   0.945   1.980   4.888 -0.1382 -1.4515  0.6153
 2974SOL    HW220385   0.811   1.982   4.815 -1.1927 -1.0311 -0.2927
 2975SOL     OW20386   0.725   4.615  16.817  0.0545  0.2185  0.2634
 2975SOL    HW120387   0.791   4.644  16.880  0.1963  2.6666 -1.0079
 2975SOL    HW220388   0.665   4.690  16.825 -1.1018 -0.6898  0.1425
 2976SOL     OW20389   3.875   2.786   3.283 -0.2953 -0.0769  0.1662
 2976SOL    HW120390   3.808   2.853   3.269 -0.8438 -0.2982  1.7603
 2976SOL    HW220391   3.850   2.743   3.365  0.1995 -0.0931  0.3073
 2977SOL     OW20392   4.693   4.681   4.847  0.0913 -0.3150 -0.6725
 2977SOL    HW120393   4.610   4.666   4.801 -0.8473  0.6202  0.7239
 2977SOL    HW220394   0.008   4.593   4.864 -1.1716 -0.5833  0.4175
 2978SOL     OW20395   3.899   0.520   8.779 -0.0139  0.2639  0.0160
 2978SOL    HW120396   3.914   0.613   8.789 -1.8862  0.6796 -0.9161
 2978SOL    HW220397   3.981   0.478   8.804 -0.9613 -1.5030  0.1837
 2979SOL     OW20398   0.956   1.965   2.366  0.4392  0.1118 -0.1743
 2979SOL    HW120399   0.914   2.003   2.290 -0.2735 -1.1350 -0.4084
 2979SOL    HW220400   1.047   1.984   2.343  0.0950 -0.7411 -2.2459
 2980SOL     OW20401   3.868   3.482   1.230 -0.1219  0.4471 -0.3410
 2980SOL    HW120402   3.804   3.411   1.239 -2.0889  2.5164  1.8833
 2980SOL    HW220403   3.821   3.535   1.166  1.0583  0.8180 -0.9102
 2981SOL     OW20404   1.386   1.618   4.892  0.1239  0.0095  0.2347
 2981SOL    HW120405   1.444   1.691   4.868 -1.6434  1.2523 -0.2926
 2981SOL    HW220406   1.404   1.599   4.984 -2.5462 -1.1023  0.5140
 2982SOL     OW20407   0.347   0.905   3.883 -0.1705  0.7421 -0.4706
 2982SOL    HW120408   0.334   0.951   3.967 -2.3687  1.1749 -1.0603
 2982SOL    HW220409   0.324   0.815   3.907  4.1763  0.1423  1.6152
 2983SOL     OW20410   1.808   1.211   6.659  0.0265 -0.2167  0.1044
 2983SOL    HW120411   1.793   1.306   6.654 -0.4369 -0.3906 -1.7734
 2983SOL    HW220412   1.782   1.200   6.750  0.0054 -2.4854 -0.1671
 2984SOL     OW20413   4.264   4.476   5.806  0.1939  0.3791 -0.0015
 2984SOL    HW120414   4.260   4.567   5.834  1.0275  0.4250 -0.0444
 2984SOL    HW220415   4.170   4.461   5.800  0.5266 -1.3184 -0.8581
 2985SOL     OW20416   1.753   0.569   9.535  0.4600 -0.5316 -0.2307
 2985SOL    HW120417   1.776   0.644   9.590  0.0818 -1.0425  0.6235
 2985SOL    HW220418   1.814   0.574   9.462 -1.1395  2.6857 -1.3265
 2986SOL     OW20419   1.067   2.990   7.704  0.5113 -0.2027 -0.4140
 2986SOL    HW120420   1.127   2.970   7.776 -1.1517 -0.6133  0.8713
 2986SOL    HW220421   1.110   3.070   7.674  0.0001 -0.1741 -1.0501
 2987SOL     OW20422   2.701   1.573   0.966  0.3368  0.3267  0.1526
 2987SOL    HW120423   2.738   1.606   0.884 -1.2030 -0.6514 -0.9322
 2987SOL    HW220424   2.668   1.656   1.000  1.0131  1.0937 -1.0876
 2988SOL     OW20425   2.650   3.735   4.208  0.0190  0.3651  0.2089
 2988SOL    HW120426   2.575   3.762   4.261 -0.3379  0.7711 -0.4963
 2988SOL    HW220427   2.657   3.803   4.140 -0.7711  0.5816  0.3410
 2989SOL     OW20428   2.618   0.779   5.210  0.0838 -0.4132 -0.3736
 2989SOL    HW120429   2.628   0.869   5.242  1.3656 -0.7760  0.2451
 2989SOL    HW220430   2.530   0.790   5.173 -0.0911  0.8133  0.3957
 2990SOL     OW20431   2.115   1.760  11.701  0.2080 -0.1931 -0.1202
 2990SOL    HW120432   2.102   1.704  11.778  0.0862  0.8053  0.5782
 2990SOL    HW220433   2.033   1.750  11.652 -0.0756  1.2643  0.0711
 2991SOL     OW20434   0.179   0.524   9.286 -0.7473  0.4854  0.3030
 2991SOL    HW120435   0.162   0.438   9.247 -0.1239  1.7124 -2.6679
 2991SOL    HW220436   0.243   0.513   9.357  1.2821 -2.3810 -1.9426
 2992SOL     OW20437   2.437   0.480   3.119 -0.2737  0.0236 -0.2451
 2992SOL    HW120438   2.350   0.454   3.150 -0.9667  0.1485 -2.0542
 2992SOL    HW220439   2.440   0.575   3.134 -1.2552  0.1390 -0.7685
 2993SOL     OW20440   4.150   1.888  16.117 -0.1506 -0.4019 -0.0984
 2993SOL    HW120441   4.112   1.862  16.201  1.6735  1.4284  1.3163
 2993SOL    HW220442   4.078   1.898  16.055 -0.6432 -0.9171  0.3951
 2994SOL     OW20443   3.748   0.318   8.901 -0.1090  0.2734  0.0248
 2994SOL    HW120444   3.794   0.392   8.861 -0.6041  1.8360  2.3716
 2994SOL    HW220445   3.664   0.320   8.854 -0.2777  2.5701  0.3989
 2995SOL     OW20446   1.677   0.972  15.066  0.3310  0.0114 -0.1848
 2995SOL    HW120447   1.702   0.889  15.024 -0.6746 -0.6852  0.6098
 2995SOL    HW220448   1.604   0.952  15.124 -0.0040  2.2187  0.1368
 2996SOL     OW20449   3.089   4.499   8.843  0.5680  0.7545  0.0013
 2996SOL    HW120450   3.102   4.530   8.933 -3.6582 -1.5581  1.4126
 2996SOL    HW220451   3.075   4.585   8.805 -2.3038 -0.0832 -0.7790
 2997SOL     OW20452   3.243   3.852   1.365 -0.0735 -0.3921 -0.4738
 2997SOL    HW120453   3.161   3.815   1.400  0.1676 -0.4006  0.0795
 2997SOL    HW220454   3.241   3.944   1.390 -0.6345 -0.9984  1.6860
 2998SOL     OW20455   0.274   0.538   8.600  0.4203 -0.0499 -0.8975
 2998SOL    HW120456   0.265   0.609   8.536 -0.1249 -0.1026 -0.8807
 2998SOL    HW220457   0.194   0.494   8.571  1.2109 -2.4674  0.6375
 2999SOL     OW20458   1.005   2.731   4.931  0.7051  0.2148 -0.1129
 2999SOL    HW120459   0.932   2.711   4.990  2.5394 -1.6577  1.5135
 2999SOL    HW220460   1.045   2.802   4.981  0.5969  1.6732 -2.0988
 3000SOL     OW20461   0.960   0.928   6.859  0.2966 -0.6947  0.5775
 3000SOL    HW120462   0.925   1.000   6.911  0.4715 -1.1546  1.3328
 3000SOL    HW220463   0.881   0.875   6.851  0.3722 -0.7351  0.0654
 3001SOL     OW20464   2.932   3.124   0.395  0.5324 -0.4916 -0.6570
 3001SOL    HW120465   2.851   3.078   0.415  0.8705  0.4415  2.8446
 3001SOL    HW220466   2.956   3.076   0.316  0.1504  0.9562 -1.6548
 3002SOL     OW20467   2.975   3.901   7.760 -0.3200 -0.1724  0.3992
 3002SOL    HW120468   2.901   3.841   7.754 -1.1210  0.8860 -0.4014
 3002SOL    HW220469   2.933   3.975   7.716  1.5565  0.6126 -0.1027
 3003SOL     OW20470   0.437   1.616   7.367  0.2115  0.7449  0.1422
 3003SOL    HW120471   0.351   1.606   7.408  1.0413 -1.5632  1.3355
 3003SOL    HW220472   0.450   1.533   7.322  0.1085  2.0546 -2.2940
 3004SOL     OW20473   2.616   2.276  13.201 -0.3985  0.0017 -0.1193
 3004SOL    HW120474   2.630   2.361  13.242 -3.8379  0.9507 -0.8647
 3004SOL    HW220475   2.627   2.293  13.108  1.7099  1.4969  0.4148
 3005SOL     OW20476   1.553   4.359   8.978 -0.0907 -0.2602  0.4026
 3005SOL    HW120477   1.606   4.432   9.011  0.1476 -0.4633  0.4696
 3005SOL    HW220478   1.515   4.389   8.896 -0.2530  1.0310  0.9612
 3006SOL     OW20479   2.052   1.018   5.278 -0.3625  0.1068 -0.0239
 3006SOL    HW120480   2.048   1.022   5.373  1.6568  1.9139 -0.0156
 3006SOL    HW220481   2.018   1.104   5.255  0.8109  0.1316 -1.7545
 3007SOL     OW20482   2.034   0.969  10.121 -0.0646 -0.2380  0.0059
 3007SOL    HW120483   2.016   0.923  10.038  2.0475  0.9983 -1.1347
 3007SOL    HW220484   1.953   1.006  10.156  0.0887  1.5568 -1.5252
 3008SOL     OW20485   4.056   0.203   9.170 -0.0211  0.0553 -0.1598
 3008SOL    HW120486   3.989   0.269   9.190 -0.7684 -0.9259  0.5533
 3008SOL    HW220487   4.115   0.214   9.245  0.2883 -0.0199 -0.3934
 3009SOL     OW20488   1.591   3.677   8.030 -0.9007 -0.2885 -0.2104
 3009SOL    HW120489   1.528   3.689   8.100 -1.0362 -3.7640  0.2323
 3009SOL    HW220490   1.574   3.758   7.981 -0.3325  1.3072  2.2262
 3010SOL     OW20491   0.565   1.809   4.155  0.1049 -0.1939 -0.2272
 3010SOL    HW120492   0.649   1.840   4.191  2.2672 -3.3199 -2.5349
 3010SOL    HW220493   0.600   1.742   4.096 -0.2171 -2.4923  2.1803
 3011SOL     OW20494   0.366   2.346   7.979 -0.0505 -0.3927 -0.0427
 3011SOL    HW120495   0.363   2.442   7.982 -1.2383 -0.5860  3.8934
 3011SOL    HW220496   0.275   2.320   7.986  0.0800 -1.1558 -1.2677
 3012SOL     OW20497   0.534   3.886   3.187  0.5166  0.1324  1.0824
 3012SOL    HW120498   0.465   3.826   3.157  1.6395 -0.2605 -0.6682
 3012SOL    HW220499   0.474   3.958   3.208  2.7103  2.0244  0.8051
 3013SOL     OW20500   4.325   0.036   8.224  0.7827 -0.8639  0.1679
 3013SOL    HW120501   4.339   4.707   8.306 -1.5092  0.3367  1.2542
 3013SOL    HW220502   4.246   0.087   8.241  0.6707 -0.6805 -0.9112
 3014SOL     OW20503   2.637   1.541   8.502 -0.4958 -0.3672  0.1894
 3014SOL    HW120504   2.684   1.567   8.423 -0.6698 -0.9527 -0.1089
 3014SOL    HW220505   2.684   1.581   8.574  1.1819 -1.4521 -0.2995
 3015SOL     OW20506   3.285   4.672  15.871  0.0736 -0.2664  0.3934
 3015SOL    HW120507   3.351   4.609  15.901 -0.2104  0.7981  3.1797
 3015SOL    HW220508   3.326   0.032  15.907 -0.1395  0.5951 -1.2356
 3016SOL     OW20509   2.308   3.209  14.094 -0.1233 -0.7218 -0.0408
 3016SOL    HW120510   2.265   3.175  14.172 -0.6547 -2.5544 -1.1407
 3016SOL    HW220511   2.395   3.226  14.130 -0.3298 -0.5965  0.3977
 3017SOL     OW20512   1.532   0.478   9.180 -0.4197 -0.8086 -0.0910
 3017SOL    HW120513   1.517   0.567   9.210  1.2296 -1.2008  1.9176
 3017SOL    HW220514   1.616   0.499   9.138 -0.1660 -2.9208 -0.6530
 3018SOL     OW20515   2.365   1.110   5.637  0.0218  0.6076  0.0036
 3018SOL    HW120516   2.274   1.125   5.609 -0.7756 -2.2735  1.0250
 3018SOL    HW220517   2.408   1.180   5.588 -1.7525  0.6819 -1.4749
 3019SOL     OW20518   2.950   1.111   1.420 -0.6055 -0.0095 -0.0399
 3019SOL    HW120519   2.987   1.041   1.366 -1.2096 -0.1316 -0.2960
 3019SOL    HW220520   3.033   1.136   1.462 -1.9347  1.2015  1.8322
 3020SOL     OW20521   0.602   1.456   0.055  0.2381 -0.8317 -0.4828
 3020SOL    HW120522   0.572   1.462   0.146  2.7596  0.4263  0.2468
 3020SOL    HW220523   0.688   1.414   0.060 -0.3146 -1.5613  2.9974
 3021SOL     OW20524   3.405   0.660   3.049 -0.2917  0.1028  0.1083
 3021SOL    HW120525   3.444   0.738   3.010  2.6043 -0.9622  0.8975
 3021SOL    HW220526   3.328   0.651   2.993 -1.2028 -2.8685  1.8352
 3022SOL     OW20527   2.298   1.564  16.831  0.2542  0.5317 -0.4370
 3022SOL    HW120528   2.335   1.483  16.868  1.1087  0.9392 -0.3979
 3022SOL    HW220529   2.270   1.524  16.749  0.8013 -0.1492 -0.2997
 3023SOL     OW20530   3.472   3.983   6.320  0.5805  0.1222 -0.5447
 3023SOL    HW120531   3.517   4.037   6.255  0.1016  2.5458  1.1115
 3023SOL    HW220532   3.536   3.984   6.392 -2.3791 -0.3909  2.1198
 3024SOL     OW20533   0.840   3.539   8.585 -0.1158 -0.1094  0.2263
 3024SOL    HW120534   0.804   3.621   8.551  1.1710  0.2735 -0.2279
 3024SOL    HW220535   0.925   3.569   8.619 -0.7140  1.9951 -0.1526
 3025SOL     OW20536   0.396   3.761   6.116 -0.2305 -0.4912 -0.2450
 3025SOL    HW120537   0.317   3.736   6.164 -1.2968  2.0788 -0.6496
 3025SOL    HW220538   0.371   3.847   6.082  1.5678  0.2415  0.2732
 3026SOL     OW20539   1.236   0.440   6.232  0.1521 -0.3797  0.3704
 3026SOL    HW120540   1.306   0.499   6.204 -0.2865 -0.0615 -0.0583
 3026SOL    HW220541   1.181   0.500   6.282  1.7798  1.1236  0.3128
 3027SOL     OW20542   1.529   2.751  14.888  0.0052 -0.1146  0.0414
 3027SOL    HW120543   1.557   2.843  14.881 -0.4092  0.1447  1.8370
 3027SOL    HW220544   1.488   2.752  14.801  0.4575 -1.8017 -0.1841
 3028SOL     OW20545   3.685   3.972   1.497 -0.3780 -0.7253  0.8745
 3028SOL    HW120546   3.717   3.882   1.494 -0.2153 -0.7009  2.0197
 3028SOL    HW220547   3.764   4.026   1.487 -1.0275  0.4454  2.1291
 3029SOL     OW20548   3.276   1.468   2.398  0.5308  0.2990 -0.1626
 3029SOL    HW120549   3.288   1.541   2.337 -0.7830  0.4648 -0.2316
 3029SOL    HW220550   3.360   1.423   2.403  1.3143  1.8149  0.4835
 3030SOL     OW20551   2.798   1.068   6.786 -0.2573 -0.3112 -0.0124
 3030SOL    HW120552   2.793   1.006   6.713  2.9907 -0.9714  0.3698
 3030SOL    HW220553   2.870   1.125   6.759 -0.8158 -0.1674 -1.2047
 3031SOL     OW20554   0.376   4.450   9.154  0.9611 -0.5283 -0.1843
 3031SOL    HW120555   0.343   4.532   9.192 -0.6976 -1.1923 -0.2262
 3031SOL    HW220556   0.415   4.403   9.228  1.3896 -0.7906 -0.5827
 3032SOL     OW20557   3.770   2.277   4.451  0.2294 -0.0618 -0.3651
 3032SOL    HW120558   3.732   2.325   4.378  0.4747  2.3516  1.0887
 3032SOL    HW220559   3.729   2.193   4.429 -2.1030  1.0856 -0.2974
 3033SOL     OW20560   0.295   2.781   9.295  0.5380  0.2046 -0.2566
 3033SOL    HW120561   0.259   2.731   9.368  0.4238  0.4154 -0.1691
 3033SOL    HW220562   0.282   2.872   9.322  1.1698 -0.5254  2.4946
 3034SOL     OW20563   4.483   4.592  12.235 -0.0490  0.1626  0.2536
 3034SOL    HW120564   4.544   4.583  12.308  2.3607  0.5622 -1.7266
 3034SOL    HW220565   4.405   4.562  12.281 -0.3914  0.7048  0.0247
 3035SOL     OW20566   4.542   1.450   0.297 -0.0688  0.4165  0.1593
 3035SOL    HW120567   4.495   1.530   0.318  1.1986  0.6240  2.2265
 3035SOL    HW220568   4.468   1.397   0.269 -0.0754 -0.6576  2.1991
 3036SOL     OW20569   3.352   3.458   2.812  0.0440 -0.1267 -0.7217
 3036SOL    HW120570   3.334   3.419   2.897 -1.3632  1.9957 -0.0797
 3036SOL    HW220571   3.303   3.540   2.806  0.4369  0.3030  2.2942
 3037SOL     OW20572   1.211   1.896  11.709 -0.3389  0.0227  0.3239
 3037SOL    HW120573   1.229   1.910  11.616  0.7859 -2.2787  0.1853
 3037SOL    HW220574   1.119   1.871  11.702 -0.4662  0.7561 -0.5838
 3038SOL     OW20575   2.155   0.702   2.456  0.0091 -0.6369  0.5084
 3038SOL    HW120576   2.240   0.701   2.501 -0.1926 -0.7043  0.8848
 3038SOL    HW220577   2.121   0.789   2.475 -0.8068 -0.2873 -2.4862
 3039SOL     OW20578   3.146   3.231   2.670  0.3648  0.4197 -0.3691
 3039SOL    HW120579   3.131   3.279   2.589  2.0440  1.3135 -0.1491
 3039SOL    HW220580   3.222   3.280   2.704  0.9877 -1.0795  0.3985
 3040SOL     OW20581   1.480   0.942   6.942  0.3837 -0.0188  0.3272
 3040SOL    HW120582   1.401   0.888   6.949  1.4369 -1.6145  0.1197
 3040SOL    HW220583   1.485   0.948   6.847 -3.0076 -0.8794  0.1040
 3041SOL     OW20584   0.774   0.962   8.960  0.5191 -0.2452  0.5962
 3041SOL    HW120585   0.743   0.947   8.871  0.4530 -0.5560  0.6729
 3041SOL    HW220586   0.691   0.992   8.998 -0.6905 -0.4499 -1.9452
 3042SOL     OW20587   0.315   3.251   2.269  0.3721  0.1100  0.1513
 3042SOL    HW120588   0.297   3.318   2.203 -1.9623 -0.8624 -0.2127
 3042SOL    HW220589   0.339   3.180   2.210  0.0088  0.0165  0.1145
 3043SOL     OW20590   2.771   0.903  12.412 -0.3705 -0.6168  0.4855
 3043SOL    HW120591   2.847   0.915  12.468  0.4857 -1.4712 -0.5169
 3043SOL    HW220592   2.709   0.862  12.472 -0.0622  0.5124  1.5801
 3044SOL     OW20593   1.035   4.056  15.720 -0.2726 -0.7392  0.1389
 3044SOL    HW120594   1.034   4.139  15.768 -0.1784 -0.6493 -0.0178
 3044SOL    HW220595   0.942   4.044  15.703 -0.5418  0.5700  0.6686
 3045SOL     OW20596   0.092   0.918  11.166 -0.4129 -0.0256 -0.0684
 3045SOL    HW120597   0.064   0.849  11.106  2.2360 -0.2416 -1.0646
 3045SOL    HW220598   0.090   0.885  11.256 -0.7395  0.5056  0.1097
 3046SOL     OW20599   4.026   0.956  13.283  0.1344  0.4217 -0.5715
 3046SOL    HW120600   4.088   0.884  13.276  0.7383  0.5581  3.4481
 3046SOL    HW220601   4.068   1.018  13.223  3.2019 -0.1415  0.9958
 3047SOL     OW20602   0.673   4.592   3.856 -0.5668  0.2596  0.2097
 3047SOL    HW120603   0.637   4.504   3.869  0.4749 -0.4524 -1.6451
 3047SOL    HW220604   0.628   4.611   3.773 -0.3917  0.8196  0.2463
 3048SOL     OW20605   4.206   2.183   3.944  0.1383 -0.6501  0.0487
 3048SOL    HW120606   4.235   2.273   3.930 -0.1491 -0.5266  0.2502
 3048SOL    HW220607   4.282   2.144   3.987  0.6968  0.4932  0.1039
 3049SOL     OW20608   0.271   0.710  16.771 -0.4017  0.5068 -0.2542
 3049SOL    HW120609   0.231   0.637  16.819 -0.9233  1.0198  0.0840
 3049SOL    HW220610   0.209   0.728  16.701 -1.9865 -3.1864  0.2006
 3050SOL     OW20611   4.025   3.493   2.399  0.1767 -0.1092 -0.3801
 3050SOL    HW120612   4.091   3.425   2.382  0.3840 -0.5408  2.0542
 3050SOL    HW220613   4.077   3.541   2.464  2.5080 -1.2359 -1.3882
 3051SOL     OW20614   1.699   0.353   1.370  0.6117  0.2231  0.4756
 3051SOL    HW120615   1.698   0.264   1.336 -1.2050 -0.5633  2.5714
 3051SOL    HW220616   1.619   0.351   1.422  0.6464  2.1663  0.5860
 3052SOL     OW20617   3.139   0.282   3.579  0.0552 -0.1758 -0.4948
 3052SOL    HW120618   3.111   0.220   3.646 -0.6696  0.1471 -0.5003
 3052SOL    HW220619   3.192   0.231   3.517 -0.5667 -3.0178  1.3234
 3053SOL     OW20620   3.732   0.155  14.846 -0.1086  0.6915 -0.1030
 3053SOL    HW120621   3.647   0.171  14.886 -1.4679 -2.1455 -1.8535
 3053SOL    HW220622   3.751   0.075  14.897  2.1820  1.4761  0.3062
 3054SOL     OW20623   3.680   2.538   2.982 -0.0362 -0.5915  0.2341
 3054SOL    HW120624   3.592   2.503   2.991 -0.7981  1.2864  0.1809
 3054SOL    HW220625   3.683   2.572   2.893 -2.1320 -0.3532  0.2575
 3055SOL     OW20626   2.691   3.345   4.973  0.5069 -0.0516 -0.0237
 3055SOL    HW120627   2.618   3.328   5.032  1.2651 -0.1779  0.8763
 3055SOL    HW220628   2.733   3.418   5.017  1.1124  0.2032 -1.0253
 3056SOL     OW20629   1.900   3.439  14.472 -0.0340 -0.3488  0.2972
 3056SOL    HW120630   1.820   3.487  14.495 -0.5724 -0.1254 -2.1413
 3056SOL    HW220631   1.883   3.426  14.379 -2.5594 -1.1406  0.8925
 3057SOL     OW20632   0.431   3.426  16.232 -0.2565 -0.1813  0.5461
 3057SOL    HW120633   0.355   3.379  16.265  0.5125 -0.1416  2.3804
 3057SOL    HW220634   0.490   3.355  16.205  0.2327  0.0678  0.9504
 3058SOL     OW20635   3.055   2.887  10.755  0.8122 -0.1849 -0.3544
 3058SOL    HW120636   3.106   2.918  10.680 -0.2932 -0.9228 -1.4094
 3058SOL    HW220637   3.119   2.906  10.823  0.7351  1.4049 -0.7301
 3059SOL     OW20638   1.955   2.391   7.723 -0.0420  0.5687  0.1843
 3059SOL    HW120639   1.910   2.320   7.769 -0.9229 -0.8929 -2.9821
 3059SOL    HW220640   1.971   2.356   7.636  1.9518  2.3716 -0.1921
 3060SOL     OW20641   0.031   1.957   4.738  0.7083  0.1327  0.4268
 3060SOL    HW120642   0.042   1.910   4.655  0.3265 -0.6865  0.8490
 3060SOL    HW220643   4.680   1.898   4.766  0.3950  1.1902  1.8601
 3061SOL     OW20644   1.328   4.531  13.508  0.4909  0.0651 -0.3993
 3061SOL    HW120645   1.383   4.524  13.430  1.0003 -0.1423 -0.0228
 3061SOL    HW220646   1.290   4.443  13.503 -2.9446  1.4784  0.2933
 3062SOL     OW20647   4.367   4.279   5.952 -0.1150  0.1486  0.0117
 3062SOL    HW120648   4.333   4.302   6.039  0.0721  2.6135 -0.5666
 3062SOL    HW220649   4.335   4.356   5.905 -2.2147 -0.8416 -0.1932
 3063SOL     OW20650   0.320   0.197  17.530 -0.0926  0.0402  0.5826
 3063SOL    HW120651   0.302   0.291  17.531 -0.4003  0.0124 -0.9862
 3063SOL    HW220652   0.319   0.171  17.621 -1.4551 -0.6759  0.3665
 3064SOL     OW20653   0.698   1.432   9.569 -0.2251 -0.2312 -0.1355
 3064SOL    HW120654   0.743   1.454   9.651 -1.4789 -0.2386  0.5656
 3064SOL    HW220655   0.666   1.343   9.586 -1.0458 -0.1534 -1.2536
 3065SOL     OW20656   0.254   4.684   6.034 -0.5025  0.0533 -0.3099
 3065SOL    HW120657   0.297   0.049   6.050 -0.5356 -0.1101  0.6274
 3065SOL    HW220658   0.200   4.701   5.957  1.0094 -0.3067 -1.4546
 3066SOL     OW20659   3.621   4.665   6.898  0.7653  0.1122 -0.0681
 3066SOL    HW120660   3.711   4.662   6.929  0.9014 -0.0458 -0.4781
 3066SOL    HW220661   3.614   0.040   6.880 -0.6190  0.5204  2.6270
 3067SOL     OW20662   1.385   3.399   1.434 -0.0677 -0.1571 -0.1578
 3067SOL    HW120663   1.472   3.414   1.396  0.8215 -1.5396  1.3484
 3067SOL    HW220664   1.419   3.340   1.501 -2.3777  1.2512  2.2411
 3068SOL     OW20665   0.762   4.136  13.743 -0.1167  0.2885  0.3906
 3068SOL    HW120666   0.685   4.079  13.735 -0.2602  0.8661 -2.5968
 3068SOL    HW220667   0.751   4.191  13.820 -0.8639  0.2207  0.3349
 3069SOL     OW20668   4.661   3.755   3.842 -0.3235 -0.1454  0.0799
 3069SOL    HW120669   4.625   3.745   3.754 -2.8333 -0.7924  1.1929
 3069SOL    HW220670   4.616   3.692   3.898  0.1350  0.5664  1.2643
 3070SOL     OW20671   3.345   3.958  10.302  0.0253  0.1648 -0.4361
 3070SOL    HW120672   3.405   3.910  10.244  1.4572  0.7907  0.5348
 3070SOL    HW220673   3.410   3.977  10.369  1.6611  0.0601 -1.9928
 3071SOL     OW20674   2.247   2.951   3.465 -0.0638  0.2181 -0.4989
 3071SOL    HW120675   2.241   3.042   3.494  1.9788  0.1583  0.0626
 3071SOL    HW220676   2.164   2.954   3.416 -0.4244 -1.8044 -0.0170
 3072SOL     OW20677   0.450   1.804   9.023  0.1774 -0.0845 -0.7233
 3072SOL    HW120678   0.521   1.767   9.076 -1.2742 -0.3217  1.0763
 3072SOL    HW220679   0.391   1.838   9.090  0.4945 -2.3983  0.7306
 3073SOL     OW20680   0.147   1.055  14.484 -0.6771  0.3646 -0.4627
 3073SOL    HW120681   0.227   1.093  14.521  0.3925 -1.1868 -1.2096
 3073SOL    HW220682   0.097   1.061  14.565  0.7908  1.0663  0.4043
 3074SOL     OW20683   1.788   4.493   7.725  0.0617  0.1813  0.3701
 3074SOL    HW120684   1.744   4.440   7.658  0.5311 -0.4217  0.5400
 3074SOL    HW220685   1.734   4.489   7.804 -0.3970  3.8308  0.2318
 3075SOL     OW20686   4.182   4.557  15.771 -0.3435 -0.4462  0.4357
 3075SOL    HW120687   4.143   4.635  15.731 -0.1936  0.2722  1.6912
 3075SOL    HW220688   4.208   4.508  15.694 -2.2662 -0.6495 -0.0864
 3076SOL     OW20689   1.339   3.102   2.503 -0.2036 -0.3713  0.0645
 3076SOL    HW120690   1.306   3.041   2.437  0.1054  1.8290 -2.1274
 3076SOL    HW220691   1.271   3.097   2.570  0.7472 -0.7633  0.9990
 3077SOL     OW20692   1.755   2.293   4.598 -0.0992 -0.2263  0.4433
 3077SOL    HW120693   1.708   2.224   4.646 -2.2349  0.6634 -0.3355
 3077SOL    HW220694   1.748   2.370   4.654 -0.6681  1.3249 -1.7751
 3078SOL     OW20695   0.386   3.388  14.351 -0.0609 -0.0646 -0.6550
 3078SOL    HW120696   0.354   3.405  14.262  0.6717 -1.6692 -1.2326
 3078SOL    HW220697   0.329   3.315  14.374 -0.6926  1.5116  2.7607
 3079SOL     OW20698   3.888   2.060  11.231 -0.4597  0.1791 -0.2676
 3079SOL    HW120699   3.933   2.005  11.167 -1.4898 -1.5904  0.5289
 3079SOL    HW220700   3.847   1.999  11.292  0.0704 -0.6925 -0.7956
 3080SOL     OW20701   2.018   3.304   4.172 -0.0652  0.4026 -0.3430
 3080SOL    HW120702   1.976   3.375   4.220  0.0682  1.5647 -1.9328
 3080SOL    HW220703   2.082   3.275   4.236 -0.4411  0.4974  0.0729
 3081SOL     OW20704   1.360   0.908   5.214 -0.5225  0.7988 -0.1469
 3081SOL    HW120705   1.267   0.930   5.222 -0.9149 -1.2022  0.7281
 3081SOL    HW220706   1.390   0.998   5.205  1.4030  0.1043 -0.8342
 3082SOL     OW20707   4.375   3.539  11.669 -0.6074  0.3915  0.2661
 3082SOL    HW120708   4.418   3.617  11.706 -1.3049  2.1183 -2.5837
 3082SOL    HW220709   4.282   3.559  11.677 -0.4595  0.5037  1.7327
 3083SOL     OW20710   3.378   3.624  17.578  0.2427 -0.0274 -0.8046
 3083SOL    HW120711   3.362   3.666  17.494 -0.0212  0.5789 -0.4452
 3083SOL    HW220712   3.467   3.655  17.593  1.0882 -2.1809 -1.2565
 3084SOL     OW20713   1.811   1.765   5.174  0.3741  0.0881  0.1135
 3084SOL    HW120714   1.783   1.795   5.087 -0.2243  0.4378  0.4268
 3084SOL    HW220715   1.873   1.835   5.194 -1.6361  1.9221 -0.0301
 3085SOL     OW20716   2.959   3.137   0.017  0.3394 -0.0107 -0.2072
 3085SOL    HW120717   2.901   3.207  17.663  0.4037 -0.3405 -1.0982
 3085SOL    HW220718   2.932   3.068  17.632 -2.8895  0.2250  0.9492
 3086SOL     OW20719   0.262   1.623   2.032 -0.5120  0.3341 -0.2228
 3086SOL    HW120720   0.255   1.701   2.087 -0.6658  0.2227 -0.0830
 3086SOL    HW220721   0.263   1.557   2.101 -2.2575 -0.7897 -1.2638
 3087SOL     OW20722   2.383   1.961   1.207  0.3557  0.9218  0.5038
 3087SOL    HW120723   2.366   2.025   1.276 -3.1943 -1.0259  1.4463
 3087SOL    HW220724   2.415   2.013   1.132 -1.4928 -0.2117 -1.0696
 3088SOL     OW20725   2.652   3.508  11.397 -0.2377 -0.0993  0.0725
 3088SOL    HW120726   2.571   3.468  11.364  0.8331 -0.1535 -2.5467
 3088SOL    HW220727   2.615   3.532  11.482 -0.2157  0.4710 -0.0770
 3089SOL     OW20728   0.354   0.675   4.292  0.3749 -0.3148 -0.1074
 3089SOL    HW120729   0.288   0.717   4.236  0.0289  1.2398  1.4635
 3089SOL    HW220730   0.400   0.753   4.322 -1.2632  1.3405 -1.8486
 3090SOL     OW20731   3.075   0.973   1.182  0.3515  0.1333  0.1891
 3090SOL    HW120732   3.164   0.999   1.204  0.1440 -1.0225  2.3290
 3090SOL    HW220733   3.087   0.882   1.156  0.0671 -0.5673  2.5076
 3091SOL     OW20734   1.144   0.785  11.002 -0.3503  0.0936  0.0146
 3091SOL    HW120735   1.224   0.732  11.000 -0.2708  0.2735 -2.1440
 3091SOL    HW220736   1.091   0.734  11.063  0.7367  2.5758  2.9994
 3092SOL     OW20737   4.531   0.223  16.195  0.4842  0.6418  0.0048
 3092SOL    HW120738   4.609   0.244  16.248  1.8430  0.0151 -1.7536
 3092SOL    HW220739   4.475   0.298  16.213  0.9747  0.9162  0.4183
 3093SOL     OW20740   1.113   0.010   3.983  0.4931 -0.2576  0.8026
 3093SOL    HW120741   1.194   4.683   3.960 -0.0234 -0.8697  0.1883
 3093SOL    HW220742   1.049   4.665   3.950  0.2530  0.0498  0.6745
 3094SOL     OW20743   2.177   0.205   8.515 -0.1867 -0.0537  0.1165
 3094SOL    HW120744   2.251   0.264   8.525  0.5656 -0.5180 -2.8360
 3094SOL    HW220745   2.201   0.150   8.440  1.1626  0.9734 -0.2062
 3095SOL     OW20746   0.000   3.190   3.144  0.2392  0.0383 -0.3529
 3095SOL    HW120747   4.626   3.209   3.160 -0.2940 -2.4822 -0.5472
 3095SOL    HW220748   0.015   3.097   3.131  0.0071 -0.1787  0.9658
 3096SOL     OW20749   4.587   3.028   0.544 -0.1975 -0.4859  0.3463
 3096SOL    HW120750   4.679   3.003   0.544 -0.2524 -0.6930  0.9025
 3096SOL    HW220751   4.583   3.084   0.620 -1.9442 -1.2896  0.8536
 3097SOL     OW20752   3.890   0.246  17.228 -0.3696  0.1437  0.5276
 3097SOL    HW120753   3.964   0.304  17.213 -0.1347 -0.1619  0.4946
 3097SOL    HW220754   3.815   0.283  17.181  0.6291  0.5261 -0.7771
 3098SOL     OW20755   3.261   3.715   2.941  0.4183  0.2044  0.7246
 3098SOL    HW120756   3.168   3.739   2.951 -0.2971 -1.5046 -1.7658
 3098SOL    HW220757   3.309   3.769   3.003  2.9691 -0.7667 -0.4041
 3099SOL     OW20758   1.732   0.836   6.368 -0.5151 -0.4648  0.2838
 3099SOL    HW120759   1.765   0.917   6.408  0.2961  1.1484 -3.6497
 3099SOL    HW220760   1.638   0.855   6.371 -0.2735  0.3428  2.8595
 3100SOL     OW20761   4.570   0.691  12.778  0.3736 -0.0354 -0.3298
 3100SOL    HW120762   4.481   0.701  12.746  0.7296 -2.1933 -1.9894
 3100SOL    HW220763   4.565   0.718  12.870  0.7924 -2.5827  0.4405
 3101SOL     OW20764   3.411   1.478   5.667  0.1656  0.7835 -0.5990
 3101SOL    HW120765   3.371   1.463   5.753  1.1740 -1.3875 -0.4948
 3101SOL    HW220766   3.493   1.516   5.699  1.0585 -3.1821  1.9674
 3102SOL     OW20767   2.163   0.416  17.579  0.0564 -0.2327 -0.3328
 3102SOL    HW120768   2.111   0.336  17.587  0.3281 -0.2717  1.0136
 3102SOL    HW220769   2.225   0.411  17.652 -0.4495  1.1225  0.1882
 3103SOL     OW20770   2.992   0.167  10.567 -0.4791 -0.0795 -0.3292
 3103SOL    HW120771   3.032   0.128  10.489 -1.9547 -0.5721 -0.8479
 3103SOL    HW220772   2.969   0.250  10.527  1.4797  1.5738  2.0025
 3104SOL     OW20773   3.884   0.786   6.583  0.1522  0.0383  0.0823
 3104SOL    HW120774   3.840   0.716   6.534 -0.2651  0.3017  0.0772
 3104SOL    HW220775   3.839   0.787   6.667  0.2964 -1.1320  0.1786
 3105SOL     OW20776   3.311   0.193   5.744 -0.1933 -0.0923  0.1976
 3105SOL    HW120777   3.227   0.184   5.700  0.4359  1.1849 -1.2283
 3105SOL    HW220778   3.297   0.265   5.806  0.5901  0.1167  0.1361
 3106SOL     OW20779   4.274   2.600   2.675  0.3047 -0.3143  0.3998
 3106SOL    HW120780   4.342   2.660   2.705 -0.4126 -0.0040  1.4265
 3106SOL    HW220781   4.313   2.513   2.671  0.8066 -0.0396 -0.6534
 3107SOL     OW20782   1.133   3.144   1.893  0.0879  0.2170 -0.5111
 3107SOL    HW120783   1.202   3.186   1.944 -1.4106 -0.2800  1.8833
 3107SOL    HW220784   1.148   3.054   1.921 -0.9455  0.0543 -0.4687
 3108SOL     OW20785   1.206   0.630   7.237  0.1280 -0.5956 -0.1148
 3108SOL    HW120786   1.121   0.675   7.232 -0.2852 -1.5080 -1.1137
 3108SOL    HW220787   1.238   0.658   7.323  0.0520 -0.7855 -0.0253
 3109SOL     OW20788   2.711   1.601   9.581 -0.0979 -0.0263  0.0515
 3109SOL    HW120789   2.776   1.667   9.558  0.9833 -1.0435  0.1643
 3109SOL    HW220790   2.692   1.628   9.671  3.0403 -0.5572  0.8687
 3110SOL     OW20791   3.544   4.213   4.269 -0.4758 -0.2488 -0.2674
 3110SOL    HW120792   3.631   4.192   4.236  0.0230  1.8018 -0.2610
 3110SOL    HW220793   3.556   4.288   4.327 -1.3243  0.4666 -1.0169
 3111SOL     OW20794   1.442   2.958   5.687 -0.1049  0.4750 -0.0300
 3111SOL    HW120795   1.500   2.959   5.762  1.1677 -0.9550 -0.9883
 3111SOL    HW220796   1.402   3.045   5.691 -1.0971 -0.0183  0.9810
 3112SOL     OW20797   4.345   2.562   1.924 -0.1264  0.4649  0.0678
 3112SOL    HW120798   4.280   2.608   1.870 -0.5020 -0.7985 -0.5540
 3112SOL    HW220799   4.418   2.549   1.864 -0.3726 -0.1316 -0.1040
 3113SOL     OW20800   4.341   1.066   5.591  0.2988  0.0313  0.3891
 3113SOL    HW120801   4.426   1.039   5.557 -0.1516 -0.9387  0.0164
 3113SOL    HW220802   4.359   1.051   5.684 -2.5393 -0.5701  0.8486
 3114SOL     OW20803   0.039   0.838  10.903 -0.0747 -0.2618 -0.5777
 3114SOL    HW120804   0.054   0.888  10.822  0.9305  1.5759  0.7366
 3114SOL    HW220805   0.042   0.747  10.874  1.0449 -0.8517  1.3938
 3115SOL     OW20806   2.686   3.527   0.957  0.2361 -0.3265  0.6321
 3115SOL    HW120807   2.718   3.534   1.047  1.7058  4.2098 -0.2598
 3115SOL    HW220808   2.595   3.556   0.957 -0.4517 -2.4570  1.8905
 3116SOL     OW20809   3.166   2.884   3.494 -0.2924  0.4978 -0.2609
 3116SOL    HW120810   3.098   2.846   3.439  0.6759 -2.0650  0.3015
 3116SOL    HW220811   3.147   2.978   3.504 -1.7557 -0.1546  2.8575
 3117SOL     OW20812   1.064   1.119   3.952  1.0195 -0.0743  0.2955
 3117SOL    HW120813   1.131   1.087   3.890  1.0508 -0.4931  0.5484
 3117SOL    HW220814   0.988   1.136   3.896  1.8778  2.1809 -0.1944
 3118SOL     OW20815   4.015   2.215   6.160 -0.8595 -0.1267  0.2003
 3118SOL    HW120816   4.105   2.182   6.163  0.8375  4.3720 -0.5790
 3118SOL    HW220817   4.031   2.308   6.145  0.4055 -0.2939  0.5012
 3119SOL     OW20818   0.861   0.207   9.950 -0.7897 -0.4542  0.4064
 3119SOL    HW120819   0.931   0.244  10.004  0.6611 -1.7472 -0.5879
 3119SOL    HW220820   0.874   0.112   9.945 -0.5973 -0.4460  0.7376
 3120SOL     OW20821   3.674   0.175  17.422  0.5669  0.3884  0.7846
 3120SOL    HW120822   3.741   0.210  17.364 -1.6615  0.6201 -1.6236
 3120SOL    HW220823   3.731   0.140  17.491  0.4589 -0.7354  0.2994
 3121SOL     OW20824   2.573   0.304   2.977 -0.2245 -0.3060 -0.0369
 3121SOL    HW120825   2.510   0.238   3.004 -1.3509  0.5588 -0.5579
 3121SOL    HW220826   2.546   0.380   3.029 -0.1345  0.4896 -1.1403
 3122SOL     OW20827   0.647   2.295   1.471 -0.5553  0.6161  0.2973
 3122SOL    HW120828   0.557   2.312   1.497 -1.0351 -1.3845 -0.0708
 3122SOL    HW220829   0.641   2.278   1.377  0.4809 -2.6898  0.7996
 3123SOL     OW20830   3.832   0.365   3.746  0.0610 -0.4471  0.3258
 3123SOL    HW120831   3.811   0.454   3.774  0.4075 -0.6057  1.0852
 3123SOL    HW220832   3.864   0.383   3.657  0.0867  1.6962  0.7873
 3124SOL     OW20833   2.796   3.519   8.540  0.2671  0.6784 -0.1080
 3124SOL    HW120834   2.851   3.462   8.486  1.7134 -1.0811  3.2659
 3124SOL    HW220835   2.840   3.506   8.624  0.6536 -1.5028 -0.6651
 3125SOL     OW20836   1.871   0.321   4.845  0.0021  0.0973  0.3783
 3125SOL    HW120837   1.895   0.403   4.802  0.0158  0.3471  0.8559
 3125SOL    HW220838   1.795   0.347   4.898  0.7062  0.0467  1.4214
 3126SOL     OW20839   1.498   1.402  12.513  0.7882  0.2656  0.2249
 3126SOL    HW120840   1.473   1.474  12.456  2.2028  0.0579 -0.6556
 3126SOL    HW220841   1.415   1.385  12.558 -0.5407  0.3482 -2.1735
 3127SOL     OW20842   2.342   1.577   2.625  0.3828 -0.2242 -0.2811
 3127SOL    HW120843   2.338   1.496   2.575 -0.0379 -0.4218  0.0752
 3127SOL    HW220844   2.280   1.643   2.593 -0.6502  0.0335  2.2039
 3128SOL     OW20845   0.076   2.539   7.631  0.6177  0.3548  0.0169
 3128SOL    HW120846   0.168   2.563   7.640  0.5558  0.5715  0.0733
 3128SOL    HW220847   0.096   2.448   7.609  0.5641  0.7160 -1.5003
 3129SOL     OW20848   3.290   3.423  12.168 -0.6620 -0.2646 -0.4057
 3129SOL    HW120849   3.200   3.452  12.181 -0.9025 -1.7389  1.1865
 3129SOL    HW220850   3.319   3.484  12.100 -0.7124 -0.1514 -0.3261
 3130SOL     OW20851   1.284   0.358   9.101  0.4725  0.1668 -0.0532
 3130SOL    HW120852   1.355   0.412   9.134 -0.3652  0.8425  0.6418
 3130SOL    HW220853   1.269   0.403   9.019  0.2120  1.2508  0.5943
 3131SOL     OW20854   3.833   3.833   5.280  0.5924 -0.2799  0.4524
 3131SOL    HW120855   3.868   3.769   5.218  3.4903  0.8400  0.9527
 3131SOL    HW220856   3.776   3.777   5.333  2.5020 -0.0770  2.6912
 3132SOL     OW20857   2.532   1.441   2.877  0.2594  0.3347  0.1355
 3132SOL    HW120858   2.558   1.465   2.788 -0.7440  3.3839  0.6715
 3132SOL    HW220859   2.617   1.450   2.921  0.2160 -0.4818  0.3827
 3133SOL     OW20860   0.186   1.835   6.449 -0.4037 -0.0983  0.2905
 3133SOL    HW120861   0.142   1.758   6.484 -1.0016  0.2656  0.3520
 3133SOL    HW220862   0.203   1.795   6.363  0.9885  0.0821  0.4925
 3134SOL     OW20863   3.843   0.541  12.570  0.1267 -0.0709  0.0439
 3134SOL    HW120864   3.835   0.581  12.657 -1.2207 -0.8435  0.2647
 3134SOL    HW220865   3.807   0.607  12.510  1.1524  1.8106  1.4686
 3135SOL     OW20866   4.566   4.308   7.304 -0.6050 -0.3009  0.3186
 3135SOL    HW120867   4.650   4.338   7.269 -0.7615 -0.8247 -0.5146
 3135SOL    HW220868   4.588   4.276   7.392  3.8857 -1.3703 -1.1670
 3136SOL     OW20869   3.093   3.216   6.853  0.1720 -0.0540  0.7182
 3136SOL    HW120870   3.051   3.144   6.807  1.1457 -0.3695  0.3244
 3136SOL    HW220871   3.166   3.237   6.795  1.4449 -4.0560  0.8301
 3137SOL     OW20872   1.139   4.556   7.166 -0.0537  0.3271  0.2366
 3137SOL    HW120873   1.054   4.587   7.197 -0.7935 -1.1470 -0.3326
 3137SOL    HW220874   1.167   4.638   7.125  1.7806 -0.4403 -0.0411
 3138SOL     OW20875   2.416   1.211   5.312 -0.1734  0.5527 -0.7070
 3138SOL    HW120876   2.325   1.223   5.341 -1.5419 -0.0818 -4.6946
 3138SOL    HW220877   2.466   1.257   5.379 -0.2945  1.0321 -0.9446
 3139SOL     OW20878   0.597   4.503  14.068  0.3901  0.6901  0.0148
 3139SOL    HW120879   0.669   4.522  14.008  1.2382  0.2073  0.8779
 3139SOL    HW220880   0.627   4.544  14.149 -2.1125 -0.9080  1.7454
 3140SOL     OW20881   1.103   2.983   4.267 -0.6056  0.0971 -0.4322
 3140SOL    HW120882   1.010   2.961   4.254 -0.3156 -0.6225 -1.2672
 3140SOL    HW220883   1.121   2.956   4.356  1.8672 -0.0655 -0.9962
 3141SOL     OW20884   1.060   3.744  17.261 -0.1716 -0.6128 -0.3525
 3141SOL    HW120885   1.137   3.784  17.220  0.4181 -0.9477  0.4328
 3141SOL    HW220886   0.998   3.818  17.255  0.1738 -0.5117 -2.4808
 3142SOL     OW20887   0.152   3.285   5.054  0.2221  0.1628 -0.4262
 3142SOL    HW120888   0.223   3.316   4.997 -0.2665  0.2747 -0.9785
 3142SOL    HW220889   0.131   3.368   5.096 -0.2969 -0.0303 -0.3045
 3143SOL     OW20890   3.606   1.482   2.187  0.4564  0.1620 -0.2370
 3143SOL    HW120891   3.534   1.538   2.215  0.8813  0.5071  0.1764
 3143SOL    HW220892   3.669   1.495   2.259  1.6250 -0.3710 -1.1674
 3144SOL     OW20893   1.254   3.329   7.916 -0.0123 -0.3340 -0.5930
 3144SOL    HW120894   1.234   3.407   7.968  1.0914 -1.0991  0.9705
 3144SOL    HW220895   1.332   3.367   7.875  0.8624 -2.2818 -0.7418
 3145SOL     OW20896   1.432   2.838   6.907  0.4353  0.0368 -0.2613
 3145SOL    HW120897   1.431   2.899   6.981  0.4766 -0.5416  0.2142
 3145SOL    HW220898   1.468   2.876   6.827 -2.4075  0.9587 -1.0952
 3146SOL     OW20899   1.186   3.090   9.008 -0.4449 -0.7751  0.0829
 3146SOL    HW120900   1.168   3.182   8.987  0.1110 -0.9180 -1.0267
 3146SOL    HW220901   1.101   3.048   8.993 -0.5852 -0.9312  1.2635
 3147SOL     OW20902   0.294   4.306   5.640 -0.5816 -0.5207  0.5797
 3147SOL    HW120903   0.259   4.311   5.730  0.3409 -2.4374  1.0300
 3147SOL    HW220904   0.204   4.300   5.609 -0.5013  0.7287  0.0989
 3148SOL     OW20905   4.578   4.703   3.774 -0.3302  0.1526 -0.1548
 3148SOL    HW120906   4.565   0.078   3.754 -2.7495 -0.5495 -1.8946
 3148SOL    HW220907   4.656   4.686   3.720 -1.2717  0.5947 -1.6537
 3149SOL     OW20908   0.544   2.681   3.791  0.2043 -0.1172 -0.8770
 3149SOL    HW120909   0.463   2.638   3.818  1.5481 -1.0787  1.5680
 3149SOL    HW220910   0.558   2.646   3.703 -1.7372  0.1236 -1.2939
 3150SOL     OW20911   1.682   0.870  14.614 -0.0493 -0.1871  0.0561
 3150SOL    HW120912   1.677   0.961  14.582  1.5829 -0.8186 -1.9825
 3150SOL    HW220913   1.662   0.831  14.529 -0.7220 -0.3329  0.2786
 3151SOL     OW20914   3.054   1.762   2.465  0.6171  0.0855 -0.0341
 3151SOL    HW120915   3.144   1.794   2.468  0.0714  1.6286 -0.2799
 3151SOL    HW220916   3.011   1.847   2.475  0.2347 -0.1600  0.4213
 3152SOL     OW20917   0.456   3.689   5.212  0.4772 -0.0259  0.0631
 3152SOL    HW120918   0.548   3.711   5.196 -0.0598  1.3193 -1.1231
 3152SOL    HW220919   0.424   3.669   5.124  1.3920  2.2426 -0.7919
 3153SOL     OW20920   0.210   0.862  13.825 -0.2442 -0.3355 -0.2540
 3153SOL    HW120921   0.180   0.862  13.734  0.7484  0.6327 -0.5810
 3153SOL    HW220922   0.130   0.892  13.870  0.8856  2.8141 -0.3225
 3154SOL     OW20923   3.057   0.769   3.094 -0.0141 -0.2394  0.0320
 3154SOL    HW120924   2.981   0.797   3.042 -0.3658 -2.0934 -0.4265
 3154SOL    HW220925   3.110   0.715   3.035 -0.5410  0.6038 -1.2296
 3155SOL     OW20926   2.663   2.927   0.440  0.0950  0.5013  0.1241
 3155SOL    HW120927   2.572   2.915   0.412 -0.1785 -0.0718  1.2563
 3155SOL    HW220928   2.716   2.906   0.363  0.7608  0.0327  0.7085
 3156SOL     OW20929   0.766   4.001   6.920 -0.2029 -0.3339  0.7946
 3156SOL    HW120930   0.842   3.968   6.969 -0.2355  0.1429  1.1720
 3156SOL    HW220931   0.762   4.090   6.956 -1.1945 -0.4586  0.9768
 3157SOL     OW20932   2.029   4.103   4.673 -0.0956  0.5661  0.1784
 3157SOL    HW120933   2.040   4.179   4.617  1.1694  0.5772  0.4453
 3157SOL    HW220934   1.968   4.051   4.621  0.7765 -0.1330 -0.1333
 3158SOL     OW20935   2.044   0.674   9.003 -0.7442  0.1091 -0.5587
 3158SOL    HW120936   2.059   0.597   9.059  1.0623  1.1787  0.4417
 3158SOL    HW220937   2.095   0.744   9.044  0.8048 -0.8827 -0.7968
 3159SOL     OW20938   3.875   1.593  13.161  0.2780 -0.9536  0.6214
 3159SOL    HW120939   3.811   1.569  13.093 -2.8049  1.6757  2.6378
 3159SOL    HW220940   3.815   1.629  13.225  0.6949 -0.4249  0.7154
 3160SOL     OW20941   1.317   0.799  16.485 -0.1229  0.2341  0.1077
 3160SOL    HW120942   1.223   0.810  16.468 -0.5760 -2.9008  0.7298
 3160SOL    HW220943   1.339   0.857  16.558 -1.2621  2.7167 -1.4946
 3161SOL     OW20944   1.993   0.072   4.316 -0.1580  0.1520  0.0388
 3161SOL    HW120945   2.087   0.084   4.324  0.1175 -0.4460 -2.4596
 3161SOL    HW220946   1.961   0.157   4.285  0.9102  0.9382  1.0725
 3162SOL     OW20947   0.402   2.322   1.897  0.1958 -0.8381  0.2518
 3162SOL    HW120948   0.479   2.313   1.953 -1.8954  0.9766  3.4172
 3162SOL    HW220949   0.408   2.408   1.857 -1.4397 -1.0382 -0.4164
 3163SOL     OW20950   2.998   0.246  11.257  0.1764  0.3541 -0.0326
 3163SOL    HW120951   3.093   0.253  11.270  0.0885  2.3547 -0.3661
 3163SOL    HW220952   3.000   0.197  11.175  0.9265 -2.3013  1.6031
 3164SOL     OW20953   2.324   0.305   0.922  0.2834 -0.1934  0.0980
 3164SOL    HW120954   2.272   0.296   0.842 -0.9515  0.2815  0.8546
 3164SOL    HW220955   2.349   0.397   0.911 -0.9085  0.1597  0.4342
 3165SOL     OW20956   0.772   3.863   5.582  0.0108 -0.0425  0.4462
 3165SOL    HW120957   0.831   3.927   5.622 -0.0740 -0.2683  0.9387
 3165SOL    HW220958   0.695   3.871   5.639 -0.6604 -0.2558 -0.4241
 3166SOL     OW20959   4.066   4.076   1.208  0.3188 -0.1375  0.6286
 3166SOL    HW120960   4.124   4.138   1.163 -2.6543 -0.2315 -3.3603
 3166SOL    HW220961   3.980   4.103   1.174  0.2566  0.3100  1.1446
 3167SOL     OW20962   0.019   1.464   9.132  0.5565 -0.4183 -0.1083
 3167SOL    HW120963   0.067   1.388   9.102  0.0648 -0.9157  0.3559
 3167SOL    HW220964   4.688   1.411   9.195  1.9999 -2.2195 -0.5125
 3168SOL     OW20965   0.320   2.526   9.951 -0.2288  0.1943 -0.1583
 3168SOL    HW120966   0.352   2.575   9.875 -1.1801 -2.0236 -2.0058
 3168SOL    HW220967   0.258   2.593   9.978  0.8504  1.3924 -0.6419
 3169SOL     OW20968   0.406   1.404  15.047  0.2545 -0.0224 -0.1278
 3169SOL    HW120969   0.469   1.474  15.066  0.1982  0.0412 -0.1725
 3169SOL    HW220970   0.450   1.357  14.976  1.8393 -0.1540  0.9351
 3170SOL     OW20971   1.961   0.550   8.092  0.3870 -0.0534 -0.3351
 3170SOL    HW120972   1.918   0.543   8.178  0.6170  0.0951 -0.2086
 3170SOL    HW220973   2.054   0.550   8.112 -0.0415 -0.9165  1.6631
 3171SOL     OW20974   3.103   0.252  16.673  0.0551 -0.0747  0.2394
 3171SOL    HW120975   3.157   0.316  16.720  0.1908  0.1537 -0.2364
 3171SOL    HW220976   3.042   0.316  16.636  0.2403  0.8309  1.4850
 3172SOL     OW20977   3.640   2.193  11.154 -0.7622 -0.3101 -0.1462
 3172SOL    HW120978   3.718   2.166  11.106 -1.3697  1.3470 -2.0457
 3172SOL    HW220979   3.574   2.131  11.124  0.8678 -0.5794 -3.1610
 3173SOL     OW20980   0.997   1.887   9.201 -0.0852  0.6548  0.4318
 3173SOL    HW120981   0.973   1.821   9.136  1.6280 -1.1151  1.5888
 3173SOL    HW220982   0.926   1.883   9.265  0.2267 -1.7372  0.6430
 3174SOL     OW20983   2.156   1.415   9.004  0.1339 -0.0752 -0.5736
 3174SOL    HW120984   2.212   1.399   9.080 -1.1114 -0.5168  0.2572
 3174SOL    HW220985   2.082   1.357   9.025 -0.9187  1.0441 -1.1589
 3175SOL     OW20986   1.778   3.926   4.035  0.0682  0.2102 -0.0316
 3175SOL    HW120987   1.751   3.834   4.040  1.1364 -0.1381 -0.6500
 3175SOL    HW220988   1.866   3.933   4.072  0.5014  0.3329 -1.0596
 3176SOL     OW20989   1.196   0.426   8.033 -0.4540 -0.1732  0.6428
 3176SOL    HW120990   1.240   0.477   8.102  2.8943  1.8381 -2.9375
 3176SOL    HW220991   1.266   0.439   7.968 -1.9124  2.8388 -0.3521
 3177SOL     OW20992   3.341   3.505   7.180 -0.1327 -0.5174  0.1402
 3177SOL    HW120993   3.258   3.517   7.135 -0.7289 -0.1918  1.3402
 3177SOL    HW220994   3.347   3.585   7.233  1.0588 -0.6125  0.1483
 3178SOL     OW20995   1.536   1.617  17.532  0.2297 -0.1695 -0.0176
 3178SOL    HW120996   1.558   1.695  17.582 -0.4900 -0.3392  0.5595
 3178SOL    HW220997   1.615   1.563  17.526 -0.4633 -1.1667 -0.1244
 3179SOL     OW20998   1.441   2.963   5.074 -0.1969  0.1734 -0.6263
 3179SOL    HW120999   1.433   2.868   5.061  1.4027  0.1125 -1.1802
 3179SOL    HW221000   1.508   2.962   5.142 -0.5193 -2.6989 -0.3649
 3180SOL     OW21001   1.640   1.082   3.437 -0.7508 -0.2241  0.1595
 3180SOL    HW121002   1.648   1.048   3.348  0.4794 -0.3410  0.3156
 3180SOL    HW221003   1.670   1.172   3.422  0.3246 -0.3823  1.4203
 3181SOL     OW21004   0.979   1.769   5.814  0.1997 -0.0821 -0.2016
 3181SOL    HW121005   1.031   1.737   5.887 -0.8201  2.2315  1.5398
 3181SOL    HW221006   0.917   1.820   5.866 -1.4039 -0.1359 -2.0678
 3182SOL     OW21007   1.382   2.856   0.663  0.4449  0.6990 -0.4708
 3182SOL    HW121008   1.436   2.780   0.685 -1.5591 -1.4846 -3.0084
 3182SOL    HW221009   1.447   2.908   0.616  2.7423 -0.6588  1.2017
 3183SOL     OW21010   4.005   1.657   3.125  0.7658 -0.1046 -0.2558
 3183SOL    HW121011   4.051   1.578   3.096  0.9742  0.8379 -2.4957
 3183SOL    HW221012   4.008   1.649   3.221 -3.8881 -1.6640 -0.2603
 3184SOL     OW21013   3.243   0.610   5.568 -0.5546  0.0689 -0.0055
 3184SOL    HW121014   3.173   0.676   5.566 -0.1270  0.5695  1.3120
 3184SOL    HW221015   3.254   0.579   5.478 -0.9715  1.2690 -0.4712
 3185SOL     OW21016   4.140   2.245  14.679  0.1022 -0.5961  0.1109
 3185SOL    HW121017   4.086   2.168  14.697 -0.2876 -0.2783  0.2855
 3185SOL    HW221018   4.226   2.212  14.707  0.5966  0.3974 -0.2334
 3186SOL     OW21019   3.433   2.480   2.978 -0.1868  0.0896 -0.4084
 3186SOL    HW121020   3.360   2.508   2.923 -0.6548 -0.1134  0.1086
 3186SOL    HW221021   3.397   2.399   3.013 -2.7845  1.6696  0.5286
 3187SOL     OW21022   0.552   3.854   4.749 -0.9250 -0.3974  0.1606
 3187SOL    HW121023   0.553   3.890   4.660 -0.3829 -0.0021  0.3293
 3187SOL    HW221024   0.609   3.917   4.794  0.5563 -1.4982 -0.1837
 3188SOL     OW21025   1.738   1.697  16.919 -0.2188 -0.2184  0.1636
 3188SOL    HW121026   1.740   1.645  17.000  0.6187 -1.0664 -0.3975
 3188SOL    HW221027   1.820   1.742  16.935  0.5381 -0.2476 -3.5322
 3189SOL     OW21028   2.348   0.491   8.639 -0.1899 -0.3526  0.2636
 3189SOL    HW121029   2.272   0.502   8.696 -1.0307 -0.3013 -0.8430
 3189SOL    HW221030   2.400   0.439   8.699 -0.9766 -1.9916 -0.4837
 3190SOL     OW21031   4.542   4.335  12.689  0.6369  0.1850  0.3489
 3190SOL    HW121032   4.567   4.242  12.693  0.7749  0.2646  1.3172
 3190SOL    HW221033   4.619   4.379  12.725  0.0920  0.6550  0.9423
 3191SOL     OW21034   0.614   1.754   3.448  0.1994 -0.7951  0.2159
 3191SOL    HW121035   0.615   1.675   3.502  0.1113 -0.2152  1.0722
 3191SOL    HW221036   0.670   1.728   3.375 -0.8314 -0.0208 -0.8488
 3192SOL     OW21037   3.565   3.410   0.141  0.2781 -0.2814 -0.1858
 3192SOL    HW121038   3.490   3.442   0.191  1.1071 -0.6194  1.2607
 3192SOL    HW221039   3.636   3.472   0.157  1.4333 -1.8641  0.7866
 3193SOL     OW21040   1.743   1.181  11.686 -0.7035 -0.4103  0.6649
 3193SOL    HW121041   1.655   1.218  11.696 -1.6573 -2.8433  1.3352
 3193SOL    HW221042   1.731   1.087  11.678  0.8478 -0.6377  1.0584
 3194SOL     OW21043   4.601   3.208  10.383  0.0380  0.1777 -0.2754
 3194SOL    HW121044   4.585   3.123  10.342  0.6559  1.8338 -3.9121
 3194SOL    HW221045   4.581   3.179  10.472  1.1409 -0.7697 -0.3424
 3195SOL     OW21046   1.230   0.894  12.976 -0.5874  0.0077 -0.7479
 3195SOL    HW121047   1.273   0.949  13.042 -1.3649  0.0352 -0.2602
 3195SOL    HW221048   1.197   0.960  12.915 -1.7974  0.0649 -0.0170
 3196SOL     OW21049   2.710   2.528  16.690 -0.3200  0.0151 -0.1633
 3196SOL    HW121050   2.749   2.442  16.709  1.6762  0.5200 -1.9202
 3196SOL    HW221051   2.650   2.501  16.621  0.2562 -0.9426 -0.3058
 3197SOL     OW21052   2.225   3.317   1.975 -0.5873  0.1914  0.0114
 3197SOL    HW121053   2.289   3.247   1.966  1.7512  2.3379 -0.1179
 3197SOL    HW221054   2.203   3.331   1.883  0.6055  0.0068 -0.2926
 3198SOL     OW21055   0.232   0.768  14.728 -0.3351  0.4040  0.2482
 3198SOL    HW121056   0.243   0.673  14.740  0.5064  0.4709 -0.0429
 3198SOL    HW221057   0.208   0.768  14.635 -2.4771 -0.4000  0.8070
 3199SOL     OW21058   3.606   3.960  10.467 -0.4791 -0.3740  0.1331
 3199SOL    HW121059   3.666   3.888  10.447 -0.6576 -0.3533 -0.4742
 3199SOL    HW221060   3.624   4.004  10.384 -1.6675  1.6979  0.9703
 3200SOL     OW21061   3.246   3.472   1.167 -0.0365  0.1125 -0.0856
 3200SOL    HW121062   3.193   3.415   1.111 -0.1242 -0.4058  0.5245
 3200SOL    HW221063   3.237   3.421   1.248 -0.5138 -2.9962 -2.1162
 3201SOL     OW21064   1.336   4.606  11.460  0.1159  0.6252 -0.4273
 3201SOL    HW121065   1.246   4.602  11.493  0.1766 -1.5581 -0.5395
 3201SOL    HW221066   1.346   4.518  11.423  0.5419  0.8947 -0.9580
 3202SOL     OW21067   0.282   1.196   5.723  0.1497  0.2271 -0.5797
 3202SOL    HW121068   0.246   1.263   5.665 -0.1721 -0.9514 -1.7685
 3202SOL    HW221069   0.210   1.134   5.708 -2.0554  2.8113 -0.6946
 3203SOL     OW21070   1.895   2.111   3.642 -0.3266  0.0645 -0.1475
 3203SOL    HW121071   1.985   2.140   3.656 -0.8128  1.0416  0.9198
 3203SOL    HW221072   1.865   2.117   3.732  0.6476 -3.9929  0.4392
 3204SOL     OW21073   0.897   1.503  13.415  0.8508 -0.1903  0.2562
 3204SOL    HW121074   0.810   1.500  13.454  0.2543 -1.2204 -1.1565
 3204SOL    HW221075   0.923   1.593  13.395  2.9682 -1.1522 -1.4754
 3205SOL     OW21076   4.415   2.156  15.970  0.3330 -0.7148 -0.4371
 3205SOL    HW121077   4.421   2.207  15.889  0.2909 -0.7972 -0.4923
 3205SOL    HW221078   4.334   2.184  16.013  0.4837 -2.5817  1.0113
 3206SOL     OW21079   3.532   3.133   2.497  0.4034  0.0247  0.3591
 3206SOL    HW121080   3.488   3.066   2.549 -0.0134 -0.0122 -0.0356
 3206SOL    HW221081   3.549   3.195   2.567 -0.1925 -0.4320  0.9063
 3207SOL     OW21082   1.939   0.458   5.186 -0.5631  0.6357  0.0322
 3207SOL    HW121083   1.881   0.389   5.218  0.2451  0.1928  0.5570
 3207SOL    HW221084   2.016   0.417   5.226  0.0109  1.6773 -0.0289
 3208SOL     OW21085   2.504   0.907   1.873  0.6181  0.4009 -0.2759
 3208SOL    HW121086   2.515   0.854   1.794 -0.1901  0.1687 -0.2281
 3208SOL    HW221087   2.464   0.984   1.832  0.4249  0.3926 -0.0990
 3209SOL     OW21088   2.895   3.201   1.270  0.2573 -0.2135  0.8176
 3209SOL    HW121089   2.896   3.134   1.201  0.7801  1.3380 -0.6658
 3209SOL    HW221090   2.905   3.279   1.216  1.1228 -1.3781 -0.6941
 3210SOL     OW21091   3.047   0.445  12.966 -0.2171  0.7389  0.2685
 3210SOL    HW121092   3.079   0.473  12.880 -0.1198  0.5926  0.2584
 3210SOL    HW221093   3.126   0.448  13.019  3.4395 -0.8886 -5.1042
 3211SOL     OW21094   2.172   3.870  17.593 -0.1848  0.5444 -0.1652
 3211SOL    HW121095   2.265   3.870  17.617  0.0688  2.6952 -1.0672
 3211SOL    HW221096   2.177   3.826  17.508 -1.2609 -2.4339  1.3371
 3212SOL     OW21097   2.607   0.520   0.796 -0.6576 -0.4780 -0.0649
 3212SOL    HW121098   2.700   0.538   0.779 -0.8474  0.6362  0.1122
 3212SOL    HW221099   2.582   0.596   0.847 -2.2307  1.2151 -3.3380
 3213SOL     OW21100   1.323   2.705   7.337 -0.0971  0.0949 -0.4843
 3213SOL    HW121101   1.319   2.769   7.408  3.4789  0.5638 -0.6965
 3213SOL    HW221102   1.262   2.743   7.274 -2.9695 -1.4854  1.3779
 3214SOL     OW21103   0.201   3.935  11.766  0.2036 -0.1877 -0.1861
 3214SOL    HW121104   0.203   3.848  11.806 -0.1052 -0.5956 -1.0574
 3214SOL    HW221105   0.106   3.949  11.765  0.4321  1.4205  0.5034
 3215SOL     OW21106   4.132   3.256   2.605 -0.0632 -0.6802 -1.0593
 3215SOL    HW121107   4.181   3.282   2.528  0.5448 -1.2717 -0.8751
 3215SOL    HW221108   4.144   3.333   2.661 -1.0679 -2.2292  1.3240
 3216SOL     OW21109   1.234   2.498  16.871  0.5994 -0.5034  0.4572
 3216SOL    HW121110   1.150   2.545  16.866  1.1662  0.3937 -0.5480
 3216SOL    HW221111   1.262   2.510  16.781 -1.8356  1.8700  0.0019
 3217SOL     OW21112   0.486   4.342   4.852 -0.3375 -0.2506 -0.8068
 3217SOL    HW121113   0.454   4.299   4.931 -0.7471  3.3691  1.0174
 3217SOL    HW221114   0.420   4.325   4.786 -0.7800 -1.3994 -0.0632
 3218SOL     OW21115   2.622   0.306   7.560  0.6946 -0.2368 -0.4418
 3218SOL    HW121116   2.716   0.302   7.578  0.5530  0.0713  0.3811
 3218SOL    HW221117   2.608   0.233   7.500 -0.5714 -0.8911  0.6494
 3219SOL     OW21118   0.516   2.273   0.326 -0.3684  0.9732  0.0243
 3219SOL    HW121119   0.578   2.203   0.343  0.2452  1.2979 -0.8172
 3219SOL    HW221120   0.552   2.347   0.375  1.1131  1.0728 -1.2245
 3220SOL     OW21121   0.620   3.892   8.742 -0.3746 -0.1384 -0.3084
 3220SOL    HW121122   0.549   3.829   8.753 -0.3295  0.1137  1.4098
 3220SOL    HW221123   0.576   3.977   8.746  0.3969  0.1859  1.0975
 3221SOL     OW21124   0.440   1.684   8.337  0.0120  0.4537 -0.3526
 3221SOL    HW121125   0.466   1.596   8.364  0.1579  0.0723 -1.7295
 3221SOL    HW221126   0.385   1.661   8.262 -1.7509 -1.9601  1.6742
 3222SOL     OW21127   3.299   0.886   9.712 -0.1045 -0.1197  0.3377
 3222SOL    HW121128   3.259   0.962   9.669  0.0447 -0.4325 -0.3539
 3222SOL    HW221129   3.392   0.883   9.690 -0.1905 -1.1256  0.1314
 3223SOL     OW21130   2.411   4.468  15.894  0.4253 -0.0210  0.0755
 3223SOL    HW121131   2.344   4.530  15.865  2.8963  1.9249 -1.4675
 3223SOL    HW221132   2.420   4.492  15.986  2.8040 -0.7346  0.0357
 3224SOL     OW21133   3.111   1.315  16.246 -0.0411 -0.0520 -0.1577
 3224SOL    HW121134   3.050   1.346  16.313  1.3485  2.2316  0.0641
 3224SOL    HW221135   3.182   1.279  16.299 -2.0765 -0.9745  1.9587
 3225SOL     OW21136   2.854   3.483  15.472  0.2731  0.5812 -0.3163
 3225SOL    HW121137   2.882   3.574  15.482  0.9674  0.2617  0.6543
 3225SOL    HW221138   2.931   3.450  15.518 -1.6941 -1.4225  1.4804
 3226SOL     OW21139   2.673   2.726  15.037 -0.8851  0.9383  0.0283
 3226SOL    HW121140   2.710   2.718  15.125 -2.6257 -1.7669  0.5242
 3226SOL    HW221141   2.590   2.766  15.063  0.2074  1.8560  2.1053
 3227SOL     OW21142   4.585   1.058   5.832  0.0701 -0.7825 -0.2695
 3227SOL    HW121143   4.566   0.965   5.847 -0.0387 -0.4282  1.7237
 3227SOL    HW221144   4.511   1.090   5.883 -0.4915  1.6875 -2.6779
 3228SOL     OW21145   3.048   0.738  13.843  0.8785 -0.0839  0.4363
 3228SOL    HW121146   3.027   0.658  13.794 -1.0145  0.7539 -0.1364
 3228SOL    HW221147   3.040   0.805  13.775 -0.1422  0.2707  0.9107
 3229SOL     OW21148   2.944   2.285  13.445 -0.2800  0.0283  0.1028
 3229SOL    HW121149   2.901   2.347  13.504 -0.6289  2.5764 -2.8551
 3229SOL    HW221150   2.879   2.215  13.457  0.8791 -1.6475 -3.3786
 3230SOL     OW21151   1.240   1.041   3.756 -0.1302 -0.5119 -0.0548
 3230SOL    HW121152   1.206   1.096   3.685  1.5818  0.9193  0.2608
 3230SOL    HW221153   1.331   1.064   3.738  0.0689 -1.6208 -0.4728
 3231SOL     OW21154   4.171   2.697   8.668 -0.0936  1.0321  0.6685
 3231SOL    HW121155   4.108   2.626   8.660 -0.6881  1.3547  2.3872
 3231SOL    HW221156   4.251   2.646   8.684 -0.5122 -0.1078 -0.9725
 3232SOL     OW21157   3.786   2.908  12.858  0.5128 -0.4099  0.0699
 3232SOL    HW121158   3.747   2.820  12.859 -0.6154  0.0799 -1.8233
 3232SOL    HW221159   3.860   2.896  12.918  0.4631  1.4929  0.4965
 3233SOL     OW21160   1.414   2.398  14.712 -0.2755 -0.1888  0.4812
 3233SOL    HW121161   1.376   2.452  14.642  1.6915  0.7138  0.0896
 3233SOL    HW221162   1.381   2.443  14.790 -0.9611  1.9013 -1.0100
 3234SOL     OW21163   1.630   2.339   7.020 -0.8325 -0.0727 -0.5408
 3234SOL    HW121164   1.589   2.421   6.995 -0.6831 -0.4959 -2.1525
 3234SOL    HW221165   1.590   2.318   7.105  1.7777  0.6126  0.8550
 3235SOL     OW21166   3.097   1.403   2.923  0.3591 -0.5825  0.3849
 3235SOL    HW121167   3.186   1.423   2.951 -0.6051  2.6488  1.1461
 3235SOL    HW221168   3.081   1.478   2.865 -2.6792 -2.7439 -1.6231
 3236SOL     OW21169   2.651   2.138  14.244 -0.4110  0.0022  0.7596
 3236SOL    HW121170   2.649   2.139  14.340  3.1019  1.3959  0.8064
 3236SOL    HW221171   2.723   2.200  14.233  0.7775 -1.0156  2.7883
 3237SOL     OW21172   0.647   4.442  12.645  0.4481 -0.3654  0.9131
 3237SOL    HW121173   0.611   4.362  12.683  1.6073 -1.7111 -0.8369
 3237SOL    HW221174   0.577   4.501  12.674  0.5194 -0.1332  0.6185
 3238SOL     OW21175   4.233   3.392   3.936 -0.5340  0.5946 -0.1537
 3238SOL    HW121176   4.314   3.397   3.986  0.1789  0.9091 -1.3249
 3238SOL    HW221177   4.173   3.430   4.001 -1.3985 -0.2550 -0.4498
 3239SOL     OW21178   2.746   1.873   8.057 -0.3938 -0.3101 -0.5237
 3239SOL    HW121179   2.834   1.857   8.024  0.4972  1.2318  1.1526
 3239SOL    HW221180   2.753   1.966   8.076  3.7661 -0.5794 -0.8620
 3240SOL     OW21181   3.096   1.991   6.251  0.3896 -0.5605  0.2153
 3240SOL    HW121182   3.054   2.077   6.248  0.2015 -0.6535  0.1830
 3240SOL    HW221183   3.038   1.922   6.218  1.3704  0.0104 -2.7609
 3241SOL     OW21184   1.748   0.766  11.924 -0.4268 -0.1289  0.1476
 3241SOL    HW121185   1.658   0.761  11.956 -0.1289 -0.7103  0.8885
 3241SOL    HW221186   1.742   0.823  11.848 -0.1664  0.3903  0.5224
 3242SOL     OW21187   2.172   1.237   9.421  0.1490 -0.1753 -0.4761
 3242SOL    HW121188   2.265   1.239   9.442 -0.5696  0.4613  2.6469
 3242SOL    HW221189   2.148   1.327   9.446 -0.6354 -0.4074 -0.4084
 3243SOL     OW21190   4.166   2.434   4.794 -0.5073 -0.1233  0.4413
 3243SOL    HW121191   4.117   2.417   4.713  1.9026 -0.3462 -0.9562
 3243SOL    HW221192   4.253   2.466   4.771 -0.5508 -0.8314 -0.6977
 3244SOL     OW21193   1.965   0.664  17.608 -0.5403 -0.0950  0.5338
 3244SOL    HW121194   2.028   0.595  17.587 -0.9362 -0.4461  0.5121
 3244SOL    HW221195   2.027   0.737  17.604 -0.5997 -0.0572  0.2982
 3245SOL     OW21196   0.590   0.467   5.388  0.1950 -0.1072  0.1892
 3245SOL    HW121197   0.531   0.415   5.442  0.7535 -0.1617  0.7383
 3245SOL    HW221198   0.560   0.556   5.409 -1.1868 -0.9408  1.7489
 3246SOL     OW21199   2.055   1.488   7.073  0.5333  0.6446 -0.9845
 3246SOL    HW121200   2.045   1.397   7.045 -1.7079  0.4596  0.4186
 3246SOL    HW221201   2.036   1.486   7.166  1.1257  1.8856 -0.8281
 3247SOL     OW21202   4.102   2.257  11.081  0.3389  0.1842  0.2315
 3247SOL    HW121203   4.120   2.166  11.106  2.7305  0.0829 -1.7785
 3247SOL    HW221204   4.189   2.277  11.046 -0.2912  1.0363 -0.8591
 3248SOL     OW21205   0.896   2.168  14.640 -0.4007  0.3026  0.3285
 3248SOL    HW121206   0.902   2.209  14.554 -1.6750 -2.4238 -1.0699
 3248SOL    HW221207   0.801   2.175  14.648 -0.4167  0.8941 -0.4650
 3249SOL     OW21208   3.274   0.285  17.098  1.2009  0.0155  0.3061
 3249SOL    HW121209   3.185   0.280  17.133  0.1205  0.8031 -2.3425
 3249SOL    HW221210   3.329   0.267  17.174 -2.2251 -4.7235  1.7136
 3250SOL     OW21211   3.024   3.849   6.784  0.0271  0.0174  0.7737
 3250SOL    HW121212   3.102   3.794   6.787  0.7500  1.0464  0.8690
 3250SOL    HW221213   3.046   3.936   6.749  2.0178 -1.0755 -0.6605
 3251SOL     OW21214   4.411   0.477   6.058 -0.1389 -0.1006 -0.0891
 3251SOL    HW121215   4.483   0.417   6.077 -0.8957 -1.5618 -1.7261
 3251SOL    HW221216   4.393   0.497   6.150  0.1768 -0.4295  0.0444
 3252SOL     OW21217   4.553   4.541   5.917 -0.3269 -0.2667  0.0479
 3252SOL    HW121218   4.517   4.453   5.926  0.3149 -0.3975  1.3528
 3252SOL    HW221219   4.574   4.542   5.823 -1.7845  1.5775 -0.2605
 3253SOL     OW21220   4.284   4.144   7.418 -0.7084 -0.3880 -0.2797
 3253SOL    HW121221   4.225   4.105   7.483 -1.6095 -0.9246 -1.4277
 3253SOL    HW221222   4.240   4.134   7.333 -0.6885  0.6988 -0.4114
 3254SOL     OW21223   4.515   4.653   0.156  0.0669  0.2180  0.4947
 3254SOL    HW121224   4.569   4.606   0.093  0.1952  2.4353 -1.0548
 3254SOL    HW221225   4.424   4.631   0.133  0.1646 -0.3095  0.6321
 3255SOL     OW21226   4.057   0.759   3.615 -0.1125 -0.1901 -0.5770
 3255SOL    HW121227   4.095   0.830   3.667 -1.0463 -0.9003  1.0814
 3255SOL    HW221228   4.032   0.788   3.528  0.7629 -0.6452 -0.9763
 3256SOL     OW21229   3.250   4.194   2.412 -0.1990 -0.6496  0.6573
 3256SOL    HW121230   3.164   4.169   2.447 -0.0307 -1.4514  0.4958
 3256SOL    HW221231   3.207   4.249   2.346 -0.1841  0.1885  1.3622
 3257SOL     OW21232   2.796   3.080   4.988  0.0279 -0.0373  0.3846
 3257SOL    HW121233   2.857   3.093   4.916  1.4146 -4.7549  0.7216
 3257SOL    HW221234   2.765   3.171   4.997 -1.2990 -0.6350  2.0381
 3258SOL     OW21235   3.067   3.911  15.648 -0.1914  0.5465 -0.2175
 3258SOL    HW121236   3.089   3.966  15.724 -0.4990  1.5256 -0.8270
 3258SOL    HW221237   3.071   3.978  15.579  1.0382  2.0480  1.3070
 3259SOL     OW21238   1.182   1.419   5.963 -0.2239 -0.1743 -0.3278
 3259SOL    HW121239   1.272   1.435   5.935 -0.3673 -1.0337 -1.2718
 3259SOL    HW221240   1.161   1.348   5.902 -2.8946 -0.0286  0.4244
 3260SOL     OW21241   1.303   1.106   9.316 -0.0180  0.1215 -0.2501
 3260SOL    HW121242   1.282   1.107   9.410 -1.9470 -0.7958 -0.6777
 3260SOL    HW221243   1.357   1.184   9.304  0.4817  0.1006  1.7323
 3261SOL     OW21244   3.942   3.719   3.932  0.5055  0.3012  0.1205
 3261SOL    HW121245   3.867   3.663   3.954  0.0723  0.6814 -0.3814
 3261SOL    HW221246   3.915   3.757   3.848 -0.9176  0.4355  0.6332
 3262SOL     OW21247   1.887   4.012   4.417  0.0899 -0.2279 -0.7543
 3262SOL    HW121248   1.925   3.949   4.355 -1.0688 -0.1024 -1.5958
 3262SOL    HW221249   1.953   4.080   4.424  0.8990 -1.1766  0.6796
 3263SOL     OW21250   3.523   1.594   3.182  0.1453  0.1969 -0.2993
 3263SOL    HW121251   3.541   1.646   3.104  0.4037  0.6802  0.0837
 3263SOL    HW221252   3.428   1.581   3.178  0.0203  1.4794 -1.2075
 3264SOL     OW21253   2.869   2.266   0.142 -0.4452 -1.0002  0.2627
 3264SOL    HW121254   2.827   2.328   0.083  0.5519  0.2200  0.8384
 3264SOL    HW221255   2.957   2.255   0.105 -0.7997 -1.7701 -0.3316
 3265SOL     OW21256   1.074   2.982   9.576 -0.1175 -0.4343 -0.7597
 3265SOL    HW121257   1.065   2.980   9.672  1.8757  0.3399 -0.5486
 3265SOL    HW221258   1.087   2.889   9.557  2.0736  0.0421 -1.6397
 3266SOL     OW21259   0.710   1.367   7.338 -0.2415 -0.1269 -0.1232
 3266SOL    HW121260   0.705   1.425   7.414 -1.1849 -2.0547  1.2741
 3266SOL    HW221261   0.690   1.279   7.370 -0.4690  0.3162  0.9762
 3267SOL     OW21262   1.136   3.725  10.186  0.4489  0.4050 -0.2775
 3267SOL    HW121263   1.163   3.738  10.094 -0.3452  0.3374 -0.5173
 3267SOL    HW221264   1.065   3.661  10.191 -0.1439  1.1132  0.1571
 3268SOL     OW21265   0.730   4.228   6.413 -0.3490 -0.1584  0.8025
 3268SOL    HW121266   0.776   4.151   6.379  1.0156  0.9781  0.1341
 3268SOL    HW221267   0.754   4.230   6.506 -0.5755 -2.3636  0.9286
 3269SOL     OW21268   1.991   0.655   3.849  0.1447  0.1665  0.3563
 3269SOL    HW121269   1.911   0.686   3.807  0.5824 -0.5997 -1.0415
 3269SOL    HW221270   1.956   0.595   3.915  0.7119 -0.3949  0.1519
 3270SOL     OW21271   2.859   1.068   7.488 -0.1051 -0.4088  0.2181
 3270SOL    HW121272   2.948   1.101   7.479  0.2345 -0.9528  1.6845
 3270SOL    HW221273   2.843   1.040   7.398 -1.0236 -0.1585  0.2980
 3271SOL     OW21274   1.020   3.427   8.944 -0.0756  0.5817  0.5602
 3271SOL    HW121275   0.928   3.421   8.918  0.8442  0.0430 -2.6734
 3271SOL    HW221276   1.031   3.414   9.038  2.2923 -0.2702  0.1507
 3272SOL     OW21277   3.524   0.924  14.269 -0.1757 -0.4652 -0.3724
 3272SOL    HW121278   3.527   1.000  14.212  1.0329 -0.3460 -0.1527
 3272SOL    HW221279   3.612   0.886  14.264  0.0142 -0.0654 -0.0379
 3273SOL     OW21280   2.813   1.947   8.822 -0.2366  0.5190  0.7816
 3273SOL    HW121281   2.784   2.022   8.771  1.8357  1.3414  0.8093
 3273SOL    HW221282   2.737   1.890   8.827 -2.0459  2.7497 -1.4288
 3274SOL     OW21283   3.373   3.970   3.058 -0.0696 -0.1654 -0.1054
 3274SOL    HW121284   3.302   4.033   3.045  0.2138 -0.1001 -1.3271
 3274SOL    HW221285   3.447   4.004   3.008  0.3118  2.7616  2.4682
 3275SOL     OW21286   1.160   4.673  12.876 -0.2417 -0.6011 -0.5095
 3275SOL    HW121287   1.158   4.694  12.783 -0.4892 -3.0504 -1.0481
 3275SOL    HW221288   1.112   4.590  12.877  1.0186 -1.3497 -1.9936
 3276SOL     OW21289   2.203   3.894  13.224 -0.1917  0.1751 -0.0091
 3276SOL    HW121290   2.211   3.862  13.134 -2.6282 -2.3551  0.6978
 3276SOL    HW221291   2.110   3.906  13.241 -0.6709 -0.8660 -1.8454
 3277SOL     OW21292   0.510   1.292   3.860  0.4996 -0.5486  0.0411
 3277SOL    HW121293   0.572   1.327   3.796  0.7092 -1.5116 -0.2860
 3277SOL    HW221294   0.468   1.215   3.822 -0.4406 -0.5558  1.0855
 3278SOL     OW21295   1.931   1.440   0.132 -0.2504 -0.4368  0.4989
 3278SOL    HW121296   2.000   1.492   0.089 -0.5104 -1.8865 -1.6687
 3278SOL    HW221297   1.977   1.368   0.175  1.3833  0.2230 -0.1042
 3279SOL     OW21298   3.315   1.112   2.901 -0.3708 -0.0048 -0.1219
 3279SOL    HW121299   3.326   1.122   2.807 -1.5366 -1.3606 -0.4097
 3279SOL    HW221300   3.339   1.199   2.933  0.3802 -0.6978  1.2117
 3280SOL     OW21301   4.548   4.439   2.427 -0.0804  0.1828  0.4945
 3280SOL    HW121302   4.456   4.465   2.433  0.1638  1.1952 -0.1227
 3280SOL    HW221303   4.563   4.417   2.336  1.3622 -3.3177  1.5823
 3281SOL     OW21304   0.795   4.454   8.984 -0.1773  0.9108  0.2710
 3281SOL    HW121305   0.704   4.434   8.965 -0.5636  1.7717  1.2033
 3281SOL    HW221306   0.794   4.546   8.957 -2.5428  0.0036 -2.7491
 3282SOL     OW21307   4.426   0.746   6.480  0.4074  0.0135 -0.1427
 3282SOL    HW121308   4.486   0.781   6.414 -2.0989 -2.0472 -3.5861
 3282SOL    HW221309   4.468   0.661   6.492 -0.1069 -0.1487  0.5276
 3283SOL     OW21310   2.210   1.518   9.484 -0.1370  0.2400  0.3801
 3283SOL    HW121311   2.293   1.470   9.493  0.6289  1.7081  1.1369
 3283SOL    HW221312   2.226   1.592   9.541 -1.5584 -1.3214  2.8032
 3284SOL     OW21313   3.152   0.742  13.381  0.2978 -0.5042 -0.3133
 3284SOL    HW121314   3.185   0.760  13.469  2.4752 -1.5628 -0.9132
 3284SOL    HW221315   3.058   0.730  13.393  0.3246 -1.9249 -1.5313
 3285SOL     OW21316   4.428   3.087   4.316 -0.6937 -0.2678 -0.4734
 3285SOL    HW121317   4.466   3.026   4.253  1.4939  0.0758  0.5116
 3285SOL    HW221318   4.395   3.164   4.269  1.6732  0.8791 -0.2632
 3286SOL     OW21319   2.577   4.228   8.936 -0.2804 -0.4007  0.1291
 3286SOL    HW121320   2.507   4.175   8.898 -0.1149 -0.0753 -0.6288
 3286SOL    HW221321   2.533   4.236   9.020  1.7122  1.1372  1.0055
 3287SOL     OW21322   4.612   0.953   7.131  0.5511 -0.1081  0.4315
 3287SOL    HW121323   4.614   0.857   7.136  0.0479 -0.2907 -2.3685
 3287SOL    HW221324   4.608   0.977   7.223  0.3992 -2.5546  1.0663
 3288SOL     OW21325   1.623   0.512  16.148  0.2481 -0.2558  0.6149
 3288SOL    HW121326   1.615   0.584  16.085  2.4488  0.2994  0.9565
 3288SOL    HW221327   1.641   0.553  16.233  1.6844  0.6129 -0.1164
 3289SOL     OW21328   3.705   3.597   4.938 -1.0295  0.2339  0.2646
 3289SOL    HW121329   3.635   3.612   4.875  0.8837  0.6898 -1.7346
 3289SOL    HW221330   3.728   3.687   4.962 -2.6115 -0.0100  2.6999
 3290SOL     OW21331   1.353   2.373   3.410 -0.0532  0.0031  0.0530
 3290SOL    HW121332   1.440   2.378   3.371  0.1193 -0.1981  0.4121
 3290SOL    HW221333   1.368   2.428   3.488  2.2573 -0.6003  0.0170
 3291SOL     OW21334   0.178   1.411   3.744  0.0227  0.0818  0.0637
 3291SOL    HW121335   0.145   1.395   3.832 -0.9298 -0.0268 -0.3110
 3291SOL    HW221336   0.225   1.329   3.730  1.4853  1.4858 -3.3109
 3292SOL     OW21337   4.326   0.364   2.789  0.2218 -0.1701  0.1102
 3292SOL    HW121338   4.401   0.406   2.748  0.2216 -3.1912 -2.9830
 3292SOL    HW221339   4.256   0.410   2.741 -1.0360 -0.0111  2.0930
 3293SOL     OW21340   4.233   1.858   9.270 -0.0010  0.3074  0.0636
 3293SOL    HW121341   4.176   1.932   9.252 -2.6034 -1.9238 -0.7793
 3293SOL    HW221342   4.233   1.817   9.184  1.1124 -2.0350  1.1770
 3294SOL     OW21343   2.389   3.747  11.263  0.4495  0.5060  0.5492
 3294SOL    HW121344   2.369   3.668  11.213 -0.3855  0.7168  0.5579
 3294SOL    HW221345   2.484   3.759  11.256  0.4635  0.9824  1.5313
 3295SOL     OW21346   2.886   1.896   4.996  0.3427 -0.1618  0.0137
 3295SOL    HW121347   2.966   1.874   4.949  1.0106  2.0783  0.1135
 3295SOL    HW221348   2.823   1.903   4.924  0.4215  0.6757  0.0302
 3296SOL     OW21349   3.016   1.178   9.925 -0.4589  0.5577 -0.0198
 3296SOL    HW121350   2.956   1.241   9.965 -1.2771 -1.0577  1.2708
 3296SOL    HW221351   2.956   1.120   9.878  0.6645 -1.4466  1.0387
 3297SOL     OW21352   1.568   3.688  10.918  0.3282 -0.1022 -0.2446
 3297SOL    HW121353   1.605   3.599  10.922 -1.0919 -0.5374  2.8466
 3297SOL    HW221354   1.603   3.735  10.994  1.2031 -1.5429  0.2489
 3298SOL     OW21355   3.063   2.076   2.960  0.2392 -0.2674 -0.0927
 3298SOL    HW121356   2.997   2.007   2.956  1.3404 -1.3188 -0.0808
 3298SOL    HW221357   3.018   2.142   2.908  0.2411  0.8270  1.2948
 3299SOL     OW21358   1.272   4.301   0.247 -0.1244  0.8149 -0.2156
 3299SOL    HW121359   1.215   4.365   0.290 -0.5048 -1.4524  2.6303
 3299SOL    HW221360   1.222   4.291   0.165  2.7022  0.2748 -1.8768
 3300SOL     OW21361   3.941   4.391   2.063  0.1527  0.0999 -0.9155
 3300SOL    HW121362   3.917   4.341   1.984  1.7677  2.5401 -2.9552
 3300SOL    HW221363   3.973   4.472   2.022  2.2923 -0.1666  0.2341
 3301SOL     OW21364   4.134   3.378  13.344  0.0931 -1.2892  0.2614
 3301SOL    HW121365   4.048   3.351  13.310  0.0520 -1.6851  0.6681
 3301SOL    HW221366   4.118   3.356  13.436  2.2518 -2.1906  0.4078
 3302SOL     OW21367   3.615   0.362   5.377  0.1562  0.0552  0.3190
 3302SOL    HW121368   3.619   0.351   5.472  4.6843  1.2122  0.2690
 3302SOL    HW221369   3.707   0.339   5.366  0.2649  0.4575  0.3915
 3303SOL     OW21370   3.378   1.700   1.424  0.8463 -0.2390  0.4248
 3303SOL    HW121371   3.307   1.636   1.430 -0.1515  0.8660  0.3918
 3303SOL    HW221372   3.333   1.769   1.376  1.5495 -1.2320 -1.6794
 3304SOL     OW21373   0.418   2.475   9.409  0.2750 -0.3591 -0.1255
 3304SOL    HW121374   0.441   2.517   9.326  1.6600 -2.4510 -0.8245
 3304SOL    HW221375   0.333   2.509   9.434  0.7930  0.8922 -0.0838
 3305SOL     OW21376   0.870   0.289  15.323  0.2607 -0.0156 -0.2473
 3305SOL    HW121377   0.904   0.314  15.237 -0.4427  2.2380  0.1420
 3305SOL    HW221378   0.777   0.311  15.319  0.0746 -1.1015 -1.9425
 3306SOL     OW21379   3.548   0.382   4.848  0.4533 -0.5453 -0.0797
 3306SOL    HW121380   3.622   0.392   4.908 -1.8209 -1.3220  2.8774
 3306SOL    HW221381   3.481   0.436   4.890 -0.6967 -1.4228 -0.8041
 3307SOL     OW21382   0.999   4.133   0.030  0.4332  0.4136  0.0495
 3307SOL    HW121383   1.087   4.171   0.023  0.0022  1.4566  0.2967
 3307SOL    HW221384   0.960   4.171  17.628  0.7272 -0.4781 -0.5273
 3308SOL     OW21385   2.271   3.290  17.531 -0.3051 -0.0853 -0.2049
 3308SOL    HW121386   2.205   3.334  17.477  0.9845  1.5531 -0.4482
 3308SOL    HW221387   2.241   3.279  17.621  1.6551  1.4682  0.6655
 3309SOL     OW21388   1.733   1.358   0.486  0.0493 -0.2634  0.0595
 3309SOL    HW121389   1.771   1.345   0.572 -0.6744 -0.4034  0.3624
 3309SOL    HW221390   1.643   1.389   0.494 -0.9142 -2.4194 -2.1719
 3310SOL     OW21391   0.110   4.201   7.098 -0.0647 -0.4284 -0.5905
 3310SOL    HW121392   0.030   4.160   7.064 -0.9080  0.0755  0.7850
 3310SOL    HW221393   0.153   4.212   7.014 -3.4516  0.1357 -2.2692
 3311SOL     OW21394   2.181   0.162  16.666 -0.2536  0.3206 -0.2900
 3311SOL    HW121395   2.163   0.114  16.747 -2.9994  2.5741  0.4378
 3311SOL    HW221396   2.096   0.181  16.627  0.1208  2.7339  0.0961
 3312SOL     OW21397   3.217   4.003   7.588 -0.0706  0.2617  0.0774
 3312SOL    HW121398   3.311   4.019   7.581  0.2375 -1.5923 -0.0238
 3312SOL    HW221399   3.211   3.947   7.665  1.9173 -3.9338 -2.8274
 3313SOL     OW21400   3.401   3.104  17.003  0.1796 -0.0578  0.2269
 3313SOL    HW121401   3.371   3.143  16.921 -1.1487 -0.4921  0.5082
 3313SOL    HW221402   3.388   3.172  17.068 -1.6431  2.1542 -2.4513
 3314SOL     OW21403   2.312   3.060   3.914  0.0503  0.0006 -0.2364
 3314SOL    HW121404   2.273   3.147   3.915 -0.6214 -0.2875 -1.1857
 3314SOL    HW221405   2.263   3.021   3.987  2.7500  0.4835  1.8103
 3315SOL     OW21406   4.416   1.133  17.205  0.2274 -0.2812  0.3222
 3315SOL    HW121407   4.511   1.144  17.208  0.2232  0.0170 -0.4663
 3315SOL    HW221408   4.400   1.082  17.284 -0.7843  1.1050  1.0113
 3316SOL     OW21409   2.479   3.858   8.937 -0.1825  0.5031  0.1905
 3316SOL    HW121410   2.455   3.778   8.890 -0.3995  2.0280 -2.2824
 3316SOL    HW221411   2.468   3.833   9.029  1.3202 -4.3819 -0.9330
 3317SOL     OW21412   2.441   3.335   6.778 -0.2738 -0.2113 -0.9010
 3317SOL    HW121413   2.465   3.279   6.704 -0.5201 -0.4168 -0.8268
 3317SOL    HW221414   2.486   3.283   6.845  1.1027  0.7070 -1.1175
 3318SOL     OW21415   2.035   1.602   8.593  0.1917  0.0313  0.2571
 3318SOL    HW121416   1.965   1.551   8.553 -0.7462 -0.1740  2.1413
 3318SOL    HW221417   2.100   1.537   8.620  0.6161 -0.1942 -1.3319
 3319SOL     OW21418   2.272   1.448   2.343 -0.2793 -0.1757 -0.6650
 3319SOL    HW121419   2.236   1.391   2.274 -1.6431  0.5023 -0.5162
 3319SOL    HW221420   2.213   1.523   2.338  0.1868  0.4937  3.9788
 3320SOL     OW21421   2.300   0.007   5.528 -0.1044 -0.1319  0.0141
 3320SOL    HW121422   2.379   4.714   5.580  0.0182  1.4880  0.1770
 3320SOL    HW221423   2.271   4.634   5.524  1.6166 -0.7104  0.6747
 3321SOL     OW21424   3.195   2.516   2.866 -0.3638 -0.1465 -0.2309
 3321SOL    HW121425   3.100   2.513   2.852 -0.5159 -1.0397  0.9235
 3321SOL    HW221426   3.220   2.567   2.789  0.6778 -0.3763 -0.0481
 3322SOL     OW21427   3.737   3.096   4.803 -0.0283  0.1835  0.1451
 3322SOL    HW121428   3.810   3.041   4.775  0.3097  1.1936 -0.9716
 3322SOL    HW221429   3.743   3.168   4.740  1.2345  1.0616  1.2628
 3323SOL     OW21430   0.268   0.712   6.282  0.4333 -0.5583 -0.5984
 3323SOL    HW121431   0.357   0.722   6.249  0.7718  1.6982  0.9681
 3323SOL    HW221432   0.277   0.740   6.374 -0.3631  2.5340 -1.4384
 3324SOL     OW21433   0.528   1.052   0.016 -0.3477 -0.1107 -0.4957
 3324SOL    HW121434   0.576   0.995  17.632 -0.6878 -0.3815 -0.5102
 3324SOL    HW221435   0.454   1.000   0.048 -0.2195  0.2054  0.3057
 3325SOL     OW21436   1.090   4.364  10.487 -0.0787  0.2361 -0.7697
 3325SOL    HW121437   1.048   4.388  10.570 -0.7354  1.5513 -1.4799
 3325SOL    HW221438   1.162   4.305  10.508 -0.3180  0.1642 -0.1435
 3326SOL     OW21439   4.651   0.756   8.085  0.4296  0.0231 -0.3424
 3326SOL    HW121440   4.556   0.745   8.084  0.5152 -0.8647  1.6229
 3326SOL    HW221441   4.659   0.847   8.057  0.8829  0.2832  0.6318
 3327SOL     OW21442   3.157   2.041  11.374  0.4974 -0.1540  0.3716
 3327SOL    HW121443   3.104   2.045  11.295 -0.6990  0.6528  1.2033
 3327SOL    HW221444   3.239   2.087  11.356  0.5293 -1.0976 -1.8036
 3328SOL     OW21445   3.434   2.870   5.057  0.5711  0.6885 -0.0201
 3328SOL    HW121446   3.504   2.935   5.045  0.2497  1.2359  1.1002
 3328SOL    HW221447   3.488   2.793   5.040 -0.7473 -0.5847  1.6610
 3329SOL     OW21448   4.513   1.125   8.566 -0.1998  0.0922 -0.0160
 3329SOL    HW121449   4.507   1.056   8.632  0.2466  0.8090  0.7649
 3329SOL    HW221450   4.429   1.109   8.523 -0.4035 -2.1751  1.2386
 3330SOL     OW21451   3.716   1.496  10.953  0.0148 -0.4170 -0.0070
 3330SOL    HW121452   3.651   1.516  11.020 -1.7881 -0.5219 -1.7083
 3330SOL    HW221453   3.788   1.548  10.988  0.1411 -1.2064  0.9252
 3331SOL     OW21454   4.619   0.370   0.884 -0.0760 -0.0982  0.1361
 3331SOL    HW121455   4.616   0.386   0.978 -1.1696  0.9091 -0.0563
 3331SOL    HW221456   4.572   0.287   0.881 -3.6553  1.9790 -2.1952
 3332SOL     OW21457   1.851   4.549   5.143 -0.9236  0.2760 -0.4500
 3332SOL    HW121458   1.903   4.475   5.109  0.8872  1.0070  0.7578
 3332SOL    HW221459   1.849   4.513   5.231 -0.9086 -0.3687 -0.7106
 3333SOL     OW21460   4.680   4.561  15.223  0.4107  0.0561 -0.7463
 3333SOL    HW121461   4.615   4.618  15.182  3.9277  2.6840 -2.6640
 3333SOL    HW221462   4.705   4.625  15.290 -2.1312 -0.5493  0.8131
 3334SOL     OW21463   0.725   3.429  11.584  0.3949 -0.5130  0.5670
 3334SOL    HW121464   0.679   3.345  11.585 -1.0241  0.2566 -2.0511
 3334SOL    HW221465   0.785   3.436  11.659 -1.5465  2.2004  1.8569
 3335SOL     OW21466   4.037   1.768  16.374  0.9343  0.1717  0.2282
 3335SOL    HW121467   4.052   1.704  16.444  1.4734 -0.1165 -0.1477
 3335SOL    HW221468   3.958   1.736  16.331 -1.7223  1.4239  4.1867
 3336SOL     OW21469   0.283   1.462  15.999  0.0839 -0.5956 -0.3992
 3336SOL    HW121470   0.308   1.482  16.089 -1.7647 -0.2428  0.0195
 3336SOL    HW221471   0.189   1.455  16.014  0.0202 -1.4588 -1.2179
 3337SOL     OW21472   2.568   3.733   5.510  0.1729 -0.3406  0.4134
 3337SOL    HW121473   2.502   3.798   5.486  1.4093  0.6271 -0.3488
 3337SOL    HW221474   2.560   3.724   5.605  2.1721 -0.6966  0.5345
 3338SOL     OW21475   1.095   3.892   4.302  0.1625  0.3588  0.2757
 3338SOL    HW121476   1.170   3.936   4.261  1.8610 -1.2683  1.6422
 3338SOL    HW221477   1.088   3.915   4.394 -0.2557  0.6996  0.1566
 3339SOL     OW21478   0.080   0.653   5.879 -0.0197 -0.1471  0.1522
 3339SOL    HW121479   0.070   0.616   5.791 -0.7056 -0.6433  0.4391
 3339SOL    HW221480   0.164   0.614   5.902  0.7697  0.6846 -1.2565
 3340SOL     OW21481   3.118   3.674  12.592  0.9078 -0.1368  0.3602
 3340SOL    HW121482   3.086   3.729  12.521 -1.7695  0.3773  1.9652
 3340SOL    HW221483   3.141   3.733  12.664 -0.9691 -0.1237  0.9392
 3341SOL     OW21484   0.630   3.382   3.953 -0.4315 -0.0444 -0.3437
 3341SOL    HW121485   0.722   3.363   3.934 -0.2661  0.7131 -0.2875
 3341SOL    HW221486   0.631   3.387   4.048  0.4767 -1.9662 -0.2434
 3342SOL     OW21487   0.078   3.200  14.700  0.2767 -0.6372 -0.0330
 3342SOL    HW121488   0.024   3.180  14.623  2.0184 -2.2257 -0.8680
 3342SOL    HW221489   0.076   3.296  14.699 -1.9199 -0.7150 -2.4413
 3343SOL     OW21490   0.692   3.507   0.396  0.3754  0.6050  0.2237
 3343SOL    HW121491   0.696   3.522   0.301 -2.6461  0.0409  0.0242
 3343SOL    HW221492   0.597   3.497   0.404  0.5018  0.3376  1.3506
 3344SOL     OW21493   4.374   1.298  13.652  0.4687  0.3235 -0.3680
 3344SOL    HW121494   4.378   1.338  13.739 -0.5265  2.1722 -1.1596
 3344SOL    HW221495   4.380   1.381  13.606  3.2279 -0.3143 -1.1449
 3345SOL     OW21496   2.283   3.960   6.790 -0.0611 -0.4342  0.5306
 3345SOL    HW121497   2.347   3.895   6.820  0.8281  0.1718 -0.0594
 3345SOL    HW221498   2.206   3.908   6.767  0.6617 -1.0067 -0.5696
 3346SOL     OW21499   1.031   0.976   7.905  0.5211  0.4847  0.0175
 3346SOL    HW121500   1.094   1.047   7.919  0.4349  0.1081  2.3844
 3346SOL    HW221501   1.077   0.908   7.954  0.2415  1.0424  1.0512
 3347SOL     OW21502   3.735   3.017   7.229 -0.0005  0.2339  0.0472
 3347SOL    HW121503   3.708   2.925   7.229  0.8757 -0.0224  0.8710
 3347SOL    HW221504   3.799   3.012   7.158 -1.9152 -1.4243 -1.5736
 3348SOL     OW21505   1.570   3.913   7.128  0.0672 -0.2223 -0.4594
 3348SOL    HW121506   1.523   3.995   7.112  0.5760 -0.0222 -0.9473
 3348SOL    HW221507   1.572   3.903   7.223  0.1365 -0.6846 -0.5094
 3349SOL     OW21508   2.181   1.970   8.849  0.2044  0.2288 -0.2823
 3349SOL    HW121509   2.222   1.926   8.774  0.8398 -3.2446  2.0778
 3349SOL    HW221510   2.097   1.924   8.849 -0.8876  2.2252  1.1247
 3350SOL     OW21511   2.361   2.171   7.181 -0.1914 -0.2589 -0.3604
 3350SOL    HW121512   2.330   2.246   7.231 -1.4545 -2.2354  1.7722
 3350SOL    HW221513   2.315   2.098   7.221  0.3009 -0.7325 -0.6604
 3351SOL     OW21514   2.480   2.382   6.005  0.0085  0.0523  0.1399
 3351SOL    HW121515   2.522   2.311   6.054 -0.7916 -0.6032 -0.1238
 3351SOL    HW221516   2.493   2.454   6.066  1.3460  1.4119 -1.7505
 3352SOL     OW21517   3.152   2.509   5.998  0.2990 -0.1920 -0.2352
 3352SOL    HW121518   3.161   2.512   6.094  2.2052 -1.1410 -0.4014
 3352SOL    HW221519   3.238   2.523   5.958 -0.3649  2.2280 -0.8133
 3353SOL     OW21520   4.268   3.226   6.691  0.0998  0.9106 -0.2670
 3353SOL    HW121521   4.231   3.312   6.710 -0.4878  1.0191 -1.8812
 3353SOL    HW221522   4.356   3.251   6.663 -0.3446  2.1252 -0.5657
 3354SOL     OW21523   0.347   2.424   8.551  0.6385 -0.0289 -0.4263
 3354SOL    HW121524   0.273   2.443   8.493 -0.1313  1.8896  1.1687
 3354SOL    HW221525   0.399   2.370   8.491  1.6619  0.5155 -0.0413
 3355SOL     OW21526   3.423   2.802   3.408  0.4366  0.0839  0.1883
 3355SOL    HW121527   3.344   2.848   3.436 -0.6034 -1.4674 -0.1844
 3355SOL    HW221528   3.382   2.721   3.376 -0.5895  0.8002 -0.2984
 3356SOL     OW21529   2.595   0.302   4.818 -0.4020  0.4470  0.1621
 3356SOL    HW121530   2.572   0.394   4.809  1.8569  0.9466 -0.7097
 3356SOL    HW221531   2.575   0.266   4.732 -0.9483 -0.6990  0.7615
 3357SOL     OW21532   1.015   2.265  10.890  0.3338  0.4045 -0.6263
 3357SOL    HW121533   1.037   2.194  10.829  0.1341  0.5835 -0.9046
 3357SOL    HW221534   1.042   2.342  10.839 -1.3136  1.3044 -0.1216
 3358SOL     OW21535   3.583   3.622  14.418  0.4303  0.7261 -0.8618
 3358SOL    HW121536   3.490   3.629  14.437 -0.1813 -2.0533 -2.9475
 3358SOL    HW221537   3.621   3.671  14.491  1.1758 -0.4473 -0.4605
 3359SOL     OW21538   4.273   3.194  10.887 -0.3834  0.2893 -0.5489
 3359SOL    HW121539   4.203   3.220  10.827 -1.7265  1.2139  1.4320
 3359SOL    HW221540   4.311   3.279  10.911 -1.3673  0.4255  0.5140
 3360SOL     OW21541   1.115   0.656  11.432 -0.3332  0.0508 -0.1273
 3360SOL    HW121542   1.127   0.573  11.477  2.0978  0.0413 -0.7624
 3360SOL    HW221543   1.206   0.685  11.421 -0.2084  0.9448  3.1452
 3361SOL     OW21544   1.087   3.606   2.575 -0.7589  0.3328 -0.0360
 3361SOL    HW121545   1.045   3.689   2.597 -1.4852 -0.1972  0.5878
 3361SOL    HW221546   1.012   3.572   2.525 -1.8935  1.1998  1.0700
 3362SOL     OW21547   0.598   0.822  12.528 -0.0190  0.0496  0.4338
 3362SOL    HW121548   0.670   0.765  12.500 -0.0045  0.3623 -0.1683
 3362SOL    HW221549   0.522   0.764  12.519 -0.2219  0.1880  1.2074
 3363SOL     OW21550   1.028   2.050  16.549 -0.4880  0.0541 -0.6740
 3363SOL    HW121551   1.030   1.969  16.600  0.0276  0.0518 -0.6987
 3363SOL    HW221552   1.084   2.094  16.613 -0.7367  0.2856 -0.6170
 3364SOL     OW21553   2.222   1.809   4.764 -0.6513 -0.4433  0.0646
 3364SOL    HW121554   2.147   1.750   4.762  0.0782 -1.3637 -0.0965
 3364SOL    HW221555   2.261   1.802   4.676 -1.0622  2.8632 -0.3844
 3365SOL     OW21556   4.149   2.551   5.420  0.0319  0.2912 -0.0185
 3365SOL    HW121557   4.167   2.574   5.328 -0.7970 -1.6336 -0.6451
 3365SOL    HW221558   4.113   2.634   5.451 -0.2682 -0.1642  0.8185
 3366SOL     OW21559   1.855   1.392  16.216 -0.2794  0.0380  0.0520
 3366SOL    HW121560   1.817   1.304  16.222 -0.2372 -0.1564 -2.5271
 3366SOL    HW221561   1.862   1.416  16.124 -3.2511  1.8943  0.3300
 3367SOL     OW21562   2.243   4.366   2.596 -0.3684  0.6270  0.1694
 3367SOL    HW121563   2.332   4.400   2.606 -0.7908  1.5847  0.6509
 3367SOL    HW221564   2.248   4.352   2.501 -1.9687 -1.6032  0.4213
 3368SOL     OW21565   0.039   1.789   8.952  0.0612 -0.3057 -0.2110
 3368SOL    HW121566   0.127   1.826   8.952 -1.1333  2.4910  1.5469
 3368SOL    HW221567   4.717   1.827   9.030 -0.7019  0.5359 -1.0043
 3369SOL     OW21568   0.212   3.034   5.879 -0.3219 -0.0860 -0.0642
 3369SOL    HW121569   0.120   3.016   5.858  0.3315  0.5830 -3.4760
 3369SOL    HW221570   0.235   2.954   5.925  0.5397  0.2580  0.1162
 3370SOL     OW21571   1.467   2.493   7.600 -0.3778 -0.2191 -0.3229
 3370SOL    HW121572   1.392   2.451   7.642  1.4027 -2.6926  0.3321
 3370SOL    HW221573   1.426   2.515   7.516  0.3546  0.2455 -0.5627
 3371SOL     OW21574   0.214   3.795   1.641 -0.0809 -0.0413  0.6235
 3371SOL    HW121575   0.160   3.842   1.578  0.8953  0.0837 -0.1282
 3371SOL    HW221576   0.297   3.800   1.593 -0.0794  2.5265  0.8855
 3372SOL     OW21577   0.432   3.987   8.266 -0.3771 -0.3573  0.3614
 3372SOL    HW121578   0.375   4.064   8.257  0.1636 -0.1988 -1.6636
 3372SOL    HW221579   0.500   4.011   8.204  1.9982  0.9049  3.4884
 3373SOL     OW21580   3.819   3.410  15.254  0.1640  0.5639 -0.6992
 3373SOL    HW121581   3.824   3.500  15.220 -0.2124  1.0379  0.4859
 3373SOL    HW221582   3.741   3.376  15.211 -0.5211  1.0576  0.1529
 3374SOL     OW21583   2.678   2.389   1.525  0.2812 -0.3961  0.0643
 3374SOL    HW121584   2.701   2.462   1.583  1.5057 -0.6464 -0.0891
 3374SOL    HW221585   2.727   2.318   1.568  2.9228  2.1210  1.2590
 3375SOL     OW21586   3.630   3.759   7.804  0.5051  0.1563  0.2413
 3375SOL    HW121587   3.641   3.785   7.896  1.1355  1.3472 -0.1709
 3375SOL    HW221588   3.689   3.684   7.791 -0.9314 -0.9500  0.1073
 3376SOL     OW21589   3.707   3.371   1.911  0.1259  0.3075 -0.2274
 3376SOL    HW121590   3.772   3.394   1.845  2.4910 -1.5410  1.4201
 3376SOL    HW221591   3.642   3.334   1.853  1.6177 -2.0619 -0.3712
 3377SOL     OW21592   2.081   1.265   6.714  0.0482 -0.0804 -0.2685
 3377SOL    HW121593   2.078   1.347   6.763  1.1829 -0.2378  0.0747
 3377SOL    HW221594   2.007   1.263   6.654 -0.8452  0.9105  0.8088
 3378SOL     OW21595   1.028   0.984   9.330  0.0269 -0.1155 -0.1649
 3378SOL    HW121596   1.036   1.071   9.291  3.6063 -0.9765 -1.3217
 3378SOL    HW221597   1.104   0.970   9.386  0.1140  1.4165  0.0987
 3379SOL     OW21598   1.120   4.093   2.753 -0.3606 -0.4718 -0.2930
 3379SOL    HW121599   1.024   4.088   2.756 -0.3035 -1.8157 -0.5338
 3379SOL    HW221600   1.137   4.180   2.718  1.0842 -0.5885  0.1318
 3380SOL     OW21601   3.091   4.644   3.993 -0.2450 -0.2299  0.2023
 3380SOL    HW121602   3.044   0.000   3.956 -0.3634  0.7065  2.2450
 3380SOL    HW221603   3.160   4.692   4.039 -2.2482  2.6857  0.1458
 3381SOL     OW21604   0.613   0.538   4.582  0.5267 -0.0025  0.4100
 3381SOL    HW121605   0.598   0.466   4.520 -3.9547  0.5950  0.8513
 3381SOL    HW221606   0.579   0.499   4.663 -2.0344  0.5089 -0.4420
 3382SOL     OW21607   3.949   0.417   7.798 -0.1474 -0.2696 -0.3297
 3382SOL    HW121608   3.965   0.344   7.857  3.0182  1.3425  0.7955
 3382SOL    HW221609   3.853   0.421   7.803 -0.1919 -1.4331 -0.2016
 3383SOL     OW21610   1.767   2.391  11.362  0.4539  0.1101  0.2171
 3383SOL    HW121611   1.682   2.405  11.402 -0.7972  0.8655 -2.7204
 3383SOL    HW221612   1.737   2.391  11.271  0.3610  0.1664  0.2485
 3384SOL     OW21613   0.785   0.557   5.631 -0.2048  0.8796 -0.7799
 3384SOL    HW121614   0.819   0.646   5.634  1.8066  0.0604  1.5217
 3384SOL    HW221615   0.690   0.572   5.631 -0.1792  1.1195  1.9052
 3385SOL     OW21616   2.184   1.428  12.669  0.1014  0.1721  0.2161
 3385SOL    HW121617   2.209   1.378  12.746 -1.1577 -0.4052  0.2441
 3385SOL    HW221618   2.127   1.362  12.630 -1.9052  2.0273  0.0033
 3386SOL     OW21619   4.415   0.096   4.231  0.1576  0.2133  0.4194
 3386SOL    HW121620   4.393   0.156   4.303  0.2054 -0.6320  1.1436
 3386SOL    HW221621   4.505   0.123   4.215  0.3236 -0.2926  0.4863
 3387SOL     OW21622   0.201   4.579  11.535 -0.1932  0.3483  0.1414
 3387SOL    HW121623   0.279   4.524  11.546  0.0535  0.5289 -0.7617
 3387SOL    HW221624   0.237   4.661  11.504  0.5866  0.1122  0.4388
 3388SOL     OW21625   2.010   4.511   4.276  0.3172  0.0056 -0.0823
 3388SOL    HW121626   1.918   4.496   4.256  0.9172 -2.3077 -1.1437
 3388SOL    HW221627   2.012   4.606   4.260 -0.2924  0.1788  0.8878
 3389SOL     OW21628   3.466   3.666   4.808 -0.0545 -0.1776  0.4870
 3389SOL    HW121629   3.372   3.653   4.820 -0.3934  0.2400 -1.7412
 3389SOL    HW221630   3.462   3.734   4.741 -0.4631 -1.6569 -0.9805
 3390SOL     OW21631   2.260   1.195  10.811 -0.1006  0.5577 -0.2321
 3390SOL    HW121632   2.224   1.148  10.736 -2.8837  0.7696  0.9933
 3390SOL    HW221633   2.355   1.180  10.805  0.4821  3.9059  0.3614
 3391SOL     OW21634   2.877   2.866   6.249 -0.1827 -0.4161  0.2636
 3391SOL    HW121635   2.806   2.926   6.226 -1.7244 -2.0664  0.7367
 3391SOL    HW221636   2.945   2.929   6.272 -2.1971  1.1713  1.8234
 3392SOL     OW21637   3.916   1.533   4.246 -0.1927  0.6501  0.5655
 3392SOL    HW121638   3.909   1.516   4.340  0.5142 -1.5904  0.2166
 3392SOL    HW221639   3.827   1.519   4.215 -0.3043  0.8978  0.7810
 3393SOL     OW21640   0.154   0.327   5.663 -0.1382 -0.1866  0.6830
 3393SOL    HW121641   0.082   0.384   5.635 -0.6658 -0.2496  1.8926
 3393SOL    HW221642   0.107   0.278   5.731 -0.7652 -1.8285 -0.9521
 3394SOL     OW21643   0.608   1.700   5.982  0.3341  0.3568 -0.9311
 3394SOL    HW121644   0.680   1.637   5.985 -0.4469 -0.3836  1.8550
 3394SOL    HW221645   0.534   1.649   6.015  0.3128  0.3902 -0.9271
 3395SOL     OW21646   0.183   3.685   6.249 -0.0217  0.6128 -0.0020
 3395SOL    HW121647   0.177   3.597   6.285 -1.5349  0.6863 -0.0665
 3395SOL    HW221648   0.191   3.729   6.334  1.4729  1.0868 -0.3955
 3396SOL     OW21649   0.587   4.445   0.827 -0.1796 -0.2527  0.5918
 3396SOL    HW121650   0.550   4.533   0.825 -0.6483 -0.4866 -1.4170
 3396SOL    HW221651   0.646   4.450   0.902 -0.0579  1.5322  0.3839
 3397SOL     OW21652   2.316   0.956   3.751 -0.2342  0.4759 -0.6227
 3397SOL    HW121653   2.241   0.975   3.695 -2.8595 -0.6220  2.5730
 3397SOL    HW221654   2.346   0.882   3.698  0.0448 -0.0150  0.2264
 3398SOL     OW21655   0.042   3.416  15.579  0.0693 -0.0198 -0.4135
 3398SOL    HW121656   0.112   3.356  15.604  0.4824  1.0977  1.1413
 3398SOL    HW221657   0.084   3.461  15.506 -0.1429  0.2912 -0.3479
 3399SOL     OW21658   4.696   3.974   6.656 -0.1338 -0.0000  0.4285
 3399SOL    HW121659   4.668   3.883   6.667 -0.6658 -0.0884 -1.5756
 3399SOL    HW221660   0.052   3.962   6.596 -0.9167 -0.5981 -0.4207
 3400SOL     OW21661   4.374   3.424   5.831 -0.4565  0.1764  0.6035
 3400SOL    HW121662   4.366   3.518   5.817 -0.4125 -0.3605 -3.0544
 3400SOL    HW221663   4.381   3.383   5.745  2.2386  2.3758 -0.2320
 3401SOL     OW21664   3.939   1.853   3.364  0.2222  0.9541 -0.0495
 3401SOL    HW121665   3.953   1.880   3.455 -0.5546  0.2484  0.2850
 3401SOL    HW221666   3.880   1.777   3.365 -1.2708  2.0626 -2.5169
 3402SOL     OW21667   3.576   2.698   3.765  0.4750  0.1413 -0.1967
 3402SOL    HW121668   3.594   2.608   3.735  1.8212  0.6410 -0.8761
 3402SOL    HW221669   3.649   2.743   3.723  0.7362  0.4076  0.5606
 3403SOL     OW21670   3.804   1.276   4.010 -0.2796  0.2312 -0.5254
 3403SOL    HW121671   3.717   1.265   3.971 -0.9485  1.9852  0.4428
 3403SOL    HW221672   3.822   1.363   3.975  0.4755 -0.5893 -2.1903
 3404SOL     OW21673   4.596   2.210   6.286 -0.2315  0.1502  0.0408
 3404SOL    HW121674   4.588   2.179   6.196 -1.8346 -3.0763  1.2656
 3404SOL    HW221675   4.548   2.292   6.280 -1.2623 -0.4018  0.7451
 3405SOL     OW21676   3.044   4.425   3.108  0.0604 -0.0191  0.1541
 3405SOL    HW121677   3.071   4.333   3.107  2.1294  0.6227 -3.9874
 3405SOL    HW221678   2.951   4.424   3.130  0.1636 -0.5310  0.5749
 3406SOL     OW21679   0.167   2.196   6.393  0.1989 -0.5777  0.1296
 3406SOL    HW121680   0.198   2.168   6.307 -0.4171  2.0601 -0.9436
 3406SOL    HW221681   0.072   2.205   6.388  0.3127 -0.4867 -1.7262
 3407SOL     OW21682   1.797   4.610   8.503 -0.1740  0.4686  0.5154
 3407SOL    HW121683   1.815   4.677   8.437 -0.3409  2.1730  2.2303
 3407SOL    HW221684   1.702   4.600   8.508 -0.0334 -1.3197 -0.2117
 3408SOL     OW21685   3.137   1.331   7.826  0.2846  0.2760  0.1546
 3408SOL    HW121686   3.153   1.243   7.860  0.2418 -0.0547 -0.6814
 3408SOL    HW221687   3.043   1.335   7.842 -0.1191 -0.7368 -1.8874
 3409SOL     OW21688   1.481   2.756   6.308  0.2049 -0.3118  0.3032
 3409SOL    HW121689   1.429   2.836   6.320 -0.5833 -0.5437 -1.5735
 3409SOL    HW221690   1.421   2.689   6.277 -0.7369  0.2148  0.9740
 3410SOL     OW21691   0.422   1.159   7.158 -0.1945  0.4560  0.0043
 3410SOL    HW121692   0.329   1.145   7.138 -0.7513  1.4375  1.8870
 3410SOL    HW221693   0.451   1.072   7.185 -0.5259  0.0629 -0.8886
 3411SOL     OW21694   2.478   2.429   5.747  0.2355 -0.4843  0.1673
 3411SOL    HW121695   2.471   2.425   5.842  0.1546 -2.9345  0.0530
 3411SOL    HW221696   2.570   2.454   5.743  0.6226 -2.2623 -2.1034
 3412SOL     OW21697   3.374   4.637   9.216  0.3822 -0.0671 -0.0014
 3412SOL    HW121698   3.448   4.677   9.171 -0.0682  1.0958  0.2939
 3412SOL    HW221699   3.415   4.614   9.300 -0.4436 -0.4523  0.3004
 3413SOL     OW21700   2.045   0.389   7.637  0.0045  0.2357  0.6513
 3413SOL    HW121701   2.012   0.476   7.612  0.9648  0.3925 -0.0607
 3413SOL    HW221702   2.082   0.354   7.556 -0.4030 -1.4407  1.1921
 3414SOL     OW21703   3.551   1.350  15.510  0.0154 -0.2442 -0.1537
 3414SOL    HW121704   3.625   1.407  15.487 -0.7412  1.4327  1.6535
 3414SOL    HW221705   3.541   1.374  15.602  1.0329 -3.2636  0.7339
 3415SOL     OW21706   4.128   4.489   3.956  0.1498  0.1848 -0.9040
 3415SOL    HW121707   4.184   4.495   4.033 -0.0321 -0.1299 -0.7449
 3415SOL    HW221708   4.092   4.400   3.951  0.9345 -0.2301  1.0188
 3416SOL     OW21709   3.165   4.283   3.786  0.0252  0.7021 -0.1008
 3416SOL    HW121710   3.196   4.196   3.812  0.0920  1.9016  3.7624
 3416SOL    HW221711   3.165   4.267   3.691  1.8192  1.1504 -0.1732
 3417SOL     OW21712   4.280   4.600  16.037 -0.2818 -0.2496 -0.3076
 3417SOL    HW121713   4.232   4.557  15.966 -2.0650  0.5047  0.4257
 3417SOL    HW221714   4.295   4.525  16.095  0.0092  0.1574  0.1444
 3418SOL     OW21715   2.069   0.155   3.627 -0.1705  0.4066 -0.1904
 3418SOL    HW121716   2.035   0.224   3.685  0.9530  1.5743 -0.9218
 3418SOL    HW221717   2.093   0.093   3.695 -2.0489  0.5018  0.5715
 3419SOL     OW21718   3.659   0.323   7.340 -0.3408 -0.0009  0.5929
 3419SOL    HW121719   3.571   0.349   7.369 -0.2011 -0.4542  1.4240
 3419SOL    HW221720   3.703   0.310   7.424  2.5521  1.9529 -0.6361
 3420SOL     OW21721   1.633   2.796   4.519  0.3014 -0.5553  0.1358
 3420SOL    HW121722   1.684   2.789   4.601  0.5187 -0.4372  0.0113
 3420SOL    HW221723   1.663   2.885   4.500  0.2099 -0.1753  1.7727
 3421SOL     OW21724   1.779   0.612   5.028  0.4198  0.2181  0.0690
 3421SOL    HW121725   1.834   0.561   5.087  0.7496  0.1645 -0.2881
 3421SOL    HW221726   1.785   0.696   5.073  0.2565  0.0697  0.3691
 3422SOL     OW21727   3.894   1.381  10.230 -0.2985  0.4563 -0.0220
 3422SOL    HW121728   3.948   1.434  10.289  0.8624  0.8386 -1.4240
 3422SOL    HW221729   3.808   1.404  10.263 -0.7055 -0.3903 -0.5013
 3423SOL     OW21730   0.748   4.393  11.254  0.6900  0.4937  0.4918
 3423SOL    HW121731   0.722   4.301  11.263 -0.5450  0.9018  1.0149
 3423SOL    HW221732   0.843   4.384  11.259  0.3734 -3.1020  0.0729
 3424SOL     OW21733   1.291   1.473   1.845 -0.3831  0.3997 -0.3759
 3424SOL    HW121734   1.226   1.455   1.913 -1.0243  0.9680 -0.8389
 3424SOL    HW221735   1.245   1.534   1.787 -0.9180  1.1824  0.8571
 3425SOL     OW21736   1.253   2.025   9.210 -0.1466  0.3211  0.2503
 3425SOL    HW121737   1.303   1.944   9.213 -2.0380 -0.8664 -0.4617
 3425SOL    HW221738   1.166   1.992   9.232  0.7064 -1.5265  0.8267
 3426SOL     OW21739   2.540   4.615   4.721 -0.1085 -0.2211  0.5063
 3426SOL    HW121740   2.466   4.588   4.776  1.3523  0.7583  2.9389
 3426SOL    HW221741   2.496   4.679   4.665 -1.0602 -1.6006 -0.3257
 3427SOL     OW21742   4.643   3.102   9.795  0.4054  0.5729 -0.2761
 3427SOL    HW121743   4.570   3.125   9.852  1.0917  0.1590  0.7782
 3427SOL    HW221744   4.717   3.158   9.817  0.5673  0.3009 -0.1318
 3428SOL     OW21745   2.086   1.026  15.393  0.5575  0.0231  0.0325
 3428SOL    HW121746   2.078   0.940  15.350 -0.0785  0.5461 -0.9130
 3428SOL    HW221747   2.022   1.072  15.338 -0.2497 -1.4222 -0.2422
 3429SOL     OW21748   3.582   0.666  11.700 -0.1225 -0.0727 -0.0473
 3429SOL    HW121749   3.615   0.678  11.611 -2.1392 -2.5104 -1.1454
 3429SOL    HW221750   3.567   0.756  11.727 -0.6223 -0.1776  0.0238
 3430SOL     OW21751   0.885   0.679  10.466  0.0756  0.4054 -0.0680
 3430SOL    HW121752   0.835   0.759  10.484 -2.1184 -0.5777 -1.7508
 3430SOL    HW221753   0.942   0.666  10.541  0.4714 -1.2132 -0.6533
 3431SOL     OW21754   4.504   4.121   2.447  0.3644  0.0572  0.2747
 3431SOL    HW121755   4.536   4.152   2.363 -0.4980 -0.9958 -0.4337
 3431SOL    HW221756   4.584   4.091   2.490 -1.0974 -1.1759  2.1281
 3432SOL     OW21757   3.879   0.217  14.635 -0.0581 -0.0459 -0.1694
 3432SOL    HW121758   3.857   0.190  14.724  1.8700 -1.2323 -0.0568
 3432SOL    HW221759   3.917   0.305  14.644  0.7407 -0.4478  0.4535
 3433SOL     OW21760   3.285   0.953  10.014  0.6134  0.5493 -0.5087
 3433SOL    HW121761   3.246   0.988   9.933  0.8646 -1.4927 -1.5100
 3433SOL    HW221762   3.328   0.873   9.984 -1.6415 -0.5080 -0.9405
 3434SOL     OW21763   4.257   1.623   3.764 -0.0110 -0.8521  0.3874
 3434SOL    HW121764   4.216   1.660   3.842 -1.0095 -1.7803  0.3097
 3434SOL    HW221765   4.303   1.700   3.731 -0.0700 -1.0584 -0.1840
 3435SOL     OW21766   4.411   3.220   4.679  0.4166  0.3448 -0.2825
 3435SOL    HW121767   4.421   3.146   4.739  0.6055 -0.4029 -1.2352
 3435SOL    HW221768   4.462   3.285   4.727  0.7812  0.1722 -0.4392
 3436SOL     OW21769   0.358   4.113   6.137  0.0517 -0.2718  0.1649
 3436SOL    HW121770   0.353   4.202   6.103 -0.0644 -1.1054 -1.9661
 3436SOL    HW221771   0.272   4.079   6.110  0.0619  0.9076 -1.3111
 3437SOL     OW21772   3.963   3.035  16.481 -0.1899  0.0358  0.3541
 3437SOL    HW121773   4.023   3.109  16.487  0.0056 -0.0665 -0.3266
 3437SOL    HW221774   3.945   3.026  16.387  0.1755  3.5455 -0.0567
 3438SOL     OW21775   3.617   3.887   8.695  0.3806  0.0970  0.4190
 3438SOL    HW121776   3.625   3.980   8.673  0.0099  0.3828  1.4643
 3438SOL    HW221777   3.565   3.853   8.623  0.7542  2.2371 -0.8496
 3439SOL     OW21778   4.294   1.452  10.344 -0.3991 -0.0230  0.0073
 3439SOL    HW121779   4.201   1.468  10.355 -0.1481  0.6046  1.1472
 3439SOL    HW221780   4.294   1.377  10.284 -3.2396  0.6572 -0.8517
 3440SOL     OW21781   0.564   1.462   0.328  0.2493  0.4834 -0.0138
 3440SOL    HW121782   0.522   1.499   0.405  1.0242 -0.7249  0.9930
 3440SOL    HW221783   0.649   1.434   0.363 -0.5652 -0.2599  1.3314
 3441SOL     OW21784   3.883   3.466   8.916 -0.2586 -0.1783  0.2078
 3441SOL    HW121785   3.954   3.529   8.907  0.2000 -0.7077  0.0804
 3441SOL    HW221786   3.932   3.394   8.956  0.8696  0.2214 -0.4373
 3442SOL     OW21787   2.694   3.941   6.779  0.0342  0.0893 -0.0926
 3442SOL    HW121788   2.636   3.883   6.829 -1.1264  0.1403 -1.3706
 3442SOL    HW221789   2.777   3.929   6.826  0.8299 -0.2266 -1.6083
 3443SOL     OW21790   2.343   4.317   9.405  0.3750  0.0848  0.1056
 3443SOL    HW121791   2.384   4.389   9.453  1.3292  0.3324 -1.0860
 3443SOL    HW221792   2.270   4.287   9.459  0.1663  1.6486  0.6992
 3444SOL     OW21793   1.946   0.672   3.489 -0.0589 -0.4594  0.5423
 3444SOL    HW121794   1.904   0.743   3.539  2.8033  1.6627 -0.0642
 3444SOL    HW221795   2.016   0.707   3.433  0.1087  0.1643  1.1390
 3445SOL     OW21796   1.602   3.358   8.719 -0.0351 -0.0498 -0.6347
 3445SOL    HW121797   1.572   3.446   8.742  0.5406  0.0773 -0.3773
 3445SOL    HW221798   1.611   3.363   8.624 -0.4262 -1.6246 -0.7446
 3446SOL     OW21799   2.426   1.176   3.291 -0.0486 -0.1991  0.1237
 3446SOL    HW121800   2.374   1.256   3.286 -2.0480 -1.4761  0.6736
 3446SOL    HW221801   2.515   1.208   3.276  0.2769 -1.5535 -0.9443
 3447SOL     OW21802   0.878   4.386   0.092  0.2197  0.2240  0.1747
 3447SOL    HW121803   0.793   4.396   0.134  0.3978 -0.3554  0.6772
 3447SOL    HW221804   0.928   4.348   0.164 -1.4298  0.2795  1.3313
 3448SOL     OW21805   2.025   2.176  11.274  0.0685 -0.2617  0.1726
 3448SOL    HW121806   1.946   2.136  11.236 -0.1105  0.3230 -0.0740
 3448SOL    HW221807   2.100   2.143  11.225 -0.8280  0.7730 -1.8947
 3449SOL     OW21808   0.691   3.020   9.061 -0.3931 -0.2358  0.0155
 3449SOL    HW121809   0.673   3.060   8.976 -0.1173  1.2907  0.6866
 3449SOL    HW221810   0.786   3.009   9.066 -0.1617  1.4083 -0.9920
 3450SOL     OW21811   3.734   3.819   6.292 -0.1847  0.2680 -0.5750
 3450SOL    HW121812   3.821   3.781   6.276 -0.5764  0.3396 -2.8674
 3450SOL    HW221813   3.752   3.902   6.337 -0.3291  0.2791 -0.5394
 3451SOL     OW21814   2.666   0.841   2.620  0.3687 -0.3970 -0.5667
 3451SOL    HW121815   2.723   0.767   2.597 -1.5587 -1.5921 -1.4794
 3451SOL    HW221816   2.664   0.900   2.545 -0.9782  0.2026 -0.0422
 3452SOL     OW21817   0.236   0.420   4.525  0.0512 -0.0666  0.1360
 3452SOL    HW121818   0.270   0.457   4.444 -3.4311  0.4381 -1.1188
 3452SOL    HW221819   0.184   0.491   4.562 -1.2929 -0.8207 -0.2738
 3453SOL     OW21820   4.235   4.500   3.501  0.6964 -0.2385 -0.0906
 3453SOL    HW121821   4.186   4.432   3.455 -1.1183  1.3776 -0.5460
 3453SOL    HW221822   4.173   4.516   3.572  0.3232  0.1928 -0.5161
 3454SOL     OW21823   1.609   4.136   6.043 -0.0433  0.0254 -0.1700
 3454SOL    HW121824   1.520   4.166   6.061 -0.5202 -0.9388 -0.9248
 3454SOL    HW221825   1.639   4.208   5.988  1.8437 -0.1339  0.6302
 3455SOL     OW21826   1.499   0.014   2.544 -0.8744  0.0760  0.0238
 3455SOL    HW121827   1.486   4.639   2.559  0.6415 -0.5761 -2.7147
 3455SOL    HW221828   1.586   0.029   2.581 -0.8602  1.8974 -0.7405
 3456SOL     OW21829   4.483   0.074   8.948 -0.2254 -0.5789 -0.3332
 3456SOL    HW121830   4.434   0.067   9.030 -0.2099 -1.2103 -0.3811
 3456SOL    HW221831   4.521   4.706   8.934 -0.0818 -0.4993 -0.4373
 3457SOL     OW21832   3.760   2.878   5.490 -0.1595  0.2858  0.2223
 3457SOL    HW121833   3.758   2.841   5.402  0.8993 -2.1424  1.2182
 3457SOL    HW221834   3.769   2.972   5.474  1.9278  0.1645  0.6643
 3458SOL     OW21835   3.259   3.972   2.635  0.6490  0.2885  0.1448
 3458SOL    HW121836   3.241   4.060   2.668  2.2363  0.6072  0.2010
 3458SOL    HW221837   3.188   3.919   2.672  1.4261 -1.5406 -0.9471
 3459SOL     OW21838   1.763   3.233   6.087  0.4042 -0.0602 -0.3083
 3459SOL    HW121839   1.811   3.293   6.030  0.0278  3.2210  2.8433
 3459SOL    HW221840   1.679   3.276   6.072  0.1036 -0.6905 -0.4628
 3460SOL     OW21841   1.096   3.040   2.614  0.3645 -0.4499 -0.1802
 3460SOL    HW121842   1.120   3.074   2.700  1.9720  1.1908 -1.2689
 3460SOL    HW221843   1.020   3.092   2.588 -1.0584 -1.5184  1.8392
 3461SOL     OW21844   1.319   3.205   5.754 -0.2874  0.0069  0.4672
 3461SOL    HW121845   1.372   3.285   5.748 -1.1614  0.5522  0.0514
 3461SOL    HW221846   1.228   3.232   5.747 -0.8197 -2.6183 -2.7635
 3462SOL     OW21847   2.849   3.691   0.315 -0.2021 -0.7647  0.1461
 3462SOL    HW121848   2.920   3.628   0.304  0.9993  0.7203 -0.6702
 3462SOL    HW221849   2.775   3.636   0.289  0.2639 -1.5567  0.4990
 3463SOL     OW21850   2.757   4.656   1.394 -0.1250  0.0547  0.3308
 3463SOL    HW121851   2.793   4.668   1.482  1.3060 -2.7948  0.1485
 3463SOL    HW221852   2.811   4.577   1.381 -0.2164  0.3926 -2.0637
 3464SOL     OW21853   3.704   3.321   3.712  0.0132  0.3929  0.4188
 3464SOL    HW121854   3.608   3.323   3.708  0.0204 -1.3426 -0.8686
 3464SOL    HW221855   3.709   3.414   3.693 -0.9460 -0.2259 -2.9387
 3465SOL     OW21856   1.582   2.367  12.655  0.2206  0.2850  0.2012
 3465SOL    HW121857   1.498   2.385  12.612  0.5712  2.9490  0.6094
 3465SOL    HW221858   1.580   2.275  12.681 -1.0493  0.5384  0.9933
 3466SOL     OW21859   0.205   0.275   7.543 -0.5612  0.0876 -0.0936
 3466SOL    HW121860   0.129   0.282   7.486 -0.0046  0.8859 -0.7349
 3466SOL    HW221861   0.236   0.365   7.553  1.4043 -0.8867  2.7941
 3467SOL     OW21862   3.659   1.694   3.942 -1.0209 -0.0675 -0.0724
 3467SOL    HW121863   3.646   1.710   4.036 -1.5602  1.1964 -0.3591
 3467SOL    HW221864   3.741   1.742   3.936 -0.4142 -0.9639  0.9299
 3468SOL     OW21865   0.006   1.431   4.408 -0.2870  0.3997  0.2670
 3468SOL    HW121866   0.017   1.524   4.388  1.6599 -0.2715 -1.7872
 3468SOL    HW221867   0.017   1.431   4.503 -0.4441  1.4761  0.2896
 3469SOL     OW21868   4.632   4.466  10.310 -0.0320 -0.3928  0.1000
 3469SOL    HW121869   4.636   4.559  10.336  0.9440 -0.0307 -1.3202
 3469SOL    HW221870   4.539   4.467  10.288  0.4203  1.5202 -1.8495
 3470SOL     OW21871   1.286   4.103   2.413 -0.0297 -0.1922  0.3233
 3470SOL    HW121872   1.309   4.180   2.361 -0.6474  1.4994  2.5596
 3470SOL    HW221873   1.246   4.158   2.480 -2.4388 -0.5086 -0.8253
 3471SOL     OW21874   2.501   1.005   6.224  0.5839 -0.0878 -0.7784
 3471SOL    HW121875   2.569   1.023   6.159  2.4704  0.7449  1.4135
 3471SOL    HW221876   2.452   0.942   6.172 -2.1783  0.9040  0.6351
 3472SOL     OW21877   2.746   3.071   2.721  0.1844 -0.3394  0.3205
 3472SOL    HW121878   2.777   3.144   2.774 -2.3500  1.4693 -0.6891
 3472SOL    HW221879   2.771   3.082   2.630  0.4466  0.8007  0.5368
 3473SOL     OW21880   1.537   1.870  10.332  0.1216  0.2832 -0.4535
 3473SOL    HW121881   1.630   1.852  10.324  0.5742  1.7603  1.4011
 3473SOL    HW221882   1.500   1.804  10.274  1.6347 -2.0904  1.2585
 3474SOL     OW21883   3.672   3.414   5.383  0.9257  0.4015  0.3781
 3474SOL    HW121884   3.639   3.460   5.460 -1.4117  1.1006 -1.0392
 3474SOL    HW221885   3.590   3.400   5.336 -0.4457 -1.7833  3.4866
 3475SOL     OW21886   1.759   1.781   2.819 -0.2077  0.5803 -0.6614
 3475SOL    HW121887   1.796   1.869   2.808 -1.6493  1.7302  3.5191
 3475SOL    HW221888   1.841   1.734   2.803 -0.7005 -0.8080  0.8506
 3476SOL     OW21889   2.734   4.352  17.079 -0.4332 -0.0861 -0.3478
 3476SOL    HW121890   2.674   4.350  17.004 -1.0539  0.5948  0.1306
 3476SOL    HW221891   2.769   4.263  17.081 -1.9924 -0.7003  0.2271
 3477SOL     OW21892   3.197   3.675   6.516  0.8986  0.1286  0.4786
 3477SOL    HW121893   3.258   3.724   6.572 -0.8239  0.8707  1.6799
 3477SOL    HW221894   3.228   3.701   6.429  1.7663 -1.1206  0.4199
 3478SOL     OW21895   2.931   3.461   2.600 -0.6302  0.0128  0.0354
 3478SOL    HW121896   2.891   3.541   2.566  0.2532 -0.3975 -1.9121
 3478SOL    HW221897   2.989   3.428   2.532 -0.5061 -1.8743  1.0339
 3479SOL     OW21898   1.955   3.121   0.550 -0.0273 -0.1375  0.2846
 3479SOL    HW121899   2.010   3.165   0.485  0.3111  0.0496  0.7001
 3479SOL    HW221900   2.011   3.109   0.627  2.3793 -0.9731 -1.5898
 3480SOL     OW21901   3.091   4.056  10.238  0.1492 -0.0354 -0.0670
 3480SOL    HW121902   3.123   4.143  10.265 -0.4456  0.2040 -0.1411
 3480SOL    HW221903   3.179   4.020  10.245  0.9986  1.8677 -0.8782
 3481SOL     OW21904   3.240   2.161   0.743 -0.5136  0.0137  0.1324
 3481SOL    HW121905   3.156   2.131   0.776  0.2432  0.1611  2.2140
 3481SOL    HW221906   3.297   2.084   0.741  1.6781  1.6389  0.5226
 3482SOL     OW21907   3.338   3.749   1.119  0.0773 -1.2769 -0.0584
 3482SOL    HW121908   3.305   3.788   1.200  1.0081  1.3530 -0.9569
 3482SOL    HW221909   3.321   3.658   1.144 -1.5882 -1.3817 -1.5421
 3483SOL     OW21910   0.705   3.005   8.507  0.1425 -0.1342 -0.5892
 3483SOL    HW121911   0.797   2.998   8.483  0.2449  2.0132 -0.8051
 3483SOL    HW221912   0.685   2.912   8.495 -0.8147  0.0682 -0.5515
 3484SOL     OW21913   1.609   1.155  14.592 -0.0360  0.3024  0.3625
 3484SOL    HW121914   1.655   1.221  14.643  1.3827  1.2574 -2.1588
 3484SOL    HW221915   1.521   1.179  14.620 -1.0676 -0.5763 -2.1608
 3485SOL     OW21916   3.646   4.588   4.322  0.5807 -0.5324  0.0468
 3485SOL    HW121917   3.730   4.544   4.339  0.2020 -1.5783 -0.8318
 3485SOL    HW221918   3.642   4.563   4.230  0.3061  0.6622 -0.2733
 3486SOL     OW21919   0.608   4.616  15.609 -0.7802  0.9767 -0.1761
 3486SOL    HW121920   0.588   4.698  15.654  0.7832  1.4304 -0.2844
 3486SOL    HW221921   0.522   4.578  15.590 -0.8957  0.3086  1.6764
 3487SOL     OW21922   4.408   2.437   1.309  0.0806  0.3783  0.0204
 3487SOL    HW121923   4.323   2.474   1.287 -1.2105 -1.9592  1.1330
 3487SOL    HW221924   4.392   2.419   1.402  2.3375 -3.0222 -0.2456
 3488SOL     OW21925   3.447   0.151  15.929  0.4356  0.2468  0.0751
 3488SOL    HW121926   3.493   0.145  15.845  0.7794 -1.7443  0.4050
 3488SOL    HW221927   3.511   0.122  15.994  0.1559 -1.6323 -0.4845
 3489SOL     OW21928   3.597   3.236   5.788 -0.5314  0.4857  0.3505
 3489SOL    HW121929   3.549   3.310   5.824 -2.1929 -0.9163  1.0163
 3489SOL    HW221930   3.532   3.209   5.723  0.2632  0.3098 -0.3771
 3490SOL     OW21931   1.013   4.238   7.434  0.5624  0.0608 -0.3768
 3490SOL    HW121932   1.096   4.215   7.392  1.5259  0.8439  1.1066
 3490SOL    HW221933   0.963   4.297   7.377  2.1045 -0.2768 -2.0703
 3491SOL     OW21934   0.868   0.508   7.254 -0.4696 -0.2874 -0.0062
 3491SOL    HW121935   0.860   0.551   7.339  2.2087  0.0164  0.0963
 3491SOL    HW221936   0.915   0.574   7.203  0.8227 -0.7221  0.6316
 3492SOL     OW21937   4.017   1.605   6.233 -0.2991  0.1519 -1.1048
 3492SOL    HW121938   4.054   1.690   6.207  0.0223  0.3905  0.1190
 3492SOL    HW221939   4.015   1.563   6.147  0.4400 -3.4070  0.6160
 3493SOL     OW21940   3.528   1.542   5.429 -0.6535  0.2644 -0.4687
 3493SOL    HW121941   3.619   1.514   5.420 -0.5558  0.1820  0.8391
 3493SOL    HW221942   3.497   1.502   5.510  0.2779 -1.7636 -1.1180
 3494SOL     OW21943   2.292   3.533   5.376  0.0417  0.0925 -1.3799
 3494SOL    HW121944   2.222   3.468   5.390 -0.8068  0.8433 -2.1142
 3494SOL    HW221945   2.344   3.518   5.454  0.4609  0.0510 -1.6680
 3495SOL     OW21946   4.368   0.028   5.899 -0.8629 -0.1883 -0.1561
 3495SOL    HW121947   4.418   0.108   5.916 -2.8554  0.6778  1.6839
 3495SOL    HW221948   4.424   4.678   5.936  1.5880  0.9200 -1.8329
 3496SOL     OW21949   4.161   2.460  14.899  0.4278 -0.1208 -0.0308
 3496SOL    HW121950   4.174   2.370  14.927 -2.3047 -0.9297 -1.3334
 3496SOL    HW221951   4.245   2.461  14.853  1.0275 -2.0709  1.0410
 3497SOL     OW21952   0.409   1.634   7.071 -0.2206 -0.6116  0.0823
 3497SOL    HW121953   0.469   1.560   7.079  2.4427  1.4842 -0.8687
 3497SOL    HW221954   0.336   1.596   7.121  0.2844  2.0602  2.8705
 3498SOL     OW21955   0.946   3.158   4.664  0.2410  0.2561  0.1673
 3498SOL    HW121956   0.988   3.079   4.699  1.8461  0.9469 -0.1995
 3498SOL    HW221957   0.933   3.218   4.737  2.1221  1.3140 -0.3778
 3499SOL     OW21958   1.251   0.954   8.963 -0.5808 -0.3815  0.2806
 3499SOL    HW121959   1.164   0.925   8.991 -0.3783 -1.3601 -0.1068
 3499SOL    HW221960   1.307   0.918   9.032  2.3023  0.4814 -1.6043
 3500SOL     OW21961   4.176   3.084   0.963  0.1705  0.3912 -0.0394
 3500SOL    HW121962   4.189   3.009   0.904 -0.1212  0.8136 -0.6451
 3500SOL    HW221963   4.247   3.139   0.932  0.1519 -0.2489 -1.2464
 3501SOL     OW21964   0.555   3.753   7.118  0.6180 -0.4685 -0.6679
 3501SOL    HW121965   0.513   3.698   7.184  0.6952  0.2805  0.0104
 3501SOL    HW221966   0.629   3.701   7.090 -0.2122 -0.6104 -2.5663
 3502SOL     OW21967   0.666   2.139   4.853 -0.3157  0.7159  0.1326
 3502SOL    HW121968   0.575   2.169   4.862 -0.6631 -0.0507 -0.8590
 3502SOL    HW221969   0.715   2.221   4.852 -0.1993  0.6702  4.0539
 3503SOL     OW21970   3.767   0.789  14.278 -0.2249  0.3272  0.4140
 3503SOL    HW121971   3.817   0.709  14.296 -0.9874 -0.3312 -0.4271
 3503SOL    HW221972   3.789   0.842  14.355 -0.7647  0.4359  0.4885
 3504SOL     OW21973   3.911   4.634   0.141  0.0442 -0.4740 -0.0484
 3504SOL    HW121974   3.898   4.693   0.216  4.2746 -0.5966  0.7381
 3504SOL    HW221975   3.821   4.602   0.128 -1.0170  1.6997  1.9471
 3505SOL     OW21976   1.393   1.883  16.713 -0.2661 -0.0635  0.2643
 3505SOL    HW121977   1.365   1.882  16.622  0.8514  1.0705 -0.0873
 3505SOL    HW221978   1.487   1.904  16.717  0.3662 -3.3696  2.5964
 3506SOL     OW21979   2.763   1.587   1.897  0.3906 -0.0645  0.1295
 3506SOL    HW121980   2.795   1.677   1.894 -2.0766  0.6726 -3.0524
 3506SOL    HW221981   2.839   1.548   1.941  0.8743 -0.3891 -0.9928
 3507SOL     OW21982   1.271   0.781  16.211  0.3483 -0.4936  0.3542
 3507SOL    HW121983   1.348   0.827  16.179  0.2726 -0.5771  0.0532
 3507SOL    HW221984   1.284   0.771  16.306 -0.0645  0.9515  0.5734
 3508SOL     OW21985   1.418   3.972   2.956  0.9137 -0.1675 -0.2127
 3508SOL    HW121986   1.395   4.063   2.975  0.8695 -0.3030  0.3755
 3508SOL    HW221987   1.392   3.967   2.864  0.7305 -1.1506 -0.1091
 3509SOL     OW21988   0.637   2.355   1.190  0.2399  0.5829  0.3831
 3509SOL    HW121989   0.574   2.294   1.151 -0.7401  1.2914  0.8657
 3509SOL    HW221990   0.691   2.380   1.115 -1.0931  0.8329 -0.4877
 3510SOL     OW21991   3.841   4.561  13.217  0.6023  0.1213  0.4800
 3510SOL    HW121992   3.857   4.520  13.132 -0.4056 -0.8048  0.7413
 3510SOL    HW221993   3.862   4.487  13.274  2.1407  0.3443  0.2086
 3511SOL     OW21994   3.785   0.472  13.349  0.9567 -0.6205  0.1232
 3511SOL    HW121995   3.825   0.385  13.341  3.5171  0.6288 -0.8146
 3511SOL    HW221996   3.834   0.511  13.421 -1.2076  2.2488  0.0206
 3512SOL     OW21997   3.156   3.251   8.542  0.2196 -0.4834  0.0376
 3512SOL    HW121998   3.112   3.172   8.573 -0.2694 -0.6167 -0.9826
 3512SOL    HW221999   3.187   3.286   8.626 -0.1303 -0.7832  0.2903
 3513SOL     OW22000   0.598   0.008  17.129 -0.2733  0.2100  0.1803
 3513SOL    HW122001   0.553   0.050  17.056  1.3201  0.2009 -0.8087
 3513SOL    HW222002   0.610   0.094  17.169  2.8459  0.2031 -0.7778
 3514SOL     OW22003   2.078   4.691   2.354 -0.4617 -0.3694  0.3394
 3514SOL    HW122004   2.063   0.019   2.272  1.7167 -2.3096 -1.1280
 3514SOL    HW222005   2.000   0.015   2.390 -0.5109  0.7071 -1.0520
 3515SOL     OW22006   0.645   1.098   7.402  0.7086 -0.0388  1.4951
 3515SOL    HW122007   0.563   1.052   7.388  0.6093  0.7125 -0.3702
 3515SOL    HW222008   0.709   1.030   7.384  1.8872  1.0980  1.3332
 3516SOL     OW22009   2.191   1.702   1.809  0.3213  0.2274 -0.6400
 3516SOL    HW122010   2.250   1.743   1.746 -1.0272  0.0761 -1.9829
 3516SOL    HW222011   2.254   1.640   1.847  0.1828  1.4594  1.5936
 3517SOL     OW22012   4.467   4.431   4.877 -0.0924  0.2659  0.3863
 3517SOL    HW122013   4.424   4.439   4.962 -1.6198  0.2169 -0.3909
 3517SOL    HW222014   4.423   4.497   4.824 -0.6693 -0.7896 -0.4339
 3518SOL     OW22015   2.697   3.775  10.519 -0.6636  0.3174  0.1284
 3518SOL    HW122016   2.742   3.851  10.481  0.8421 -0.4783  0.2917
 3518SOL    HW222017   2.625   3.824  10.558 -0.9448 -0.3937  0.5085
 3519SOL     OW22018   0.041   1.787  13.533  0.1479  0.3310 -0.2087
 3519SOL    HW122019   4.706   1.848  13.583  0.1318  0.7607 -0.7405
 3519SOL    HW222020   0.050   1.715  13.595  0.6634 -1.0837 -1.9188
 3520SOL     OW22021   3.693   3.970   3.937 -0.0087 -0.1174 -0.2393
 3520SOL    HW122022   3.681   3.921   3.856 -0.1841  1.5313 -1.2255
 3520SOL    HW222023   3.688   4.058   3.898 -0.7343  0.7423  1.7864
 3521SOL     OW22024   0.900   2.298   8.280 -0.6338 -0.0494  0.5859
 3521SOL    HW122025   0.910   2.329   8.190  1.5550 -0.5633  0.6541
 3521SOL    HW222026   0.992   2.279   8.300 -0.3486  0.1140 -0.6221
 3522SOL     OW22027   1.437   0.528   7.096 -0.7406  0.0234 -0.1302
 3522SOL    HW122028   1.351   0.565   7.119  0.7166  2.8902  0.7168
 3522SOL    HW222029   1.501   0.583   7.141 -2.0361  3.0141 -1.9500
 3523SOL     OW22030   2.755   2.134   8.104  0.6932  0.0860 -0.0022
 3523SOL    HW122031   2.794   2.179   8.029 -1.7149  1.5230 -0.3927
 3523SOL    HW222032   2.660   2.147   8.100  0.6778 -0.5120 -1.3810
 3524SOL     OW22033   0.301   2.319   7.105 -0.1783  0.1740  0.0036
 3524SOL    HW122034   0.282   2.240   7.055 -2.1418  1.1634 -0.8051
 3524SOL    HW222035   0.226   2.369   7.072 -0.7374 -1.5368 -1.3119
 3525SOL     OW22036   2.206   4.087   5.362 -0.0858 -0.6523 -0.7033
 3525SOL    HW122037   2.250   4.147   5.302 -0.9963  0.9014  0.1818
 3525SOL    HW222038   2.182   4.020   5.298 -1.7833  0.4180 -1.1938
 3526SOL     OW22039   0.259   1.955   7.906  0.0583  0.9962  0.6839
 3526SOL    HW122040   0.286   1.966   7.815 -1.1116  0.0011  0.2128
 3526SOL    HW222041   0.245   1.861   7.894  3.0256  0.8178 -1.4258
 3527SOL     OW22042   1.488   1.222  13.718  0.1444  0.5576 -0.6117
 3527SOL    HW122043   1.475   1.317  13.721 -1.8817  0.3058 -1.1597
 3527SOL    HW222044   1.400   1.186  13.723  0.1610  0.5266 -0.5402
 3528SOL     OW22045   2.107   3.619   5.998  0.2741  0.2947  0.1427
 3528SOL    HW122046   2.086   3.629   5.905  2.2436  0.6103 -0.2660
 3528SOL    HW222047   2.069   3.698   6.037 -2.5538  0.1339 -2.3003
 3529SOL     OW22048   3.746   1.250   4.282 -0.7417 -0.3619  0.2575
 3529SOL    HW122049   3.695   1.327   4.257  0.4869  0.3235 -0.1508
 3529SOL    HW222050   3.793   1.230   4.201 -0.4397  2.6163 -0.3069
 3530SOL     OW22051   2.942   2.682  14.790  0.3774  0.1597  0.1284
 3530SOL    HW122052   2.991   2.639  14.861  0.1490 -0.2065  0.0624
 3530SOL    HW222053   3.017   2.710  14.737 -0.4997  0.5304 -0.8998
 3531SOL     OW22054   1.161   0.118   7.562 -0.4562  0.3351 -0.1732
 3531SOL    HW122055   1.236   0.099   7.505 -1.6442  2.9830 -2.6178
 3531SOL    HW222056   1.140   0.209   7.542  0.9016  0.4835 -0.9484
 3532SOL     OW22057   0.728   3.765  12.284  0.0512  0.2856  0.2401
 3532SOL    HW122058   0.771   3.801  12.206 -1.2128 -0.6983 -0.9239
 3532SOL    HW222059   0.634   3.780  12.273 -0.6567 -5.1198 -1.2615
 3533SOL     OW22060   0.916   3.405   7.508 -0.1227  0.6511  0.0713
 3533SOL    HW122061   0.897   3.473   7.443  0.4127  0.4836 -0.2589
 3533SOL    HW222062   0.952   3.334   7.455  0.2301  1.9146 -1.3763
 3534SOL     OW22063   3.583   3.748   7.516  0.1452 -0.6252  0.1064
 3534SOL    HW122064   3.670   3.755   7.556 -0.3489 -1.9839  1.4051
 3534SOL    HW222065   3.535   3.709   7.589  1.5058  0.4920  1.5836
 3535SOL     OW22066   0.518   2.952   5.913 -0.1677 -0.5011  0.1995
 3535SOL    HW122067   0.507   3.043   5.886 -1.4760 -0.7118  0.0160
 3535SOL    HW222068   0.608   2.932   5.890 -0.9256 -1.4576 -1.9455
 3536SOL     OW22069   1.279   3.632   1.346 -0.2434 -0.3528  0.5266
 3536SOL    HW122070   1.310   3.545   1.372 -0.5779 -0.6319 -0.0123
 3536SOL    HW222071   1.358   3.673   1.380 -2.2664  1.6212  2.8622
 3537SOL     OW22072   4.482   1.427  16.937 -1.0921 -0.2823  0.0008
 3537SOL    HW122073   4.478   1.507  16.989  2.1026  0.1811 -0.4488
 3537SOL    HW222074   4.507   1.453  16.848  3.1018  1.4505  1.7187
 3538SOL     OW22075   1.367   4.524  13.177 -0.5375 -0.4499 -0.2808
 3538SOL    HW122076   1.298   4.481  13.126  0.6517 -2.3478 -0.3034
 3538SOL    HW222077   1.367   4.610  13.135  1.0276  0.1477  0.9279
 3539SOL     OW22078   1.303   1.380   8.514  0.0945  0.4094 -0.4335
 3539SOL    HW122079   1.227   1.418   8.559  2.0546  1.9469  1.5816
 3539SOL    HW222080   1.323   1.295   8.553 -0.2204  0.3012 -0.5094
 3540SOL     OW22081   0.473   0.651   2.364  1.1146 -0.2471  0.9538
 3540SOL    HW122082   0.441   0.740   2.357  2.0921 -0.0403 -1.0933
 3540SOL    HW222083   0.431   0.611   2.287 -0.1680  2.5621  0.2081
 3541SOL     OW22084   1.813   3.548  15.029  0.4346  0.2305 -0.7467
 3541SOL    HW122085   1.804   3.643  15.019 -1.3571 -0.0133 -1.5353
 3541SOL    HW222086   1.783   3.528  14.940  0.1998  1.3335 -0.9150
 3542SOL     OW22087   3.646   3.890  11.852  0.3923  0.1259 -0.7200
 3542SOL    HW122088   3.613   3.922  11.936  0.4814  0.3674 -0.7742
 3542SOL    HW222089   3.577   3.913  11.790 -0.1518 -2.0181 -0.8924
 3543SOL     OW22090   3.666   0.861  13.749 -0.5612  0.7687  0.1909
 3543SOL    HW122091   3.591   0.847  13.690 -1.2331  1.1820  0.9438
 3543SOL    HW222092   3.652   0.788  13.809 -0.6485  0.7594  0.1599
 3544SOL     OW22093   4.289   0.347   3.082  0.0668 -0.0357 -0.1683
 3544SOL    HW122094   4.294   0.367   2.988 -2.0327 -0.8828 -0.4436
 3544SOL    HW222095   4.276   0.253   3.082 -0.8895  0.0918 -0.7862
 3545SOL     OW22096   1.821   0.559   1.569 -0.0061  0.2004  0.1560
 3545SOL    HW122097   1.856   0.477   1.534  0.5705  1.2661 -1.7089
 3545SOL    HW222098   1.761   0.582   1.498  1.9649  0.2438 -1.4645
 3546SOL     OW22099   2.584   1.560   2.416 -0.0781  0.2717 -0.0774
 3546SOL    HW122100   2.491   1.579   2.420 -0.2229 -0.0836 -1.7748
 3546SOL    HW222101   2.629   1.644   2.403  3.3790 -1.9492 -2.6451
 3547SOL     OW22102   3.204   2.415   7.184 -0.1292 -0.3306  0.7552
 3547SOL    HW122103   3.132   2.471   7.156 -0.1124 -0.1006  1.1654
 3547SOL    HW222104   3.169   2.376   7.264 -1.6964 -1.0190 -0.2840
 3548SOL     OW22105   1.031   0.619  11.185 -0.0800  0.5360  0.4426
 3548SOL    HW122106   0.945   0.661  11.189 -0.5584 -0.5455  1.4530
 3548SOL    HW222107   1.063   0.644  11.271  2.3488  0.5462 -0.4660
 3549SOL     OW22108   0.372   1.986   4.010  0.0901  0.3555 -0.1048
 3549SOL    HW122109   0.400   1.997   3.920 -1.3936  2.2486 -0.3271
 3549SOL    HW222110   0.391   2.075   4.038  1.1865  0.4171 -1.0642
 3550SOL     OW22111   1.777   3.576   2.888  0.1155  0.1657  0.1596
 3550SOL    HW122112   1.733   3.645   2.938  2.5143  1.2402  0.7946
 3550SOL    HW222113   1.763   3.599   2.796 -0.7158  1.3816  0.5866
 3551SOL     OW22114   3.632   1.415  10.309  0.1473  0.5332 -0.3450
 3551SOL    HW122115   3.547   1.371  10.321 -0.0483  0.9394 -0.2615
 3551SOL    HW222116   3.612   1.484  10.372  2.7484  0.1803  0.8876
 3552SOL     OW22117   0.945   2.352   0.774 -0.6765 -0.1854  0.4027
 3552SOL    HW122118   0.929   2.290   0.845  0.0293  0.8320  1.4496
 3552SOL    HW222119   0.864   2.401   0.761  0.0257  0.6236 -0.9751
 3553SOL     OW22120   2.018   1.610  13.238  0.4846  0.3289  0.1804
 3553SOL    HW122121   2.009   1.579  13.148  0.0128  0.5564  0.1459
 3553SOL    HW222122   2.006   1.705  13.232 -2.1351 -0.0874 -1.2643
 3554SOL     OW22123   1.787   0.721   2.481 -0.0572 -0.0409  0.8716
 3554SOL    HW122124   1.697   0.703   2.453 -0.2743  1.5583  0.5358
 3554SOL    HW222125   1.832   0.685   2.405  0.8708 -1.3056  2.0085
 3555SOL     OW22126   3.804   3.945   5.926  0.4475 -0.1472  0.3940
 3555SOL    HW122127   3.772   3.855   5.932 -0.8992  0.2724 -0.5975
 3555SOL    HW222128   3.815   3.959   5.832 -1.3811 -1.6810 -0.0372
 3556SOL     OW22129   4.120   1.457   9.247  0.1967 -0.5451 -0.6837
 3556SOL    HW122130   4.051   1.393   9.264 -0.6445 -0.1586 -2.7273
 3556SOL    HW222131   4.063   1.526   9.216  0.4047  0.1829  0.5488
 3557SOL     OW22132   1.435   3.348   5.500 -0.0145  0.0946  0.0241
 3557SOL    HW122133   1.354   3.298   5.486  0.1731 -0.4051  0.7010
 3557SOL    HW222134   1.491   3.294   5.444  0.0334  0.8109 -0.6220
 3558SOL     OW22135   0.478   3.683  13.946  0.5691  0.3462  0.1997
 3558SOL    HW122136   0.493   3.594  13.978 -0.0023 -0.2639 -1.2082
 3558SOL    HW222137   0.476   3.662  13.852  2.0131 -0.1000  0.2584
 3559SOL     OW22138   4.349   1.650   5.902 -0.1409  0.6381  0.1087
 3559SOL    HW122139   4.430   1.684   5.865  0.1498 -0.2723 -0.1129
 3559SOL    HW222140   4.360   1.665   5.996 -2.7192 -1.0652  0.6805
 3560SOL     OW22141   3.908   2.447   2.145 -0.7037  0.3695  0.2154
 3560SOL    HW122142   3.946   2.368   2.106 -3.1998 -1.1809  0.9123
 3560SOL    HW222143   3.858   2.494   2.078 -0.9742  1.0966  0.9127
 3561SOL     OW22144   3.793   4.193   8.025  0.1419 -0.0432  0.4216
 3561SOL    HW122145   3.726   4.214   7.960  2.0877 -2.7910 -2.4859
 3561SOL    HW222146   3.821   4.109   7.988  0.9485  0.2524  0.3558
 3562SOL     OW22147   1.441   0.886   7.630 -0.4219 -0.5313 -0.1630
 3562SOL    HW122148   1.380   0.829   7.676 -1.1022 -1.5904 -2.3739
 3562SOL    HW222149   1.501   0.814   7.609  0.4821  0.0052  0.5895
 3563SOL     OW22150   4.385   0.509   3.534 -0.5657  0.0136  0.3755
 3563SOL    HW122151   4.294   0.534   3.519 -0.7358 -0.2143  1.0190
 3563SOL    HW222152   4.387   0.421   3.497 -0.7409 -0.0754  0.5734
 3564SOL     OW22153   3.593   1.605  11.414  0.5846 -0.1680 -0.0402
 3564SOL    HW122154   3.574   1.656  11.492 -0.6125 -1.1163  0.2754
 3564SOL    HW222155   3.650   1.542  11.459 -0.2396 -0.2903  0.8000
 3565SOL     OW22156   1.318   0.837   9.302  0.1189  0.1297  0.7301
 3565SOL    HW122157   1.296   0.929   9.318  1.7339  0.5877  0.3573
 3565SOL    HW222158   1.366   0.835   9.219  0.8063 -0.1700  1.1325
 3566SOL     OW22159   4.066   0.142   4.459 -0.1297 -0.2606  0.4404
 3566SOL    HW122160   4.029   0.170   4.375 -0.7909 -0.3022  0.7203
 3566SOL    HW222161   3.986   0.135   4.511  0.1450  0.3766  0.9453
 3567SOL     OW22162   0.162   3.517  15.352 -0.1824  0.2933 -0.4173
 3567SOL    HW122163   0.183   3.493  15.261 -0.5920  0.7225 -0.6236
 3567SOL    HW222164   0.250   3.502  15.388 -0.9662  0.6049  1.5906
 3568SOL     OW22165   0.109   0.446  11.521  1.2680 -0.0381 -0.0945
 3568SOL    HW122166   0.176   0.503  11.484  0.4979  1.4571  0.8556
 3568SOL    HW222167   0.076   0.498  11.594 -0.5653 -0.4989 -0.5941
 3569SOL     OW22168   0.568   1.721   9.249 -0.1311  0.3563  0.2566
 3569SOL    HW122169   0.617   1.645   9.279  0.3381  0.2335 -0.8187
 3569SOL    HW222170   0.481   1.691   9.275 -0.0637  0.4458  0.5891
 3570SOL     OW22171   4.238   0.480   4.831 -0.3636 -0.4753 -0.5491
 3570SOL    HW122172   4.286   0.563   4.837 -0.7559 -0.3890  1.3298
 3570SOL    HW222173   4.223   0.471   4.736  2.4988 -0.1282 -1.0382
 3571SOL     OW22174   4.144   3.093  15.181 -0.2579 -0.0163  0.3679
 3571SOL    HW122175   4.067   3.056  15.138  1.5798 -1.4229 -1.7416
 3571SOL    HW222176   4.140   3.049  15.266 -2.5545  0.8202  0.6792
 3572SOL     OW22177   1.348   0.965  13.321  0.2329  0.4983 -0.0154
 3572SOL    HW122178   1.320   0.874  13.325  1.7524  0.0225 -0.4482
 3572SOL    HW222179   1.436   0.941  13.349 -0.7225  0.6263  3.0332
 3573SOL     OW22180   4.054   4.580  17.216  0.4723 -0.0418  0.4100
 3573SOL    HW122181   3.961   4.603  17.212  0.7050  0.1741 -3.4446
 3573SOL    HW222182   4.087   4.645  17.278 -1.8579 -0.0917  1.6913
 3574SOL     OW22183   1.064   3.770   9.048 -0.2347  0.0730  0.1615
 3574SOL    HW122184   1.077   3.729   9.133 -3.4188 -0.4061  0.4025
 3574SOL    HW222185   0.970   3.754   9.047 -0.0649 -0.9771  1.3996
 3575SOL     OW22186   1.681   0.651   7.169 -0.0971  0.7222 -0.0563
 3575SOL    HW122187   1.663   0.572   7.219  0.2067  2.3121  2.5711
 3575SOL    HW222188   1.773   0.675   7.184  0.0759  0.8306 -1.2927
 3576SOL     OW22189   4.358   0.481   6.333  0.2949  0.5868  0.3616
 3576SOL    HW122190   4.347   0.397   6.378 -0.3696  0.6263  0.2787
 3576SOL    HW222191   4.440   0.497   6.379 -0.4122  1.8188  1.1767
 3577SOL     OW22192   2.391   3.535  16.291 -0.0233 -0.0857  0.2542
 3577SOL    HW122193   2.324   3.551  16.224  1.0012  1.0256 -0.5073
 3577SOL    HW222194   2.378   3.605  16.356 -2.6976 -0.8658  0.5803
 3578SOL     OW22195   3.737   1.094   2.588  0.1429  0.6823  0.2743
 3578SOL    HW122196   3.820   1.127   2.622 -0.0515  1.0874  0.3520
 3578SOL    HW222197   3.748   1.114   2.495 -0.6681  1.2586  0.2993
 3579SOL     OW22198   0.426   2.295  10.816  0.1870 -0.1773 -0.0376
 3579SOL    HW122199   0.416   2.286  10.911  2.0780  2.4397  0.4309
 3579SOL    HW222200   0.518   2.322  10.822  1.1153 -3.0350 -1.5789
 3580SOL     OW22201   2.644   3.629   7.145  0.0395 -0.9196  0.0062
 3580SOL    HW122202   2.632   3.534   7.152 -0.4306 -0.6830  2.2089
 3580SOL    HW222203   2.594   3.644   7.225 -0.9008 -0.6150 -0.6262
 3581SOL     OW22204   0.497   1.954   6.701 -0.0079  0.0171  0.8185
 3581SOL    HW122205   0.424   2.008   6.669  1.9251  1.9292 -0.3525
 3581SOL    HW222206   0.543   2.024   6.747  3.5778 -2.0947  0.4638
 3582SOL     OW22207   3.596   1.989   7.601  0.4611  0.1436 -0.5728
 3582SOL    HW122208   3.565   2.073   7.568 -0.0041  0.3386  0.3404
 3582SOL    HW222209   3.645   2.013   7.679  0.0132 -0.2008 -0.1784
 3583SOL     OW22210   3.116   2.344   2.210 -0.0963  0.4187 -0.0364
 3583SOL    HW122211   3.167   2.424   2.206  1.0068 -0.1170  2.8132
 3583SOL    HW222212   3.183   2.275   2.210 -1.8911 -1.3553 -1.9687
 3584SOL     OW22213   2.185   0.306  15.408  0.3408 -0.6406  0.0433
 3584SOL    HW122214   2.186   0.401  15.400  0.4455 -0.8432 -2.3711
 3584SOL    HW222215   2.231   0.294  15.491 -0.9209 -2.2487  0.5216
 3585SOL     OW22216   2.824   2.923   4.483 -0.3471  0.0219  0.1366
 3585SOL    HW122217   2.749   2.980   4.502  0.2757  0.7774  0.3655
 3585SOL    HW222218   2.806   2.841   4.528 -1.4841  0.5246  0.6068
 3586SOL     OW22219   2.913   3.762  15.447 -0.3383  0.1003  0.4535
 3586SOL    HW122220   2.957   3.815  15.515 -1.2307  1.5302 -0.0763
 3586SOL    HW222221   2.835   3.817  15.437  0.1664  0.8433  0.5244
 3587SOL     OW22222   0.336   3.854  13.620 -0.0902 -0.1289 -0.6427
 3587SOL    HW122223   0.252   3.810  13.636 -0.6027  0.9427 -0.3925
 3587SOL    HW222224   0.364   3.818  13.536  0.6126  1.4122 -1.0720
 3588SOL     OW22225   1.556   4.408   9.646 -0.0033 -0.2309  0.8410
 3588SOL    HW122226   1.649   4.384   9.648 -0.2702 -1.3234  0.4585
 3588SOL    HW222227   1.542   4.391   9.553 -2.7521  0.4499  1.1247
 3589SOL     OW22228   0.283   0.561   3.917 -0.6161  0.0343  0.3433
 3589SOL    HW122229   0.314   0.555   3.827 -1.7563 -0.7885  0.0050
 3589SOL    HW222230   0.271   0.467   3.929  1.5430 -0.2083  0.6196
 3590SOL     OW22231   3.714   3.539  15.021 -0.2038  0.1369 -0.0101
 3590SOL    HW122232   3.703   3.545  14.926 -0.1097 -2.3244 -0.1673
 3590SOL    HW222233   3.681   3.623  15.054  0.4917  0.4783 -0.1759
 3591SOL     OW22234   0.033   0.541  12.249 -0.2463  0.7642 -0.7902
 3591SOL    HW122235   0.041   0.460  12.299  0.9109  0.9860 -0.6164
 3591SOL    HW222236   4.716   0.603  12.313 -0.2623 -0.1977  0.1342
 3592SOL     OW22237   0.949   4.216   9.514 -0.2157  0.2542  0.3471
 3592SOL    HW122238   1.015   4.147   9.519  0.7974  1.0481 -2.3959
 3592SOL    HW222239   0.983   4.281   9.453 -0.2081 -1.0166 -0.9792
 3593SOL     OW22240   4.272   3.880   5.332 -0.7213  0.3733  0.7557
 3593SOL    HW122241   4.347   3.823   5.350  0.5311  1.9966  0.6704
 3593SOL    HW222242   4.317   3.961   5.308  1.6417 -1.0273  0.4216
 3594SOL     OW22243   0.335   0.864  16.513 -0.5876  0.0971  0.1780
 3594SOL    HW122244   0.262   0.891  16.459  0.3475 -0.5836 -1.4441
 3594SOL    HW222245   0.353   0.774  16.486  1.2220  0.0471  1.5328
 3595SOL     OW22246   4.357   0.770   8.115 -0.5094  0.1948  0.0666
 3595SOL    HW122247   4.269   0.807   8.125  0.7833  3.7321 -1.7787
 3595SOL    HW222248   4.336   0.676   8.123  0.2587  0.1150  1.1976
 3596SOL     OW22249   4.692   2.888   3.830 -0.2284  0.5541 -0.3075
 3596SOL    HW122250   4.704   2.957   3.765 -2.7301 -1.1517 -2.5997
 3596SOL    HW222251   4.601   2.903   3.853  0.1236  3.0658 -0.6239
 3597SOL     OW22252   1.131   0.118  11.647 -0.2301 -0.0427 -0.2684
 3597SOL    HW122253   1.154   0.193  11.701  1.3540 -1.2120  0.6652
 3597SOL    HW222254   1.106   0.056  11.716 -0.0726  0.8851  0.6242
 3598SOL     OW22255   2.190   2.443   9.307  0.3751 -0.1094 -0.0536
 3598SOL    HW122256   2.129   2.495   9.359 -0.0243 -0.5893 -0.0460
 3598SOL    HW222257   2.254   2.513   9.290  0.1775  0.7918  2.8891
 3599SOL     OW22258   2.815   1.391  16.266 -0.3397  0.1451  0.4025
 3599SOL    HW122259   2.744   1.417  16.207 -1.0222  1.9935  2.0383
 3599SOL    HW222260   2.850   1.316  16.218 -0.6861 -1.5688  2.8024
 3600SOL     OW22261   1.011   2.494   1.750  0.2418 -0.1019  0.6969
 3600SOL    HW122262   0.999   2.416   1.696 -0.3604 -1.2545  2.4838
 3600SOL    HW222263   0.945   2.474   1.816 -1.2404  1.1372 -0.4095
 3601SOL     OW22264   1.424   0.716  10.971  0.3794 -0.0169  0.3700
 3601SOL    HW122265   1.408   0.804  10.936 -3.1493 -0.7083  0.2350
 3601SOL    HW222266   1.514   0.736  10.996  0.2026  2.3660 -0.9224
 3602SOL     OW22267   1.168   1.306  15.912  0.1337 -0.0491  0.8484
 3602SOL    HW122268   1.115   1.291  15.835  0.0663 -2.4475  1.3812
 3602SOL    HW222269   1.113   1.247  15.963 -0.7032 -0.0787 -0.0984
 3603SOL     OW22270   4.374   3.150   1.327  0.1273 -0.3025 -0.2861
 3603SOL    HW122271   4.405   3.095   1.399 -0.5797 -1.8466 -1.1607
 3603SOL    HW222272   4.292   3.105   1.305 -1.4942  3.3603 -1.8813
 3604SOL     OW22273   0.800   3.979   9.584 -0.7746  0.3412  0.1749
 3604SOL    HW122274   0.858   4.051   9.557 -1.9468  1.3642  0.3875
 3604SOL    HW222275   0.843   3.935   9.657 -1.5022 -0.3243  0.1983
 3605SOL     OW22276   1.742   1.890   2.109 -0.0572  0.7315  0.3832
 3605SOL    HW122277   1.791   1.929   2.036 -0.3403 -0.4091 -0.4213
 3605SOL    HW222278   1.705   1.970   2.146 -2.8858 -0.7216  0.6752
 3606SOL     OW22279   3.639   0.941   5.396 -0.5080  0.6252  0.4006
 3606SOL    HW122280   3.608   0.858   5.432  0.6978  0.0648  0.1681
 3606SOL    HW222281   3.631   0.913   5.304  2.7143 -0.6035  0.4793
 3607SOL     OW22282   4.674   1.222  16.948  0.0490  0.2548  0.3236
 3607SOL    HW122283   4.587   1.260  16.933 -0.2844 -0.6967 -0.1691
 3607SOL    HW222284   4.666   1.205  17.042  0.8853 -2.0582 -0.0414
 3608SOL     OW22285   1.954   3.842   5.427 -0.2942 -0.9018 -0.0778
 3608SOL    HW122286   1.918   3.929   5.445  0.1948 -0.6709 -0.2324
 3608SOL    HW222287   2.015   3.825   5.499 -0.4087  1.0039  0.4823
 3609SOL     OW22288   1.805   1.651   0.236 -0.4721  0.1746 -0.1188
 3609SOL    HW122289   1.853   1.576   0.203  1.4603  1.0792  0.6280
 3609SOL    HW222290   1.715   1.649   0.202 -1.0726 -3.1474  1.6915
 3610SOL     OW22291   2.123   3.055   4.387  0.5869 -0.2848  0.1959
 3610SOL    HW122292   2.177   3.013   4.453  0.1521 -0.0329  0.7139
 3610SOL    HW222293   2.038   3.044   4.430  0.4502  0.2521  0.0738
 3611SOL     OW22294   1.619   3.832   5.517 -0.5563  0.4460 -0.3392
 3611SOL    HW122295   1.537   3.856   5.560 -0.4516  0.2504 -0.0252
 3611SOL    HW222296   1.588   3.748   5.483  0.4801 -0.0688 -0.0197
 3612SOL     OW22297   2.748   1.402   7.912  0.2026 -0.3204  0.8326
 3612SOL    HW122298   2.733   1.420   7.819 -0.0563  0.6812  1.0649
 3612SOL    HW222299   2.667   1.445   7.939 -0.0468 -1.0625  1.2632
 3613SOL     OW22300   4.656   4.321   0.599  0.3034 -0.2402  0.1123
 3613SOL    HW122301   4.649   4.395   0.539  0.4888 -0.3661 -0.0609
 3613SOL    HW222302   4.699   4.353   0.679 -0.2889  0.6371  0.0816
 3614SOL     OW22303   3.022   1.936  12.145  0.6444  0.5155 -0.2931
 3614SOL    HW122304   3.044   1.993  12.071  0.3098  0.4183 -0.4669
 3614SOL    HW222305   3.095   1.877  12.126 -0.6418 -1.2570  0.3322
 3615SOL     OW22306   4.456   1.216   4.357 -0.0056 -0.1108 -0.6429
 3615SOL    HW122307   4.508   1.194   4.280 -0.2572  0.5576 -0.9986
 3615SOL    HW222308   4.500   1.175   4.432 -1.3087  1.4518  0.9677
 3616SOL     OW22309   1.488   0.821   9.054 -0.0934 -0.3954 -0.3929
 3616SOL    HW122310   1.545   0.860   8.988 -0.0829  0.3865  0.0825
 3616SOL    HW222311   1.547   0.773   9.112  1.0868 -1.3217 -2.3712
 3617SOL     OW22312   2.993   1.552  16.683  0.0908 -0.5082 -0.7845
 3617SOL    HW122313   2.902   1.522  16.691 -0.4040  0.0501 -4.2340
 3617SOL    HW222314   2.992   1.639  16.722 -0.3434 -0.5263 -0.7493
 3618SOL     OW22315   4.499   4.033  16.922  0.1136  0.0612 -0.1124
 3618SOL    HW122316   4.472   4.110  16.972 -1.5090  0.6755 -1.8915
 3618SOL    HW222317   4.594   4.036  16.915  0.2902 -1.4554  1.8844
 3619SOL     OW22318   4.428   4.282   3.545 -0.1014  0.3057  0.7010
 3619SOL    HW122319   4.385   4.359   3.508  0.3502  0.0282 -0.3945
 3619SOL    HW222320   4.420   4.308   3.637  0.5685  2.8067  0.0595
 3620SOL     OW22321   0.701   2.679  12.130 -0.1215 -0.6148 -0.1414
 3620SOL    HW122322   0.642   2.610  12.161  0.4054 -1.0414 -0.0711
 3620SOL    HW222323   0.636   2.749  12.135 -0.8193 -1.3238  0.8495
 3621SOL     OW22324   0.158   0.763   4.072 -0.2417 -0.3998  0.3735
 3621SOL    HW122325   0.191   0.691   4.018  1.0110 -0.4867  1.2514
 3621SOL    HW222326   0.066   0.747   4.052 -0.3719 -2.6724  2.9776
 3622SOL     OW22327   3.052   2.808   1.748  0.1996  0.2910  0.5547
 3622SOL    HW122328   2.957   2.815   1.748  0.1722 -0.1580 -0.3527
 3622SOL    HW222329   3.071   2.724   1.790 -1.5057 -0.4435 -0.1614
 3623SOL     OW22330   4.567   2.804   0.334 -0.2125 -0.2331 -0.4702
 3623SOL    HW122331   4.523   2.728   0.373 -0.0642 -0.0258  0.0996
 3623SOL    HW222332   4.657   2.781   0.314 -0.8029 -2.2288 -0.8377
 3624SOL     OW22333   1.951   1.850   8.469  0.6567 -0.2627 -0.0948
 3624SOL    HW122334   1.920   1.778   8.523 -0.3488  0.0571 -0.2424
 3624SOL    HW222335   1.963   1.811   8.382  0.9988 -1.4409  0.4938
 3625SOL     OW22336   2.905   0.248   8.984  0.1771 -0.0301 -0.3741
 3625SOL    HW122337   2.850   0.318   9.021  2.0823  1.3252 -0.1172
 3625SOL    HW222338   2.951   0.240   9.067 -1.9257 -1.3561  0.6654
 3626SOL     OW22339   1.758   2.114  11.197 -0.1613 -0.0040 -0.1851
 3626SOL    HW122340   1.716   2.185  11.148 -0.7442 -0.3435 -0.1657
 3626SOL    HW222341   1.694   2.107  11.267 -1.0802  0.0921 -1.0273
 3627SOL     OW22342   3.804   0.349   6.607  0.2698  0.5710  0.1756
 3627SOL    HW122343   3.867   0.284   6.640 -1.9288 -1.0676  1.1335
 3627SOL    HW222344   3.786   0.395   6.689 -1.7346  0.3056 -0.1329
 3628SOL     OW22345   1.509   2.052   0.973  0.0793 -0.0750 -0.2482
 3628SOL    HW122346   1.442   2.025   1.035  1.4453 -0.9892  0.8291
 3628SOL    HW222347   1.477   2.020   0.889  0.4520 -0.6436 -0.1744
 3629SOL     OW22348   1.121   4.331   2.298 -0.4678  0.5546  0.3357
 3629SOL    HW122349   1.172   4.396   2.249  0.0636 -1.1111 -1.3343
 3629SOL    HW222350   1.043   4.381   2.322 -0.7786  0.4983 -0.5643
 3630SOL     OW22351   1.917   0.811   4.671  0.1114 -0.0918  0.4253
 3630SOL    HW122352   1.902   0.883   4.732  1.3603 -1.3987  2.2779
 3630SOL    HW222353   1.957   0.859   4.598  0.3226 -0.1014  0.5357
 3631SOL     OW22354   4.681   1.736   3.918  0.3907 -0.3856 -0.1954
 3631SOL    HW122355   4.678   1.688   3.835 -1.8461 -2.9576  1.3648
 3631SOL    HW222356   0.058   1.745   3.919  0.4714 -1.0443 -3.7043
 3632SOL     OW22357   2.139   0.639   8.317  0.0017  0.0549 -0.3283
 3632SOL    HW122358   2.114   0.658   8.407  0.7159 -0.2709 -0.0619
 3632SOL    HW222359   2.221   0.591   8.331 -0.5392 -0.1777  1.9820
 3633SOL     OW22360   3.688   3.489   7.294  0.0217 -0.0250  0.0367
 3633SOL    HW122361   3.717   3.472   7.205  1.6207  0.5280  0.4500
 3633SOL    HW222362   3.696   3.584   7.291 -0.2028  0.1075  3.0783
 3634SOL     OW22363   4.364   0.121   7.116 -0.4641 -0.1849 -0.2144
 3634SOL    HW122364   4.445   0.092   7.074 -0.1421 -1.6888  1.4413
 3634SOL    HW222365   4.367   0.085   7.205 -1.1069  0.8719  0.2384
 3635SOL     OW22366   2.532   0.880   8.046  0.3082 -0.1071  0.0639
 3635SOL    HW122367   2.589   0.827   8.102 -0.6152 -2.4412 -1.2175
 3635SOL    HW222368   2.451   0.890   8.098  1.7412  0.5291  2.2052
 3636SOL     OW22369   2.505   0.746   5.750 -0.0791 -0.0082 -0.5318
 3636SOL    HW122370   2.480   0.654   5.736  1.7515 -0.2190 -2.3785
 3636SOL    HW222371   2.548   0.764   5.666  1.6815  0.7352  0.5523
 3637SOL     OW22372   2.281   1.813  11.912 -0.4419  0.3891  0.8265
 3637SOL    HW122373   2.368   1.789  11.879 -1.5649 -0.9318 -1.2189
 3637SOL    HW222374   2.234   1.737  11.877  2.3695 -1.5203  1.2461
 3638SOL     OW22375   0.173   3.885   0.634 -0.2025  0.6959 -0.1385
 3638SOL    HW122376   0.209   3.917   0.716 -1.0231 -1.2991  1.0014
 3638SOL    HW222377   0.152   3.967   0.589 -0.6038  0.3712 -0.5444
 3639SOL     OW22378   2.853   1.828   6.226 -0.5884 -0.7463  0.6093
 3639SOL    HW122379   2.814   1.781   6.152 -0.7154  0.9333 -0.3795
 3639SOL    HW222380   2.882   1.758   6.284  0.7984 -0.5986  0.0898
 3640SOL     OW22381   2.720   2.328   9.500  0.8049 -0.0929 -0.1666
 3640SOL    HW122382   2.713   2.412   9.544  1.9463 -0.4701  0.7421
 3640SOL    HW222383   2.746   2.354   9.411 -1.2411  1.2678 -0.3679
 3641SOL     OW22384   0.121   1.996  14.608  0.1143 -0.3651 -0.1466
 3641SOL    HW122385   0.088   1.924  14.662  0.9340 -1.3933 -1.0228
 3641SOL    HW222386   0.208   1.978  14.643 -0.2138 -0.7054  0.5012
 3642SOL     OW22387   3.272   0.904   6.179 -0.1011 -0.1243  0.2468
 3642SOL    HW122388   3.217   0.979   6.201 -0.0360  0.5402 -1.8876
 3642SOL    HW222389   3.278   0.868   6.268 -0.4186 -2.0804 -0.5109
 3643SOL     OW22390   3.879   4.353   2.447  0.4867  0.6518  0.2522
 3643SOL    HW122391   3.839   4.336   2.532 -0.8115 -1.3809 -0.7361
 3643SOL    HW222392   3.896   4.267   2.408  0.5879  0.2676  1.1638
 3644SOL     OW22393   2.735   0.235   8.780  0.6745  0.2602  0.1875
 3644SOL    HW122394   2.782   0.308   8.740  0.0025  0.8226  0.4255
 3644SOL    HW222395   2.789   0.216   8.856 -2.0034 -0.8067  1.8329
 3645SOL     OW22396   0.793   4.641   8.124 -0.0297  0.1304  0.2112
 3645SOL    HW122397   0.727   4.578   8.094  1.4014 -0.6460 -1.2952
 3645SOL    HW222398   0.795   4.621   8.218  2.6005  1.3829  0.4039
 3646SOL     OW22399   1.458   3.306   2.815 -0.2832  0.0254  0.3630
 3646SOL    HW122400   1.365   3.286   2.828 -0.3261  0.2048  0.3215
 3646SOL    HW222401   1.452   3.348   2.729 -0.3953  1.0622  0.8784
 3647SOL     OW22402   1.547   0.436   9.639 -0.0508  0.1351  0.1002
 3647SOL    HW122403   1.551   0.459   9.732  1.7020  2.2695 -0.5012
 3647SOL    HW222404   1.602   0.501   9.596 -2.7097  2.4925  0.2772
 3648SOL     OW22405   2.178   2.925   8.860  0.2956  0.2486 -0.3649
 3648SOL    HW122406   2.125   2.852   8.892 -0.6469  0.8224 -0.6005
 3648SOL    HW222407   2.116   2.969   8.801  0.1131  3.2305  2.0675
 3649SOL     OW22408   0.394   3.211   8.933  0.4700  0.2786 -0.2195
 3649SOL    HW122409   0.462   3.229   8.868  1.4968 -0.5982  0.6055
 3649SOL    HW222410   0.354   3.129   8.905  0.8257  0.5682 -1.5474
 3650SOL     OW22411   0.218   0.440   7.267 -0.3360  0.5888 -0.2943
 3650SOL    HW122412   0.144   0.417   7.210  0.0808 -1.5399  0.0308
 3650SOL    HW222413   0.190   0.514   7.321 -0.6199 -0.5391  1.1258
 3651SOL     OW22414   0.563   1.371   3.270 -0.0978  0.3242  0.2190
 3651SOL    HW122415   0.502   1.301   3.293  0.7014 -0.6918 -0.8136
 3651SOL    HW222416   0.498   1.440   3.253 -0.9309 -0.5244 -0.0700
 3652SOL     OW22417   1.966   1.963   0.961  0.1303  0.2457 -0.1126
 3652SOL    HW122418   1.920   1.975   0.878  0.0738  0.3447 -0.0666
 3652SOL    HW222419   2.015   2.045   0.962  0.3167  0.1397 -0.9558
 3653SOL     OW22420   4.363   3.795   6.760 -0.4604 -0.0878 -0.2027
 3653SOL    HW122421   4.434   3.731   6.766 -1.5655 -1.2343  0.7367
 3653SOL    HW222422   4.399   3.883   6.772  1.6644 -0.8308 -1.0658
 3654SOL     OW22423   4.132   4.069   9.084 -0.2126 -0.2359 -0.2362
 3654SOL    HW122424   4.188   3.992   9.089  0.5717  0.2160 -2.1062
 3654SOL    HW222425   4.045   4.028   9.081  0.3730 -1.3462 -1.7247
 3655SOL     OW22426   1.443   4.457   2.565 -0.3753 -0.5091  0.2564
 3655SOL    HW122427   1.489   4.374   2.574  2.1162  0.8829  0.5713
 3655SOL    HW222428   1.446   4.466   2.470 -1.4904 -1.7623  0.1094
 3656SOL     OW22429   2.793   0.844   7.645 -0.0953  0.0989 -0.0238
 3656SOL    HW122430   2.857   0.802   7.587  0.6472 -0.5033  1.2410
 3656SOL    HW222431   2.824   0.932   7.623  0.4315 -0.2929 -0.8217
 3657SOL     OW22432   0.141   4.115   0.483  0.0420  0.3336  0.4087
 3657SOL    HW122433   0.192   4.192   0.509  0.6810 -0.4761  1.5589
 3657SOL    HW222434   0.053   4.148   0.467  0.0158 -0.0357 -0.2176
 3658SOL     OW22435   4.669   3.631   5.523 -0.4855 -0.2923  0.4181
 3658SOL    HW122436   4.696   3.720   5.503  0.2037 -0.2012  1.7266
 3658SOL    HW222437   0.033   3.595   5.555 -0.4748  0.0120  0.7321
 3659SOL     OW22438   2.449   1.789   2.802  0.5331 -0.0780 -0.2563
 3659SOL    HW122439   2.536   1.816   2.772 -0.3908  4.1293  0.8842
 3659SOL    HW222440   2.415   1.722   2.743  2.3370 -1.8670  0.7337
 3660SOL     OW22441   2.463   0.126   2.742 -0.4244  0.4991  0.0525
 3660SOL    HW122442   2.408   0.144   2.819 -0.4178  0.2286  0.1187
 3660SOL    HW222443   2.548   0.157   2.773  0.0653 -0.6567 -0.1294
 3661SOL     OW22444   3.294   0.244   5.411  0.1313  0.0349  0.1199
 3661SOL    HW122445   3.378   0.207   5.439  0.8745  0.8409 -1.0233
 3661SOL    HW222446   3.309   0.337   5.396  0.6773 -0.1571 -0.5394
 3662SOL     OW22447   1.973   3.754  13.894  0.1487 -0.2557 -0.3645
 3662SOL    HW122448   1.974   3.661  13.917  0.5570  0.0438  0.8182
 3662SOL    HW222449   1.916   3.737  13.819 -2.3004  2.5658  0.8548
 3663SOL     OW22450   3.590   0.207   6.866 -0.3793  0.1847  0.3257
 3663SOL    HW122451   3.662   0.261   6.898  0.0825  0.6002 -1.4165
 3663SOL    HW222452   3.525   0.275   6.847 -0.7598 -0.1040  0.5812
 3664SOL     OW22453   0.547   3.331   6.137 -0.0823  0.0110 -0.0085
 3664SOL    HW122454   0.506   3.306   6.220  1.5518  0.7111  0.9857
 3664SOL    HW222455   0.485   3.304   6.069  0.2879 -0.7308 -0.0526
 3665SOL     OW22456   1.119   1.951   9.532 -0.0727  0.1957 -0.0206
 3665SOL    HW122457   1.129   1.969   9.625  0.0352  0.0889 -0.0104
 3665SOL    HW222458   1.184   2.010   9.493  0.9409 -1.0384 -0.2089
 3666SOL     OW22459   2.338   2.529   5.283 -0.4332  0.2086 -0.1950
 3666SOL    HW122460   2.343   2.436   5.259  2.9241  0.5951 -1.0293
 3666SOL    HW222461   2.299   2.531   5.370  2.4031 -2.0238  1.1352
 3667SOL     OW22462   4.049   4.691  13.469 -0.1318 -0.1359  0.8917
 3667SOL    HW122463   4.082   4.602  13.453 -0.5092 -0.7485  3.4879
 3667SOL    HW222464   3.984   4.675  13.537  0.0377 -1.3127  0.7858
 3668SOL     OW22465   4.193   4.202  12.359 -0.3422  0.4159 -0.2766
 3668SOL    HW122466   4.288   4.209  12.357 -0.2808 -0.3805 -0.2345
 3668SOL    HW222467   4.170   4.261  12.288 -0.2203  2.2522  1.1831
 3669SOL     OW22468   1.773   4.075   5.461  0.1633 -0.6792  0.5901
 3669SOL    HW122469   1.697   4.129   5.478  0.0466 -1.4899  2.6296
 3669SOL    HW222470   1.737   3.987   5.460  0.2653 -0.6514 -4.1233
 3670SOL     OW22471   4.324   2.987   1.936  0.3577 -0.2665  0.0963
 3670SOL    HW122472   4.312   3.059   1.874  0.4152 -0.6398 -0.3500
 3670SOL    HW222473   4.363   3.040   2.006  0.7662 -0.0108 -0.3218
 3671SOL     OW22474   1.255   2.556   6.196  0.6020 -0.1250  0.2975
 3671SOL    HW122475   1.243   2.538   6.289 -0.5940 -0.5018  0.0699
 3671SOL    HW222476   1.166   2.549   6.160  0.0561  0.7550  1.4802
 3672SOL     OW22477   3.384   3.768  17.337  0.0833  0.3793  0.0864
 3672SOL    HW122478   3.294   3.789  17.313  0.0221 -1.0827 -0.9797
 3672SOL    HW222479   3.435   3.849  17.343 -1.4101  1.2703  0.6164
 3673SOL     OW22480   4.390   3.381   2.958 -0.4397  0.1047  0.5973
 3673SOL    HW122481   4.394   3.321   3.033 -0.2243 -1.2755 -0.5215
 3673SOL    HW222482   4.464   3.353   2.905 -0.2368 -1.8806  1.9122
 3674SOL     OW22483   3.313   4.468   7.526  0.5318 -0.2227 -0.6886
 3674SOL    HW122484   3.297   4.412   7.450 -0.0353 -0.3669 -0.4643
 3674SOL    HW222485   3.286   4.414   7.601  2.7076  0.4376  0.5688
 3675SOL     OW22486   3.703   2.645   0.409  0.3907  0.2077 -0.1217
 3675SOL    HW122487   3.771   2.579   0.394 -0.5827 -0.8663  0.2279
 3675SOL    HW222488   3.680   2.628   0.500 -0.2622 -2.9320 -0.8606
 3676SOL     OW22489   3.614   4.074  16.275 -0.2197  0.3613  0.5598
 3676SOL    HW122490   3.635   4.065  16.182  1.4817 -3.8612  1.3645
 3676SOL    HW222491   3.538   4.133  16.276 -0.4066  0.1224  0.4154
 3677SOL     OW22492   3.439   3.291  16.790 -0.3448 -0.8020 -0.0611
 3677SOL    HW122493   3.534   3.301  16.798 -0.1510 -2.8000  0.2261
 3677SOL    HW222494   3.422   3.297  16.696  3.0983  2.5655 -0.4906
 3678SOL     OW22495   1.257   3.489   6.079 -0.1587 -0.1173 -0.1472
 3678SOL    HW122496   1.231   3.566   6.028  0.9705  0.1152 -0.3530
 3678SOL    HW222497   1.215   3.425   6.022  0.8592  0.5134 -1.6070
 3679SOL     OW22498   3.761   4.245   2.921  0.0645 -0.5555 -0.6701
 3679SOL    HW122499   3.840   4.294   2.900  0.3569 -1.0191 -0.6486
 3679SOL    HW222500   3.789   4.153   2.924  2.0640  0.1082  0.8037
 3680SOL     OW22501   1.700   0.975   7.202  0.2994 -0.1834 -0.5111
 3680SOL    HW122502   1.678   1.013   7.287  2.3995  1.6724 -0.8154
 3680SOL    HW222503   1.683   0.883   7.222 -2.6229  0.0876 -1.6521
 3681SOL     OW22504   2.154   0.843  10.784  0.3332 -0.0217 -0.5450
 3681SOL    HW122505   2.172   0.925  10.738 -0.6225  0.7182  0.3717
 3681SOL    HW222506   2.173   0.778  10.717 -0.6870 -0.8522 -0.0300
 3682SOL     OW22507   0.088   4.435   8.597  0.1657 -0.2984  0.2189
 3682SOL    HW122508   0.103   4.349   8.637  0.2994  0.4219  1.7232
 3682SOL    HW222509   0.173   4.474   8.617 -0.6025  1.3722  0.1783
 3683SOL     OW22510   3.711   3.602   4.007  0.0572  0.1723  0.3262
 3683SOL    HW122511   3.682   3.688   4.038 -0.2720  0.4657 -0.8011
 3683SOL    HW222512   3.626   3.557   4.009  0.9664 -1.4960  1.0343
 3684SOL     OW22513   4.715   0.859  12.309  0.4377 -0.3747  0.0532
 3684SOL    HW122514   0.074   0.889  12.261  0.4024 -1.9418 -0.9934
 3684SOL    HW222515   0.028   0.860  12.400  0.5871 -1.4577  0.0093
 3685SOL     OW22516   2.747   4.095   6.359 -0.0067  0.0893 -0.4663
 3685SOL    HW122517   2.705   4.030   6.415  1.1706  0.3808  0.7303
 3685SOL    HW222518   2.804   4.143   6.419  0.0283 -0.6009  0.0379
 3686SOL     OW22519   0.937   1.678   2.378  0.4201  0.0739  0.1738
 3686SOL    HW122520   0.920   1.653   2.287 -0.2553  1.5963 -0.1025
 3686SOL    HW222521   0.952   1.771   2.360  0.0755  0.0067 -0.4499
 3687SOL     OW22522   2.823   2.738  10.592 -0.6850 -0.4661 -0.3273
 3687SOL    HW122523   2.754   2.801  10.570  0.4480  0.2010 -1.9487
 3687SOL    HW222524   2.894   2.777  10.542  1.7843 -1.3447  2.5046
 3688SOL     OW22525   0.575   0.504  10.853  0.0829  0.6717 -1.1453
 3688SOL    HW122526   0.537   0.474  10.770 -2.1687 -0.1180  0.1633
 3688SOL    HW222527   0.596   0.421  10.896 -3.7944 -0.1749 -0.9353
 3689SOL     OW22528   1.849   1.577   4.019 -0.2565 -0.4425 -0.3096
 3689SOL    HW122529   1.909   1.611   4.086  0.5920  0.2837 -1.4269
 3689SOL    HW222530   1.877   1.486   4.016 -0.6329 -0.5664 -0.0477
 3690SOL     OW22531   0.035   0.502  16.170  0.0487 -0.0238  0.6635
 3690SOL    HW122532   0.037   0.553  16.089  2.3070 -2.4322 -0.7920
 3690SOL    HW222533   0.058   0.565  16.238  1.3442  1.5197 -1.2015
 3691SOL     OW22534   0.209   3.185   0.825  0.0723  0.2817 -0.0770
 3691SOL    HW122535   0.278   3.120   0.815  0.7931  1.5417 -3.1905
 3691SOL    HW222536   0.200   3.190   0.920  3.4910  2.7064  0.0924
 3692SOL     OW22537   3.057   2.677   5.188  0.3014  0.2800 -0.4387
 3692SOL    HW122538   3.023   2.676   5.098  0.5843  0.3357 -0.5449
 3692SOL    HW222539   3.027   2.590   5.215 -2.8266  1.6641  0.5611
 3693SOL     OW22540   3.152   1.994   3.437 -0.2419 -0.3995  0.1133
 3693SOL    HW122541   3.234   2.042   3.447 -0.5770 -0.7724  4.4481
 3693SOL    HW222542   3.092   2.068   3.451 -0.4949 -0.3927 -1.0179
 3694SOL     OW22543   3.494   2.915  10.941 -0.5651 -0.2234 -0.5129
 3694SOL    HW122544   3.494   2.943  11.033 -0.4700 -1.4038 -0.1622
 3694SOL    HW222545   3.525   2.988  10.888 -1.1611  0.5105  0.1389
 3695SOL     OW22546   4.093   2.497   6.120 -0.5955 -0.4174 -0.0190
 3695SOL    HW122547   4.111   2.557   6.193  0.7604  1.0719 -1.5713
 3695SOL    HW222548   4.158   2.539   6.063 -1.0988 -0.1713 -0.4046
 3696SOL     OW22549   2.688   2.572   8.581  0.2845 -0.0561  0.3042
 3696SOL    HW122550   2.612   2.535   8.536 -1.1435  1.7545  1.2311
 3696SOL    HW222551   2.657   2.579   8.672 -0.2674 -0.4352  0.1418
 3697SOL     OW22552   0.476   3.825   4.147  0.8849 -0.2177 -0.3025
 3697SOL    HW122553   0.523   3.905   4.125  1.6882 -0.0043  2.1418
 3697SOL    HW222554   0.531   3.756   4.109 -0.4995 -1.3611 -0.2216
 3698SOL     OW22555   2.489   0.498  16.267 -0.2427 -0.8090 -0.2134
 3698SOL    HW122556   2.402   0.493  16.226 -0.2748 -0.9901 -0.1227
 3698SOL    HW222557   2.466   0.478  16.357 -0.4065  1.1342  0.1729
 3699SOL     OW22558   3.779   0.641   0.393  0.3279  0.4068  0.3511
 3699SOL    HW122559   3.807   0.557   0.355  2.9793  1.0728  0.8060
 3699SOL    HW222560   3.846   0.648   0.461 -1.8965 -0.0547  2.5705
 3700SOL     OW22561   0.607   0.135  16.424  0.3958  0.0763  0.5926
 3700SOL    HW122562   0.530   0.123  16.367  0.4099 -1.9127  0.9980
 3700SOL    HW222563   0.681   0.120  16.365  1.0277  1.7116  0.9609
 3701SOL     OW22564   4.562   0.670   7.224  0.3644  0.3063 -0.3311
 3701SOL    HW122565   4.472   0.698   7.240 -0.1008 -0.9542 -0.7230
 3701SOL    HW222566   4.539   0.578   7.209  0.8671  0.3125 -1.1467
 3702SOL     OW22567   2.105   1.774   5.485 -0.4848  0.2067  0.0271
 3702SOL    HW122568   2.167   1.838   5.520 -0.9496  0.7067 -0.0572
 3702SOL    HW222569   2.050   1.821   5.422 -0.0651  2.2237  1.1655
 3703SOL     OW22570   4.417   0.444   6.786  0.1713 -0.8156  0.2362
 3703SOL    HW122571   4.378   0.484   6.864 -0.3548 -1.5124  0.3266
 3703SOL    HW222572   4.336   0.432   6.738  0.1290 -1.0519  0.3668
 3704SOL     OW22573   1.540   4.717   5.519 -0.3594  0.1356 -0.0039
 3704SOL    HW122574   1.568   4.703   5.609 -1.5298  1.8880  0.6468
 3704SOL    HW222575   1.626   4.694   5.483 -0.4060  1.2623 -0.8554
 3705SOL     OW22576   3.775   4.687   4.056 -0.1207  0.5920 -0.0042
 3705SOL    HW122577   3.821   4.614   4.098  0.9838  0.0987 -2.0457
 3705SOL    HW222578   3.709   4.641   4.004 -1.3267  1.3191  0.8821
 3706SOL     OW22579   3.887   1.847   3.935  0.2221 -0.0175 -0.2739
 3706SOL    HW122580   3.867   1.940   3.943  0.7787 -0.0113  1.0272
 3706SOL    HW222581   3.974   1.841   3.975  0.3022 -1.3107 -0.6207
 3707SOL     OW22582   1.366   2.275   6.743 -0.0626 -0.0523  0.2575
 3707SOL    HW122583   1.313   2.239   6.672  0.7610 -1.2838  0.2632
 3707SOL    HW222584   1.395   2.195   6.787  0.2047  0.4253  0.9401
 3708SOL     OW22585   2.705   2.551   1.058 -0.0234  0.1406 -0.6010
 3708SOL    HW122586   2.697   2.638   1.098  0.2043  0.3341 -0.9744
 3708SOL    HW222587   2.726   2.499   1.135  2.6342  0.3076 -1.2130
 3709SOL     OW22588   3.505   2.507  11.150  0.0736  0.0535 -0.2845
 3709SOL    HW122589   3.507   2.560  11.230  1.3033 -2.6639  1.5069
 3709SOL    HW222590   3.588   2.530  11.109  0.3217  3.0172  1.8188
 3710SOL     OW22591   2.969   0.441   7.448 -0.0779  0.0463 -0.5957
 3710SOL    HW122592   2.912   0.453   7.525 -0.6449  0.8349 -1.1343
 3710SOL    HW222593   3.025   0.517   7.436  2.0246 -1.1438  1.7092
 3711SOL     OW22594   0.632   1.061   6.171  0.1659  0.2867 -0.2413
 3711SOL    HW122595   0.621   1.119   6.096  1.7113  0.7402 -0.1206
 3711SOL    HW222596   0.707   1.006   6.148 -0.7405 -0.5769 -1.1110
 3712SOL     OW22597   3.750   1.988   2.159  0.0915 -0.4423 -0.6356
 3712SOL    HW122598   3.704   2.050   2.216  3.2734  0.5956  0.8176
 3712SOL    HW222599   3.822   1.969   2.220 -0.4183 -2.0201 -0.5227
 3713SOL     OW22600   1.155   3.811   2.237 -0.4702  0.3550 -0.2354
 3713SOL    HW122601   1.170   3.796   2.144  1.4888 -0.5960  0.2384
 3713SOL    HW222602   1.103   3.890   2.242 -0.2781  0.3655  1.7198
 3714SOL     OW22603   0.048   4.154   1.730  0.0982  0.3437  0.4730
 3714SOL    HW122604   4.674   4.156   1.704  0.1187  1.0693  0.4549
 3714SOL    HW222605   0.098   4.135   1.651  1.4364 -0.7033  1.5699
 3715SOL     OW22606   3.380   3.109   1.507  0.2728  0.6065 -0.1822
 3715SOL    HW122607   3.297   3.080   1.544  0.1496  0.2545 -0.7301
 3715SOL    HW222608   3.406   3.031   1.458 -1.0472  0.0941 -0.0525
 3716SOL     OW22609   0.697   1.195   6.634 -0.2536  0.0357 -0.0804
 3716SOL    HW122610   0.784   1.156   6.630 -1.1054 -2.0108  1.3138
 3716SOL    HW222611   0.689   1.225   6.543 -0.3082 -2.1251 -0.7823
 3717SOL     OW22612   0.251   2.037   5.163 -0.5994 -0.4738  0.1797
 3717SOL    HW122613   0.339   2.006   5.142 -0.1700  1.6841 -1.1532
 3717SOL    HW222614   0.200   1.959   5.141 -1.2536  0.6808 -2.3687
 3718SOL     OW22615   2.751   2.148   2.387 -0.0047  0.3197  0.3047
 3718SOL    HW122616   2.749   2.238   2.355  1.9367 -0.0262 -0.7465
 3718SOL    HW222617   2.712   2.109   2.308  2.1764 -0.5465 -0.3355
 3719SOL     OW22618   4.107   1.325   5.651 -0.2004 -0.2589 -0.3036
 3719SOL    HW122619   4.081   1.233   5.660 -1.4383  0.0728 -0.4677
 3719SOL    HW222620   4.177   1.334   5.715 -1.9021  0.1796  1.5086
 3720SOL     OW22621   0.186   3.917  13.213 -0.0648  0.3921 -0.0192
 3720SOL    HW122622   0.244   3.867  13.271 -0.3051 -0.8598 -0.8764
 3720SOL    HW222623   0.171   3.997  13.264 -1.8239 -0.7968  1.2930
 3721SOL     OW22624   3.059   0.726  13.101 -0.5656 -0.6143 -0.0324
 3721SOL    HW122625   2.970   0.693  13.090 -0.0821 -1.9234 -0.0662
 3721SOL    HW222626   3.085   0.685  13.184 -2.4740 -1.5037  0.1299
 3722SOL     OW22627   2.144   0.005   4.728 -0.0927 -0.0869  0.2505
 3722SOL    HW122628   2.200   0.028   4.654  0.0891 -0.0367  0.4027
 3722SOL    HW222629   2.192   4.648   4.763  0.6140 -0.3447 -1.2771
 3723SOL     OW22630   4.652   4.217   6.034 -0.1009  0.0588  0.3456
 3723SOL    HW122631   4.563   4.214   5.998 -0.3934 -2.7056  1.3024
 3723SOL    HW222632   4.655   4.303   6.075 -1.6002  0.6352 -0.7667
 3724SOL     OW22633   1.553   0.595  16.784 -0.2969 -0.2905 -0.3784
 3724SOL    HW122634   1.634   0.552  16.811  0.2502  0.7613 -0.3502
 3724SOL    HW222635   1.500   0.560  16.856  0.4913  0.3426  0.5035
 3725SOL     OW22636   1.834   4.036   6.202  0.1813  0.4430  0.4625
 3725SOL    HW122637   1.753   4.050   6.153 -0.2844 -2.7140  0.3187
 3725SOL    HW222638   1.816   4.068   6.290  0.8666  0.1446  0.7152
 3726SOL     OW22639   3.106   0.579  11.604  0.5059  0.0887  0.0776
 3726SOL    HW122640   3.060   0.496  11.589  0.9069  0.1327 -1.3620
 3726SOL    HW222641   3.043   0.618  11.665 -0.2546  0.2578 -0.8254
 3727SOL     OW22642   1.469   3.670   2.210 -0.4584  0.3789 -0.0645
 3727SOL    HW122643   1.384   3.627   2.213 -0.7983  1.0299 -0.4634
 3727SOL    HW222644   1.493   3.638   2.123 -0.7659  0.7031 -0.2687
 3728SOL     OW22645   2.066   0.342   8.986 -0.1287 -0.6145 -0.4323
 3728SOL    HW122646   2.105   0.394   9.056  0.0552 -0.9685 -0.2673
 3728SOL    HW222647   2.123   0.266   8.977 -0.6925 -0.8676 -1.9740
 3729SOL     OW22648   2.097   0.013   5.326  0.3483 -0.0106  0.0301
 3729SOL    HW122649   2.077   4.656   5.382 -0.9916  1.3338  1.3650
 3729SOL    HW222650   2.192   0.010   5.316  0.2557 -1.7203 -0.3307
 3730SOL     OW22651   0.770   3.610   6.999 -0.0916  0.1123 -0.0064
 3730SOL    HW122652   0.805   3.664   6.928 -2.2444  1.6197  0.0746
 3730SOL    HW222653   0.834   3.539   6.991  0.0594  0.4101 -1.5198
 3731SOL     OW22654   2.761   4.577  15.118  0.1674 -0.2971  0.0742
 3731SOL    HW122655   2.741   4.667  15.143  0.1749 -0.8294  2.0217
 3731SOL    HW222656   2.855   4.580  15.106  0.2457 -0.5425  0.6053
 3732SOL     OW22657   2.923   3.784   1.206 -0.0090 -0.5367  0.1921
 3732SOL    HW122658   2.978   3.853   1.170  2.2862 -0.9685  2.9816
 3732SOL    HW222659   2.838   3.814   1.174 -0.8203 -2.3114  0.6449
 3733SOL     OW22660   0.530   4.223  11.739 -0.3012 -0.1247 -0.0378
 3733SOL    HW122661   0.589   4.182  11.675  1.3550  0.0530  1.3716
 3733SOL    HW222662   0.528   4.308  11.696  1.3012 -0.6795 -1.2345
 3734SOL     OW22663   1.323   4.522   1.496  0.1291  0.4232  0.3096
 3734SOL    HW122664   1.304   4.604   1.450  0.9693  0.5044  0.1017
 3734SOL    HW222665   1.364   4.558   1.575 -1.1686  2.5102  0.0443
 3735SOL     OW22666   2.960   0.640  12.391 -0.1724  0.0480  0.4569
 3735SOL    HW122667   3.051   0.626  12.365 -0.9397 -0.6656 -1.8630
 3735SOL    HW222668   2.953   0.591  12.473  0.1251  0.5972  0.8083
 3736SOL     OW22669   3.642   1.785   2.449 -0.0402  0.5272 -0.4644
 3736SOL    HW122670   3.668   1.723   2.517  1.7774  0.9378 -0.7798
 3736SOL    HW222671   3.718   1.791   2.392  0.3990 -1.0041 -0.0497
 3737SOL     OW22672   2.548   3.722   6.059  0.5800 -0.1152 -0.2483
 3737SOL    HW122673   2.586   3.679   6.135  0.2585 -2.5927 -1.5024
 3737SOL    HW222674   2.487   3.783   6.102  3.2672  1.3604  1.4654
 3738SOL     OW22675   1.159   4.564   4.345  0.0670 -0.1250 -0.4421
 3738SOL    HW122676   1.084   4.590   4.291  1.0722  0.4230 -1.5718
 3738SOL    HW222677   1.120   4.483   4.378 -0.3378  0.4107  0.3961
 3739SOL     OW22678   3.080   3.281  14.464 -0.1524 -0.1121  0.1418
 3739SOL    HW122679   3.101   3.363  14.509 -0.8181  0.6168 -0.8795
 3739SOL    HW222680   3.165   3.245  14.441 -0.1119 -0.1817  0.3929
 3740SOL     OW22681   0.062   3.106   8.142  0.0901  0.8165  0.0951
 3740SOL    HW122682   0.003   3.067   8.077 -0.6924  0.7750  0.8277
 3740SOL    HW222683   0.046   3.200   8.134  2.0399  1.0465 -0.8421
 3741SOL     OW22684   2.489   0.980  16.778 -0.7083  0.0967 -0.5713
 3741SOL    HW122685   2.432   1.054  16.757  0.3355  0.3880 -2.3577
 3741SOL    HW222686   2.545   0.986  16.700 -0.9505 -1.2730 -0.8464
 3742SOL     OW22687   0.967   0.770   7.171 -0.3342  0.0508  0.5956
 3742SOL    HW122688   1.001   0.858   7.155  0.6929 -0.1920  1.5078
 3742SOL    HW222689   0.943   0.775   7.263 -1.2677  2.9675  0.1979
 3743SOL     OW22690   3.158   1.511  16.025  0.0320 -0.1654  0.3744
 3743SOL    HW122691   3.151   1.480  16.115 -0.6164  0.2600  0.4752
 3743SOL    HW222692   3.077   1.559  16.007  0.1099  0.6003  2.0039
 3744SOL     OW22693   1.573   1.344   2.903  0.2214 -0.4051 -0.0232
 3744SOL    HW122694   1.511   1.271   2.901 -0.2063  0.0047 -1.8921
 3744SOL    HW222695   1.619   1.333   2.820 -0.3980 -1.8203 -0.1706
 3745SOL     OW22696   3.510   1.717   6.367 -0.2436  0.0086  0.2514
 3745SOL    HW122697   3.581   1.753   6.315  0.7204 -2.9063 -0.4841
 3745SOL    HW222698   3.548   1.647   6.421  0.0542  0.1118  0.1753
 3746SOL     OW22699   0.757   3.526  17.282  0.1409 -0.1190 -0.5396
 3746SOL    HW122700   0.782   3.600  17.227 -2.4651  0.7634 -0.5430
 3746SOL    HW222701   0.841   3.483  17.267 -0.1803 -0.5930 -0.9913
 3747SOL     OW22702   0.748   1.352  15.814  0.1185 -0.4010 -0.3218
 3747SOL    HW122703   0.659   1.348  15.779  0.9744  1.2715 -2.7403
 3747SOL    HW222704   0.756   1.429  15.870  1.2652 -1.7577  1.3644
 3748SOL     OW22705   0.541   1.921   4.723 -0.1998  0.3493  0.3282
 3748SOL    HW122706   0.566   1.999   4.773 -1.9884  0.8006  0.5359
 3748SOL    HW222707   0.479   1.951   4.657 -0.0082  0.0212  0.0015
 3749SOL     OW22708   1.590   0.923  16.869 -0.5051  0.1697  0.2098
 3749SOL    HW122709   1.583   0.848  16.928 -1.4121  0.6889  0.7635
 3749SOL    HW222710   1.663   0.957  16.920 -0.8373  1.1408  0.0389
 3750SOL     OW22711   2.187   4.124  12.081  0.1698 -0.1528 -0.2272
 3750SOL    HW122712   2.191   4.175  12.162 -1.2776 -0.9786  0.3807
 3750SOL    HW222713   2.209   4.036  12.112 -1.9823 -0.5819  0.0939
 3751SOL     OW22714   3.695   0.939   6.339 -0.3215  0.1288 -0.5236
 3751SOL    HW122715   3.673   1.012   6.396 -0.5175  0.5268 -1.1046
 3751SOL    HW222716   3.658   0.970   6.256  1.4358 -1.0541 -1.7322
 3752SOL     OW22717   1.369   1.000  10.915 -0.0466 -0.4610 -0.6615
 3752SOL    HW122718   1.410   1.029  10.997 -1.7267 -1.9168  0.6997
 3752SOL    HW222719   1.446   0.997  10.858  1.9267  2.6726  1.8346
 3753SOL     OW22720   1.573   4.478   4.900 -0.3824 -0.0515  0.0794
 3753SOL    HW122721   1.505   4.463   4.835  1.7187  1.9427 -2.5926
 3753SOL    HW222722   1.644   4.415   4.888 -0.5715 -0.3510  0.5111
 3754SOL     OW22723   3.090   3.874  10.446  0.3196 -0.0355  0.3733
 3754SOL    HW122724   3.022   3.915  10.392 -1.3932 -1.8453  1.1629
 3754SOL    HW222725   3.172   3.916  10.419 -0.0612  0.6562  0.2899
 3755SOL     OW22726   1.630   2.299   5.979  0.3764  0.5652 -0.0114
 3755SOL    HW122727   1.580   2.378   5.957  0.0114  0.5216  0.6472
 3755SOL    HW222728   1.595   2.292   6.068 -0.2639 -1.3080 -0.4026
 3756SOL     OW22729   4.618   1.018   5.509  0.1104  0.5389  0.0572
 3756SOL    HW122730   4.617   0.965   5.429  0.5158  1.0723 -0.2959
 3756SOL    HW222731   4.680   1.086   5.483  0.5128  0.5776  1.1413
 3757SOL     OW22732   3.828   0.185   2.430  0.0343  0.4059  0.5961
 3757SOL    HW122733   3.881   0.124   2.379  0.2636  0.9718  0.1475
 3757SOL    HW222734   3.854   0.159   2.519  0.3954  2.5563  1.1317
 3758SOL     OW22735   1.760   2.557   3.331 -0.1948 -0.1044 -0.1493
 3758SOL    HW122736   1.753   2.649   3.305 -0.0403  0.1299  0.6378
 3758SOL    HW222737   1.828   2.530   3.269 -0.8412  0.8790 -1.2874
 3759SOL     OW22738   4.231   4.592  12.912 -0.0372 -0.2976 -0.4654
 3759SOL    HW122739   4.231   4.503  12.946 -0.5502 -1.1937 -2.7921
 3759SOL    HW222740   4.222   4.656  12.982  0.8222  0.4011 -0.9989
 3760SOL     OW22741   0.311   0.332   5.379  0.1029 -0.5945  0.5507
 3760SOL    HW122742   0.255   0.316   5.456  0.0204  0.9810  0.8223
 3760SOL    HW222743   0.303   0.250   5.330  2.3828 -1.2979  1.3578
 3761SOL     OW22744   4.029   2.120   4.626  0.0123 -0.1228  0.3764
 3761SOL    HW122745   4.007   2.038   4.670  2.5392 -0.5867  0.7508
 3761SOL    HW222746   4.123   2.102   4.619  0.1435  0.3321  1.0144
 3762SOL     OW22747   0.834   0.260   9.642  0.1117 -0.0177 -0.1222
 3762SOL    HW122748   0.782   0.194   9.596 -0.6153 -0.5991  1.5528
 3762SOL    HW222749   0.800   0.252   9.731 -0.5344  1.4637 -0.2441
 3763SOL     OW22750   0.729   4.567  14.322  0.2120 -0.5024  0.3199
 3763SOL    HW122751   0.817   4.585  14.289 -0.5437 -1.0769 -1.9738
 3763SOL    HW222752   0.730   4.637  14.388  1.9765  1.4802 -1.8111
 3764SOL     OW22753   2.821   1.238   8.541 -0.6464 -0.3610  0.4404
 3764SOL    HW122754   2.839   1.251   8.447  0.8856 -0.8610  0.6726
 3764SOL    HW222755   2.740   1.287   8.552 -1.7395 -1.3809 -3.0159
 3765SOL     OW22756   3.270   3.789  10.891  0.4852  0.5737 -0.2431
 3765SOL    HW122757   3.342   3.817  10.835  0.3153 -3.1360 -2.3041
 3765SOL    HW222758   3.322   3.756  10.965  0.8777  1.0594 -0.3017
 3766SOL     OW22759   1.923   1.537  12.970  0.4281  0.5844  0.2066
 3766SOL    HW122760   1.945   1.535  12.877 -1.8123  0.1074 -0.3218
 3766SOL    HW222761   1.870   1.617  12.971  1.3438  1.2006 -0.1859
 3767SOL     OW22762   3.309   4.184   8.094 -0.8936  0.0662  0.1830
 3767SOL    HW122763   3.233   4.223   8.136 -1.0123 -0.3362  0.3402
 3767SOL    HW222764   3.272   4.142   8.016  0.2506 -1.3562  0.4107
 3768SOL     OW22765   2.383   3.372   4.059 -0.1729 -0.2767  0.1661
 3768SOL    HW122766   2.380   3.306   4.129 -2.3562 -0.1542  0.1826
 3768SOL    HW222767   2.304   3.348   4.011  0.7690  0.7733 -1.8687
 3769SOL     OW22768   2.696   2.885   5.148 -0.1415 -0.1132  0.0395
 3769SOL    HW122769   2.742   2.947   5.092 -1.5426 -0.0251 -1.0257
 3769SOL    HW222770   2.755   2.885   5.223  0.1242 -0.5151 -0.1706
 3770SOL     OW22771   4.470   0.123   0.533  0.1108  0.1205 -0.4941
 3770SOL    HW122772   4.465   0.148   0.625 -0.4641  0.7445 -0.6915
 3770SOL    HW222773   4.377   0.100   0.525  0.0436 -0.0934  0.9349
 3771SOL     OW22774   3.623   0.857  16.048  0.0105  0.6600 -0.0917
 3771SOL    HW122775   3.529   0.875  16.058 -0.4336  0.0296 -2.9901
 3771SOL    HW222776   3.638   0.765  16.027  0.9421  1.1723 -1.6779
 3772SOL     OW22777   1.026   2.069   7.567  0.2021 -0.2280 -0.0930
 3772SOL    HW122778   0.963   2.033   7.630 -0.2413  0.7604  0.0189
 3772SOL    HW222779   1.026   2.163   7.580  1.0503 -0.0732 -1.2185
 3773SOL     OW22780   4.180   1.278  17.261 -0.6779  0.2535 -0.4156
 3773SOL    HW122781   4.247   1.220  17.226  0.6712  1.9100 -0.5734
 3773SOL    HW222782   4.181   1.342  17.190 -1.5067  2.1202  1.2533
 3774SOL     OW22783   1.724   3.655   7.414 -0.1483  0.2871 -0.5839
 3774SOL    HW122784   1.676   3.616   7.487 -0.9300  2.0110 -0.1880
 3774SOL    HW222785   1.700   3.746   7.428 -1.9339 -0.3005  0.1470
 3775SOL     OW22786   0.545   3.868   6.792 -0.5447  0.0244  0.5513
 3775SOL    HW122787   0.625   3.920   6.797 -0.4668 -0.1685  1.2719
 3775SOL    HW222788   0.581   3.779   6.786  1.4784  0.9401 -1.2826
 3776SOL     OW22789   1.353   0.002   6.812  0.0135  0.6765 -0.5577
 3776SOL    HW122790   1.391   0.089   6.802  0.6010  0.6534  1.5338
 3776SOL    HW222791   1.397   4.690   6.891 -0.3760  0.3032 -0.4819
 3777SOL     OW22792   0.102   1.149   0.607 -0.3185  0.3431  0.0473
 3777SOL    HW122793   0.180   1.142   0.551  1.0584  0.0506  2.0022
 3777SOL    HW222794   0.140   1.100   0.680 -0.6241 -2.0301 -1.4229
 3778SOL     OW22795   2.011   1.716  10.546 -0.2605 -0.4643 -0.2360
 3778SOL    HW122796   2.075   1.698  10.477 -0.7992  0.2636 -0.9377
 3778SOL    HW222797   2.031   1.808  10.563 -2.2829  0.0831 -0.8008
 3779SOL     OW22798   1.795   1.118  12.933  0.7573 -0.3976 -0.7723
 3779SOL    HW122799   1.750   1.190  12.890  2.1163  0.5261 -0.6551
 3779SOL    HW222800   1.826   1.057  12.867  1.0056 -1.0077 -0.0937
 3780SOL     OW22801   1.676   4.124   6.763  0.1779 -0.3593 -0.1067
 3780SOL    HW122802   1.584   4.114   6.788 -0.2018  4.0559  0.1761
 3780SOL    HW222803   1.719   4.085   6.839  2.2214  0.7216 -0.7185
 3781SOL     OW22804   4.043   1.772  15.449 -0.3472 -0.3048  0.0194
 3781SOL    HW122805   4.082   1.726  15.374  0.3182  4.0161 -2.2671
 3781SOL    HW222806   4.019   1.694  15.499  0.8056 -0.0027  1.0505
 3782SOL     OW22807   3.123   0.711  14.631  0.2128  0.3986 -0.4711
 3782SOL    HW122808   3.179   0.787  14.648  1.0235 -0.6589  1.4502
 3782SOL    HW222809   3.145   0.699  14.539 -0.0044  0.9364 -0.5982
 3783SOL     OW22810   0.834   0.143   6.567  0.4969  0.0961 -0.0965
 3783SOL    HW122811   0.855   0.213   6.506  0.7648  0.1290  0.0323
 3783SOL    HW222812   0.772   0.089   6.519  1.0533 -0.6579  0.0245
 3784SOL     OW22813   4.246   3.348   4.511 -0.4938 -0.6189  0.3247
 3784SOL    HW122814   4.202   3.263   4.504 -0.7586 -0.3670 -1.0877
 3784SOL    HW222815   4.308   3.318   4.578 -1.1855  0.1729  1.3183
 3785SOL     OW22816   4.205   1.010   9.298 -0.2009 -0.2589  0.5963
 3785SOL    HW122817   4.201   0.961   9.215 -0.3834 -1.0215  1.0548
 3785SOL    HW222818   4.237   1.091   9.259  2.2871  0.0754  3.3598
 3786SOL     OW22819   1.206   4.219   5.843 -0.5776 -0.2479  0.2205
 3786SOL    HW122820   1.165   4.298   5.880 -0.7313 -0.4786  0.5403
 3786SOL    HW222821   1.224   4.244   5.753 -3.4435  0.4079 -0.1937
 3787SOL     OW22822   0.505   2.530   0.876 -0.3755  0.2772  0.0120
 3787SOL    HW122823   0.460   2.524   0.792  0.3957 -1.5302 -0.2677
 3787SOL    HW222824   0.429   2.536   0.933 -1.9485  0.6157 -2.1050
 3788SOL     OW22825   4.631   2.092   3.138  0.5271  0.7172  0.6751
 3788SOL    HW122826   4.703   2.140   3.098 -0.2605  2.0289  0.8421
 3788SOL    HW222827   4.552   2.144   3.124  0.6031  1.2217  2.1247
 3789SOL     OW22828   0.170   1.009  12.614  0.1197 -0.0287 -0.2478
 3789SOL    HW122829   0.262   1.036  12.606  0.8150 -2.7465 -1.4213
 3789SOL    HW222830   0.135   1.076  12.555 -1.0484 -2.2689 -2.1166
 3790SOL     OW22831   1.812   4.708   4.890  0.1147  0.0310  0.4799
 3790SOL    HW122832   1.803   4.661   4.973 -2.5753 -0.6323 -0.2080
 3790SOL    HW222833   1.723   0.018   4.874  0.7153  0.9509 -1.2223
 3791SOL     OW22834   0.333   0.539   3.022  0.1974 -0.2659  0.4158
 3791SOL    HW122835   0.316   0.633   3.012 -0.5991 -0.3267  1.1981
 3791SOL    HW222836   0.316   0.502   2.936 -2.2840  1.4868  0.1357
 3792SOL     OW22837   1.198   3.033   7.960 -0.1031 -0.0776 -0.6633
 3792SOL    HW122838   1.249   3.100   7.916  0.0465  0.2918  0.0751
 3792SOL    HW222839   1.171   3.084   8.036  0.4869 -1.7081  0.6545
 3793SOL     OW22840   3.074   0.619   6.944 -0.1150  0.6588  0.5250
 3793SOL    HW122841   3.085   0.571   7.026 -4.1659 -0.1633  0.5780
 3793SOL    HW222842   3.070   0.544   6.885 -0.7093  2.2351 -1.4663
 3794SOL     OW22843   1.381   1.276  14.664 -0.2709 -0.0835 -0.1934
 3794SOL    HW122844   1.338   1.264  14.579 -0.5352 -1.4199  0.1315
 3794SOL    HW222845   1.377   1.371  14.677  1.5986 -0.4586  3.0611
 3795SOL     OW22846   2.498   1.488   7.909  0.1093  0.5655  0.1555
 3795SOL    HW122847   2.462   1.496   7.820  0.9568 -0.9756 -0.3197
 3795SOL    HW222848   2.452   1.408   7.936  0.0391  0.6652  0.3328
 3796SOL     OW22849   0.197   3.939   1.894  0.1178  0.2975 -0.2350
 3796SOL    HW122850   0.131   4.005   1.874 -1.5141 -1.9263 -2.2364
 3796SOL    HW222851   0.203   3.885   1.815  2.6124 -1.1393  0.9358
 3797SOL     OW22852   1.422   1.838  10.597 -0.2269 -0.5813  0.3643
 3797SOL    HW122853   1.348   1.800  10.551  0.1016 -1.7089  0.7728
 3797SOL    HW222854   1.479   1.854  10.521  0.3677  3.4316  1.6343
 3798SOL     OW22855   3.962   2.374   5.469  0.2938 -0.0202  0.4918
 3798SOL    HW122856   4.028   2.442   5.458  0.4036 -0.0599  0.9033
 3798SOL    HW222857   3.934   2.395   5.558 -0.0800  0.0824  0.3459
 3799SOL     OW22858   1.065   2.202   5.552 -0.3757 -1.2841  0.2246
 3799SOL    HW122859   1.130   2.197   5.481  1.2727 -0.5165  1.6817
 3799SOL    HW222860   1.076   2.110   5.578  0.4652 -1.3628 -0.3903
 3800SOL     OW22861   4.573   1.172   3.989  0.0589 -0.5295 -0.0098
 3800SOL    HW122862   4.482   1.202   4.000  0.6680  0.4129  2.5709
 3800SOL    HW222863   4.613   1.227   4.057 -1.0495  0.3083 -0.0341
 3801SOL     OW22864   2.316   3.265  12.875 -0.0788 -0.3057 -0.1536
 3801SOL    HW122865   2.371   3.257  12.797  0.1427 -2.3408  0.2008
 3801SOL    HW222866   2.388   3.306  12.923  1.2728  0.1744 -2.5733
 3802SOL     OW22867   0.169   4.224   3.984 -0.4426  0.1513 -0.3716
 3802SOL    HW122868   0.080   4.223   4.021 -0.6160  0.3023 -0.7802
 3802SOL    HW222869   0.229   4.290   4.015  1.2115 -1.2338 -0.6192
 3803SOL     OW22870   1.345   0.042   0.364 -0.2645  0.3128  0.8407
 3803SOL    HW122871   1.251   0.029   0.372 -0.7359  2.6866 -0.7629
 3803SOL    HW222872   1.353   0.133   0.393 -0.8374  0.1245  1.5675
 3804SOL     OW22873   4.125   3.600  11.757  0.9842 -0.0199 -0.1625
 3804SOL    HW122874   4.060   3.670  11.759  0.1837 -0.7575  0.1171
 3804SOL    HW222875   4.062   3.532  11.732 -0.4729  0.9189  0.9362
 3805SOL     OW22876   0.392   4.303   3.243 -0.4221 -0.1940  0.2934
 3805SOL    HW122877   0.391   4.311   3.148 -1.3110 -0.2574  0.3029
 3805SOL    HW222878   0.471   4.357   3.249 -1.1887  0.9755 -0.2759
 3806SOL     OW22879   4.691   2.428   0.988  0.6196  0.2701  0.4104
 3806SOL    HW122880   4.691   2.408   1.082 -0.6888 -1.7620 -0.0155
 3806SOL    HW222881   4.614   2.378   0.960 -0.0557  1.2160  0.5728
 3807SOL     OW22882   2.780   2.907   3.351  0.4036  0.8289  0.2228
 3807SOL    HW122883   2.694   2.889   3.389  0.3122 -1.0362 -0.8694
 3807SOL    HW222884   2.838   2.852   3.404  0.8703  1.2546  0.1541
 3808SOL     OW22885   0.881   1.240  14.015  0.2130 -0.5683 -0.0637
 3808SOL    HW122886   0.947   1.309  14.005 -0.1992 -0.0609  0.7419
 3808SOL    HW222887   0.842   1.226  13.929 -0.8815  2.2354 -0.0108
 3809SOL     OW22888   0.683   1.277   4.703 -0.1319  0.3096  0.4028
 3809SOL    HW122889   0.768   1.274   4.659 -0.2311 -3.0117  0.4416
 3809SOL    HW222890   0.708   1.281   4.795 -0.0374 -0.0327  0.3924
 3810SOL     OW22891   1.260   1.111  17.158  0.6377  0.2217  0.0765
 3810SOL    HW122892   1.317   1.122  17.082 -1.0134 -2.2094 -1.4995
 3810SOL    HW222893   1.272   1.196  17.201  0.2775 -1.4576  3.4950
 3811SOL     OW22894   0.749   3.962   8.445 -0.1058 -0.0947  0.1851
 3811SOL    HW122895   0.769   3.913   8.525 -0.5794  1.3965  1.2169
 3811SOL    HW222896   0.822   4.024   8.442 -0.5298  0.4112  0.5246
 3812SOL     OW22897   1.994   1.262   0.976  0.7311 -0.5225  0.1037
 3812SOL    HW122898   1.967   1.295   0.890  0.8851 -1.0955 -0.1653
 3812SOL    HW222899   2.037   1.343   1.003 -0.1655  0.0925 -0.3510
 3813SOL     OW22900   0.828   0.969  12.773 -0.0877  0.3605 -0.0522
 3813SOL    HW122901   0.850   1.050  12.820 -0.4729  0.5093 -0.1273
 3813SOL    HW222902   0.893   0.983  12.703 -0.5655 -0.5048 -0.6588
 3814SOL     OW22903   4.133   3.533  15.150 -0.0200 -0.3390  0.1410
 3814SOL    HW122904   4.046   3.573  15.158  1.5105  3.0958 -0.4356
 3814SOL    HW222905   4.118   3.481  15.071  0.9922  1.1489 -1.0471
 3815SOL     OW22906   2.211   4.444   6.755  0.0763 -0.8406 -0.1094
 3815SOL    HW122907   2.143   4.460   6.689  0.4699  0.6246 -0.1626
 3815SOL    HW222908   2.178   4.484   6.836  1.2607 -2.9860  1.4288
 3816SOL     OW22909   1.192   4.269  13.513 -0.0178 -0.8405 -0.3978
 3816SOL    HW122910   1.242   4.220  13.447 -0.5753 -2.4909  0.3956
 3816SOL    HW222911   1.101   4.242  13.515  0.5334 -2.6947 -0.1816
 3817SOL     OW22912   1.927   2.094  15.778 -0.5701 -0.3698  0.1645
 3817SOL    HW122913   1.850   2.140  15.743 -0.5197 -1.1354 -0.9355
 3817SOL    HW222914   1.991   2.165  15.770  0.0009 -0.9374 -0.2263
 3818SOL     OW22915   1.685   4.318   4.005 -0.1042 -0.1122  0.5543
 3818SOL    HW122916   1.617   4.339   3.941  0.3312 -0.3250  0.0291
 3818SOL    HW222917   1.666   4.224   4.009 -1.7879  0.2869  2.0654
 3819SOL     OW22918   2.235   1.247   8.806 -0.9883 -0.4771  0.0214
 3819SOL    HW122919   2.199   1.319   8.859 -0.9258  0.8709 -1.7971
 3819SOL    HW222920   2.282   1.291   8.736 -1.0328  1.0068  0.9331
 3820SOL     OW22921   2.303   0.251   3.525  0.0610  0.6694  0.0638
 3820SOL    HW122922   2.235   0.187   3.547  0.5407  0.0364 -0.3287
 3820SOL    HW222923   2.256   0.330   3.552  0.0308  0.8782 -0.5883
 3821SOL     OW22924   1.286   1.141   6.460  0.4534  0.2071  0.1011
 3821SOL    HW122925   1.254   1.175   6.377  0.3121 -1.5612 -0.5599
 3821SOL    HW222926   1.257   1.210   6.519 -0.5941  0.7554 -1.0547
 3822SOL     OW22927   0.927   2.804   3.628  0.0822  0.4966  0.0866
 3822SOL    HW122928   0.860   2.866   3.598 -1.6252 -2.2525 -1.7645
 3822SOL    HW222929   1.005   2.859   3.637  0.0259  0.9339 -2.0156
 3823SOL     OW22930   3.860   2.739   5.253  0.2372 -0.5293 -0.2339
 3823SOL    HW122931   3.847   2.647   5.227  1.1122 -0.8308  0.4025
 3823SOL    HW222932   3.904   2.765   5.172  0.8351  1.0568  0.6158
 3824SOL     OW22933   3.303   3.552  14.608 -0.4709 -0.2685  0.0318
 3824SOL    HW122934   3.363   3.606  14.659 -1.3787  0.4707  0.3238
 3824SOL    HW222935   3.314   3.471  14.657 -0.6661 -0.1976  0.1940
 3825SOL     OW22936   4.601   2.812   9.818 -0.0512 -0.2242  0.3843
 3825SOL    HW122937   4.650   2.758   9.755 -0.8990  0.4385 -0.8523
 3825SOL    HW222938   4.618   2.895   9.773  1.6818 -0.1672  1.1586
 3826SOL     OW22939   1.822   4.604   2.414 -0.5619  0.1307 -0.9979
 3826SOL    HW122940   1.788   4.671   2.473 -0.0498 -1.7113  1.4193
 3826SOL    HW222941   1.869   4.546   2.474 -0.2380  2.2871  0.8160
 3827SOL     OW22942   4.375   4.500   7.723  0.1260 -0.2570 -0.5891
 3827SOL    HW122943   4.391   4.419   7.771 -0.3927  0.2938  0.5257
 3827SOL    HW222944   4.459   4.543   7.741  0.3455 -0.1620 -1.8582
 3828SOL     OW22945   2.740   4.471   3.194 -0.1553  0.3604  0.1895
 3828SOL    HW122946   2.688   4.497   3.270 -1.5397  0.1354 -0.6735
 3828SOL    HW222947   2.759   4.555   3.152 -0.2635 -0.2328 -1.0528
 3829SOL     OW22948   0.029   2.898  14.749  0.2891 -0.4686 -0.2766
 3829SOL    HW122949   0.031   2.804  14.762  0.0511 -0.0186  3.2016
 3829SOL    HW222950   4.670   2.899  14.693  0.3856 -1.6163 -0.4270
 3830SOL     OW22951   2.460   2.719   5.773 -0.8001 -0.0264 -0.1332
 3830SOL    HW122952   2.534   2.660   5.777 -0.5158  0.3618  0.3172
 3830SOL    HW222953   2.510   2.801   5.774 -1.0203  0.1226 -1.0140
 3831SOL     OW22954   1.446   1.895   2.312  0.1191 -0.3914 -0.8422
 3831SOL    HW122955   1.512   1.826   2.316  2.0057  1.3821 -1.5198
 3831SOL    HW222956   1.368   1.843   2.292 -0.6931  0.3774  0.3392
 3832SOL     OW22957   1.778   4.674   5.393  0.3202  0.3014  0.0849
 3832SOL    HW122958   1.853   4.626   5.429 -0.1365 -0.7066 -0.3287
 3832SOL    HW222959   1.786   4.665   5.298 -1.0956 -1.3088  0.1216
 3833SOL     OW22960   4.170   2.182   7.772  0.1086  0.7381  0.3795
 3833SOL    HW122961   4.109   2.153   7.704  0.1900  1.6617 -0.0804
 3833SOL    HW222962   4.101   2.206   7.833  1.7998  1.0920  2.1434
 3834SOL     OW22963   1.527   3.634   3.563 -0.2188 -0.1671 -0.4206
 3834SOL    HW122964   1.456   3.688   3.530 -0.2200 -0.4641 -0.9075
 3834SOL    HW222965   1.493   3.545   3.558 -0.4537 -0.1940  2.0660
 3835SOL     OW22966   0.073   1.861   7.337 -0.2734  0.1629  0.3969
 3835SOL    HW122967   0.153   1.905   7.307 -0.0083  0.1870  1.1456
 3835SOL    HW222968   0.052   1.896   7.423 -0.1377  2.3468 -0.4485
 3836SOL     OW22969   0.251   4.684   9.190 -0.2557 -0.2788 -0.0536
 3836SOL    HW122970   0.157   4.666   9.192 -0.3693  0.3576  0.3012
 3836SOL    HW222971   0.264   4.715   9.100 -1.5062 -0.2175 -0.2147
 3837SOL     OW22972   1.690   2.400   4.897  0.1458 -0.5983  0.0710
 3837SOL    HW122973   1.664   2.475   4.950  1.8262  1.5377 -2.1428
 3837SOL    HW222974   1.623   2.399   4.828  0.3813 -0.5372 -0.1589
 3838SOL     OW22975   4.398   2.441  10.241  0.0817  0.3260  0.1554
 3838SOL    HW122976   4.395   2.488  10.324  0.3517  2.2691 -0.9457
 3838SOL    HW222977   4.375   2.501  10.171  1.3330  1.9513  1.1094
 3839SOL     OW22978   3.310   4.570   0.162  0.3756  0.2449 -0.0414
 3839SOL    HW122979   3.376   4.639   0.152  0.1512  0.6152  1.0036
 3839SOL    HW222980   3.358   4.498   0.123  2.2711  2.0411 -1.0363
 3840SOL     OW22981   1.876   2.728   8.892 -0.1293 -0.1673  0.1741
 3840SOL    HW122982   1.875   2.744   8.986 -0.5620  0.0422  0.1386
 3840SOL    HW222983   1.858   2.817   8.861 -3.4994 -1.7212 -2.3814
 3841SOL     OW22984   3.938   2.824   6.970  0.3783 -0.2450  0.1079
 3841SOL    HW122985   4.026   2.818   6.933 -0.1370  0.1440 -1.1764
 3841SOL    HW222986   3.929   2.919   6.977  1.2031 -0.1580  0.0866
 3842SOL     OW22987   1.325   4.674   5.792  0.3130 -0.0138 -0.3596
 3842SOL    HW122988   1.336   4.650   5.884  1.0645  3.1558  0.3623
 3842SOL    HW222989   1.386   0.029   5.784 -1.5197  1.1191 -3.8506
 3843SOL     OW22990   2.776   2.732   1.272  0.3623 -0.7699 -0.0344
 3843SOL    HW122991   2.729   2.724   1.355 -0.1834 -1.9162 -0.4531
 3843SOL    HW222992   2.856   2.690   1.306  0.3552  0.7257  1.8493
 3844SOL     OW22993   2.140   2.132   2.690  0.2243  0.3831  0.4435
 3844SOL    HW122994   2.224   2.087   2.678  0.2536  0.5766 -0.0630
 3844SOL    HW222995   2.147   2.193   2.616 -1.4022 -0.7199 -0.6194
 3845SOL     OW22996   3.475   1.104   2.636  0.1344 -0.3140  0.5227
 3845SOL    HW122997   3.568   1.096   2.614 -0.3845 -0.0733 -1.6849
 3845SOL    HW222998   3.436   1.053   2.566 -0.2124  1.1889 -0.3740
 3846SOL     OW22999   1.750   3.369   0.525  0.1910  0.9219 -0.1130
 3846SOL    HW123000   1.773   3.307   0.456  0.3542  1.1001 -0.2183
 3846SOL    HW223001   1.802   3.445   0.499 -1.0979  1.3245 -1.5066
 3847SOL     OW23002   4.420   0.669   4.939  0.7173  0.1172 -0.2163
 3847SOL    HW123003   4.361   0.658   5.014  0.2745 -0.4945 -0.6548
 3847SOL    HW223004   4.495   0.706   4.985 -0.9990  2.7916  0.4827
 3848SOL     OW23005   3.692   1.198   5.719 -0.0715 -0.1313  0.3489
 3848SOL    HW123006   3.777   1.239   5.733 -1.0365  2.5212 -1.6044
 3848SOL    HW223007   3.671   1.216   5.627  1.0709 -1.4882 -0.1858
 3849SOL     OW23008   3.205   4.400   1.291 -0.0032 -0.2781  0.1570
 3849SOL    HW123009   3.218   4.471   1.227  0.6473  0.0908  0.6928
 3849SOL    HW223010   3.265   4.339   1.247  2.8836  1.9959  0.8979
 3850SOL     OW23011   1.851   0.902  12.494 -0.1580  0.1892 -0.2570
 3850SOL    HW123012   1.790   0.975  12.493 -0.4644 -0.0569  2.0583
 3850SOL    HW223013   1.886   0.905  12.583 -1.9603 -1.8149  0.5289
 3851SOL     OW23014   4.321   3.142  16.814  0.4810 -0.2563  0.5386
 3851SOL    HW123015   4.305   3.085  16.739 -2.4072 -0.9313  1.6302
 3851SOL    HW223016   4.231   3.174  16.814  0.0220 -1.5424  0.7206
 3852SOL     OW23017   0.948   1.796  16.685 -0.9383 -0.1154  0.1820
 3852SOL    HW123018   0.972   1.790  16.777  1.4216  2.5230 -0.2459
 3852SOL    HW223019   0.855   1.818  16.692 -0.5569  2.0269 -1.4606
 3853SOL     OW23020   3.441   2.923  11.217  0.3795 -0.4089  0.4091
 3853SOL    HW123021   3.384   2.851  11.244 -0.4692  0.0067 -0.2811
 3853SOL    HW223022   3.404   3.000  11.261 -0.4988  0.0301 -1.0931
 3854SOL     OW23023   2.516   0.547   1.750 -0.5945  0.0564  0.0204
 3854SOL    HW123024   2.463   0.579   1.677 -0.5524 -1.1176 -0.5290
 3854SOL    HW223025   2.468   0.464   1.760 -1.4045  0.5385  0.0953
 3855SOL     OW23026   1.664   2.035   4.343 -0.0680 -0.3181  0.0909
 3855SOL    HW123027   1.615   2.114   4.364  1.6583  0.8002 -0.1130
 3855SOL    HW223028   1.628   1.983   4.415  0.3508  1.9651  1.9622
 3856SOL     OW23029   4.135   2.211   8.706 -0.1415 -0.5761 -0.4524
 3856SOL    HW123030   4.226   2.182   8.698 -0.0958 -0.1605 -1.4271
 3856SOL    HW223031   4.091   2.157   8.640 -0.9188 -0.5600  0.0527
 3857SOL     OW23032   2.156   4.155   8.710 -0.0587  0.3383  0.5853
 3857SOL    HW123033   2.210   4.234   8.718 -0.5936  0.7238  0.3952
 3857SOL    HW223034   2.222   4.097   8.749  1.0405  2.5176  2.0408
 3858SOL     OW23035   3.023   4.620  15.100 -0.3893  0.9739 -0.0906
 3858SOL    HW123036   3.093   4.682  15.081  0.9825 -0.2222  1.1990
 3858SOL    HW223037   3.065   4.580  15.175 -1.1201 -0.2403 -0.3335
 3859SOL     OW23038   0.417   4.494  10.368  0.3210 -0.2932  0.5987
 3859SOL    HW123039   0.352   4.448  10.315 -0.1584  0.6508  0.3657
 3859SOL    HW223040   0.483   4.424  10.360 -0.7333 -1.2773  0.4762
 3860SOL     OW23041   1.403   4.238  15.054 -0.4413 -0.2984  0.0704
 3860SOL    HW123042   1.391   4.177  15.127  1.0676 -0.2828  0.3411
 3860SOL    HW223043   1.312   4.233  15.027 -0.0301  1.4521 -1.6265
 3861SOL     OW23044   2.286   0.252   4.807 -0.0919 -0.2933 -0.3422
 3861SOL    HW123045   2.370   0.257   4.852 -0.3235  1.7199 -0.1371
 3861SOL    HW223046   2.235   0.186   4.856 -0.7016  0.4342 -0.0003
 3862SOL     OW23047   3.501   2.247  10.130 -0.1766  0.6256  0.5248
 3862SOL    HW123048   3.436   2.177  10.125 -0.0455  0.6188 -0.9944
 3862SOL    HW223049   3.474   2.286  10.213 -2.7610 -1.9138  0.8830
 3863SOL     OW23050   1.226   2.369   0.102 -0.3281  0.7609  0.3040
 3863SOL    HW123051   1.247   2.395   0.192 -0.6281 -0.2931  0.6710
 3863SOL    HW223052   1.255   2.447   0.054  0.3544 -0.4051 -1.1632
 3864SOL     OW23053   0.482   1.429  15.790 -0.3420 -0.7139 -0.4139
 3864SOL    HW123054   0.442   1.382  15.718 -2.3407 -0.2144  0.3761
 3864SOL    HW223055   0.416   1.443  15.858  1.2138 -1.0557  1.1615
 3865SOL     OW23056   0.545   1.062   7.833  0.9473  0.5706 -0.2028
 3865SOL    HW123057   0.603   1.107   7.772  0.2979 -1.9424 -2.6784
 3865SOL    HW223058   0.617   1.020   7.881  0.7078  0.2344 -0.1360
 3866SOL     OW23059   1.240   3.531   0.014  0.3422  0.3994  0.3753
 3866SOL    HW123060   1.162   3.476   0.010  0.5978  0.0412  0.2946
 3866SOL    HW223061   1.310   3.469   0.033  1.7351  1.9634  0.3743
 3867SOL     OW23062   3.685   2.403   6.474  0.0591  1.0679  0.0535
 3867SOL    HW123063   3.752   2.338   6.455  0.6638  1.6114  0.3204
 3867SOL    HW223064   3.610   2.343   6.473 -0.2723  1.4857 -0.4000
 3868SOL     OW23065   2.093   1.234   6.032 -0.5880 -0.5668  0.4996
 3868SOL    HW123066   2.045   1.164   6.075  0.5487 -0.6272  1.6892
 3868SOL    HW223067   2.171   1.188   6.001 -0.5809 -0.0161 -0.2946
 3869SOL     OW23068   3.734   1.242  15.056 -0.1895 -0.1821 -0.5322
 3869SOL    HW123069   3.788   1.318  15.078  0.2090  0.2072 -2.8323
 3869SOL    HW223070   3.657   1.245  15.113  0.5912 -2.1353  0.6370
 3870SOL     OW23071   3.372   0.104   4.970 -0.0639  0.3985  0.8448
 3870SOL    HW123072   3.301   0.161   4.999 -1.8655 -0.2885 -2.2351
 3870SOL    HW223073   3.434   0.154   5.023  1.9216 -1.1434 -0.0041
 3871SOL     OW23074   0.068   1.338  12.861  0.4025 -0.0369  0.8408
 3871SOL    HW123075   0.066   1.242  12.873 -1.5295 -0.2648 -1.4227
 3871SOL    HW223076   4.694   1.350  12.839  1.2418  0.1399 -2.5194
 3872SOL     OW23077   0.109   0.508  16.831 -0.4582  0.2275  0.0264
 3872SOL    HW123078   0.116   0.423  16.787 -1.5157  1.5307 -2.6774
 3872SOL    HW223079   0.035   0.549  16.786  1.5123  1.0003 -2.5068
 3873SOL     OW23080   1.323   3.288  12.227  0.6683 -0.3218  0.5101
 3873SOL    HW123081   1.244   3.246  12.194  0.9090 -0.5489  0.2217
 3873SOL    HW223082   1.282   3.332  12.301 -2.1250  2.0050 -2.3673
 3874SOL     OW23083   3.336   1.411   7.347  0.0929 -0.4576  0.0434
 3874SOL    HW123084   3.352   1.425   7.253  0.3097 -0.3529  0.0952
 3874SOL    HW223085   3.294   1.326   7.359 -0.0615  0.2085  4.1295
 3875SOL     OW23086   1.857   2.743  10.180 -0.3045 -0.3029 -0.0035
 3875SOL    HW123087   1.941   2.724  10.220 -0.6644 -0.8171  0.5028
 3875SOL    HW223088   1.878   2.760  10.088  1.2810 -0.8416  0.2664
 3876SOL     OW23089   2.685   4.152   2.605 -0.1183  0.0351 -0.5710
 3876SOL    HW123090   2.718   4.240   2.627  0.8276 -0.6561  0.7890
 3876SOL    HW223091   2.618   4.141   2.672 -0.4922  1.3071 -0.7401
 3877SOL     OW23092   0.880   2.149   5.217  0.5880 -0.0758 -1.1356
 3877SOL    HW123093   0.855   2.139   5.309 -0.2178 -3.2065 -1.7086
 3877SOL    HW223094   0.805   2.108   5.176 -0.0346 -0.9092  0.8493
 3878SOL     OW23095   3.838   1.758   1.936  0.2840 -0.8193  0.4353
 3878SOL    HW123096   3.921   1.710   1.939 -0.6838 -2.5284  0.0537
 3878SOL    HW223097   3.817   1.755   2.030 -0.4309  2.0856  0.3731
 3879SOL     OW23098   3.540   4.286   6.665 -0.5304 -0.2615 -0.5619
 3879SOL    HW123099   3.560   4.308   6.575  1.7098  2.2518  0.5606
 3879SOL    HW223100   3.462   4.232   6.653 -0.5743 -0.0431 -1.2239
 3880SOL     OW23101   1.371   4.155   9.816 -0.7575  0.4736  0.1481
 3880SOL    HW123102   1.321   4.168   9.896  1.2971 -0.8489  1.6508
 3880SOL    HW223103   1.440   4.220   9.828 -2.4228  2.1682  0.5008
 3881SOL     OW23104   0.097   0.199  14.608 -0.6130  0.6620 -0.0784
 3881SOL    HW123105   0.131   0.112  14.585 -0.2700  1.1972 -1.5869
 3881SOL    HW223106   0.094   0.189  14.704 -0.5149 -0.8155 -0.2338
 3882SOL     OW23107   3.463   3.410   6.858  0.6873 -0.1374  0.3184
 3882SOL    HW123108   3.440   3.412   6.951  4.0802  3.6102  1.0694
 3882SOL    HW223109   3.507   3.494   6.845 -1.5976  0.9030 -0.7675
 3883SOL     OW23110   0.634   1.420   8.982 -0.1913 -0.0038 -0.0195
 3883SOL    HW123111   0.696   1.367   8.932 -0.5505  0.2093 -0.6800
 3883SOL    HW223112   0.649   1.387   9.071 -1.7442 -1.8069 -0.4200
 3884SOL     OW23113   0.057   3.420   8.119 -0.6842 -0.1967  0.1810
 3884SOL    HW123114   0.096   3.416   8.031 -2.7697  1.3189 -0.8164
 3884SOL    HW223115   0.072   3.506   8.157 -1.1147 -0.5372  1.1106
 3885SOL     OW23116   2.062   0.206   8.060 -0.0066  0.2661  0.6702
 3885SOL    HW123117   1.987   0.254   8.024  0.0511  0.9587  1.4570
 3885SOL    HW223118   2.124   0.275   8.084  0.8049 -0.0900 -0.4207
 3886SOL     OW23119   4.098   2.411   2.962 -0.1535 -0.4582 -0.2799
 3886SOL    HW123120   4.182   2.450   2.985  0.2110 -0.2501 -1.9919
 3886SOL    HW223121   4.035   2.481   2.977  1.0878  0.3877  0.9978
 3887SOL     OW23122   0.038   1.005  15.558  0.5441 -0.4302  0.1966
 3887SOL    HW123123   4.670   1.023  15.521  1.1305  3.4827  0.6971
 3887SOL    HW223124   0.088   1.074  15.515 -4.1966  1.9337 -1.4842
 3888SOL     OW23125   0.248   1.905   5.474  0.1258  0.3558  0.9994
 3888SOL    HW123126   0.207   1.837   5.421  1.0498  1.0372 -0.5786
 3888SOL    HW223127   0.314   1.948   5.419 -0.6019  1.3355  0.8939
 3889SOL     OW23128   4.094   2.547  10.776 -0.3378  1.1243  0.5150
 3889SOL    HW123129   4.007   2.583  10.790 -0.5555 -0.1890  2.6685
 3889SOL    HW223130   4.084   2.452  10.789 -2.8281  1.5023  1.2232
 3890SOL     OW23131   4.291   3.542   8.142 -0.9780  0.1063  0.0427
 3890SOL    HW123132   4.349   3.598   8.090  1.8834 -0.0494  3.1038
 3890SOL    HW223133   4.312   3.461   8.094  0.3647 -0.4448  1.5536
 3891SOL     OW23134   3.992   0.596   4.366  0.6961 -0.1700 -0.3842
 3891SOL    HW123135   3.937   0.562   4.436  1.5545 -0.9475 -0.0897
 3891SOL    HW223136   4.053   0.523   4.358  1.5317  0.4246  0.4129
 3892SOL     OW23137   4.618   0.688  13.520  0.2153 -0.1049 -0.2182
 3892SOL    HW123138   4.591   0.775  13.491  1.2085  0.7323  1.3272
 3892SOL    HW223139   4.536   0.657  13.557  0.8369 -2.7972 -1.0921
 3893SOL     OW23140   1.852   3.453   8.520  0.3713 -0.1227 -0.4548
 3893SOL    HW123141   1.764   3.445   8.482  0.6271 -2.2612 -0.5740
 3893SOL    HW223142   1.845   3.542   8.554  0.2699 -0.7556  1.1693
 3894SOL     OW23143   4.412   1.779  13.432 -0.3060  0.4308 -0.1681
 3894SOL    HW123144   4.438   1.857  13.382 -0.4097 -0.2646 -1.3010
 3894SOL    HW223145   4.331   1.760  13.385 -0.3661  0.4301 -0.0632
 3895SOL     OW23146   0.394   2.954  12.216 -0.5532 -0.1434 -0.4624
 3895SOL    HW123147   0.367   2.921  12.302  1.8294 -0.7423  0.0482
 3895SOL    HW223148   0.363   2.890  12.153  0.9276  0.7273 -2.0699
 3896SOL     OW23149   4.308   3.473  12.106  0.2677 -0.1660 -0.9801
 3896SOL    HW123150   4.276   3.387  12.079 -1.5372  0.3086 -0.3395
 3896SOL    HW223151   4.401   3.466  12.086 -0.3859 -1.9053 -3.4412
 3897SOL     OW23152   3.605   1.712   0.503 -0.1346 -0.8115 -0.3959
 3897SOL    HW123153   3.560   1.783   0.457  0.1053 -0.9888 -0.8979
 3897SOL    HW223154   3.541   1.642   0.496  0.4105 -1.5277  1.4897
 3898SOL     OW23155   4.434   1.697   8.276  0.0448 -0.0976  0.0834
 3898SOL    HW123156   4.412   1.624   8.333  1.0696 -0.9386 -0.5985
 3898SOL    HW223157   4.518   1.725   8.313 -0.7928  2.1768  0.2434
 3899SOL     OW23158   3.870   1.307   8.274  0.3686 -0.1954  0.0303
 3899SOL    HW123159   3.781   1.281   8.251  0.2317  0.3479 -0.0598
 3899SOL    HW223160   3.896   1.234   8.330 -0.2251 -0.1812  0.3213
 3900SOL     OW23161   0.651   3.569   7.825 -0.4388  0.4215  0.1588
 3900SOL    HW123162   0.688   3.616   7.900 -2.2190 -0.3638  1.5144
 3900SOL    HW223163   0.732   3.559   7.774 -1.0822  2.0779 -1.1940
 3901SOL     OW23164   2.564   4.068   5.279  0.0608 -0.0450  0.2480
 3901SOL    HW123165   2.528   3.987   5.243  0.3427 -0.3741  0.7009
 3901SOL    HW223166   2.618   4.100   5.207  0.9561 -1.5824  0.2454
 3902SOL     OW23167   1.107   1.053  15.067 -0.5447  0.4541 -0.6745
 3902SOL    HW123168   1.050   1.054  14.990  1.2612  0.3252 -2.0134
 3902SOL    HW223169   1.191   1.067  15.023  0.4525  0.4576  1.2385
 3903SOL     OW23170   4.486   2.187   0.505 -0.0029 -0.0043  0.2170
 3903SOL    HW123171   4.471   2.093   0.508 -1.6746  0.2658  0.8417
 3903SOL    HW223172   4.581   2.182   0.510  0.1325 -0.6038 -2.9309
 3904SOL     OW23173   3.139   0.838   2.301  0.4006 -0.1738 -0.1132
 3904SOL    HW123174   3.068   0.866   2.242  0.0188 -0.4264  0.2270
 3904SOL    HW223175   3.120   0.746   2.321 -0.9240  0.6414  2.3353
 3905SOL     OW23176   1.054   0.603   0.581  0.8981  0.0072  0.1109
 3905SOL    HW123177   0.981   0.542   0.590  0.3650  0.8396  1.4281
 3905SOL    HW223178   1.040   0.634   0.492 -0.1955  0.7857  0.5535
 3906SOL     OW23179   4.156   1.172   7.881  0.2608  0.2043 -0.1600
 3906SOL    HW123180   4.215   1.159   7.955 -2.7148 -0.4486  2.0911
 3906SOL    HW223181   4.209   1.168   7.802  1.8765 -0.7573  0.9809
 3907SOL     OW23182   2.442   0.962   1.057  0.0951 -0.4625  0.1248
 3907SOL    HW123183   2.493   0.996   1.131  0.3250  0.5606 -0.5044
 3907SOL    HW223184   2.364   1.018   1.062 -0.1264 -0.9234  1.7309
 3908SOL     OW23185   3.795   0.650   8.429  0.3971 -0.3288  0.4695
 3908SOL    HW123186   3.888   0.634   8.409  0.8522  1.0734  1.5175
 3908SOL    HW223187   3.765   0.648   8.338  0.0232  0.3943  0.5828
 3909SOL     OW23188   2.992   4.176   5.079 -0.9781  0.1560  0.1571
 3909SOL    HW123189   2.976   4.269   5.065 -0.7647  0.4408  1.7440
 3909SOL    HW223190   3.074   4.157   5.035 -0.0873  1.8157  1.0785
 3910SOL     OW23191   3.907   4.675   9.252  0.2314  0.4327 -0.3651
 3910SOL    HW123192   3.820   4.705   9.279  1.0434  1.8491  0.6832
 3910SOL    HW223193   3.954   0.035   9.224 -0.2966  1.4105  1.4950
 3911SOL     OW23194   1.557   3.239   3.468 -0.1314  0.1596  0.1673
 3911SOL    HW123195   1.592   3.205   3.386 -0.8378  0.3728 -0.2284
 3911SOL    HW223196   1.486   3.176   3.483 -1.1793  1.2179 -0.3532
 3912SOL     OW23197   0.496   1.206   8.232 -0.1479  0.4338 -0.3097
 3912SOL    HW123198   0.582   1.165   8.223 -0.2786 -1.0071  5.3103
 3912SOL    HW223199   0.447   1.130   8.264 -1.3948  0.7099 -1.5421
 3913SOL     OW23200   1.846   1.757  12.061 -0.4469  0.2840 -0.1438
 3913SOL    HW123201   1.914   1.820  12.081 -0.9767  2.1036 -4.0234
 3913SOL    HW223202   1.787   1.811  12.007  0.0789  0.6430 -0.3548
 3914SOL     OW23203   0.582   0.008   2.093 -0.0811 -0.1146  0.3842
 3914SOL    HW123204   0.601   0.099   2.117 -0.1034  0.2639 -1.0408
 3914SOL    HW223205   0.627   0.006   2.009 -0.3685 -1.1850  0.2532
 3915SOL     OW23206   4.445   4.040  13.030 -0.3592 -0.2121  0.3748
 3915SOL    HW123207   4.505   3.992  13.087  1.0565  1.3313  0.1557
 3915SOL    HW223208   4.379   3.974  13.007 -2.1615  2.0671 -1.0303
 3916SOL     OW23209   0.535   4.579   1.698  0.1375 -0.3748 -0.0699
 3916SOL    HW123210   0.531   4.499   1.645 -0.7461  0.5918 -1.4265
 3916SOL    HW223211   0.445   4.606   1.684  1.2617  3.2512 -0.3241
 3917SOL     OW23212   0.942   1.701   5.271  0.5291 -0.7358  0.1098
 3917SOL    HW123213   0.972   1.778   5.320  1.7964 -2.2443  1.6963
 3917SOL    HW223214   1.009   1.637   5.293  1.1497 -0.3068 -0.5502
 3918SOL     OW23215   1.421   4.299   4.326  0.0184 -0.1055  0.3234
 3918SOL    HW123216   1.470   4.344   4.396 -0.3089  1.0839 -0.2082
 3918SOL    HW223217   1.460   4.212   4.328 -3.0983 -1.4474  2.2447
 3919SOL     OW23218   1.920   2.649   0.222 -0.3852  0.3163  0.0204
 3919SOL    HW123219   1.912   2.637   0.127  1.7708 -1.3802  0.0403
 3919SOL    HW223220   1.955   2.561   0.239 -0.1805  0.2823 -0.5552
 3920SOL     OW23221   1.596   3.151   3.216 -0.3553  0.3280  0.2306
 3920SOL    HW123222   1.608   3.217   3.148  1.3470 -1.3122 -1.0478
 3920SOL    HW223223   1.508   3.118   3.200  0.3420  0.0417 -2.8556
 3921SOL     OW23224   0.400   3.279   9.692 -0.3176 -0.3986 -0.4550
 3921SOL    HW123225   0.372   3.210   9.632 -2.9918  1.4686 -1.3379
 3921SOL    HW223226   0.320   3.329   9.703  1.0027  1.8406 -1.0737
 3922SOL     OW23227   3.860   3.447   6.411  0.1829  0.3981 -0.2160
 3922SOL    HW123228   3.920   3.417   6.343 -0.0381 -2.5745  0.9000
 3922SOL    HW223229   3.914   3.518   6.446 -0.7312  0.1463  1.7325
 3923SOL     OW23230   0.667   2.170   7.867  0.3211 -0.0103  0.0756
 3923SOL    HW123231   0.622   2.168   7.952  1.2624  2.7335  0.6245
 3923SOL    HW223232   0.662   2.259   7.831  1.0284 -0.0274 -0.0453
 3924SOL     OW23233   3.187   0.182   7.311 -0.2690 -0.6278  0.4016
 3924SOL    HW123234   3.199   0.088   7.300  0.0444 -0.3034 -2.0343
 3924SOL    HW223235   3.102   0.183   7.355 -1.4248  2.3073 -1.9170
 3925SOL     OW23236   2.189   1.018   7.378 -0.3634  0.1021 -0.0047
 3925SOL    HW123237   2.165   1.033   7.287 -0.9737  2.1117  0.4951
 3925SOL    HW223238   2.238   0.936   7.370  1.7317  1.3610 -0.2548
 3926SOL     OW23239   0.162   1.601   8.735  0.2877  0.4628  0.2082
 3926SOL    HW123240   0.251   1.565   8.735  0.8663  1.8822  0.6720
 3926SOL    HW223241   0.134   1.591   8.826 -0.5312 -0.6463 -0.1658
 3927SOL     OW23242   2.205   1.293   7.684  0.6337 -0.4288 -0.5509
 3927SOL    HW123243   2.295   1.303   7.654  0.0533  2.1613 -1.3918
 3927SOL    HW223244   2.172   1.222   7.628 -0.6014 -0.1962 -0.1169
 3928SOL     OW23245   0.356   1.941   5.888  0.4130  0.0270 -0.0773
 3928SOL    HW123246   0.281   1.960   5.830  0.0871  0.6254  0.5419
 3928SOL    HW223247   0.348   1.846   5.886 -0.2990  0.1074 -1.2957
 3929SOL     OW23248   0.735   0.149   2.722  0.5046  0.3246  0.2320
 3929SOL    HW123249   0.707   0.137   2.813 -0.6158  0.7469 -0.0516
 3929SOL    HW223250   0.725   0.243   2.710 -0.9071  0.2778  1.0225
 3930SOL     OW23251   3.161   2.209   1.105 -0.6390 -0.3247 -0.1428
 3930SOL    HW123252   3.223   2.138   1.122 -0.1979  0.1065  0.0518
 3930SOL    HW223253   3.155   2.201   1.010  2.7795  0.0704 -0.3986
 3931SOL     OW23254   2.143   0.485   9.186 -0.7493 -0.8016 -0.1337
 3931SOL    HW123255   2.225   0.532   9.204 -0.7755 -0.7479 -0.1540
 3931SOL    HW223256   2.155   0.415   9.250 -1.8341 -0.8029  0.0711
 3932SOL     OW23257   0.629   3.746   2.978  0.0300 -0.3240 -0.2976
 3932SOL    HW123258   0.613   3.783   3.064 -0.6994 -0.5645 -0.3309
 3932SOL    HW223259   0.546   3.698   2.969  0.7726 -1.7021  0.1387
 3933SOL     OW23260   3.224   3.292   1.364  0.4734 -0.5334 -0.0228
 3933SOL    HW123261   3.261   3.228   1.425  0.8565 -2.5556 -2.4157
 3933SOL    HW223262   3.140   3.325   1.396  1.8034  0.1640  2.7745
 3934SOL     OW23263   2.560   2.352   7.562  0.2753  0.6183 -0.1555
 3934SOL    HW123264   2.621   2.307   7.503  1.5040 -0.1280  1.6799
 3934SOL    HW223265   2.518   2.417   7.505 -0.4478  0.2085 -0.0854
 3935SOL     OW23266   3.935   2.574  10.102  0.1959  0.1451  0.1578
 3935SOL    HW123267   3.853   2.591  10.150 -0.4979 -0.9758 -0.6229
 3935SOL    HW223268   3.973   2.662  10.095  0.7222 -0.1052 -0.0700
 3936SOL     OW23269   3.481   4.001   7.525  0.4042  0.0076  0.0366
 3936SOL    HW123270   3.547   4.060   7.490  1.2391 -1.2321 -0.4757
 3936SOL    HW223271   3.523   3.916   7.538 -0.1828 -0.0146  1.8165
 3937SOL     OW23272   2.088   3.451  11.606 -0.0590 -0.1970 -0.2345
 3937SOL    HW123273   2.113   3.503  11.682  2.1269 -1.0671 -0.3575
 3937SOL    HW223274   1.999   3.432  11.635  0.5121 -1.6258  0.5418
 3938SOL     OW23275   3.699   3.621   1.061  0.0542 -0.2571 -0.1257
 3938SOL    HW123276   3.644   3.574   0.999 -0.8890  0.1946  0.3682
 3938SOL    HW223277   3.754   3.676   1.005 -1.5181  1.7474  0.2937
 3939SOL     OW23278   1.056   2.841  13.320  0.2827  0.7324  0.6726
 3939SOL    HW123279   1.137   2.856  13.270 -0.4381  0.8167 -0.4736
 3939SOL    HW223280   1.095   2.820  13.405 -1.2479 -2.2971  0.6089
 3940SOL     OW23281   1.652   3.201  16.609 -0.0368  0.7068 -0.0530
 3940SOL    HW123282   1.693   3.269  16.662 -0.5797  1.4006 -0.5318
 3940SOL    HW223283   1.582   3.250  16.567 -1.3033 -2.4043 -1.6008
 3941SOL     OW23284   2.366   3.105   8.951  0.2124 -0.5699  0.1684
 3941SOL    HW123285   2.316   3.135   9.027  1.5840  1.8389  0.1186
 3941SOL    HW223286   2.299   3.050   8.911 -0.9752  1.2554 -0.3051
 3942SOL     OW23287   1.984   3.938   5.806  0.7123  0.2607 -0.6013
 3942SOL    HW123288   2.039   3.884   5.749  0.6428  1.9767 -2.3017
 3942SOL    HW223289   1.898   3.910   5.774  0.4877  0.8808 -0.5506
 3943SOL     OW23290   1.686   1.440  10.206 -0.2042 -0.2043 -0.2741
 3943SOL    HW123291   1.742   1.517  10.216  0.0187 -0.5120  0.9211
 3943SOL    HW223292   1.715   1.401  10.289  0.5814 -0.2789 -0.5934
 3944SOL     OW23293   3.158   2.004  17.244 -0.1276 -0.1772  0.1146
 3944SOL    HW123294   3.181   1.943  17.314  0.3942  1.0007  0.9666
 3944SOL    HW223295   3.119   1.935  17.190 -0.6365 -0.2998  0.6359
 3945SOL     OW23296   4.331   2.023   8.427  0.0488  0.0575  0.4969
 3945SOL    HW123297   4.356   2.083   8.357  0.5901 -0.9145 -0.1531
 3945SOL    HW223298   4.280   1.955   8.382 -0.0876  0.4503  0.0625
 3946SOL     OW23299   2.982   2.189   8.246 -0.0066 -0.4266 -0.6519
 3946SOL    HW123300   2.920   2.169   8.176  0.7694  2.3970 -2.1489
 3946SOL    HW223301   2.935   2.168   8.327 -0.5715 -1.8806 -1.3560
 3947SOL     OW23302   4.086   1.073   5.666 -0.1118  0.3232  0.0818
 3947SOL    HW123303   4.180   1.070   5.648 -0.0968  0.5548  0.1325
 3947SOL    HW223304   4.075   1.007   5.735  2.6888 -1.9127 -1.6286
 3948SOL     OW23305   0.923   4.254  13.517  0.4229  0.4347 -0.1292
 3948SOL    HW123306   0.890   4.344  13.525  1.2587  0.7721 -0.5370
 3948SOL    HW223307   0.865   4.222  13.587 -1.4783  1.1398 -1.3777
 3949SOL     OW23308   0.729   4.476   2.865  0.1985  0.5965 -0.3128
 3949SOL    HW123309   0.738   4.523   2.948 -2.4681  1.0907 -0.3046
 3949SOL    HW223310   0.814   4.433   2.851 -0.4167 -1.4382  2.2196
 3950SOL     OW23311   4.211   1.359   6.761 -0.2157  0.4398  0.0941
 3950SOL    HW123312   4.176   1.381   6.848 -2.0402 -2.8968  0.2013
 3950SOL    HW223313   4.260   1.440   6.745  0.4186 -0.0698 -0.5336
 3951SOL     OW23314   0.661   0.379  10.109  0.2435  0.1251 -0.1223
 3951SOL    HW123315   0.629   0.387  10.019  0.7645  1.3043 -0.1940
 3951SOL    HW223316   0.684   0.286  10.098  0.7832  0.2026  0.3539
 3952SOL     OW23317   0.716   2.132   3.755 -0.0760 -0.6395 -0.2978
 3952SOL    HW123318   0.715   2.088   3.670  2.2972 -0.4510 -0.4340
 3952SOL    HW223319   0.727   2.221   3.720  0.7095 -1.0579 -1.1253
 3953SOL     OW23320   1.488   4.132  17.612  0.1104 -0.6279  0.6234
 3953SOL    HW123321   1.460   4.117  17.522  0.4660  0.2071  0.3744
 3953SOL    HW223322   1.524   4.046  17.632 -0.4293 -0.7662  1.0018
 3954SOL     OW23323   4.288   4.424  17.216  0.5238  0.6782  0.2308
 3954SOL    HW123324   4.239   4.503  17.192 -2.5776 -1.6045 -1.0212
 3954SOL    HW223325   4.235   4.386  17.287  0.2634  1.7815  0.6205
 3955SOL     OW23326   2.507   2.754  17.110  0.0480 -0.4296  0.5730
 3955SOL    HW123327   2.564   2.704  17.052 -2.8129 -0.1281 -2.5275
 3955SOL    HW223328   2.465   2.681  17.154  0.0495 -0.5118  0.4384
 3956SOL     OW23329   2.930   0.848   8.271  0.4589  0.2376 -0.2843
 3956SOL    HW123330   2.846   0.894   8.268 -0.5611 -1.6628 -2.0164
 3956SOL    HW223331   2.912   0.791   8.196 -0.8408  1.0612 -0.5974
 3957SOL     OW23332   4.321   1.470   3.548 -0.7529  0.6008  0.0932
 3957SOL    HW123333   4.415   1.458   3.559 -0.6916 -0.5871 -1.8229
 3957SOL    HW223334   4.300   1.528   3.622  2.3760 -1.6498  2.7714
 3958SOL     OW23335   3.102   3.835  16.330 -0.1633  0.0122  0.7242
 3958SOL    HW123336   3.118   3.854  16.238  1.2768  0.6269  1.1022
 3958SOL    HW223337   3.173   3.773  16.345 -0.4701  0.0696  2.4031
 3959SOL     OW23338   0.596   0.999   3.480 -0.1320 -0.3240  0.1566
 3959SOL    HW123339   0.573   1.018   3.571 -0.6463 -0.6146  0.0898
 3959SOL    HW223340   0.578   0.906   3.468 -1.3341  0.1295 -1.6088
 3960SOL     OW23341   1.251   4.255   8.462  0.5201 -0.3600 -0.5695
 3960SOL    HW123342   1.216   4.344   8.453  0.9496 -0.3798 -2.5169
 3960SOL    HW223343   1.238   4.252   8.556 -1.2696  1.1258 -0.7580
 3961SOL     OW23344   2.027   3.061   5.486 -0.0900  0.1415 -0.4539
 3961SOL    HW123345   2.035   3.156   5.488 -1.1081  0.2344 -0.8831
 3961SOL    HW223346   2.081   3.031   5.413  0.9470  3.2461 -0.9552
 3962SOL     OW23347   0.229   2.500   3.644 -0.0026  0.4283 -0.2176
 3962SOL    HW123348   0.232   2.430   3.578  0.3920 -0.5278  0.8278
 3962SOL    HW223349   0.257   2.574   3.589 -1.5766  0.1574 -1.3986
 3963SOL     OW23350   3.364   1.616   4.409  0.1435  0.0519  0.3778
 3963SOL    HW123351   3.358   1.706   4.440  1.0720  0.3265 -0.2390
 3963SOL    HW223352   3.447   1.595   4.453 -0.4861  0.4301  1.7616
 3964SOL     OW23353   3.705   0.391   2.537 -0.0910  0.3337  0.2431
 3964SOL    HW123354   3.680   0.343   2.616  1.9332 -2.0723 -0.5846
 3964SOL    HW223355   3.743   0.320   2.486 -1.6584  0.5937 -1.2796
 3965SOL     OW23356   4.501   1.019   9.357 -0.2083  0.4448  0.9846
 3965SOL    HW123357   4.525   0.936   9.315 -0.1068  1.9963 -1.9612
 3965SOL    HW223358   4.405   1.012   9.362 -0.2793  2.0018  1.6166
 3966SOL     OW23359   4.074   3.338  14.937 -0.1178 -0.0720 -0.4965
 3966SOL    HW123360   4.015   3.348  14.863  0.9281  0.0530 -1.3121
 3966SOL    HW223361   4.047   3.251  14.967  1.1166  0.1755  1.3495
 3967SOL     OW23362   0.929   2.489   3.154  0.5008 -0.2470  0.5747
 3967SOL    HW123363   1.001   2.439   3.193  2.4310  0.7040 -1.7390
 3967SOL    HW223364   0.948   2.477   3.061  2.1933 -1.1854  1.0467
 3968SOL     OW23365   3.160   1.681  10.729  0.0187 -0.1641  0.0709
 3968SOL    HW123366   3.097   1.629  10.680  1.3661 -0.2225 -1.5669
 3968SOL    HW223367   3.202   1.605  10.770  0.0418  0.5108  1.3258
 3969SOL     OW23368   2.839   2.563   3.901  0.2688  0.5901  0.3698
 3969SOL    HW123369   2.928   2.527   3.899 -0.8137 -2.1135  0.1108
 3969SOL    HW223370   2.815   2.569   3.809 -0.6269  1.3204  0.6578
 3970SOL     OW23371   3.475   1.748   0.183  0.2617 -0.4470  0.1409
 3970SOL    HW123372   3.431   1.696   0.251 -0.6286  1.1088  0.7465
 3970SOL    HW223373   3.514   1.679   0.130 -0.1795 -0.5804 -0.0046
 3971SOL     OW23374   2.889   1.485   6.112  0.7394  0.0697  0.0599
 3971SOL    HW123375   2.879   1.401   6.067 -0.2904 -0.2392  0.8446
 3971SOL    HW223376   2.889   1.553   6.045  1.9692 -0.0213 -0.0320
 3972SOL     OW23377   3.178   1.439  16.500 -0.0195  0.1497  0.0436
 3972SOL    HW123378   3.155   1.503  16.432  0.6419  0.1252 -0.2056
 3972SOL    HW223379   3.121   1.464  16.573 -3.2422  0.1089 -2.4410
 3973SOL     OW23380   2.701   1.640   3.702  0.4958  0.3799 -0.7106
 3973SOL    HW123381   2.699   1.653   3.796  0.2542  1.3447 -0.8528
 3973SOL    HW223382   2.667   1.550   3.700  0.7718  0.2207  2.5297
 3974SOL     OW23383   1.412   4.203  12.918  0.2137  0.8905  0.5752
 3974SOL    HW123384   1.455   4.132  12.870  0.5035  1.6344 -0.2743
 3974SOL    HW223385   1.470   4.208  12.994 -0.8213  0.6981  1.3728
 3975SOL     OW23386   4.145   4.649   2.562  0.6129  0.2106  0.1156
 3975SOL    HW123387   4.081   4.690   2.620 -2.1651 -2.9521 -0.7083
 3975SOL    HW223388   4.209   0.001   2.558 -0.8224  1.4383 -1.2964
 3976SOL     OW23389   1.057   4.640   6.487 -0.5013  0.0546  0.1860
 3976SOL    HW123390   1.014   4.716   6.524  2.5417  1.1053  1.5762
 3976SOL    HW223391   1.069   4.670   6.397  0.7478  2.0459  1.0212
 3977SOL     OW23392   1.307   3.352  13.697  0.1671 -0.3771  0.1612
 3977SOL    HW123393   1.386   3.404  13.710 -0.4943  0.5645  0.4204
 3977SOL    HW223394   1.235   3.415  13.708 -1.6643 -2.4371 -0.0052
 3978SOL     OW23395   0.443   3.430   6.641  0.1945  0.2277 -0.7070
 3978SOL    HW123396   0.537   3.450   6.637  0.8621 -2.8751 -0.3561
 3978SOL    HW223397   0.406   3.517   6.627  3.5672  1.7923 -0.0332
 3979SOL     OW23398   3.224   1.957   2.751  0.3237 -0.0845 -0.3644
 3979SOL    HW123399   3.152   1.992   2.804  2.0382 -0.0261  1.9177
 3979SOL    HW223400   3.284   2.031   2.742  0.2247  0.0318 -0.0942
 3980SOL     OW23401   1.092   0.272   0.357 -0.2627 -0.0244  0.3021
 3980SOL    HW123402   1.082   0.338   0.288  0.6630  1.0551  1.1913
 3980SOL    HW223403   1.182   0.301   0.373 -0.0852 -0.0283 -0.6967
 3981SOL     OW23404   4.324   2.670  14.576 -0.2710  0.6555 -0.5956
 3981SOL    HW123405   4.372   2.617  14.639 -0.8588 -0.5066 -1.1279
 3981SOL    HW223406   4.245   2.616  14.572 -1.1373  1.7998  1.0137
 3982SOL     OW23407   2.492   4.516  16.656  0.5085 -0.2472  0.7673
 3982SOL    HW123408   2.522   4.544  16.743  1.2219  0.7023  0.2121
 3982SOL    HW223409   2.481   4.596  16.605  0.8727 -0.5874  0.1704
 3983SOL     OW23410   3.832   0.214  10.530  0.8313 -0.7261 -0.8600
 3983SOL    HW123411   3.877   0.265  10.596 -0.5362 -0.5675 -0.0563
 3983SOL    HW223412   3.759   0.273  10.508  0.1317 -0.5502  1.9224
 3984SOL     OW23413   4.246   1.449  13.255 -0.4948 -0.5562 -0.2736
 3984SOL    HW123414   4.193   1.526  13.276  0.6925  0.6019 -1.4586
 3984SOL    HW223415   4.322   1.493  13.216 -0.9297 -1.6083 -2.3134
 3985SOL     OW23416   4.390   2.700  15.702  0.5616 -0.1006  0.4695
 3985SOL    HW123417   4.369   2.769  15.765 -0.0890 -0.9278  1.1439
 3985SOL    HW223418   4.303   2.705  15.662  1.1903  3.1080 -0.5499
 3986SOL     OW23419   1.867   3.506   3.193 -0.5167  0.4755  0.7091
 3986SOL    HW123420   1.802   3.557   3.145  0.1619  0.1373 -0.5853
 3986SOL    HW223421   1.926   3.573   3.227 -1.1286  1.3957 -0.0412
 3987SOL     OW23422   2.934   1.297   3.773  0.1587  0.0003  0.4267
 3987SOL    HW123423   2.898   1.348   3.701 -1.8963 -2.4838 -0.2966
 3987SOL    HW223424   2.846   1.282   3.806  0.3493 -2.0955 -0.0218
 3988SOL     OW23425   0.598   3.806   3.845  0.1903 -0.0445 -0.8888
 3988SOL    HW123426   0.625   3.860   3.920  0.2171 -1.8585  0.4203
 3988SOL    HW223427   0.550   3.864   3.787 -0.8136  0.4725  0.4448
 3989SOL     OW23428   3.852   4.264   8.389 -0.5103  0.1017  0.2127
 3989SOL    HW123429   3.894   4.301   8.312 -0.2454 -0.3927  0.1159
 3989SOL    HW223430   3.760   4.276   8.365 -0.4693  0.3743  0.1951
 3990SOL     OW23431   2.547   3.951  17.304 -0.1103 -0.0601  0.0185
 3990SOL    HW123432   2.639   3.941  17.278  0.2746  2.7860  0.3350
 3990SOL    HW223433   2.549   3.933  17.398 -1.3095 -0.5162 -0.0454
 3991SOL     OW23434   1.864   3.219   6.664  0.0716 -0.5015 -0.0353
 3991SOL    HW123435   1.864   3.279   6.589 -1.7493  0.1385  0.4859
 3991SOL    HW223436   1.842   3.129   6.639  0.9940 -1.3293  2.1414
 3992SOL     OW23437   1.658   4.371   7.154  0.1245 -0.5480  0.0503
 3992SOL    HW123438   1.675   4.434   7.224 -0.4116  0.1517 -0.4463
 3992SOL    HW223439   1.743   4.327   7.151  0.9154  0.8637  1.7460
 3993SOL     OW23440   0.889   2.680   2.681 -0.0328  0.1747 -0.7623
 3993SOL    HW123441   0.832   2.604   2.693  0.3924 -0.3021 -1.7802
 3993SOL    HW223442   0.967   2.652   2.730  0.7377 -0.8147 -2.5290
 3994SOL     OW23443   1.176   1.658   7.564  0.3225 -0.2616  0.6276
 3994SOL    HW123444   1.099   1.624   7.517  1.0132 -0.7502 -0.1589
 3994SOL    HW223445   1.237   1.608   7.510 -0.0284 -2.7302  2.5548
 3995SOL     OW23446   1.011   1.520   5.056 -0.4188 -0.1210  0.0634
 3995SOL    HW123447   0.971   1.551   4.975 -0.6377  1.7481  0.8842
 3995SOL    HW223448   0.975   1.594   5.105  1.8345  1.7158 -1.0812
 3996SOL     OW23449   3.034   1.890  15.782 -0.3946  0.1995 -0.0124
 3996SOL    HW123450   3.125   1.907  15.808  0.2722 -1.7905 -1.0398
 3996SOL    HW223451   3.029   1.923  15.693  0.6122 -1.4185 -0.6695
 3997SOL     OW23452   1.421   0.307  12.916 -0.1621  0.0749 -0.6548
 3997SOL    HW123453   1.476   0.278  12.843  0.3302 -1.4059  0.3044
 3997SOL    HW223454   1.364   0.374  12.878 -0.6442  0.1462  0.1860
 3998SOL     OW23455   2.136   3.477   6.268  0.2129  0.5982  0.3934
 3998SOL    HW123456   2.210   3.531   6.295 -0.2344 -1.3372  5.3448
 3998SOL    HW223457   2.080   3.553   6.284  0.9731  1.4107 -0.7704
 3999SOL     OW23458   2.846   3.456   9.587 -0.1185 -0.0140 -0.2925
 3999SOL    HW123459   2.796   3.461   9.506 -0.2375 -0.7520 -0.2622
 3999SOL    HW223460   2.909   3.386   9.569 -1.7589 -1.8458  1.1196
 4000SOL     OW23461   1.568   0.693   2.922  0.8917  0.1905  0.0688
 4000SOL    HW123462   1.491   0.685   2.865 -0.1109  0.6037  1.3630
 4000SOL    HW223463   1.525   0.704   3.006 -0.9096 -0.1710 -0.8016
 4001SOL     OW23464   3.597   0.740   8.994 -0.3817 -0.2566 -0.6812
 4001SOL    HW123465   3.513   0.713   8.957 -1.2821 -1.9082  2.5384
 4001SOL    HW223466   3.640   0.654   8.997  0.8598  0.3613 -0.8808
 4002SOL     OW23467   4.087   0.681   2.792 -0.0865 -0.1875 -0.4446
 4002SOL    HW123468   4.183   0.682   2.797 -0.1529 -0.1217  0.7669
 4002SOL    HW223469   4.062   0.759   2.743  0.6261  1.7400  2.3004
 4003SOL     OW23470   2.884   4.121   8.051 -0.2005 -0.2948  0.0098
 4003SOL    HW123471   2.831   4.195   8.080  2.2677  1.3228  0.4937
 4003SOL    HW223472   2.823   4.052   8.075 -1.2779 -0.0519 -2.0849
 4004SOL     OW23473   3.048   2.264  15.127  0.0510  0.4298  0.1276
 4004SOL    HW123474   2.981   2.268  15.195 -0.8171 -0.6915 -0.6766
 4004SOL    HW223475   3.030   2.173  15.102  1.0831  0.6862 -1.5684
 4005SOL     OW23476   1.446   0.685   5.062  0.5511  0.2590  0.6084
 4005SOL    HW123477   1.353   0.670   5.044  0.3350  1.3101  0.8710
 4005SOL    HW223478   1.435   0.764   5.115 -1.7343 -0.1174  0.7023
 4006SOL     OW23479   4.631   2.611  11.404 -0.1139  0.3203 -0.5317
 4006SOL    HW123480   4.663   2.609  11.314  2.5928  0.2333  0.4418
 4006SOL    HW223481   4.540   2.584  11.392 -0.5962  1.6232  0.2560
 4007SOL     OW23482   0.266   4.713   3.872  0.1743  0.6305  0.0151
 4007SOL    HW123483   0.351   4.715   3.915 -0.2602 -0.2742  0.9072
 4007SOL    HW223484   0.218   4.665   3.940  1.0178  1.8480  1.4791
 4008SOL     OW23485   1.898   3.279   9.214 -0.5964 -0.1640 -0.7521
 4008SOL    HW123486   1.863   3.194   9.189 -0.6378 -0.5519  0.6389
 4008SOL    HW223487   1.821   3.335   9.226  0.8778  1.6173  0.4702
 4009SOL     OW23488   3.633   4.018  17.564  0.3448 -0.2456 -0.4696
 4009SOL    HW123489   3.609   3.992  17.475 -1.1128  0.2221 -0.2111
 4009SOL    HW223490   3.638   3.937  17.616  0.9468 -2.3108 -3.7235
 4010SOL     OW23491   2.874   1.043  13.284 -0.6171  0.6058 -0.5289
 4010SOL    HW123492   2.897   0.950  13.287  0.3357  0.8572  0.2015
 4010SOL    HW223493   2.807   1.056  13.350  0.1302 -0.9340  0.5611
 4011SOL     OW23494   0.525   2.762   5.349  0.3396  0.2109 -0.1734
 4011SOL    HW123495   0.464   2.764   5.423 -1.2043  0.9149 -1.4492
 4011SOL    HW223496   0.469   2.782   5.273 -1.9905  1.1690  1.7938
 4012SOL     OW23497   3.700   3.979  16.534 -0.3415 -0.5145  0.8432
 4012SOL    HW123498   3.678   4.025  16.452  0.3548  0.6117  1.2879
 4012SOL    HW223499   3.773   3.923  16.508  1.3769  1.8254  0.5594
 4013SOL     OW23500   3.628   1.631   1.425 -0.1727  0.1892  0.2343
 4013SOL    HW123501   3.645   1.621   1.518 -0.5889  0.7631  0.3728
 4013SOL    HW223502   3.539   1.667   1.424  1.0261  3.1720 -0.8103
 4014SOL     OW23503   0.936   0.828   3.840 -0.1880  0.5545 -0.3834
 4014SOL    HW123504   0.873   0.900   3.850 -0.6130 -0.2232  2.7113
 4014SOL    HW223505   0.980   0.854   3.759 -0.9816 -0.1674 -1.0508
 4015SOL     OW23506   4.091   3.658   7.484  0.5169  0.0787  0.6622
 4015SOL    HW123507   4.116   3.569   7.507 -1.6655 -0.9083 -0.8204
 4015SOL    HW223508   4.179   3.696   7.493  0.9782 -0.5402 -1.2477
 4016SOL     OW23509   0.781   1.314   5.426 -0.1270 -0.2990 -0.3125
 4016SOL    HW123510   0.736   1.237   5.461  1.9957 -2.3642 -2.0398
 4016SOL    HW223511   0.766   1.304   5.332 -1.7823 -0.1800 -0.0609
 4017SOL     OW23512   0.935   2.387   3.482  0.6551  0.1833  0.1108
 4017SOL    HW123513   0.879   2.395   3.559  3.2555 -3.1914  2.3345
 4017SOL    HW223514   0.882   2.334   3.423  0.4147  0.2399  0.2764
 4018SOL     OW23515   1.876   3.752   5.165  0.1475 -0.2665  0.1985
 4018SOL    HW123516   1.957   3.798   5.141  1.1334 -1.8553  0.4806
 4018SOL    HW223517   1.864   3.781   5.255 -1.4917  1.2832 -0.5076
 4019SOL     OW23518   2.006   4.543   5.502  0.2000 -0.3312  0.1701
 4019SOL    HW123519   1.992   4.449   5.495 -1.4403 -0.0735  0.0371
 4019SOL    HW223520   2.066   4.546   5.577  0.2378 -0.0855  0.1319
 4020SOL     OW23521   2.401   0.561   9.234 -0.7618 -0.0401  0.7012
 4020SOL    HW123522   2.442   0.538   9.318  0.0999  2.1971  0.9129
 4020SOL    HW223523   2.396   0.655   9.254  1.5016  0.2966 -0.3845
 4021SOL     OW23524   3.641   0.867   1.606 -0.1532  0.4239 -0.0290
 4021SOL    HW123525   3.711   0.867   1.541 -0.1011 -0.4488  0.0268
 4021SOL    HW223526   3.612   0.776   1.602 -0.9777  0.6634  0.6047
 4022SOL     OW23527   3.162   2.235   9.908  0.0098 -0.5402 -0.2102
 4022SOL    HW123528   3.076   2.196   9.922 -0.6943  0.1647 -2.4872
 4022SOL    HW223529   3.142   2.309   9.850  0.3886  0.2999  0.7284
 4023SOL     OW23530   3.268   3.003   4.147  0.2203  0.1380 -0.6563
 4023SOL    HW123531   3.290   2.985   4.238  2.4643  1.2765 -0.9653
 4023SOL    HW223532   3.195   3.063   4.160  1.9423  2.3399 -0.9830
 4024SOL     OW23533   1.446   3.874   6.559 -0.8739 -0.5039  0.1386
 4024SOL    HW123534   1.412   3.788   6.583  0.4688 -1.1427 -0.2878
 4024SOL    HW223535   1.438   3.923   6.642 -1.2218 -0.1851 -0.0810
 4025SOL     OW23536   4.657   0.724   4.473 -0.2768 -0.6380  0.0931
 4025SOL    HW123537   0.007   0.697   4.534 -0.4972  2.4395  1.6801
 4025SOL    HW223538   4.591   0.735   4.542 -0.7410 -0.7762 -0.3302
 4026SOL     OW23539   0.917   4.670   7.254  0.2725  0.1581 -0.1283
 4026SOL    HW123540   0.951   0.031   7.295 -0.7674  0.1415  0.7785
 4026SOL    HW223541   0.851   4.711   7.197  2.4194  1.3289 -1.7791
 4027SOL     OW23542   3.694   4.047   4.468 -0.0374  0.1656  0.5541
 4027SOL    HW123543   3.696   3.951   4.472  1.1581  0.1866  0.4401
 4027SOL    HW223544   3.601   4.059   4.448  0.0679  0.7958  0.4504
 4028SOL     OW23545   2.670   0.179  10.480  0.0590  0.4093 -0.2846
 4028SOL    HW123546   2.623   0.230  10.546 -1.4788 -0.0766 -1.0059
 4028SOL    HW223547   2.749   0.233  10.484 -0.2702  0.8228  0.4981
 4029SOL     OW23548   1.628   3.771   5.053  0.3861  0.1723  0.0147
 4029SOL    HW123549   1.654   3.716   4.979 -0.7208  1.0957 -1.0511
 4029SOL    HW223550   1.709   3.769   5.105  0.3244 -1.1661  0.0550
 4030SOL     OW23551   0.339   2.740  10.953  0.0425 -0.2590 -0.2037
 4030SOL    HW123552   0.296   2.729  10.868  0.6908 -1.4976 -0.3828
 4030SOL    HW223553   0.340   2.835  10.965  1.7889 -0.3131  0.1129
 4031SOL     OW23554   0.111   2.630   0.447  0.9018  0.1873 -0.1770
 4031SOL    HW123555   0.119   2.637   0.352  0.9745  2.7725  0.0198
 4031SOL    HW223556   0.163   2.550   0.453 -0.0032 -0.4651 -1.2168
 4032SOL     OW23557   4.641   0.655   5.085  0.6647  0.1790 -0.4993
 4032SOL    HW123558   4.687   0.588   5.034 -0.4208 -0.5169 -0.5621
 4032SOL    HW223559   4.571   0.611   5.133 -0.5990 -0.1440 -2.6507
 4033SOL     OW23560   1.732   2.197  12.240 -0.0935  0.1141  0.4871
 4033SOL    HW123561   1.698   2.172  12.154 -0.6332  2.6814 -0.0316
 4033SOL    HW223562   1.746   2.291  12.240 -1.6924  0.3418 -1.2454
 4034SOL     OW23563   1.939   1.971   2.793  0.2541  0.3296  1.1537
 4034SOL    HW123564   2.011   1.908   2.782  1.3719  1.6610  0.9165
 4034SOL    HW223565   1.977   2.046   2.747  0.1685  0.0817  0.6700
 4035SOL     OW23566   0.588   2.660   7.240 -0.3983 -0.4779 -0.4899
 4035SOL    HW123567   0.567   2.569   7.258  1.9178 -0.9307 -0.0986
 4035SOL    HW223568   0.528   2.669   7.166 -0.9658 -1.0807 -0.0975
 4036SOL     OW23569   4.035   4.009   5.258  0.1458 -0.1985 -0.1167
 4036SOL    HW123570   3.963   3.948   5.275 -0.0622  0.0687 -0.0302
 4036SOL    HW223571   4.114   3.975   5.299  0.7382  1.7342  0.3719
 4037SOL     OW23572   3.163   0.196   6.589 -0.5781 -0.0550  0.2468
 4037SOL    HW123573   3.152   0.186   6.684 -0.0554  1.1398  0.4244
 4037SOL    HW223574   3.110   0.129   6.545  0.9191 -1.1560  0.1139
 4038SOL     OW23575   1.457   2.162   8.808 -0.4850 -0.7195  0.2291
 4038SOL    HW123576   1.516   2.172   8.882 -0.0923  0.8179 -0.2836
 4038SOL    HW223577   1.405   2.242   8.801 -1.3046 -1.5626 -3.5384
 4039SOL     OW23578   0.040   0.047  12.565 -0.2352 -0.5221  0.6926
 4039SOL    HW123579   0.105   4.717  12.617  0.8366 -1.1634 -1.2352
 4039SOL    HW223580   4.692   4.697  12.555 -1.3160  0.6953 -0.3625
 4040SOL     OW23581   2.889   2.235   7.897  0.3529 -0.0519 -0.0152
 4040SOL    HW123582   2.906   2.178   7.822 -1.0554 -2.6247  1.6246
 4040SOL    HW223583   2.973   2.275   7.918  0.3439 -0.6827  1.2000
 4041SOL     OW23584   0.215   3.587   9.163 -0.2378  0.0259  0.7503
 4041SOL    HW123585   0.264   3.530   9.104  0.6600  1.4992  0.0780
 4041SOL    HW223586   0.281   3.656   9.170 -0.6135  0.3572  1.0088
 4042SOL     OW23587   2.260   1.728   7.672 -0.5084 -0.6776 -0.3846
 4042SOL    HW123588   2.187   1.683   7.713  1.4102 -4.1449 -0.6984
 4042SOL    HW223589   2.337   1.672   7.686 -0.0775  0.6175  2.2453
 4043SOL     OW23590   3.943   1.652   2.151 -0.2198  0.1567  0.1786
 4043SOL    HW123591   3.999   1.664   2.228  1.0800 -2.5203 -0.3346
 4043SOL    HW223592   3.942   1.557   2.162 -2.6238  0.2495  0.6818
 4044SOL     OW23593   2.579   0.216   5.626 -0.0150 -0.2828  0.2067
 4044SOL    HW123594   2.587   0.298   5.577 -1.3776 -1.3059 -1.7051
 4044SOL    HW223595   2.654   0.210   5.684  0.6639  0.9273 -0.5487
 4045SOL     OW23596   2.343   2.621   3.835 -0.0656 -0.1833 -0.7369
 4045SOL    HW123597   2.350   2.643   3.928  0.0515 -0.9056 -0.5755
 4045SOL    HW223598   2.304   2.696   3.790  1.3299  0.1080 -1.4637
 4046SOL     OW23599   0.180   2.079   9.457  0.6437  0.4173  0.3136
 4046SOL    HW123600   0.211   2.124   9.535 -1.4944  0.6501  1.0215
 4046SOL    HW223601   0.260   2.032   9.434  0.0980 -0.4811  0.2459
 4047SOL     OW23602   0.832   3.745  13.195 -0.2171  0.0987 -0.1659
 4047SOL    HW123603   0.920   3.725  13.228 -1.2224 -1.1651  1.7262
 4047SOL    HW223604   0.802   3.654  13.192  1.1205 -0.3629  0.2087
 4048SOL     OW23605   1.292   0.122   1.168 -0.0566  0.9454 -0.0943
 4048SOL    HW123606   1.349   0.160   1.234 -0.0750 -2.5332  1.8925
 4048SOL    HW223607   1.356   0.072   1.117 -2.2718 -0.5900 -1.3713
 4049SOL     OW23608   3.417   1.217  14.744  0.5125  0.4369 -0.8957
 4049SOL    HW123609   3.395   1.268  14.666 -2.8483  1.8420  0.9870
 4049SOL    HW223610   3.513   1.222  14.744  0.5182  0.5310 -3.1062
 4050SOL     OW23611   2.944   3.672  10.599  0.0367  0.6619  0.3625
 4050SOL    HW123612   2.855   3.677  10.564  0.2030  0.4003 -0.0925
 4050SOL    HW223613   2.989   3.738  10.546 -0.8897  1.4789  0.5958
 4051SOL     OW23614   4.042   0.308   8.061  0.2836  0.2106 -0.1311
 4051SOL    HW123615   3.950   0.327   8.083 -0.0194 -2.1703  0.7039
 4051SOL    HW223616   4.069   0.314   8.153 -3.1943  0.0020  0.9181
 4052SOL     OW23617   3.363   0.848   7.062 -0.5294  0.1502 -0.1513
 4052SOL    HW123618   3.309   0.846   6.983 -0.1294  2.1586 -0.4691
 4052SOL    HW223619   3.446   0.814   7.028 -0.4804 -0.0930  0.2114
 4053SOL     OW23620   2.028   2.932   4.648 -0.1941  0.2462 -0.6747
 4053SOL    HW123621   2.061   2.921   4.737 -0.3016 -1.7764 -0.8726
 4053SOL    HW223622   2.008   2.840   4.630  1.4961 -0.8336  2.9752
 4054SOL     OW23623   3.795   2.329   3.136 -0.2442 -0.1897  0.5652
 4054SOL    HW123624   3.762   2.262   3.077 -1.4387 -2.2846  3.6188
 4054SOL    HW223625   3.750   2.401   3.091 -0.4963 -0.3597  0.5459
 4055SOL     OW23626   4.383   2.098   6.709 -0.1694  0.4182 -0.3308
 4055SOL    HW123627   4.449   2.164   6.730 -0.8062  1.0035 -0.1816
 4055SOL    HW223628   4.344   2.071   6.792  0.6130  2.3234  0.6551
 4056SOL     OW23629   4.063   1.667   7.554  0.3910 -0.5121 -0.2072
 4056SOL    HW123630   4.024   1.741   7.509 -1.9250 -1.4520  0.2693
 4056SOL    HW223631   4.004   1.599   7.522  0.2412 -1.2429  1.6139
 4057SOL     OW23632   2.851   3.158   3.311  1.3200  0.1099  0.0176
 4057SOL    HW123633   2.779   3.208   3.349  0.6685 -0.1542 -0.8537
 4057SOL    HW223634   2.810   3.071   3.320  2.7646 -0.4551  1.2527
 4058SOL     OW23635   4.337   3.335   4.200 -0.6729 -0.2504  0.0376
 4058SOL    HW123636   4.242   3.338   4.207 -0.6612 -0.3689  0.2421
 4058SOL    HW223637   4.360   3.370   4.286  1.2357  0.2775 -0.6721
 4059SOL     OW23638   4.496   3.300   1.935  0.2937  0.0150  0.5143
 4059SOL    HW123639   4.488   3.239   1.862 -0.7537  1.1084 -0.2731
 4059SOL    HW223640   4.512   3.239   2.008  0.1658 -1.7598 -0.9304
 4060SOL     OW23641   1.696   0.655  13.677 -0.0602 -0.5725  0.3399
 4060SOL    HW123642   1.607   0.643  13.645 -0.9290  2.2196  1.6432
 4060SOL    HW223643   1.689   0.747  13.703  0.9298 -0.7270  1.1628
 4061SOL     OW23644   4.016   2.049   8.521 -0.6215 -0.4600  0.4088
 4061SOL    HW123645   4.088   2.013   8.469 -0.7045  0.2341 -0.1865
 4061SOL    HW223646   3.942   1.987   8.516 -0.3727 -0.7307  0.0528
 4062SOL     OW23647   4.698   1.374   6.809 -0.0579  0.2366 -0.5952
 4062SOL    HW123648   4.674   1.463   6.834  0.6127  0.2964 -0.1426
 4062SOL    HW223649   0.057   1.359   6.864 -1.2374  0.8149  1.2210
 4063SOL     OW23650   2.875   2.892  16.967  0.3709  0.1974 -0.1075
 4063SOL    HW123651   2.876   2.836  16.889 -0.3366  1.0676 -0.7430
 4063SOL    HW223652   2.936   2.838  17.018 -0.6430 -0.5495  0.3154
 4064SOL     OW23653   3.651   2.436   3.649 -0.2965 -0.4960 -0.0202
 4064SOL    HW123654   3.703   2.395   3.718  1.6759  1.1677 -0.5288
 4064SOL    HW223655   3.674   2.382   3.574 -0.4565 -3.2308  1.8743
 4065SOL     OW23656   1.495   2.914   2.666 -0.2867  0.0183 -0.0711
 4065SOL    HW123657   1.493   2.936   2.573  0.2536 -1.1552 -0.3646
 4065SOL    HW223658   1.542   2.991   2.697  1.0191 -0.3459 -1.1652
 4066SOL     OW23659   3.861   1.659   4.579  0.0161 -0.1567 -0.4295
 4066SOL    HW123660   3.879   1.572   4.543 -0.3957 -1.0123  1.4495
 4066SOL    HW223661   3.941   1.707   4.558 -1.0447  0.8807 -2.1055
 4067SOL     OW23662   3.086   3.090  15.368  0.5626 -0.4779  0.4796
 4067SOL    HW123663   3.049   3.002  15.377 -0.2241 -0.4577 -2.6690
 4067SOL    HW223664   3.073   3.112  15.276  3.4542  2.0509  0.6859
 4068SOL     OW23665   1.201   2.320  15.814 -0.2685 -0.0949 -0.5407
 4068SOL    HW123666   1.236   2.362  15.736 -1.0424  1.8384  0.1483
 4068SOL    HW223667   1.281   2.278  15.847 -1.2186 -1.2434  0.2741
 4069SOL     OW23668   3.076   4.419   5.420 -0.1930 -0.0175  0.3225
 4069SOL    HW123669   3.143   4.351   5.422 -1.2475 -1.0343  0.8113
 4069SOL    HW223670   3.052   4.405   5.511  0.3491 -1.9282  0.1712
 4070SOL     OW23671   2.134   1.856   3.757  0.1145 -0.7949  0.6218
 4070SOL    HW123672   2.154   1.917   3.686 -1.0834  0.1089  1.0726
 4070SOL    HW223673   2.057   1.888   3.802  0.9138  1.1387  0.6277
 4071SOL     OW23674   0.804   0.546   8.247  0.1193  0.2763 -0.5527
 4071SOL    HW123675   0.733   0.561   8.309  1.0168 -1.9065  0.9976
 4071SOL    HW223676   0.877   0.565   8.307  1.2485 -2.1664 -1.1573
 4072SOL     OW23677   0.196   1.368  17.658 -0.4107 -0.1218 -0.8085
 4072SOL    HW123678   0.265   1.334  17.601  1.3514  1.5641  0.3336
 4072SOL    HW223679   0.170   1.292   0.033  0.4398  1.2624  1.6721
 4073SOL     OW23680   1.501   2.685   4.311  0.0875  0.4356 -0.1556
 4073SOL    HW123681   1.457   2.769   4.296  0.5393  0.7687  0.3761
 4073SOL    HW223682   1.571   2.722   4.366 -1.2195  1.0174  1.1279
 4074SOL     OW23683   3.055   2.859   6.592 -0.1808 -0.0817  0.2600
 4074SOL    HW123684   3.105   2.841   6.512  2.5980 -0.7603  2.1441
 4074SOL    HW223685   3.115   2.918   6.637  2.5038 -2.5713 -0.0440
 4075SOL     OW23686   1.294   3.154  16.509  0.5859  0.2779 -0.0783
 4075SOL    HW123687   1.289   3.187  16.419  1.5857 -0.2048 -0.3196
 4075SOL    HW223688   1.372   3.199  16.541  0.5535  0.8895 -0.8525
 4076SOL     OW23689   0.716   3.678  11.455 -0.4750 -0.2317  0.3510
 4076SOL    HW123690   0.623   3.699  11.461 -0.6894 -0.5219 -1.9318
 4076SOL    HW223691   0.714   3.595  11.503 -0.3027  0.0628  0.8601
 4077SOL     OW23692   3.888   0.778   6.228 -0.5888 -0.3097  0.0077
 4077SOL    HW123693   3.833   0.844   6.270 -0.3310 -1.3393  1.9645
 4077SOL    HW223694   3.897   0.712   6.297 -0.4930  1.4062  1.6260
 4078SOL     OW23695   4.162   3.631   5.178 -0.0703 -0.3647  0.0415
 4078SOL    HW123696   4.186   3.720   5.203 -0.3045  0.0355 -1.1589
 4078SOL    HW223697   4.068   3.624   5.198 -0.1630 -0.3199 -0.3580
 4079SOL     OW23698   0.486   2.139   8.100 -0.2713  0.2912 -0.0366
 4079SOL    HW123699   0.484   2.224   8.055 -0.7747  0.1359 -0.2976
 4079SOL    HW223700   0.556   2.155   8.164 -0.0070  2.9011 -0.9881
 4080SOL     OW23701   4.084   0.995   8.735 -0.4400 -0.0543  0.2476
 4080SOL    HW123702   4.069   1.046   8.655 -0.2696 -0.3743  0.0123
 4080SOL    HW223703   4.123   1.059   8.794 -0.9346  1.6924 -1.3260
 4081SOL     OW23704   0.281   2.830   8.095  0.0459 -0.7264  0.0634
 4081SOL    HW123705   0.328   2.913   8.095 -0.7222 -0.3046 -3.3342
 4081SOL    HW223706   0.195   2.861   8.124  0.4041  1.2435 -1.0033
 4082SOL     OW23707   3.017   1.183   8.920 -0.0322 -0.4367  0.0351
 4082SOL    HW123708   3.049   1.171   8.831  0.2217 -0.8807  0.1849
 4082SOL    HW223709   3.082   1.245   8.954  0.1872  0.2247 -1.5876
 4083SOL     OW23710   0.629   4.322   9.639 -0.6294  0.5597 -0.2205
 4083SOL    HW123711   0.682   4.246   9.615 -2.8125 -0.7051 -0.9866
 4083SOL    HW223712   0.655   4.342   9.729 -1.4494 -1.1376  0.3791
 4084SOL     OW23713   0.571   4.711   6.880 -0.0378  0.3130  0.6406
 4084SOL    HW123714   0.516   4.643   6.840  1.6622  0.7248 -2.3805
 4084SOL    HW223715   0.508   0.037   6.938  0.6918 -0.4684  2.0377
 4085SOL     OW23716   1.631   2.162   2.178  0.0479 -0.1397 -0.2294
 4085SOL    HW123717   1.679   2.233   2.136 -2.2713  0.5297 -1.7288
 4085SOL    HW223718   1.543   2.188   2.154 -0.4715 -1.5989  0.0599
 4086SOL     OW23719   4.087   2.666   4.022  0.2078 -0.5251 -0.0468
 4086SOL    HW123720   4.089   2.719   3.943  1.3269  0.3360  0.5457
 4086SOL    HW223721   4.056   2.731   4.084 -4.1097 -1.2091 -1.5208
 4087SOL     OW23722   1.451   4.071   3.637 -0.0713  0.3612 -0.3228
 4087SOL    HW123723   1.385   4.076   3.568 -0.1770 -2.5126 -0.4288
 4087SOL    HW223724   1.469   3.977   3.631 -1.2600  0.0806  0.8440
 4088SOL     OW23725   2.721   1.859   8.490  0.0453  0.5345 -0.2627
 4088SOL    HW123726   2.719   1.788   8.426  1.8338 -2.3137  2.8530
 4088SOL    HW223727   2.632   1.863   8.525  0.5034  0.4672  0.8928
 4089SOL     OW23728   2.878   4.072   1.256  0.3920  0.1354  0.0201
 4089SOL    HW123729   2.934   4.045   1.183 -0.4295 -0.6220 -0.3259
 4089SOL    HW223730   2.798   4.041   1.215  0.3313 -0.4424  0.5650
 4090SOL     OW23731   1.911   0.698   7.880 -0.1925  0.5025  0.4999
 4090SOL    HW123732   1.928   0.784   7.917 -0.7382  1.6077 -1.8388
 4090SOL    HW223733   1.945   0.631   7.940  0.2548  1.2038  1.0239
 4091SOL     OW23734   3.314   4.004   8.590  0.0043 -0.3912  0.2126
 4091SOL    HW123735   3.230   3.962   8.605  0.0457  0.0145  1.5809
 4091SOL    HW223736   3.340   4.064   8.660 -1.1138 -0.7997  0.9657
 4092SOL     OW23737   4.580   0.221   5.226 -0.2900 -0.1116 -0.3418
 4092SOL    HW123738   4.596   0.127   5.237 -1.5315 -0.2264  0.4807
 4092SOL    HW223739   4.501   0.219   5.171 -1.0704  2.2953  0.6697
 4093SOL     OW23740   2.957   2.442  17.232  0.2225 -0.2839  0.0917
 4093SOL    HW123741   2.998   2.502  17.295 -0.8996  1.0945 -0.4981
 4093SOL    HW223742   3.033   2.386  17.219  0.3515 -0.0856 -0.0112
 4094SOL     OW23743   1.986   2.775   3.710  0.5200 -0.9518 -0.1869
 4094SOL    HW123744   1.955   2.697   3.757  2.5786 -1.0221  1.0663
 4094SOL    HW223745   2.080   2.772   3.729  0.2744  0.2901  1.2016
 4095SOL     OW23746   3.851   4.395  16.136  0.2891 -0.4185 -0.2604
 4095SOL    HW123747   3.924   4.350  16.178  0.5017 -0.9030 -1.1292
 4095SOL    HW223748   3.889   4.444  16.063 -1.5055  1.2138 -0.0922
 4096SOL     OW23749   1.162   2.393  14.246 -0.8340 -0.0426  0.4747
 4096SOL    HW123750   1.105   2.436  14.183  0.6225  0.1057 -0.7502
 4096SOL    HW223751   1.246   2.437  14.230 -0.5916 -0.6514  0.0614
 4097SOL     OW23752   3.586   2.442   5.128  0.0749  0.0719  0.2002
 4097SOL    HW123753   3.679   2.439   5.152 -0.1561 -1.9500  0.8495
 4097SOL    HW223754   3.581   2.509   5.059 -0.3260  0.1167  0.2740
 4098SOL     OW23755   4.014   2.939   2.941 -0.1243 -0.6004  0.4038
 4098SOL    HW123756   4.029   2.987   2.859  1.2889 -0.1066  0.9449
 4098SOL    HW223757   3.969   2.865   2.902 -1.0521 -1.2243  2.6833
 4099SOL     OW23758   3.669   1.336   7.802 -0.1505 -0.2048 -0.3424
 4099SOL    HW123759   3.597   1.339   7.865  1.7601 -2.7373  1.9473
 4099SOL    HW223760   3.723   1.410   7.830  0.9611 -0.8935 -0.6895
 4100SOL     OW23761   1.842   0.392   8.778 -0.0031  0.5339 -0.3327
 4100SOL    HW123762   1.856   0.297   8.770  1.3506  0.6245  0.9679
 4100SOL    HW223763   1.929   0.430   8.787 -0.0779  0.2214  1.6587
 4101SOL     OW23764   2.273   1.815   5.046 -0.0984 -0.2865  0.3235
 4101SOL    HW123765   2.348   1.766   5.012 -0.5229  0.5319 -1.7839
 4101SOL    HW223766   2.232   1.844   4.965 -1.1685 -0.7273  0.7037
 4102SOL     OW23767   3.035   3.938   2.281 -0.3272  0.4138  0.1494
 4102SOL    HW123768   3.125   3.961   2.256 -0.9163  1.6984 -0.7966
 4102SOL    HW223769   3.008   3.874   2.215 -0.1981 -0.9432  1.4015
 4103SOL     OW23770   1.275   4.491   0.974 -0.3183 -0.1205 -1.1774
 4103SOL    HW123771   1.293   4.402   0.943 -1.9957 -0.2128 -1.8854
 4103SOL    HW223772   1.188   4.476   1.012  0.2204 -2.3831 -0.7897
 4104SOL     OW23773   1.995   2.229   8.939  0.0421  0.0244 -0.1841
 4104SOL    HW123774   2.075   2.198   8.980 -0.8141 -1.1639  0.6063
 4104SOL    HW223775   1.938   2.166   8.983 -1.0288  0.6430 -0.6656
 4105SOL     OW23776   4.161   3.117   9.538 -0.0236 -0.7960  0.8756
 4105SOL    HW123777   4.247   3.077   9.551  0.1921 -0.8640 -0.7688
 4105SOL    HW223778   4.113   3.040   9.569 -0.6035 -0.6239  0.4122
 4106SOL     OW23779   0.097   1.715   9.247 -0.0351 -0.6724  0.2278
 4106SOL    HW123780   0.095   1.652   9.174 -1.3031 -0.5851  0.1849
 4106SOL    HW223781   0.002   1.726   9.260 -0.0222  0.4356 -0.5952
 4107SOL     OW23782   2.112   1.883  13.200 -0.2495 -0.1387  0.5535
 4107SOL    HW123783   2.151   1.857  13.117 -0.5629  1.5808 -0.1378
 4107SOL    HW223784   2.142   1.973  13.215  1.8842 -0.9416  1.0395
 4108SOL     OW23785   1.303   2.395   9.412  0.0551 -0.7852 -0.3019
 4108SOL    HW123786   1.317   2.461   9.481  1.3404  0.2858 -1.5729
 4108SOL    HW223787   1.235   2.447   9.369  0.6704 -0.5720 -1.0303
 4109SOL     OW23788   3.688   0.683   8.184 -0.7766  0.3109  0.5048
 4109SOL    HW123789   3.655   0.732   8.109 -0.1764  0.6643  0.4714
 4109SOL    HW223790   3.627   0.610   8.191  0.6840 -1.0794 -1.4765
 4110SOL     OW23791   2.632   2.845   7.107 -0.5939  0.0990 -0.2029
 4110SOL    HW123792   2.555   2.866   7.159 -1.4048 -1.4317 -0.7857
 4110SOL    HW223793   2.588   2.824   7.025 -1.1178  1.0213 -0.1450
 4111SOL     OW23794   0.582   4.465   4.300 -0.6443  0.1460  0.2981
 4111SOL    HW123795   0.545   4.389   4.345 -1.4017  0.3541  0.0112
 4111SOL    HW223796   0.530   4.469   4.221  1.9667  1.2346 -1.3830
 4112SOL     OW23797   0.847   1.252   3.759  0.8035 -0.0776  0.4293
 4112SOL    HW123798   0.854   1.310   3.683 -1.6585  0.4757  0.6326
 4112SOL    HW223799   0.786   1.184   3.731 -0.0516  1.5929 -1.7817
 4113SOL     OW23800   2.390   2.722   4.085 -0.7784 -0.1545  0.7093
 4113SOL    HW123801   2.382   2.816   4.070 -0.2996  0.1846  2.5428
 4113SOL    HW223802   2.453   2.718   4.157  1.0038 -0.6085 -0.8783
 4114SOL     OW23803   1.129   3.378   2.983 -0.2911 -0.1957 -0.3033
 4114SOL    HW123804   1.094   3.374   2.893 -1.6795  0.4466  0.2006
 4114SOL    HW223805   1.196   3.444   2.963 -0.4202 -0.3198 -1.1701
 4115SOL     OW23806   0.982   3.870   5.195 -0.1719  0.6405  0.3814
 4115SOL    HW123807   0.950   3.951   5.155 -2.2039 -0.4296 -0.1006
 4115SOL    HW223808   0.904   3.843   5.243 -0.3415 -1.5885 -1.1644
 4116SOL     OW23809   1.832   0.812   6.107 -0.5066 -0.2001  0.0782
 4116SOL    HW123810   1.924   0.829   6.084 -0.2694  1.7976  2.4774
 4116SOL    HW223811   1.837   0.825   6.202  0.9242 -2.4580  0.3326
 4117SOL     OW23812   0.105   3.665   3.510  0.1385  0.9611  0.0443
 4117SOL    HW123813   0.112   3.761   3.516 -1.1428  1.0423  0.2680
 4117SOL    HW223814   0.039   3.652   3.443  0.2359  0.3913  0.0639
 4118SOL     OW23815   0.350   3.676   9.784  0.1817  0.4216  0.0976
 4118SOL    HW123816   0.394   3.629   9.854  0.7042  0.4129 -0.2369
 4118SOL    HW223817   0.364   3.770   9.799  0.1641  0.3592  0.4886
 4119SOL     OW23818   0.638   1.696   2.055  0.3072  0.0255 -0.3749
 4119SOL    HW123819   0.645   1.676   1.961  0.2371 -2.5169  0.1595
 4119SOL    HW223820   0.560   1.648   2.083  0.1329  0.9317  0.6698
 4120SOL     OW23821   1.880   4.642   6.835  0.1859 -0.1446 -0.2003
 4120SOL    HW123822   1.805   4.585   6.819  0.9630 -1.1608 -0.2696
 4120SOL    HW223823   1.840   0.009   6.850 -1.2753 -0.7448 -0.7386
 4121SOL     OW23824   1.029   3.890   3.305  0.2842  0.1966  0.0943
 4121SOL    HW123825   1.072   3.899   3.220 -0.2670 -1.9940 -0.4188
 4121SOL    HW223826   1.067   3.804   3.322 -1.7369 -0.5145  1.0481
 4122SOL     OW23827   1.947   4.240   4.018  0.1660  0.3074 -0.1470
 4122SOL    HW123828   1.945   4.269   3.927 -0.4480 -0.7102 -0.4663
 4122SOL    HW223829   1.859   4.269   4.040  0.0557 -0.8529  0.9534
 4123SOL     OW23830   1.462   4.482   2.270 -0.0548  0.2734 -0.3922
 4123SOL    HW123831   1.517   4.523   2.203  0.2790  1.0415  0.3530
 4123SOL    HW223832   1.473   4.387   2.259  1.3293  0.6189 -2.0232
 4124SOL     OW23833   3.263   2.256   3.036 -0.1413  0.3436  0.3587
 4124SOL    HW123834   3.189   2.196   3.027  0.6713 -0.5535 -0.2609
 4124SOL    HW223835   3.315   2.203   3.096 -0.9162 -0.5491  0.2307
 4125SOL     OW23836   3.677   0.804   4.603  0.2277 -0.0030  0.6573
 4125SOL    HW123837   3.643   0.728   4.555  1.2829 -0.2432  0.2886
 4125SOL    HW223838   3.710   0.864   4.537  2.7586  0.2614  2.1879
 4126SOL     OW23839   0.289   0.502  14.878 -0.5405 -0.2890 -0.1954
 4126SOL    HW123840   0.352   0.443  14.837 -0.8534 -1.0361  0.4012
 4126SOL    HW223841   0.227   0.510  14.805  0.5687  2.6530 -0.8376
 4127SOL     OW23842   1.564   3.667  15.176 -0.2167 -0.2724 -0.3407
 4127SOL    HW123843   1.612   3.727  15.234 -1.6894  0.0548  0.5499
 4127SOL    HW223844   1.540   3.602  15.242 -2.0087 -0.3714 -1.0667
 4128SOL     OW23845   2.992   4.080   3.595  0.1514 -0.2613  0.1220
 4128SOL    HW123846   3.077   4.048   3.624 -0.2047 -0.4643  0.9520
 4128SOL    HW223847   2.941   4.104   3.673  1.8504  1.8015  0.5896
 4129SOL     OW23848   4.704   3.120  14.443  0.3906 -0.0485 -0.1148
 4129SOL    HW123849   4.609   3.128  14.438  0.4003  0.0136 -0.2060
 4129SOL    HW223850   4.709   3.040  14.390 -1.2489 -0.8353  0.9209
 4130SOL     OW23851   3.147   4.304   8.641 -0.0872  0.1304  0.2514
 4130SOL    HW123852   3.100   4.372   8.690  1.1540  1.8659 -0.9436
 4130SOL    HW223853   3.072   4.256   8.606  1.6292 -0.9744 -1.9517
 4131SOL     OW23854   2.487   0.426  13.757  0.4131  0.2175  0.7289
 4131SOL    HW123855   2.462   0.333  13.751  1.0661  0.0150  1.2130
 4131SOL    HW223856   2.462   0.451  13.668 -0.7253  0.9697  1.2590
 4132SOL     OW23857   0.386   1.565   3.633 -0.2320  0.1676  0.4294
 4132SOL    HW123858   0.300   1.528   3.652  0.2328 -0.6766  0.8933
 4132SOL    HW223859   0.424   1.485   3.597  2.0154  0.8292  1.2948
 4133SOL     OW23860   3.887   0.212   7.172 -0.9641 -0.0831  0.4507
 4133SOL    HW123861   3.926   0.131   7.204 -0.2971  0.1755  0.2864
 4133SOL    HW223862   3.827   0.237   7.243 -0.5282  0.6257  0.5687
 4134SOL     OW23863   2.231   2.466   8.049 -0.0494  0.4602 -0.0779
 4134SOL    HW123864   2.322   2.469   8.078  0.8664 -0.8132 -2.8495
 4134SOL    HW223865   2.235   2.470   7.954 -0.7830  2.0978 -0.0491
 4135SOL     OW23866   0.494   4.278  16.722 -0.6674 -0.4239 -0.4568
 4135SOL    HW123867   0.552   4.280  16.646 -0.4548 -1.1423 -0.3148
 4135SOL    HW223868   0.433   4.209  16.696 -1.8156  0.1110  0.8417
 4136SOL     OW23869   0.407   3.742   8.101  0.0840 -0.1046 -0.2320
 4136SOL    HW123870   0.412   3.816   8.162  0.8411  0.7302 -1.3056
 4136SOL    HW223871   0.499   3.720   8.086 -0.3092  0.2032 -3.0068
 4137SOL     OW23872   3.384   2.206   7.229 -0.0856  0.5904  0.4566
 4137SOL    HW123873   3.327   2.272   7.190  0.9133  1.6749  0.8259
 4137SOL    HW223874   3.403   2.153   7.151 -1.9051 -0.6752  0.8839
 4138SOL     OW23875   0.821   4.506   6.967  0.6216 -0.2191  0.1652
 4138SOL    HW123876   0.871   4.565   6.911  0.5306  0.1081  0.4309
 4138SOL    HW223877   0.798   4.565   7.038  1.9450  1.6969 -1.0246
 4139SOL     OW23878   1.182   2.326  12.415  0.4406 -0.0460 -0.0705
 4139SOL    HW123879   1.179   2.408  12.367 -1.5442 -1.1116 -1.8006
 4139SOL    HW223880   1.130   2.258  12.372 -0.7900  2.2339 -2.1914
 4140SOL     OW23881   0.610   2.513   5.801 -0.6519  0.1973 -0.4816
 4140SOL    HW123882   0.592   2.455   5.727  1.8600 -2.2984  0.8423
 4140SOL    HW223883   0.525   2.554   5.815 -0.5031 -0.3718  1.9994
 4141SOL     OW23884   0.914   1.222  15.338 -0.2316  0.3314  0.0098
 4141SOL    HW123885   0.892   1.165  15.411 -1.0516  0.2477 -0.3045
 4141SOL    HW223886   0.825   1.254  15.327  0.6110  2.2927 -1.2238
 4142SOL     OW23887   1.830   3.965  14.271  0.0382  0.2888  0.0722
 4142SOL    HW123888   1.820   4.026  14.198 -2.1299 -2.0980 -1.6378
 4142SOL    HW223889   1.781   4.018  14.334 -0.2438  0.6579 -0.4590
 4143SOL     OW23890   1.047   2.769  13.817  0.0267 -0.1886  0.1672
 4143SOL    HW123891   0.956   2.801  13.813  0.7285  1.7383 -0.3668
 4143SOL    HW223892   1.040   2.674  13.821 -1.8099 -0.0757 -0.2756
 4144SOL     OW23893   1.642   4.583  11.511 -0.3236 -0.1756  0.1415
 4144SOL    HW123894   1.704   4.646  11.473 -0.9322  0.4636  0.2067
 4144SOL    HW223895   1.584   4.571  11.436 -0.4187  0.4089  0.1209
 4145SOL     OW23896   0.821   3.210   7.190  0.2201 -0.4110  0.1547
 4145SOL    HW123897   0.799   3.125   7.228  1.9865 -1.0678 -0.2939
 4145SOL    HW223898   0.914   3.207   7.213 -0.3866  0.4499  2.7675
 4146SOL     OW23899   4.398   4.351  14.550  0.1487  0.0704 -0.3954
 4146SOL    HW123900   4.304   4.335  14.562  0.4794 -2.4582 -1.2178
 4146SOL    HW223901   4.412   4.319  14.461  0.8869  1.6072 -0.8336
 4147SOL     OW23902   1.921   1.542   3.454 -0.1007  0.1567 -0.4237
 4147SOL    HW123903   1.846   1.482   3.450 -1.0527  1.3621 -0.9465
 4147SOL    HW223904   1.952   1.551   3.364  1.0140  2.5164  0.2122
 4148SOL     OW23905   3.010   2.996   9.188 -0.1288 -1.0143  0.2684
 4148SOL    HW123906   2.978   2.919   9.141  1.2919 -0.6170 -1.3525
 4148SOL    HW223907   3.098   2.967   9.212  0.2332  0.7286  1.0651
 4149SOL     OW23908   0.746   0.986   9.553  0.1422  0.2517  0.5135
 4149SOL    HW123909   0.779   0.959   9.639 -0.0633 -1.5280  0.0289
 4149SOL    HW223910   0.754   0.895   9.524 -1.0775 -0.0369  1.0853
 4150SOL     OW23911   0.969   3.847   2.598 -0.0356 -0.5301 -0.2294
 4150SOL    HW123912   0.887   3.819   2.640 -1.4176  2.0020 -1.2032
 4150SOL    HW223913   0.929   3.919   2.548 -1.2808 -0.1070  1.3802
 4151SOL     OW23914   1.522   4.188   2.602  0.5162  0.7340  0.1790
 4151SOL    HW123915   1.437   4.147   2.588  0.8818  0.6348 -1.6596
 4151SOL    HW223916   1.576   4.110   2.612 -0.6842 -0.2131 -0.6542
 4152SOL     OW23917   4.038   1.154  10.279 -0.3128  0.8220  0.1834
 4152SOL    HW123918   4.117   1.169  10.227  0.5650 -1.3568  0.8456
 4152SOL    HW223919   3.987   1.233  10.262 -1.6351  0.1409  0.9758
 4153SOL     OW23920   1.817   2.821   8.581 -0.0760 -0.4765  0.3714
 4153SOL    HW123921   1.859   2.738   8.561 -2.5190 -1.8872  1.1463
 4153SOL    HW223922   1.893   2.869   8.615  0.5731 -1.0879 -0.2197
 4154SOL     OW23923   1.589   3.186  11.212  0.2999 -0.1046  1.0750
 4154SOL    HW123924   1.581   3.220  11.300 -0.6389  0.0837  0.9130
 4154SOL    HW223925   1.498   3.163  11.194  0.3259 -0.4733  1.4173
 4155SOL     OW23926   0.550   3.348   8.148  0.3317  0.8569 -0.0424
 4155SOL    HW123927   0.583   3.281   8.208 -0.9475  0.5934  0.3698
 4155SOL    HW223928   0.610   3.334   8.075  0.4944  1.5476 -0.0376
 4156SOL     OW23929   0.828   1.572   5.499 -0.1827  0.1606  0.4226
 4156SOL    HW123930   0.836   1.479   5.480  0.6289  0.3793 -0.2637
 4156SOL    HW223931   0.824   1.617   5.415 -1.0013  2.4169  1.6363
 4157SOL     OW23932   1.617   0.328   0.267  0.1314  0.0300  0.3219
 4157SOL    HW123933   1.639   0.350   0.177 -0.1627  0.8559  0.4504
 4157SOL    HW223934   1.661   0.243   0.264 -1.1198 -0.5729 -0.7917
 4158SOL     OW23935   3.125   0.086   7.685 -0.2060  0.7496  0.6076
 4158SOL    HW123936   3.107   0.002   7.728  1.1159  0.5008  0.7030
 4158SOL    HW223937   3.202   0.058   7.635  0.9448 -1.5278  3.6970
 4159SOL     OW23938   0.959   3.196   5.424 -0.2241 -0.3612  0.2091
 4159SOL    HW123939   0.876   3.244   5.427  0.0813  0.3362 -2.6208
 4159SOL    HW223940   0.923   3.122   5.376  2.4189 -0.0387 -2.2518
 4160SOL     OW23941   2.331   2.908   7.684  0.2300 -0.6807  0.2834
 4160SOL    HW123942   2.360   2.876   7.770 -0.0212  1.7925  1.2659
 4160SOL    HW223943   2.281   2.833   7.652 -3.7247  1.9555  0.3418
 4161SOL     OW23944   3.873   3.670  15.202 -0.3677  0.1198 -1.1096
 4161SOL    HW123945   3.912   3.740  15.254 -0.1301 -1.1579  0.4234
 4161SOL    HW223946   3.891   3.695  15.111 -0.0831  1.7623 -0.5991
 4162SOL     OW23947   4.681   3.463   2.072 -0.1788 -0.3793  0.4489
 4162SOL    HW123948   4.634   3.412   2.006 -2.1618  0.8454  0.8887
 4162SOL    HW223949   4.658   3.549   2.035  0.3140 -1.2541 -1.8745
 4163SOL     OW23950   1.698   1.396   2.167  0.5634  0.5823 -0.5539
 4163SOL    HW123951   1.624   1.367   2.112  1.6028 -1.8846 -0.6335
 4163SOL    HW223952   1.668   1.487   2.174 -0.1336  0.1747  1.6795
 4164SOL     OW23953   3.397   2.793   7.912 -0.0062 -0.3269 -0.1035
 4164SOL    HW123954   3.310   2.758   7.890 -0.8198  2.0326 -0.6169
 4164SOL    HW223955   3.448   2.761   7.838  1.1914 -1.9693  1.4261
 4165SOL     OW23956   3.790   2.943  15.517  0.3992 -0.3110  0.2120
 4165SOL    HW123957   3.738   3.013  15.479 -1.6912 -1.8632  0.2067
 4165SOL    HW223958   3.846   2.996  15.573  1.4233  0.6442 -1.7296
 4166SOL     OW23959   1.825   0.158   3.230  0.7630  0.0202  0.0658
 4166SOL    HW123960   1.908   0.167   3.185  0.8112 -1.2944 -0.1044
 4166SOL    HW223961   1.772   0.204   3.164 -1.3964 -2.0866  0.3157
 4167SOL     OW23962   3.645   3.972   1.190  0.4850 -0.2950 -0.0557
 4167SOL    HW123963   3.646   3.965   1.286 -1.1773 -0.2011 -0.0347
 4167SOL    HW223964   3.600   4.056   1.190 -1.4490 -1.3268 -0.3137
 4168SOL     OW23965   1.350   3.043   1.708 -0.0382  0.0483 -0.5098
 4168SOL    HW123966   1.305   2.973   1.755 -0.3410  0.8363  0.3864
 4168SOL    HW223967   1.406   2.990   1.652  1.1897  0.8877 -0.0629
 4169SOL     OW23968   1.073   2.115   0.002 -0.1724  0.3297  0.4734
 4169SOL    HW123969   1.137   2.179   0.036 -0.3727  0.1832  1.1187
 4169SOL    HW223970   0.986   2.153   0.008  0.0531  0.9104  0.0827
 4170SOL     OW23971   3.550   1.803   5.079 -0.1813  0.5038 -0.1496
 4170SOL    HW123972   3.559   1.714   5.043  2.5756  0.2369  1.1501
 4170SOL    HW223973   3.511   1.791   5.166  2.9552 -0.5226  1.1266
 4171SOL     OW23974   2.914   3.701   2.389 -0.4595  0.4644 -0.0344
 4171SOL    HW123975   2.894   3.792   2.413  0.3439  0.2094  1.5680
 4171SOL    HW223976   3.006   3.683   2.407 -1.2829 -1.7593  1.8594
 4172SOL     OW23977   3.218   0.348   3.907  0.7169 -0.0993  0.2652
 4172SOL    HW123978   3.288   0.359   3.843 -0.5691  0.8240 -0.9888
 4172SOL    HW223979   3.146   0.318   3.851 -1.5670  2.8635  1.5984
 4173SOL     OW23980   3.135   3.679   0.024 -0.3631  0.0247 -0.0713
 4173SOL    HW123981   3.194   3.637  17.638  0.0032  1.9530 -1.0112
 4173SOL    HW223982   3.052   3.632   0.011 -0.7001  1.2042 -2.1552
 4174SOL     OW23983   1.016   2.739   8.700 -0.7275 -0.0618 -0.3117
 4174SOL    HW123984   0.986   2.684   8.773  1.0899 -1.1177 -0.3746
 4174SOL    HW223985   1.109   2.752   8.717 -1.2072  1.6118  1.0442
 4175SOL     OW23986   2.357   3.184   7.636 -0.4353  0.4570 -0.1322
 4175SOL    HW123987   2.383   3.182   7.728  0.3057 -0.7759 -0.3697
 4175SOL    HW223988   2.299   3.109   7.641 -3.0273  2.7208  3.5702
 4176SOL     OW23989   2.685   3.105   9.584  0.2394 -0.1336 -0.0289
 4176SOL    HW123990   2.764   3.160   9.590  0.3693  0.0745 -3.2286
 4176SOL    HW223991   2.654   3.134   9.498  1.4247  2.3098  0.3390
 4177SOL     OW23992   0.324   2.073  17.340 -0.3506  0.5433  0.7601
 4177SOL    HW123993   0.366   1.988  17.348  0.1520  0.8059  0.9376
 4177SOL    HW223994   0.377   2.125  17.401  0.0608 -2.0814  2.6083
 4178SOL     OW23995   0.132   0.182   4.519 -0.3105  0.1653  0.2303
 4178SOL    HW123996   0.056   0.207   4.571 -0.6626  0.8213 -0.6017
 4178SOL    HW223997   0.186   0.261   4.521 -0.4860  0.3459 -2.6735
 4179SOL     OW23998   3.504   3.821  16.269  0.1243 -0.1764  0.5961
 4179SOL    HW123999   3.543   3.907  16.282 -0.0726 -0.1183  0.7958
 4179SOL    HW224000   3.464   3.804  16.354 -1.1843  1.6614  0.3573
 4180SOL     OW24001   2.329   1.603   5.695  0.3486  0.1898 -0.0595
 4180SOL    HW124002   2.359   1.693   5.706  0.1655  0.3976 -1.2671
 4180SOL    HW224003   2.279   1.588   5.776 -0.6191 -1.5490 -0.9854
 4181SOL     OW24004   1.275   1.321   8.886 -0.2112  0.4289 -0.1916
 4181SOL    HW124005   1.289   1.398   8.832 -0.1178  2.5093  2.7602
 4181SOL    HW224006   1.200   1.282   8.842  1.8176 -0.7672 -2.5547
 4182SOL     OW24007   1.215   3.754   0.927 -0.1502 -0.7405 -0.3228
 4182SOL    HW124008   1.186   3.665   0.906 -0.7326 -0.4845 -0.6009
 4182SOL    HW224009   1.168   3.755   1.010 -1.3268 -3.6277 -0.9365
 4183SOL     OW24010   4.225   4.157  15.150  0.3214  0.4041  0.5094
 4183SOL    HW124011   4.187   4.168  15.238 -0.8950  2.6823 -0.2956
 4183SOL    HW224012   4.285   4.083  15.156 -0.0777  0.0104 -0.3298
 4184SOL     OW24013   3.578   0.355  16.726 -0.6379  0.1541  0.3128
 4184SOL    HW124014   3.672   0.374  16.723 -0.8305  0.7852 -1.8890
 4184SOL    HW224015   3.562   0.298  16.651 -1.4140  1.8547 -0.8320
 4185SOL     OW24016   1.162   4.598  14.805 -0.6249 -0.0967 -0.2326
 4185SOL    HW124017   1.102   4.538  14.760  1.4486 -3.2605  1.2589
 4185SOL    HW224018   1.132   4.686  14.781  0.3539  0.2213 -0.3033
 4186SOL     OW24019   3.827   0.609  13.577 -0.0040 -0.4499  0.3526
 4186SOL    HW124020   3.732   0.606  13.592 -0.6266 -0.5467 -3.6198
 4186SOL    HW224021   3.839   0.700  13.549  0.1696  0.1322  2.2772
 4187SOL     OW24022   4.088   3.246   1.880 -0.2901  0.6274  0.2008
 4187SOL    HW124023   4.074   3.288   1.795 -0.8430 -0.1767 -0.1011
 4187SOL    HW224024   4.129   3.324   1.919  1.5208  0.0616 -0.5541
 4188SOL     OW24025   1.766   0.282   5.902 -0.5420  1.0371 -0.0899
 4188SOL    HW124026   1.754   0.298   5.996 -0.5913  3.5752 -0.5089
 4188SOL    HW224027   1.820   0.204   5.893  0.5759  1.7630  0.3345
 4189SOL     OW24028   3.591   4.244   3.486  0.2417  0.3629  0.1816
 4189SOL    HW124029   3.608   4.230   3.580 -0.6186 -0.6619  0.1915
 4189SOL    HW224030   3.521   4.310   3.486  0.0264  0.1325 -0.2577
 4190SOL     OW24031   4.258   1.188   7.582  0.0415  0.5101 -0.2214
 4190SOL    HW124032   4.233   1.257   7.520  2.5196  0.3975 -1.3883
 4190SOL    HW224033   4.351   1.207   7.596  0.4390 -0.4845 -1.4421
 4191SOL     OW24034   3.497   0.700   5.440  0.2661  0.2230  0.0797
 4191SOL    HW124035   3.517   0.637   5.370  1.7282  1.4622 -0.6347
 4191SOL    HW224036   3.408   0.687   5.473 -0.4461  4.6665 -0.0975
 4192SOL     OW24037   4.151   1.720  13.364 -0.1441 -0.5025  0.0181
 4192SOL    HW124038   4.109   1.718  13.450 -0.2492 -0.8152 -0.0415
 4192SOL    HW224039   4.086   1.778  13.324  0.0207 -0.9293 -0.8635
 4193SOL     OW24040   4.065   2.276  10.776  0.1789 -0.1328  0.0591
 4193SOL    HW124041   4.070   2.291  10.871  0.1228  0.2474  0.0004
 4193SOL    HW224042   4.078   2.181  10.772  1.8631  0.0876  0.2008
 4194SOL     OW24043   1.988   3.527   0.780 -0.2108  0.2376 -0.2416
 4194SOL    HW124044   2.038   3.585   0.837 -0.2519 -1.1326  1.2161
 4194SOL    HW224045   2.050   3.520   0.708  2.5996  5.4284  1.6926
 4195SOL     OW24046   2.721   0.545   7.041  0.3279  0.3033 -0.0964
 4195SOL    HW124047   2.633   0.566   7.072  0.8042  0.3024  1.2298
 4195SOL    HW224048   2.754   0.619   6.991 -0.7528  0.4180 -0.6333
 4196SOL     OW24049   0.339   0.419   8.892  1.0133 -0.2066 -0.1790
 4196SOL    HW124050   0.383   0.479   8.832  0.5790 -2.2650 -2.5557
 4196SOL    HW224051   0.268   0.478   8.917  0.1904 -0.3129 -2.2055
 4197SOL     OW24052   3.759   0.531   7.180 -0.4421 -0.1606 -0.1980
 4197SOL    HW124053   3.676   0.511   7.136  0.0528 -2.6925  0.0095
 4197SOL    HW224054   3.764   0.459   7.243  1.9694  0.4532  0.2973
 4198SOL     OW24055   0.867   0.397   3.475 -0.0961  0.4332 -1.0497
 4198SOL    HW124056   0.900   0.355   3.554 -2.2515 -0.9805 -0.9018
 4198SOL    HW224057   0.890   0.487   3.498  0.8502 -0.6620  2.2603
 4199SOL     OW24058   1.795   2.365   1.124  0.6323  0.2567 -0.2779
 4199SOL    HW124059   1.830   2.443   1.081  1.1377 -0.0655 -0.4527
 4199SOL    HW224060   1.761   2.322   1.045 -1.1176 -1.0806  1.2022
 4200SOL     OW24061   0.132   0.585   8.107 -0.1753 -0.4259 -0.2085
 4200SOL    HW124062   0.153   0.565   8.016  1.1233 -1.8085  0.3966
 4200SOL    HW224063   0.061   0.648   8.093  1.9054  2.2821  1.3480
 4201SOL     OW24064   2.765   1.027   4.364  0.0534 -0.2911 -0.1064
 4201SOL    HW124065   2.690   1.086   4.371  0.7040  0.7060 -1.5488
 4201SOL    HW224066   2.730   0.939   4.374 -2.3092  0.5622 -0.8752
 4202SOL     OW24067   4.292   1.199   6.565  0.1365  0.3721  0.3650
 4202SOL    HW124068   4.253   1.260   6.627 -0.5848  1.1675 -0.8770
 4202SOL    HW224069   4.363   1.160   6.617  0.2657  0.8122  0.5141
 4203SOL     OW24070   0.518   3.255   5.858  1.0896 -0.2882 -0.3182
 4203SOL    HW124071   0.427   3.284   5.857  1.6109  1.3667 -0.1348
 4203SOL    HW224072   0.546   3.268   5.767  1.0205 -2.3243 -0.6298
 4204SOL     OW24073   2.419   3.383   0.849 -0.0350  0.6440 -0.5096
 4204SOL    HW124074   2.451   3.473   0.845 -1.4151  1.1858  0.4694
 4204SOL    HW224075   2.415   3.364   0.943  0.4566  0.3802 -0.5416
 4205SOL     OW24076   2.488   0.748   3.150  0.3019 -0.4391 -0.3329
 4205SOL    HW124077   2.418   0.813   3.160  0.3130 -0.8282  2.1989
 4205SOL    HW224078   2.535   0.791   3.078  0.2220  0.5110  0.1835
 4206SOL     OW24079   3.761   3.403  13.990 -0.3037 -0.1312  0.2065
 4206SOL    HW124080   3.684   3.427  14.041  0.0583  1.4243  0.0344
 4206SOL    HW224081   3.824   3.386  14.059 -0.0618  2.5820  0.6810
 4207SOL     OW24082   3.509   3.013   6.912 -0.1587  0.3554  0.2427
 4207SOL    HW124083   3.566   3.067   6.856  1.4988 -0.8011  0.8415
 4207SOL    HW224084   3.555   3.020   6.995 -2.7523 -0.1402  1.6995
 4208SOL     OW24085   1.031   0.022   1.546  0.2129 -0.3310 -0.1375
 4208SOL    HW124086   1.068   4.709   1.464  3.3001  0.7780  0.8401
 4208SOL    HW224087   0.952   0.059   1.506 -0.7384 -1.6534  0.5447
 4209SOL     OW24088   4.120   1.118  13.099 -0.3080  0.5349 -0.2112
 4209SOL    HW124089   4.207   1.147  13.127 -0.5292  0.6438  0.3653
 4209SOL    HW224090   4.071   1.200  13.107  0.2985  1.0039 -1.2544
 4210SOL     OW24091   0.721   2.112   0.337  0.0729  0.0227  0.0916
 4210SOL    HW124092   0.808   2.138   0.367 -0.0043 -0.3423  0.6291
 4210SOL    HW224093   0.748   2.036   0.285 -0.9520 -0.9931  1.0328
 4211SOL     OW24094   2.755   1.350   9.323  0.0179  0.2533 -0.0122
 4211SOL    HW124095   2.788   1.383   9.239 -0.3399 -0.8069 -0.5638
 4211SOL    HW224096   2.668   1.319   9.298 -0.5275  0.9000  1.0547
 4212SOL     OW24097   1.716   0.313   7.944  0.2203  0.0732 -0.3664
 4212SOL    HW124098   1.637   0.288   7.992  1.2921  1.2686  1.9865
 4212SOL    HW224099   1.750   0.384   7.997  1.8446 -1.6526  0.9018
 4213SOL     OW24100   2.268   2.820   6.955 -0.6375 -0.4613 -0.3761
 4213SOL    HW124101   2.294   2.911   6.969 -0.8375 -0.2891 -1.1070
 4213SOL    HW224102   2.174   2.815   6.974 -0.5721  0.1066  0.1125
 4214SOL     OW24103   3.836   0.001  17.557  0.3155 -0.1295 -0.1666
 4214SOL    HW124104   3.856   0.045  17.640 -0.0729 -1.2610  0.5332
 4214SOL    HW224105   3.896   4.645  17.553 -3.4550 -3.1721 -0.8726
 4215SOL     OW24106   0.035   0.539   3.430 -0.1500  0.3653  0.4402
 4215SOL    HW124107   4.699   0.547   3.352  1.2070 -0.3331 -0.5891
 4215SOL    HW224108   0.100   0.480   3.392  0.1666 -0.7342  2.6933
 4216SOL     OW24109   1.799   3.758   5.713 -0.3429  0.4157  0.2560
 4216SOL    HW124110   1.740   3.792   5.645  1.3356 -1.3113 -2.0356
 4216SOL    HW224111   1.736   3.726   5.777 -0.4163  2.5969  1.2761
 4217SOL     OW24112   0.256   0.076   5.363  0.3437  0.1836 -0.3598
 4217SOL    HW124113   0.172   0.060   5.321  0.4251  0.1747 -0.5158
 4217SOL    HW224114   0.285   4.717   5.411 -0.6900 -0.9158 -1.5420
 4218SOL     OW24115   0.218   2.386   0.376 -0.4207 -0.4063 -0.4668
 4218SOL    HW124116   0.163   2.309   0.365 -0.6507 -0.2361 -0.4978
 4218SOL    HW224117   0.294   2.360   0.324 -0.0127 -3.4674  1.6858
 4219SOL     OW24118   1.605   3.571  12.484  0.4750  0.3798 -0.3863
 4219SOL    HW124119   1.689   3.527  12.495  0.1911  0.0105  0.2763
 4219SOL    HW224120   1.581   3.562  12.392 -0.8158  0.2380 -0.0312
 4220SOL     OW24121   1.639   3.260   4.952  0.0189 -0.1273 -0.3087
 4220SOL    HW124122   1.651   3.175   4.993 -0.5550 -0.6956 -1.3232
 4220SOL    HW224123   1.700   3.256   4.877  0.9608  1.6804  0.3429
 4221SOL     OW24124   3.772   0.936   8.977  0.5033  0.0602 -0.0333
 4221SOL    HW124125   3.846   0.887   8.942 -1.1804 -0.9328 -2.1985
 4221SOL    HW224126   3.714   0.863   8.997  0.6378  0.0053  0.1591
 4222SOL     OW24127   2.000   2.284   8.118 -0.3635  0.0377 -0.0402
 4222SOL    HW124128   1.964   2.305   8.204 -0.7276  0.0501 -0.1971
 4222SOL    HW224129   2.034   2.372   8.108 -0.9631  0.5066  2.1118
 4223SOL     OW24130   0.935   0.844  12.995 -0.0459 -0.4182 -0.6157
 4223SOL    HW124131   1.029   0.846  12.979 -0.1578 -1.4216 -1.3786
 4223SOL    HW224132   0.898   0.860  12.908 -1.3410 -2.1665 -0.3841
 4224SOL     OW24133   3.783   1.415   2.761  0.0561 -0.5124  0.1483
 4224SOL    HW124134   3.797   1.360   2.838  0.6036 -1.5426 -0.6893
 4224SOL    HW224135   3.868   1.405   2.718 -0.9548 -0.2825 -1.8897
 4225SOL     OW24136   0.918   1.640   9.133  0.7453  0.2911  0.5320
 4225SOL    HW124137   0.855   1.612   9.199  1.4638 -1.4989  0.4473
 4225SOL    HW224138   0.882   1.609   9.050  1.9846  0.5479 -0.1098
 4226SOL     OW24139   1.479   3.850   0.578  0.3270 -0.0718  0.4107
 4226SOL    HW124140   1.508   3.769   0.619  0.2593 -0.2333  0.1336
 4226SOL    HW224141   1.422   3.815   0.510 -1.3850 -0.2129  1.9085
 4227SOL     OW24142   0.064   3.390   8.751 -0.2271  0.2241 -0.0826
 4227SOL    HW124143   0.003   3.341   8.806  0.9805 -0.4001  0.7089
 4227SOL    HW224144   0.041   3.359   8.664  1.2308 -0.5713 -0.1839
 4228SOL     OW24145   0.973   4.014  13.350 -0.6113  0.2883 -0.4468
 4228SOL    HW124146   0.979   4.097  13.398  1.1946 -0.1525  0.0985
 4228SOL    HW224147   1.021   3.961  13.414  2.3047  3.0270 -0.3589
 4229SOL     OW24148   3.853   1.484   3.838  0.1055  0.6856  0.2231
 4229SOL    HW124149   3.847   1.438   3.754  1.1697  0.0199  0.5062
 4229SOL    HW224150   3.778   1.543   3.842 -0.2006  0.4551 -2.2241
 4230SOL     OW24151   0.062   2.730  13.074 -0.2202  0.0848  0.3101
 4230SOL    HW124152   0.002   2.670  13.118 -0.6547  1.0617  1.0418
 4230SOL    HW224153   0.091   2.782  13.149 -2.4442  1.6349  0.1065
 4231SOL     OW24154   1.858   1.663  10.301  0.4002  0.3555 -0.2163
 4231SOL    HW124155   1.862   1.759  10.299  1.4087  0.2876 -1.1707
 4231SOL    HW224156   1.952   1.648  10.317 -0.8513 -2.3606  4.7033
 4232SOL     OW24157   3.383   1.401   2.967 -0.3018  0.7050  0.1137
 4232SOL    HW124158   3.430   1.414   2.885  1.5148 -0.3812  0.9926
 4232SOL    HW224159   3.383   1.492   2.997  0.8364  0.7106  0.0951
 4233SOL     OW24160   3.303   1.873   6.454 -0.0515 -0.4713  0.1797
 4233SOL    HW124161   3.376   1.811   6.448 -0.7765 -1.4115  1.2665
 4233SOL    HW224162   3.275   1.889   6.364  1.1503 -3.2794 -0.6889
 4234SOL     OW24163   4.127   0.034   7.581  0.1183 -0.4150 -0.6655
 4234SOL    HW124164   4.113   4.691   7.653  0.1609  0.7710  0.3466
 4234SOL    HW224165   4.220   0.022   7.560  0.0626  0.2377 -1.3020
 4235SOL     OW24166   1.277   3.414   8.875 -0.2403 -0.7438  0.1407
 4235SOL    HW124167   1.182   3.420   8.880 -0.3376 -1.5794 -0.6809
 4235SOL    HW224168   1.295   3.345   8.811  2.2266  1.5989 -1.6912
 4236SOL     OW24169   3.364   1.891   0.810  0.1693  0.7022 -0.1165
 4236SOL    HW124170   3.330   1.821   0.754  1.8393  0.7603 -1.2094
 4236SOL    HW224171   3.454   1.858   0.814 -0.7208 -1.7174 -0.2924
 4237SOL     OW24172   0.761   2.984  12.425  0.1543 -0.3190  0.2208
 4237SOL    HW124173   0.813   2.994  12.345 -0.1061  1.4263  0.2621
 4237SOL    HW224174   0.812   3.033  12.489  1.6190 -1.5828  0.0123
 4238SOL     OW24175   4.312   1.451   0.487 -0.1501  0.1992  0.0741
 4238SOL    HW124176   4.309   1.531   0.435  0.0789 -0.1170 -0.4224
 4238SOL    HW224177   4.217   1.440   0.493  0.0176 -2.0536 -1.6327
 4239SOL     OW24178   4.202   4.711   9.052 -0.9074 -1.0429 -0.3982
 4239SOL    HW124179   4.169   0.057   9.115  0.1423  0.1998 -1.1065
 4239SOL    HW224180   4.144   0.011   8.978 -1.2086 -1.0678 -0.1686
 4240SOL     OW24181   0.805   3.556   2.916  0.4358  0.4135  0.3314
 4240SOL    HW124182   0.752   3.625   2.957  1.7432  2.0394 -0.7394
 4240SOL    HW224183   0.892   3.582   2.947  1.1479 -1.8717  0.1795
 4241SOL     OW24184   3.943   4.528   3.337  0.0053 -0.1222  0.2306
 4241SOL    HW124185   3.863   4.548   3.386 -0.8414 -2.4901 -0.1949
 4241SOL    HW224186   3.963   4.613   3.298  1.5133 -0.6102 -0.0553
 4242SOL     OW24187   2.767   2.048  17.580  0.0175 -0.3390  0.3362
 4242SOL    HW124188   2.788   2.117  17.517 -1.1307 -0.0095  0.3121
 4242SOL    HW224189   2.849   2.001  17.565 -0.5304 -0.9033 -0.8207
 4243SOL     OW24190   4.660   4.102   4.396  0.0866  0.6043 -0.4834
 4243SOL    HW124191   4.589   4.043   4.370  1.5501 -0.4767 -2.0500
 4243SOL    HW224192   4.657   4.162   4.322  2.2178  0.6419 -0.5545
 4244SOL     OW24193   2.170   3.237  11.043 -0.0034 -0.0810  0.0068
 4244SOL    HW124194   2.190   3.148  11.013 -1.0771 -0.8685  1.6104
 4244SOL    HW224195   2.129   3.273  10.964 -0.0221  2.2192  1.0849
 4245SOL     OW24196   3.155   3.480   1.655 -0.5108 -0.6114  0.0445
 4245SOL    HW124197   3.233   3.520   1.693 -1.3036  0.7834  0.1943
 4245SOL    HW224198   3.128   3.429   1.731 -0.6362 -0.8934 -0.1840
 4246SOL     OW24199   2.269   2.079   9.528 -0.4554 -0.4420 -0.0257
 4246SOL    HW124200   2.199   2.131   9.568 -0.2266 -0.7569  0.8012
 4246SOL    HW224201   2.221   2.022   9.468  0.9170 -1.4847 -0.1277
 4247SOL     OW24202   4.154   3.556  15.421  0.1737  0.3375 -0.1125
 4247SOL    HW124203   4.174   3.543  15.329 -0.6160  0.9833 -0.3763
 4247SOL    HW224204   4.108   3.640  15.423  0.1540  0.3604 -1.5678
 4248SOL     OW24205   2.152   2.043   2.975 -0.2281  0.6373 -0.1880
 4248SOL    HW124206   2.172   2.099   2.900 -2.6447 -1.1765 -2.1817
 4248SOL    HW224207   2.121   2.117   3.028 -2.0400 -0.3219  0.0804
 4249SOL     OW24208   2.698   2.342   6.419  0.4290  0.2546 -0.3096
 4249SOL    HW124209   2.649   2.330   6.501  2.2090 -0.6747  0.6212
 4249SOL    HW224210   2.713   2.251   6.392 -0.6762 -0.4976  1.5732
 4250SOL     OW24211   4.711   4.652   6.534 -0.3935  0.1909 -0.9744
 4250SOL    HW124212   4.690   4.572   6.485 -0.3163  1.1746 -2.6138
 4250SOL    HW224213   0.079   4.664   6.495  0.3527  2.7829  1.4830
 4251SOL     OW24214   3.952   0.778   4.594 -0.3650  0.2016 -0.9589
 4251SOL    HW124215   3.857   0.772   4.608 -0.2559 -0.2581 -0.3950
 4251SOL    HW224216   3.970   0.722   4.518 -1.7670 -0.7429 -0.5925
 4252SOL     OW24217   1.428   3.764   5.259  0.4045  0.6185  0.0797
 4252SOL    HW124218   1.384   3.847   5.241 -1.4055 -0.5518 -0.8334
 4252SOL    HW224219   1.495   3.758   5.191  0.9224  1.5909  0.4903
 4253SOL     OW24220   0.872   4.244   3.054 -0.5930  0.3242  0.1690
 4253SOL    HW124221   0.828   4.161   3.068  0.0449  0.0487  0.4956
 4253SOL    HW224222   0.916   4.229   2.970 -1.5824 -1.0578 -0.0992
 4254SOL     OW24223   0.320   2.771   0.596 -0.1197 -0.2422  0.2112
 4254SOL    HW124224   0.378   2.705   0.560  0.8009  0.6801 -0.0043
 4254SOL    HW224225   0.238   2.753   0.550 -0.9754 -0.1589  1.6838
 4255SOL     OW24226   1.577   0.302   8.990 -0.0080  0.0461 -0.5572
 4255SOL    HW124227   1.542   0.346   9.067 -1.1874  0.0982 -1.1239
 4255SOL    HW224228   1.671   0.311   9.006  0.1182  2.1953 -2.5503
 4256SOL     OW24229   3.744   0.841   8.642 -0.0132  0.2170  0.3493
 4256SOL    HW124230   3.758   0.930   8.609 -3.1641  0.3115 -0.6764
 4256SOL    HW224231   3.747   0.796   8.557 -0.0260 -0.5653  0.7623
 4257SOL     OW24232   2.815   3.605   7.373 -0.2264 -0.4594  0.1858
 4257SOL    HW124233   2.769   3.525   7.397  0.8871 -1.5209 -1.1794
 4257SOL    HW224234   2.761   3.633   7.299 -0.4602 -1.0283  0.1365
 4258SOL     OW24235   4.505   0.521  10.003 -0.7503 -0.4178  0.2717
 4258SOL    HW124236   4.449   0.451  10.035  1.1908 -1.7484  0.7663
 4258SOL    HW224237   4.512   0.490   9.912 -1.7301 -2.1916  0.7980
 4259SOL     OW24238   1.289   2.429   7.314  0.1354 -0.0240  0.0866
 4259SOL    HW124239   1.262   2.421   7.222 -2.4319  1.6593  0.7117
 4259SOL    HW224240   1.294   2.523   7.332 -1.2318 -0.1320  0.9659
 4260SOL     OW24241   4.215   3.536  14.572  0.1838  0.2013  0.0253
 4260SOL    HW124242   4.210   3.602  14.503  0.4020  0.9092  0.6922
 4260SOL    HW224243   4.207   3.469  14.504  0.1063  0.0585  0.1763
 4261SOL     OW24244   2.847   1.849  15.339 -0.1448 -0.2641  0.0179
 4261SOL    HW124245   2.929   1.853  15.389 -0.4095 -0.2746  0.4558
 4261SOL    HW224246   2.809   1.767  15.370 -0.3116  0.6765  2.3382
 4262SOL     OW24247   1.539   4.216   5.177  0.7385  0.0176 -0.2239
 4262SOL    HW124248   1.599   4.163   5.124  2.4461  1.9880 -0.2809
 4262SOL    HW224249   1.605   4.274   5.214 -0.4122  2.0363 -1.3208
 4263SOL     OW24250   3.276   1.761   5.978 -0.3520 -0.3276 -0.2782
 4263SOL    HW124251   3.314   1.753   5.890  0.9610 -0.3257  0.2938
 4263SOL    HW224252   3.208   1.828   5.981 -1.6789 -1.6162 -1.6528
 4264SOL     OW24253   0.630   0.711   4.883  0.3448  0.3096 -0.0419
 4264SOL    HW124254   0.600   0.760   4.807 -1.2772  0.0595  0.4503
 4264SOL    HW224255   0.696   0.650   4.850  0.6574  0.2107  0.7421
 4265SOL     OW24256   1.973   3.976   9.783  1.0306 -0.2008  0.1795
 4265SOL    HW124257   1.992   3.882   9.774  0.7293 -0.3400  0.9902
 4265SOL    HW224258   1.923   3.991   9.703  0.9886 -0.5471  0.1381
 4266SOL     OW24259   2.435   3.238   7.364 -0.7849  0.2148 -0.4066
 4266SOL    HW124260   2.474   3.151   7.374  0.6831  0.5226 -3.5714
 4266SOL    HW224261   2.375   3.236   7.439  0.4144 -1.1751  0.5228
 4267SOL     OW24262   2.254   1.004   0.739  0.3019 -0.2986  0.4387
 4267SOL    HW124263   2.191   0.967   0.801  0.5774  1.0935  1.5481
 4267SOL    HW224264   2.306   1.062   0.794 -0.3164 -0.4789  1.2152
 4268SOL     OW24265   0.451   1.103   5.447 -0.3088 -0.0823 -0.2361
 4268SOL    HW124266   0.357   1.087   5.459 -0.8332  0.9013 -2.9797
 4268SOL    HW224267   0.451   1.193   5.414  3.2416  0.4493  1.1767
 4269SOL     OW24268   3.567   2.749   6.844 -0.4611 -0.4574  0.1429
 4269SOL    HW124269   3.568   2.841   6.870 -1.1333 -0.6100  0.7259
 4269SOL    HW224270   3.484   2.718   6.881 -0.8274 -0.6956 -0.8810
 4270SOL     OW24271   0.537   3.808   6.357  0.2167  0.4547  0.2406
 4270SOL    HW124272   0.503   3.804   6.268 -0.4247 -0.5759  0.5299
 4270SOL    HW224273   0.556   3.901   6.370 -0.4522  0.7995 -1.3349
 4271SOL     OW24274   2.500   4.474   3.709  0.9889 -0.1673 -0.2059
 4271SOL    HW124275   2.412   4.437   3.701  0.5590  0.3189  2.3810
 4271SOL    HW224276   2.535   4.401   3.761 -0.3880 -0.1228  0.7729
 4272SOL     OW24277   4.716   0.644  16.437  0.4618  0.3206  0.0356
 4272SOL    HW124278   4.671   0.590  16.502  1.6163 -2.0167 -1.0995
 4272SOL    HW224279   0.039   0.702  16.501 -0.0335 -1.0665  1.6280
 4273SOL     OW24280   3.636   2.228   5.824  0.2819 -0.4996 -0.4612
 4273SOL    HW124281   3.583   2.298   5.786  1.1548 -0.2853 -1.2709
 4273SOL    HW224282   3.625   2.154   5.764 -1.9495 -0.1225 -0.5325
 4274SOL     OW24283   1.399   0.329   5.235 -0.3846 -0.3141  0.4415
 4274SOL    HW124284   1.483   0.295   5.264 -0.2049 -0.9133 -0.7778
 4274SOL    HW224285   1.354   0.247   5.217 -2.6384  0.5586  2.0196
 4275SOL     OW24286   3.331   1.975   1.080  0.2935 -0.6316 -0.0191
 4275SOL    HW124287   3.331   1.955   0.986  1.4067 -1.0679  0.0632
 4275SOL    HW224288   3.308   1.887   1.112 -1.3543 -0.4250 -0.6735
 4276SOL     OW24289   3.578   1.032   3.143 -0.0212  0.2348  0.2074
 4276SOL    HW124290   3.485   1.029   3.121 -0.1766  1.3737  0.7461
 4276SOL    HW224291   3.606   1.122   3.161 -0.4528  0.5487 -0.7173
 4277SOL     OW24292   0.388   2.959   4.545 -0.4993 -0.5664 -0.0600
 4277SOL    HW124293   0.440   2.977   4.467  0.5359  0.7126  0.9261
 4277SOL    HW224294   0.438   2.892   4.591 -1.1541 -0.5825  0.6446
 4278SOL     OW24295   0.712   0.428   7.513  0.3058  0.0961 -0.1579
 4278SOL    HW124296   0.645   0.458   7.451 -2.0737 -0.5592  2.0901
 4278SOL    HW224297   0.727   0.508   7.562 -0.8166  0.5363 -0.5337
 4279SOL     OW24298   2.590   0.912   0.125 -0.5621  0.0964 -0.1484
 4279SOL    HW124299   2.607   0.819   0.140  1.0873  0.3182 -0.6938
 4279SOL    HW224300   2.632   0.953   0.201 -0.6764 -0.8455  0.4259
 4280SOL     OW24301   1.418   0.707   9.524  0.5108 -0.3452  0.1749
 4280SOL    HW124302   1.428   0.785   9.579  1.1513 -1.3915  1.5181
 4280SOL    HW224303   1.377   0.743   9.445 -0.3325 -1.2671  0.1875
 4281SOL     OW24304   0.430   4.161   2.218 -0.1413 -0.4299 -0.4878
 4281SOL    HW124305   0.365   4.225   2.249  1.7548  0.9889  0.5241
 4281SOL    HW224306   0.509   4.185   2.267 -0.6209 -1.9995  1.0792
 4282SOL     OW24307   3.943   4.021   4.702  0.0873  0.4858  0.5104
 4282SOL    HW124308   3.858   4.041   4.740 -0.8744 -0.3410 -1.1835
 4282SOL    HW224309   3.997   4.009   4.779  1.1639 -0.2982 -0.3656
 4283SOL     OW24310   4.386   1.762  13.965  0.2098  0.4647 -0.0094
 4283SOL    HW124311   4.472   1.775  14.005 -1.0389  0.1707  2.7213
 4283SOL    HW224312   4.410   1.771  13.873  2.6224  0.0325  0.5803
 4284SOL     OW24313   3.926   0.768   8.821  0.5152 -0.1209  0.2260
 4284SOL    HW124314   3.997   0.826   8.791 -0.6824  0.8836 -0.6756
 4284SOL    HW224315   3.856   0.783   8.757  1.6011  0.4505 -0.8214
 4285SOL     OW24316   0.440   4.125  13.358 -0.3723  0.3107  0.3776
 4285SOL    HW124317   0.532   4.137  13.381 -0.4195  0.5558  0.4344
 4285SOL    HW224318   0.392   4.145  13.439 -0.2503 -0.0957  0.5472
 4286SOL     OW24319   2.768   2.849   3.068  0.2698 -0.1319 -0.4088
 4286SOL    HW124320   2.798   2.887   3.151 -1.1583  0.2652 -0.0799
 4286SOL    HW224321   2.675   2.872   3.074 -0.1430 -2.4858  2.0666
 4287SOL     OW24322   3.931   0.844  11.176 -0.1351 -0.1420  0.3111
 4287SOL    HW124323   4.011   0.893  11.197  0.5257 -1.7082  1.4732
 4287SOL    HW224324   3.943   0.769  11.233 -1.9590  0.9687  2.1472
 4288SOL     OW24325   4.287   4.435   7.480 -0.0579  0.1381  0.4361
 4288SOL    HW124326   4.301   4.341   7.493  0.6921  0.5264  2.4243
 4288SOL    HW224327   4.319   4.477   7.560  0.2738  0.1824  0.2770
 4289SOL     OW24328   1.184   1.597   9.283 -0.1802 -0.1639  0.0894
 4289SOL    HW124329   1.108   1.644   9.247 -0.3641 -1.0330 -0.6341
 4289SOL    HW224330   1.255   1.657   9.260 -0.4704 -0.5220 -1.7035
 4290SOL     OW24331   4.481   2.290   2.426 -0.0679 -0.2220  0.5644
 4290SOL    HW124332   4.478   2.349   2.351  0.5149 -2.2337 -1.0411
 4290SOL    HW224333   4.422   2.221   2.394 -2.0380  1.3054  0.9235
 4291SOL     OW24334   3.978   3.226   4.059 -0.4624  0.5318 -0.2673
 4291SOL    HW124335   3.914   3.284   4.101 -1.4727 -2.7232  2.6934
 4291SOL    HW224336   3.920   3.160   4.021  0.6252 -0.2273 -0.5883
 4292SOL     OW24337   2.453   2.588   1.367  0.4043  0.1481  0.9890
 4292SOL    HW124338   2.516   2.614   1.434 -0.4813 -0.8697  2.2294
 4292SOL    HW224339   2.432   2.499   1.395  1.0293  0.1081  1.3449
 4293SOL     OW24340   0.352   3.783   6.949  0.0164  0.6838 -0.4268
 4293SOL    HW124341   0.406   3.820   6.879 -0.2516 -0.5654 -1.2989
 4293SOL    HW224342   0.416   3.761   7.016  0.4406  1.7305 -0.4888
 4294SOL     OW24343   1.843   0.365  16.036  0.0123  0.0456 -0.7738
 4294SOL    HW124344   1.765   0.405  16.073  0.4554  0.5237 -0.3478
 4294SOL    HW224345   1.888   0.323  16.109 -0.6928 -2.6572 -1.9009
 4295SOL     OW24346   1.187   3.682   5.052 -0.1210 -0.4960  0.4862
 4295SOL    HW124347   1.135   3.701   4.975 -0.0831  1.5843  0.9566
 4295SOL    HW224348   1.122   3.705   5.118 -1.8729 -0.6636 -1.2061
 4296SOL     OW24349   3.947   3.989  12.708 -0.4526  0.0586  0.3217
 4296SOL    HW124350   3.947   3.965  12.801  1.2399 -1.3157 -0.0522
 4296SOL    HW224351   4.027   4.041  12.702 -0.1801 -0.3514  0.3851
 4297SOL     OW24352   1.308   4.208   4.733  0.0007  0.5827 -0.0428
 4297SOL    HW124353   1.343   4.296   4.716 -0.4386  0.5919 -0.8980
 4297SOL    HW224354   1.274   4.223   4.821 -1.3671 -0.5794 -0.3628
 4298SOL     OW24355   0.376   3.802   9.035  0.2349 -0.3780  0.2280
 4298SOL    HW124356   0.384   3.756   8.951  0.0838 -1.8577  1.0189
 4298SOL    HW224357   0.403   3.891   9.012  0.2407 -0.6993 -1.0246
 4299SOL     OW24358   3.303   3.071   7.979  0.6723 -0.2079  0.4046
 4299SOL    HW124359   3.239   3.000   7.971 -1.4406  1.7368  0.1733
 4299SOL    HW224360   3.262   3.150   8.014  0.7464  0.8183 -1.8348
 4300SOL     OW24361   3.294   0.018   4.421  0.1762 -0.3414 -0.3304
 4300SOL    HW124362   3.221   0.035   4.480 -0.0295 -0.0649 -0.6671
 4300SOL    HW224363   3.357   0.087   4.441 -3.2549  2.2292  1.5337
 4301SOL     OW24364   1.003   0.547   4.149 -0.0146  0.4547  0.0632
 4301SOL    HW124365   1.034   0.491   4.078 -0.7422  0.3980 -0.2084
 4301SOL    HW224366   1.069   0.615   4.142 -1.0339  1.6554  2.2111
 4302SOL     OW24367   1.088   3.087  12.352 -0.3772 -0.2274 -0.7280
 4302SOL    HW124368   1.079   3.165  12.408 -1.1530 -1.4375  0.8503
 4302SOL    HW224369   1.101   3.127  12.266  3.9514 -0.7401 -0.2955
 4303SOL     OW24370   0.997   2.566   6.097 -0.4705  0.3819  0.0880
 4303SOL    HW124371   0.905   2.580   6.075 -1.2524 -2.3050  1.6621
 4303SOL    HW224372   1.036   2.555   6.010 -1.2814  2.4642 -0.5645
 4304SOL     OW24373   2.115   2.514   3.559 -0.1574 -0.6416  0.1801
 4304SOL    HW124374   2.127   2.521   3.654 -0.3404  0.5944  0.1083
 4304SOL    HW224375   2.022   2.492   3.558 -0.8137  1.9659  2.2545
 4305SOL     OW24376   2.937   0.175  15.332  0.5334  0.2939  0.1015
 4305SOL    HW124377   2.930   0.185  15.237  1.4688  0.7726  0.0920
 4305SOL    HW224378   2.909   0.260  15.367 -0.6868 -0.3639  0.7504
 4306SOL     OW24379   4.240   4.241   4.395  0.3324 -0.1110 -0.1082
 4306SOL    HW124380   4.178   4.191   4.341 -1.6078 -0.0352  2.0288
 4306SOL    HW224381   4.280   4.171   4.446  0.9302  0.3583  0.0583
 4307SOL     OW24382   3.499   1.873   7.298 -0.5508 -0.0258 -0.5321
 4307SOL    HW124383   3.503   1.920   7.381  0.6980  0.7453 -1.0284
 4307SOL    HW224384   3.547   1.937   7.245  0.4920  1.5037  2.2878
 4308SOL     OW24385   3.858   1.964  15.544  0.4015 -0.5829 -0.6883
 4308SOL    HW124386   3.780   1.912  15.523 -0.4044  1.1335 -1.9097
 4308SOL    HW224387   3.919   1.906  15.498  1.8885 -0.7261  1.4228
 4309SOL     OW24388   1.503   3.247   2.337  0.4080 -0.0268 -0.1198
 4309SOL    HW124389   1.432   3.222   2.397  0.7594 -1.5104 -0.3348
 4309SOL    HW224390   1.453   3.270   2.258  0.4558  0.1252 -0.1071
 4310SOL     OW24391   2.122   2.726  12.570  0.1629  0.2922  0.4489
 4310SOL    HW124392   2.181   2.661  12.607 -2.8184 -1.9741  1.2469
 4310SOL    HW224393   2.051   2.715  12.634 -0.9967 -0.5896 -0.9756
 4311SOL     OW24394   2.350   1.886   6.953  0.3582  0.0688 -0.0205
 4311SOL    HW124395   2.444   1.879   6.937  0.3711  0.7693 -0.2781
 4311SOL    HW224396   2.366   1.904   7.046 -0.9612 -0.2561  0.2552
 4312SOL     OW24397   1.922   4.476  11.792  0.2509 -0.0194 -0.2280
 4312SOL    HW124398   2.008   4.435  11.789  0.0611 -0.2548 -2.1732
 4312SOL    HW224399   1.881   4.435  11.869  0.1037  0.5363 -0.0100
 4313SOL     OW24400   1.088   3.818  11.940  0.2082  0.4262  0.2320
 4313SOL    HW124401   1.102   3.725  11.957 -2.4142 -0.4048 -2.2304
 4313SOL    HW224402   1.181   3.837  11.928  0.1706 -1.3583 -2.7657
 4314SOL     OW24403   1.290   3.556   2.864 -0.3705  0.4482  0.0295
 4314SOL    HW124404   1.231   3.587   2.795  0.5001  1.2573 -0.3361
 4314SOL    HW224405   1.372   3.551   2.815 -0.2290  0.8805  0.2282
 4315SOL     OW24406   1.907   2.374   6.397 -0.4039  0.3569  0.0761
 4315SOL    HW124407   1.925   2.442   6.462  0.0865  1.1018 -0.8484
 4315SOL    HW224408   1.859   2.307   6.446 -0.7450 -0.4037 -1.2880
 4316SOL     OW24409   3.841   0.457   6.140 -0.1414 -0.1195 -0.1788
 4316SOL    HW124410   3.932   0.486   6.135  0.0131 -0.5076  0.4080
 4316SOL    HW224411   3.810   0.478   6.051  0.0215  0.8031 -0.0150
 4317SOL     OW24412   2.548   3.493   4.334  0.1894  0.1842 -0.1008
 4317SOL    HW124413   2.584   3.560   4.275  0.7420 -0.1755 -0.1663
 4317SOL    HW224414   2.596   3.415   4.308 -1.8564 -0.6202 -1.4691
 4318SOL     OW24415   2.288   1.963  10.605 -0.0777  0.5689  0.2110
 4318SOL    HW124416   2.322   2.016  10.678 -0.4407  2.4304 -0.9695
 4318SOL    HW224417   2.327   2.007  10.530  0.1107 -1.4530 -0.8690
 4319SOL     OW24418   0.753   1.226  14.853 -0.3780  0.8406 -0.1725
 4319SOL    HW124419   0.817   1.265  14.913  0.0619  0.4814 -0.4188
 4319SOL    HW224420   0.807   1.152  14.828  0.3853  0.5825  2.1992
 4320SOL     OW24421   3.173   0.659  14.890  1.0987 -0.0667 -0.1406
 4320SOL    HW124422   3.150   0.698  14.805 -0.2712 -0.5022  0.0201
 4320SOL    HW224423   3.140   0.726  14.949  0.7389 -1.9258  1.7690
 4321SOL     OW24424   4.314   0.869   7.836 -0.6536  0.1423 -0.0548
 4321SOL    HW124425   4.338   0.799   7.774 -0.0619  2.9385 -2.9694
 4321SOL    HW224426   4.241   0.828   7.883 -0.6456  0.8369  0.5473
 4322SOL     OW24427   2.005   1.551   6.776  0.4223  0.0367  0.2720
 4322SOL    HW124428   2.072   1.614   6.748  0.4809 -0.2329 -0.1988
 4322SOL    HW224429   1.974   1.584   6.860  0.8061 -0.6607  0.6889
 4323SOL     OW24430   3.023   4.643   9.320  0.0899 -0.0513 -0.6134
 4323SOL    HW124431   3.034   4.549   9.334  2.5850  0.4271  0.8109
 4323SOL    HW224432   2.944   4.666   9.369  2.7071  1.2035  3.0482
 4324SOL     OW24433   2.105   1.423   4.998  0.1938  0.8572  0.2678
 4324SOL    HW124434   2.191   1.436   5.037  0.0174 -2.1967  1.6774
 4324SOL    HW224435   2.097   1.511   4.963  0.0541  0.1071 -1.6182
 4325SOL     OW24436   3.285   0.140   9.005  0.4752 -0.2513 -0.3182
 4325SOL    HW124437   3.207   0.086   9.008 -0.6203  1.1309 -3.5383
 4325SOL    HW224438   3.249   0.210   8.951 -2.2239 -2.2867 -1.1874
 4326SOL     OW24439   2.953   0.626   4.893  0.1523  0.0559  0.3117
 4326SOL    HW124440   2.970   0.609   4.801  0.8319 -0.1650  0.4756
 4326SOL    HW224441   2.884   0.562   4.911 -2.1931  2.7592  0.8863
 4327SOL     OW24442   2.038   1.234   6.368  0.3512  0.7173  0.4672
 4327SOL    HW124443   1.974   1.295   6.405 -1.8149  0.4225 -2.8206
 4327SOL    HW224444   2.089   1.298   6.318 -0.7520  0.9074 -0.4105
 4328SOL     OW24445   3.430   4.569   2.202 -0.3374 -0.3009  0.2522
 4328SOL    HW124446   3.521   4.597   2.196 -0.7766  0.8730 -0.9566
 4328SOL    HW224447   3.438   4.482   2.164 -0.4064 -0.4753  0.6483
 4329SOL     OW24448   3.430   0.453   7.132  0.0949  0.0423  0.0388
 4329SOL    HW124449   3.337   0.446   7.114  0.3949  0.3132 -1.6207
 4329SOL    HW224450   3.452   0.404   7.212  1.4053 -0.7422 -0.7851
 4330SOL     OW24451   3.201   0.273   7.911  0.5623  0.2667 -0.3829
 4330SOL    HW124452   3.147   0.215   7.965 -2.2922  2.2766 -1.1209
 4330SOL    HW224453   3.154   0.254   7.830  0.7191  0.0626 -0.4272
 4331SOL     OW24454   3.779   2.890  15.859 -0.1677 -0.2633 -0.5260
 4331SOL    HW124455   3.809   2.916  15.772  0.4419 -0.1976 -0.2933
 4331SOL    HW224456   3.689   2.870  15.835 -0.6252 -2.3510  2.9800
 4332SOL     OW24457   2.757   3.540   0.632 -0.1382 -0.0699 -0.7212
 4332SOL    HW124458   2.764   3.549   0.537  1.6602 -2.8996 -0.8705
 4332SOL    HW224459   2.742   3.445   0.632 -2.1815  0.2490  2.6049
 4333SOL     OW24460   3.391   1.455   1.157 -0.4332  0.1627  0.2398
 4333SOL    HW124461   3.464   1.430   1.214 -1.8947  0.7240  2.3549
 4333SOL    HW224462   3.336   1.505   1.217 -1.3502 -1.0038  0.3806
 4334SOL     OW24463   3.262   0.061   3.058 -0.5269 -0.1691  0.0409
 4334SOL    HW124464   3.268   0.129   3.126  0.6885 -1.2061  0.9792
 4334SOL    HW224465   3.170   0.070   3.032 -0.5093  2.6597  0.9544
 4335SOL     OW24466   3.511   2.346  15.554  0.3473 -0.7774 -0.2330
 4335SOL    HW124467   3.572   2.316  15.486  0.1616 -1.0917 -0.2655
 4335SOL    HW224468   3.556   2.330  15.637 -1.4395  0.4129  0.9675
 4336SOL     OW24469   3.861   0.822   6.869  0.8288  0.2720  0.2666
 4336SOL    HW124470   3.833   0.862   6.952  0.8664  0.9774 -0.0624
 4336SOL    HW224471   3.950   0.856   6.877 -0.2426  3.2352 -0.4189
 4337SOL     OW24472   1.270   3.175   8.713  0.0817 -0.0567 -0.3646
 4337SOL    HW124473   1.306   3.158   8.626  1.1415  1.6914 -0.2628
 4337SOL    HW224474   1.306   3.098   8.758 -1.8760 -0.7111  0.0801
 4338SOL     OW24475   4.558   3.558   3.996  0.0653  0.2653 -0.0173
 4338SOL    HW124476   4.574   3.562   4.090  1.1712  0.0938 -0.1922
 4338SOL    HW224477   4.578   3.466   3.982  0.7927  0.7195 -1.9757
 4339SOL     OW24478   2.576   3.063  12.967 -0.4268 -1.1083 -0.1248
 4339SOL    HW124479   2.668   3.077  12.945 -0.5548 -0.0763 -0.0067
 4339SOL    HW224480   2.555   3.155  12.982  0.1770 -0.7939 -1.2473
 4340SOL     OW24481   2.543   0.874   4.892  0.8008  0.7382  0.2831
 4340SOL    HW124482   2.499   0.921   4.963  0.6927  1.0602  0.0032
 4340SOL    HW224483   2.498   0.905   4.814 -0.7906 -0.7894  0.5959
 4341SOL     OW24484   2.338   1.641   1.486  0.3496 -0.1329 -0.0248
 4341SOL    HW124485   2.290   1.721   1.508 -0.9509 -0.7908 -0.5053
 4341SOL    HW224486   2.423   1.671   1.518  0.8050  0.4741 -1.8314
 4342SOL     OW24487   1.568   4.304  14.829  0.0990  0.1922 -0.0954
 4342SOL    HW124488   1.484   4.276  14.866  1.4461  0.3318  3.0189
 4342SOL    HW224489   1.612   4.338  14.906 -2.1475  0.0050  1.2702
 4343SOL     OW24490   1.610   1.035   7.442  0.2364  0.4706  0.0278
 4343SOL    HW124491   1.579   1.113   7.489  1.3947 -1.1058  3.3671
 4343SOL    HW224492   1.551   0.977   7.489  0.8850  0.7408  1.1958
 4344SOL     OW24493   2.183   4.127   7.341  0.0843 -0.5669  0.0504
 4344SOL    HW124494   2.108   4.072   7.317 -0.9547  0.0496  1.8820
 4344SOL    HW224495   2.246   4.056   7.345 -1.4521 -1.8716  1.2801
 4345SOL     OW24496   0.452   1.876   6.408  0.2736  0.1276  0.0076
 4345SOL    HW124497   0.367   1.880   6.453 -2.0504  3.0640 -4.6218
 4345SOL    HW224498   0.420   1.823   6.336  1.0803 -0.3271 -0.0142
 4346SOL     OW24499   2.158   3.562   0.554  0.1394 -0.4304 -0.0541
 4346SOL    HW124500   2.253   3.559   0.568  0.2773  3.1008 -0.2100
 4346SOL    HW224501   2.159   3.623   0.480 -0.0983  1.0308  1.1495
 4347SOL     OW24502   1.729   1.342  13.184  0.0214 -0.4775 -0.1549
 4347SOL    HW124503   1.766   1.428  13.165  1.5113 -1.1173 -0.1901
 4347SOL    HW224504   1.648   1.340  13.134  0.4994 -1.6607 -0.8882
 4348SOL     OW24505   1.400   1.966   3.819 -0.6076 -0.2816  0.4502
 4348SOL    HW124506   1.312   1.998   3.798  0.3700  1.3586 -1.2053
 4348SOL    HW224507   1.422   2.006   3.904 -4.6909 -0.5204  1.6531
 4349SOL     OW24508   3.550   2.964   2.265  0.2340 -0.0345 -0.0405
 4349SOL    HW124509   3.555   2.869   2.277  0.1121  0.0741  0.8746
 4349SOL    HW224510   3.590   2.964   2.178 -0.2313  1.6475 -0.2613
 4350SOL     OW24511   0.158   3.001   5.376 -0.4367 -0.6096 -0.0554
 4350SOL    HW124512   0.205   3.022   5.457  1.7423 -2.2742 -0.8666
 4350SOL    HW224513   0.074   3.046   5.373  2.1686  4.1337 -1.4543
 4351SOL     OW24514   1.766   1.590   6.652  0.1311 -0.3668  0.2567
 4351SOL    HW124515   1.709   1.514   6.659 -0.2599  0.0496  1.5615
 4351SOL    HW224516   1.852   1.566   6.686 -0.1765 -0.4884  0.9411
 4352SOL     OW24517   0.080   3.932   3.365  0.2710  0.2072  0.2802
 4352SOL    HW124518   0.004   3.976   3.402 -1.9959 -1.6370 -2.2185
 4352SOL    HW224519   0.151   3.963   3.422 -0.1575  0.6028  0.5942
 4353SOL     OW24520   4.505   4.610  11.066  0.1826  0.4333  0.3465
 4353SOL    HW124521   4.566   4.632  11.136 -0.3582 -0.1791  1.0025
 4353SOL    HW224522   4.432   4.672  11.068  0.6346  0.9724  0.2220
 4354SOL     OW24523   1.652   1.626   2.540  0.1412 -0.4575 -0.2340
 4354SOL    HW124524   1.704   1.549   2.562  0.1090 -0.8465 -1.5194
 4354SOL    HW224525   1.594   1.600   2.469  1.2062 -1.3364 -0.7886
 4355SOL     OW24526   3.462   2.090  12.403 -0.6522  0.5029  0.1719
 4355SOL    HW124527   3.439   2.183  12.410 -1.3813  0.2047  2.0143
 4355SOL    HW224528   3.384   2.042  12.431  0.3187 -0.5138  1.1173
 4356SOL     OW24529   4.325   4.173   5.258  0.0658  0.1109  0.2007
 4356SOL    HW124530   4.275   4.166   5.177 -1.8096 -0.3028  1.4063
 4356SOL    HW224531   4.295   4.258   5.291  0.8754  0.9290 -1.1864
 4357SOL     OW24532   0.310   3.897   3.530  0.2054  0.1659 -0.1091
 4357SOL    HW124533   0.366   3.842   3.477 -2.0976 -0.8171 -1.5410
 4357SOL    HW224534   0.376   3.947   3.577 -1.2524  1.1106  0.9641
 4358SOL     OW24535   3.163   0.823   3.346  0.2335 -0.3869  0.1275
 4358SOL    HW124536   3.251   0.801   3.318 -0.4149 -2.1179 -0.5523
 4358SOL    HW224537   3.112   0.783   3.275  1.0477 -0.7905 -0.2282
 4359SOL     OW24538   3.075   2.141   8.838  0.4668  0.2312 -0.3479
 4359SOL    HW124539   2.981   2.152   8.854  0.6683 -1.0138  1.5702
 4359SOL    HW224540   3.087   2.213   8.775  1.2372 -0.4237 -0.9517
 4360SOL     OW24541   2.120   1.784   3.049 -0.2744  0.4832 -0.2067
 4360SOL    HW124542   2.124   1.865   2.999  0.8415 -1.2149 -2.8880
 4360SOL    HW224543   2.208   1.767   3.082  0.6635  4.6641 -0.5387
 4361SOL     OW24544   3.315   0.151   2.571  0.4562  0.0034  0.1490
 4361SOL    HW124545   3.407   0.147   2.543  0.7806  1.7688  0.9158
 4361SOL    HW224546   3.268   0.184   2.495 -1.0884  0.7556  1.4479
 4362SOL     OW24547   4.321   2.229  15.540  0.1293 -0.2520  0.2298
 4362SOL    HW124548   4.407   2.228  15.497 -1.4609  1.5686 -3.0325
 4362SOL    HW224549   4.295   2.139  15.522 -0.5950  0.4431 -2.1775
 4363SOL     OW24550   1.356   2.092   5.780 -0.8498 -0.1973  0.6342
 4363SOL    HW124551   1.433   2.122   5.731 -0.6344 -1.7484  0.0098
 4363SOL    HW224552   1.338   2.173   5.827  0.3794 -0.0964  0.9361
 4364SOL     OW24553   4.293   1.776   6.920  0.3865 -0.2602 -0.2330
 4364SOL    HW124554   4.210   1.731   6.902 -0.9878  1.4288  1.9465
 4364SOL    HW224555   4.284   1.870   6.905  1.9103 -0.2264 -0.9375
 4365SOL     OW24556   3.240   0.569   6.663  0.1748  0.3827 -0.0191
 4365SOL    HW124557   3.206   0.597   6.578  1.3997  0.4776 -0.4834
 4365SOL    HW224558   3.167   0.514   6.690  1.3302 -1.3400 -0.4411
 4366SOL     OW24559   3.796   2.886   6.558  0.0502  0.2979 -0.0543
 4366SOL    HW124560   3.790   2.928   6.472  0.3657  0.2806 -0.0834
 4366SOL    HW224561   3.869   2.932   6.598  1.7197 -1.7644 -0.7159
 4367SOL     OW24562   3.616   4.579   2.579  0.0750  0.1861  0.0483
 4367SOL    HW124563   3.540   4.535   2.618  1.4259 -1.5701  0.7106
 4367SOL    HW224564   3.681   4.572   2.648  0.9281 -0.6712 -0.8433
 4368SOL     OW24565   2.621   3.765   2.755  0.0385  0.0051 -0.6867
 4368SOL    HW124566   2.599   3.673   2.740  1.4755 -0.5940  0.9831
 4368SOL    HW224567   2.592   3.780   2.845  1.1053  0.7125 -0.4610
 4369SOL     OW24568   4.178   1.947   4.836  0.1916  0.2130 -0.0384
 4369SOL    HW124569   4.217   2.034   4.849  0.5380  0.2115 -1.1090
 4369SOL    HW224570   4.131   1.937   4.919  0.4008 -2.1612 -0.2130
 4370SOL     OW24571   3.375   4.611   6.786  0.4841  0.3408  1.0555
 4370SOL    HW124572   3.343   4.641   6.870 -0.2167  0.9383  0.5686
 4370SOL    HW224573   3.468   4.619   6.808  1.2023 -2.2599 -0.9802
 4371SOL     OW24574   2.172   4.122   9.904 -0.0654 -0.1128  0.3368
 4371SOL    HW124575   2.098   4.072   9.871  0.2209 -1.0040  1.0438
 4371SOL    HW224576   2.161   4.129   9.999 -0.2932 -1.1728  0.3814
 4372SOL     OW24577   3.640   1.228  14.540  0.0222 -0.5360  0.5472
 4372SOL    HW124578   3.672   1.179  14.616  1.1551  2.1105  1.7990
 4372SOL    HW224579   3.650   1.317  14.574  2.3055 -0.6154  0.1094
 4373SOL     OW24580   2.989   3.735   0.714  0.2202 -0.4759  0.3186
 4373SOL    HW124581   2.992   3.676   0.789  0.2623  0.1136  0.7783
 4373SOL    HW224582   3.027   3.817   0.746 -0.0686  1.3401 -3.9955
 4374SOL     OW24583   1.574   0.115  15.238  0.0994  0.3134 -0.7599
 4374SOL    HW124584   1.664   0.119  15.271 -0.3231  0.8528  0.3241
 4374SOL    HW224585   1.525   0.143  15.315 -1.1002 -0.8601 -1.1032
 4375SOL     OW24586   1.305   1.658   2.524 -0.2464 -0.2223  0.2502
 4375SOL    HW124587   1.311   1.605   2.604  1.0474 -0.1469  0.1987
 4375SOL    HW224588   1.365   1.614   2.464 -3.7480 -1.9469 -2.0190
 4376SOL     OW24589   2.878   0.717   3.573  0.1322 -0.7928  0.1410
 4376SOL    HW124590   2.888   0.638   3.521  2.3139 -0.2065 -0.3330
 4376SOL    HW224591   2.869   0.777   3.499  2.6902 -0.8599 -0.2282
 4377SOL     OW24592   1.242   1.495  13.277  0.1395 -0.1399  0.3058
 4377SOL    HW124593   1.194   1.490  13.360 -0.5204  0.7264 -0.0189
 4377SOL    HW224594   1.175   1.457  13.220 -0.0381  0.4201  0.1417
 4378SOL     OW24595   1.295   0.731   7.773 -0.8919  0.2665  0.2487
 4378SOL    HW124596   1.268   0.786   7.848  1.7215  1.8393  0.0367
 4378SOL    HW224597   1.337   0.654   7.811  1.5719  1.9232  0.8821
 4379SOL     OW24598   2.225   4.349   3.694  0.2963 -0.2249 -0.5490
 4379SOL    HW124599   2.154   4.378   3.753  0.7410  0.3202 -0.2794
 4379SOL    HW224600   2.222   4.255   3.714  4.0973 -0.1395  0.3949
 4380SOL     OW24601   0.519   0.999   6.683 -0.5463 -0.4755 -0.1000
 4380SOL    HW124602   0.592   1.057   6.663 -0.8982  0.9666  2.8113
 4380SOL    HW224603   0.447   1.056   6.711 -3.1128 -3.5362 -0.4526
 4381SOL     OW24604   3.955   4.366   8.163 -0.1525  0.1831 -0.0927
 4381SOL    HW124605   3.903   4.325   8.093 -4.3229  0.7711  2.6997
 4381SOL    HW224606   4.041   4.326   8.150  1.0043  2.3356  1.0174
 4382SOL     OW24607   0.683   2.022   5.090  0.1169  0.6864 -0.0738
 4382SOL    HW124608   0.671   2.074   5.010  0.5219 -0.4018 -0.8549
 4382SOL    HW224609   0.721   1.942   5.054 -3.3549 -0.4214 -1.2383
 4383SOL     OW24610   1.082   3.384  14.052  0.1817 -0.2186 -0.0446
 4383SOL    HW124611   1.128   3.406  14.133 -2.0208  0.7421  0.9546
 4383SOL    HW224612   1.122   3.458  14.005 -1.8947  1.1251  0.2857
 4384SOL     OW24613   3.173   3.937   0.771  0.4260  0.6290  0.0079
 4384SOL    HW124614   3.141   3.971   0.688  1.6528 -1.7683 -1.4357
 4384SOL    HW224615   3.236   4.001   0.804  0.6659 -0.1612  1.0869
 4385SOL     OW24616   1.440   3.865  10.768  0.7018  0.6597  0.6358
 4385SOL    HW124617   1.529   3.896  10.752  1.7781 -2.5547  0.4299
 4385SOL    HW224618   1.476   3.808  10.835 -1.2337 -1.0998  0.1750
 4386SOL     OW24619   0.317   1.583   0.078  0.3761 -0.0669  0.1757
 4386SOL    HW124620   0.398   1.538   0.053 -0.6563 -0.5482 -2.2802
 4386SOL    HW224621   0.249   1.517   0.066 -1.6726  2.2812 -1.1223
 4387SOL     OW24622   4.156   3.802   4.074  0.0643 -0.6324 -0.7660
 4387SOL    HW124623   4.221   3.820   4.005  1.0418  3.0713  1.1148
 4387SOL    HW224624   4.085   3.770   4.018  0.3267 -1.6636 -0.5008
 4388SOL     OW24625   0.752   1.600   3.250 -0.1244 -0.1523  0.3649
 4388SOL    HW124626   0.726   1.508   3.252  0.2204 -0.2892 -1.5936
 4388SOL    HW224627   0.709   1.636   3.173 -0.0872 -1.2321 -0.1572
 4389SOL     OW24628   2.866   3.170   1.814  0.3785  0.3968 -0.1759
 4389SOL    HW124629   2.862   3.185   1.719  0.7947 -0.2855 -0.3064
 4389SOL    HW224630   2.808   3.234   1.855  0.5440  0.0815  0.5493
 4390SOL     OW24631   4.376   2.513   5.553 -0.2116  0.5025 -0.8348
 4390SOL    HW124632   4.401   2.425   5.523 -0.8012 -0.0518  0.2875
 4390SOL    HW224633   4.289   2.517   5.513  0.2736 -0.9381 -2.0250
 4391SOL     OW24634   1.726   3.544   6.185 -0.1091 -0.3178 -0.0353
 4391SOL    HW124635   1.695   3.610   6.124  0.6330  0.6150  0.5843
 4391SOL    HW224636   1.769   3.482   6.127 -2.2184 -0.6594 -1.2219
 4392SOL     OW24637   1.398   3.010   3.034  0.4311 -0.0505  0.0280
 4392SOL    HW124638   1.405   2.917   3.057  3.6551  0.2772  0.3053
 4392SOL    HW224639   1.441   3.020   2.949 -0.9219  1.1611 -0.5144
 4393SOL     OW24640   1.623   1.650   2.187  0.1827  0.5154 -0.5310
 4393SOL    HW124641   1.673   1.732   2.184 -1.5657  1.5696 -0.3647
 4393SOL    HW224642   1.591   1.656   2.097 -0.8473 -0.4233 -0.2217
 4394SOL     OW24643   3.991   3.471   3.605 -0.3603  0.2804 -0.2672
 4394SOL    HW124644   3.987   3.375   3.604 -1.4686  0.3231  2.4492
 4394SOL    HW224645   3.905   3.498   3.637 -0.2028  0.8220 -0.3046
 4395SOL     OW24646   0.301   3.232   3.625  0.0527  0.2683  0.1268
 4395SOL    HW124647   0.363   3.275   3.684 -0.5838 -1.9644  2.4081
 4395SOL    HW224648   0.364   3.221   3.554  0.4692 -0.5048  0.6242
 4396SOL     OW24649   1.514   2.792   8.593 -0.4393  0.1969  0.1144
 4396SOL    HW124650   1.538   2.880   8.565 -1.0989  0.8263  1.5147
 4396SOL    HW224651   1.508   2.742   8.512  1.4969 -3.2167  2.0954
 4397SOL     OW24652   2.267   2.620   6.202  0.3573 -0.7205  0.0685
 4397SOL    HW124653   2.361   2.608   6.188  0.1858 -0.4561 -1.2826
 4397SOL    HW224654   2.236   2.530   6.196  2.2398 -1.3271 -0.7207
 4398SOL     OW24655   0.047   1.077  15.815 -0.5273 -0.9247  0.0808
 4398SOL    HW124656   0.133   1.050  15.850  0.1105 -0.0663 -0.8538
 4398SOL    HW224657   0.047   1.042  15.726 -0.4857 -1.2882  0.2231
 4399SOL     OW24658   2.322   1.822   2.342 -0.1157 -0.4934  0.2840
 4399SOL    HW124659   2.271   1.832   2.262  1.5028  0.6970 -0.6019
 4399SOL    HW224660   2.409   1.802   2.308 -0.5218 -0.4077 -0.7996
 4400SOL     OW24661   0.892   1.647   6.619 -0.2628  0.5032  0.5118
 4400SOL    HW124662   0.800   1.667   6.599 -0.3929 -2.1132 -1.5822
 4400SOL    HW224663   0.884   1.563   6.664 -0.6864  0.9538  1.2742
 4401SOL     OW24664   3.623   2.353   1.621  0.0372 -0.0916 -0.3473
 4401SOL    HW124665   3.671   2.279   1.658  1.0901  1.1070  0.7229
 4401SOL    HW224666   3.559   2.368   1.691  0.7605 -2.1894  0.7701
 4402SOL     OW24667   4.122   1.914   7.287  0.1058 -0.5248 -0.0159
 4402SOL    HW124668   4.182   1.979   7.324  0.1391  0.3592 -1.6185
 4402SOL    HW224669   4.177   1.839   7.268  0.3428 -0.5831  0.8833
 4403SOL     OW24670   0.610   3.829   5.806 -0.7084  0.2118  0.3719
 4403SOL    HW124671   0.603   3.913   5.852  0.3816 -0.6519  2.1419
 4403SOL    HW224672   0.522   3.792   5.803  0.3598 -2.2876  0.3992
 4404SOL     OW24673   2.117   3.567   4.066  0.2642 -0.0772 -0.1637
 4404SOL    HW124674   2.035   3.567   4.116  0.9400  0.0514  0.9541
 4404SOL    HW224675   2.180   3.541   4.133 -0.3244 -0.7395  0.1248
 4405SOL     OW24676   3.436   1.342   7.995  0.5480  0.3287  0.3188
 4405SOL    HW124677   3.388   1.424   7.987 -0.7199 -0.3378  0.9414
 4405SOL    HW224678   3.366   1.277   8.005 -1.0586  1.9388 -0.4875
 4406SOL     OW24679   2.707   2.707  12.722 -0.3567  0.3745 -0.7091
 4406SOL    HW124680   2.679   2.617  12.702  0.1993  0.2705 -1.0397
 4406SOL    HW224681   2.679   2.750  12.641  0.9743  1.1153 -0.7800
 4407SOL     OW24682   2.190   1.299   7.407 -0.3719 -0.3767 -0.0459
 4407SOL    HW124683   2.200   1.204   7.399 -1.4767 -0.3536 -1.7292
 4407SOL    HW224684   2.099   1.315   7.383 -0.5602 -1.0095  0.2706
 4408SOL     OW24685   4.137   3.023   7.435 -0.0873 -0.0111 -0.0513
 4408SOL    HW124686   4.128   3.037   7.341 -0.0589  1.3585  0.1501
 4408SOL    HW224687   4.062   2.970   7.463  0.3794 -1.2514 -1.1426
 4409SOL     OW24688   2.353   1.104  13.859  0.0700  0.5288  0.0967
 4409SOL    HW124689   2.269   1.058  13.865  0.3204 -0.2983 -2.6068
 4409SOL    HW224690   2.397   1.078  13.778 -0.1866 -3.1104  1.1115
 4410SOL     OW24691   4.611   3.293   3.976  0.1514  0.4546  0.0437
 4410SOL    HW124692   4.705   3.287   3.958  0.3843  0.5998  1.2017
 4410SOL    HW224693   4.587   3.200   3.980 -0.4256  0.5287 -1.8200
 4411SOL     OW24694   4.280   2.769   3.642 -0.1354 -0.1166 -0.2121
 4411SOL    HW124695   4.289   2.674   3.634 -2.2410 -0.2765 -0.7341
 4411SOL    HW224696   4.201   2.787   3.592 -0.2992 -1.6333 -0.4920
 4412SOL     OW24697   1.568   0.121   3.331 -0.9681  0.8551  0.2249
 4412SOL    HW124698   1.601   0.032   3.321 -0.1212  1.3034 -0.9392
 4412SOL    HW224699   1.639   0.176   3.297 -0.1241 -0.5129 -0.1901
 4413SOL     OW24700   0.821   2.434  11.106  0.0820 -0.0993  0.5230
 4413SOL    HW124701   0.780   2.418  11.021 -2.3064  0.1108  1.6276
 4413SOL    HW224702   0.914   2.441  11.087  0.0942  0.6301  0.8134
 4414SOL     OW24703   0.610   3.934   2.493  0.0381  0.0187 -0.2165
 4414SOL    HW124704   0.699   3.970   2.487  0.4255 -1.2173 -1.6887
 4414SOL    HW224705   0.632   3.874   2.564  0.5115  0.1260 -0.2680
 4415SOL     OW24706   1.766   1.437   4.714 -0.4863 -0.1392 -0.3409
 4415SOL    HW124707   1.839   1.393   4.758 -2.1682 -0.5124  2.0762
 4415SOL    HW224708   1.700   1.368   4.721 -0.5825 -0.0582 -0.4498
 4416SOL     OW24709   2.780   2.568   6.917 -0.0844 -0.4750 -0.4861
 4416SOL    HW124710   2.742   2.496   6.867 -1.9014 -1.0949  1.7936
 4416SOL    HW224711   2.705   2.626   6.929  0.5667  0.4026 -0.7242
 4417SOL     OW24712   0.700   1.083   2.581  0.0604  0.0965  0.1326
 4417SOL    HW124713   0.711   1.096   2.675  0.9197 -1.0744  0.1900
 4417SOL    HW224714   0.630   1.144   2.557  0.4576  0.8680  0.9327
 4418SOL     OW24715   3.488   1.973   6.091  0.7025  0.2724 -0.1697
 4418SOL    HW124716   3.537   1.990   6.011 -0.0887  0.1913 -0.6696
 4418SOL    HW224717   3.422   1.915   6.052  0.7184  0.8128 -1.0096
 4419SOL     OW24718   0.147   3.095  12.232 -0.3905 -0.0827  0.7544
 4419SOL    HW124719   0.209   3.021  12.229 -0.7212 -0.1472 -4.6737
 4419SOL    HW224720   0.195   3.146  12.298  0.0344 -0.4986  0.7744
 4420SOL     OW24721   0.022   3.333   5.423 -0.1066  0.1577 -0.1291
 4420SOL    HW124722   0.006   3.279   5.500 -0.7228 -0.5843 -0.7715
 4420SOL    HW224723   0.114   3.351   5.441 -0.7322  1.1196  2.0583
 4421SOL     OW24724   2.246   2.940   2.967 -0.1390  0.0920  0.4072
 4421SOL    HW124725   2.260   2.938   2.872  4.1464 -1.0320  1.0370
 4421SOL    HW224726   2.156   2.973   2.971 -0.2779 -0.3746  1.0466
 4422SOL     OW24727   0.587   0.336   9.405 -0.3651  0.5769 -0.1763
 4422SOL    HW124728   0.645   0.351   9.330 -1.3025 -1.6652 -1.3629
 4422SOL    HW224729   0.612   0.247   9.429  1.5887  1.5080  1.2676
 4423SOL     OW24730   2.573   3.817   1.369 -0.0819 -0.3729  0.2578
 4423SOL    HW124731   2.565   3.893   1.426  0.4894 -1.8009  2.2297
 4423SOL    HW224732   2.628   3.846   1.296 -1.1099  2.4104  0.5766
 4424SOL     OW24733   1.645   2.591  12.490 -0.1596 -0.0348 -0.1137
 4424SOL    HW124734   1.577   2.549  12.438 -2.2424 -0.0349  2.5719
 4424SOL    HW224735   1.629   2.563  12.580  1.4953  0.4983  0.3387
 4425SOL     OW24736   4.274   4.158   8.652  0.5581 -0.3345 -0.2745
 4425SOL    HW124737   4.188   4.139   8.615  0.4456  0.0371 -0.2059
 4425SOL    HW224738   4.325   4.125   8.578 -0.9133 -1.5152 -0.7495
 4426SOL     OW24739   0.095   4.423   5.078  0.0368  0.6798  0.0928
 4426SOL    HW124740   0.082   4.409   4.984 -0.6829 -0.6593  0.3811
 4426SOL    HW224741   0.052   4.340   5.101 -2.6575  1.9044 -0.5552
 4427SOL     OW24742   1.543   2.770   8.111 -0.2444  0.6662  0.3873
 4427SOL    HW124743   1.560   2.681   8.141 -2.0054  1.5625  4.0758
 4427SOL    HW224744   1.623   2.786   8.060  0.5014 -1.0815  1.0125
 4428SOL     OW24745   2.106   2.204   0.940  0.3208 -0.3766  0.3116
 4428SOL    HW124746   2.140   2.210   1.029  0.2814 -0.2283  0.3167
 4428SOL    HW224747   2.123   2.296   0.919  3.0268 -0.5147  1.8683
 4429SOL     OW24748   1.526   0.867   5.749  0.4295 -0.1350  0.7622
 4429SOL    HW124749   1.621   0.873   5.742  0.2405  2.3107  0.1654
 4429SOL    HW224750   1.491   0.853   5.661  0.5031 -0.1141  0.7295
 4430SOL     OW24751   3.906   4.487   4.225 -0.4467 -0.1835  0.2742
 4430SOL    HW124752   3.972   4.493   4.294  0.8217 -2.7710 -0.7578
 4430SOL    HW224753   3.897   4.394   4.209 -1.3938  0.6983 -4.1959
 4431SOL     OW24754   4.122   2.437   7.242  0.4910 -0.0536  0.4804
 4431SOL    HW124755   4.082   2.521   7.264  1.5853  0.4649  0.4566
 4431SOL    HW224756   4.043   2.391   7.214  0.8131 -0.1098 -0.3376
 4432SOL     OW24757   3.853   0.214   7.536  0.0590 -0.3676 -0.4090
 4432SOL    HW124758   3.867   0.139   7.478 -0.1232 -0.7224  0.0015
 4432SOL    HW224759   3.901   0.188   7.616  0.6528  1.2455 -0.2459
 4433SOL     OW24760   2.299   2.101   0.006  0.6581  0.1619 -0.2160
 4433SOL    HW124761   2.353   2.050  17.622 -0.1070  1.4932 -2.0223
 4433SOL    HW224762   2.302   2.029   0.069  0.8688  0.2339 -0.1450
 4434SOL     OW24763   2.701   0.626   3.776 -0.5996 -0.7252 -1.2117
 4434SOL    HW124764   2.768   0.675   3.729 -2.4393  1.5760 -1.4562
 4434SOL    HW224765   2.725   0.534   3.766 -0.5095 -0.7367 -0.9059
 4435SOL     OW24766   2.790   3.516   4.079 -0.0344 -0.0024 -0.1322
 4435SOL    HW124767   2.776   3.596   4.131  0.6438 -0.4275  0.7109
 4435SOL    HW224768   2.841   3.555   4.008  1.0003 -1.7683 -0.3627
 4436SOL     OW24769   1.813   0.295   9.106 -0.0368 -0.1005  0.1456
 4436SOL    HW124770   1.844   0.255   9.187 -0.8295  0.2179  0.6007
 4436SOL    HW224771   1.898   0.332   9.080  0.7972 -0.2205  2.7205
 4437SOL     OW24772   0.358   4.521  15.604 -0.5339  0.3765 -0.0699
 4437SOL    HW124773   0.281   4.464  15.597  0.5068 -1.0094 -0.2588
 4437SOL    HW224774   0.327   4.584  15.668 -2.4325  0.4401 -1.0640
 4438SOL     OW24775   1.191   2.024   5.385  0.0118 -0.0827 -0.0537
 4438SOL    HW124776   1.114   1.982   5.423  0.5371 -1.0090 -0.0059
 4438SOL    HW224777   1.266   1.971   5.411  1.2690  1.3425 -0.7501
 4439SOL     OW24778   0.092   1.729   5.662  0.3379 -0.0007 -0.2040
 4439SOL    HW124779   0.089   1.705   5.569 -1.5543 -1.5664  0.2385
 4439SOL    HW224780   0.114   1.822   5.655 -0.7615  0.1889 -1.1393
 4440SOL     OW24781   0.554   1.566  11.159 -0.1984 -0.1809  0.2222
 4440SOL    HW124782   0.534   1.629  11.228  1.7824  0.7222 -0.0150
 4440SOL    HW224783   0.520   1.621  11.089  0.9857 -0.4523 -0.5715
 4441SOL     OW24784   3.349   3.429  12.404  0.2714  0.3623  0.0706
 4441SOL    HW124785   3.286   3.500  12.421  1.4628  1.2515  0.7831
 4441SOL    HW224786   3.338   3.411  12.311 -0.5194 -0.0738  0.2482
 4442SOL     OW24787   4.105   4.553   9.483 -0.5349 -0.3956  0.2034
 4442SOL    HW124788   4.061   4.590   9.407  0.3321  2.3809  1.0368
 4442SOL    HW224789   4.092   4.626   9.544  2.5139  0.7015 -0.4843
 4443SOL     OW24790   3.266   3.761   5.618 -0.5379 -0.1782  0.9680
 4443SOL    HW124791   3.270   3.677   5.663 -2.3056 -0.6504  0.2261
 4443SOL    HW224792   3.311   3.820   5.679 -0.0188 -0.0884  0.5052
 4444SOL     OW24793   3.219   3.670   0.580  0.0203 -0.3844 -0.2131
 4444SOL    HW124794   3.245   3.698   0.668 -1.8860  1.0630 -0.1195
 4444SOL    HW224795   3.125   3.673   0.594  0.1354  3.0518 -0.3749
 4445SOL     OW24796   1.999   3.169   0.953 -0.3740 -0.6441 -0.1762
 4445SOL    HW124797   1.936   3.185   0.883  0.6997  1.1765 -0.7163
 4445SOL    HW224798   1.985   3.230   1.025  0.0517  0.1472 -0.7692
 4446SOL     OW24799   2.836   0.354  16.937  0.1457  0.2005  0.1911
 4446SOL    HW124800   2.840   0.365  17.032 -0.5348  0.2897  0.2103
 4446SOL    HW224801   2.919   0.384  16.900 -1.0777  4.1134  0.5768
 4447SOL     OW24802   2.929   4.438   1.319  0.0632 -0.2445  0.7178
 4447SOL    HW124803   3.023   4.448   1.334 -0.6263  3.2917  2.6195
 4447SOL    HW224804   2.914   4.393   1.402  2.3145 -2.8135 -0.2528
 4448SOL     OW24805   1.805   1.354   0.755  0.5469  0.2884 -0.0025
 4448SOL    HW124806   1.744   1.295   0.798  0.2238  1.9086  1.7298
 4448SOL    HW224807   1.808   1.419   0.825  0.3264  1.2308 -0.8536
 4449SOL     OW24808   3.014   1.052   3.403  0.2984 -1.0581  0.2963
 4449SOL    HW124809   3.092   1.107   3.403 -0.5528  0.1562  1.6770
 4449SOL    HW224810   3.041   0.973   3.356  2.9325  0.2345 -0.3471
 4450SOL     OW24811   2.915   4.394   4.805  0.0798 -0.3371 -0.1670
 4450SOL    HW124812   2.980   4.422   4.869 -0.0059 -0.2067 -0.1381
 4450SOL    HW224813   2.837   4.444   4.829  1.3919  0.8134  1.6387
 4451SOL     OW24814   2.697   1.404   2.649  0.2169 -0.1409 -0.1344
 4451SOL    HW124815   2.784   1.425   2.615  0.5547  0.6023  1.2098
 4451SOL    HW224816   2.640   1.432   2.576 -1.6824 -2.3496  0.4919
 4452SOL     OW24817   0.573   1.327  10.701 -0.0698  0.3580  0.0269
 4452SOL    HW124818   0.637   1.378  10.651 -0.3607  0.3480 -0.3623
 4452SOL    HW224819   0.584   1.365  10.788  1.2145 -1.7198  0.7744
 4453SOL     OW24820   1.230   1.125   6.992 -0.2152 -0.3367 -0.2493
 4453SOL    HW124821   1.310   1.072   6.991  1.7816  2.6732  0.6088
 4453SOL    HW224822   1.252   1.205   6.944 -1.2858  0.6217  0.8349
 4454SOL     OW24823   1.807   0.601   2.729 -0.0461 -0.5831  0.1917
 4454SOL    HW124824   1.799   0.662   2.656 -0.7676  1.2940  1.8381
 4454SOL    HW224825   1.875   0.653   2.771 -0.1977 -0.2552  0.0282
 4455SOL     OW24826   2.916   3.647   4.587  0.4221  0.2751  0.6218
 4455SOL    HW124827   2.929   3.583   4.518 -0.4704  1.3654 -0.5461
 4455SOL    HW224828   2.914   3.733   4.546  0.3235 -1.2854 -2.6224
 4456SOL     OW24829   3.243   4.122   6.800 -0.2477 -0.5190 -0.6890
 4456SOL    HW124830   3.266   4.214   6.795  1.1559 -0.8977 -1.3127
 4456SOL    HW224831   3.292   4.099   6.879  1.8360 -0.0492 -1.8372
 4457SOL     OW24832   2.767   2.069   9.576 -0.0402  0.0237 -0.4992
 4457SOL    HW124833   2.796   2.026   9.496  1.4447  1.8979 -0.9812
 4457SOL    HW224834   2.740   2.155   9.543  0.7614 -0.6445 -2.9057
 4458SOL     OW24835   0.051   0.163   0.522  0.2228 -0.1432  0.4440
 4458SOL    HW124836   4.684   0.205   0.519 -1.3034 -3.3415 -0.4532
 4458SOL    HW224837   0.025   0.078   0.555 -1.3206  0.7067  1.4045
 4459SOL     OW24838   4.174   0.602  17.382 -0.2314 -0.0599 -0.7532
 4459SOL    HW124839   4.183   0.694  17.356  2.7515 -0.3455 -0.6648
 4459SOL    HW224840   4.111   0.570  17.318 -1.4607 -0.7353  0.7896
 4460SOL     OW24841   3.708   2.803  11.238 -0.3573 -0.4206 -0.3828
 4460SOL    HW124842   3.677   2.721  11.278  0.7734 -1.6595 -2.0021
 4460SOL    HW224843   3.627   2.852  11.247 -1.0803 -1.4126 -1.3723
 4461SOL     OW24844   0.907   0.767   8.664  0.5874 -0.1272  0.6121
 4461SOL    HW124845   0.993   0.742   8.698  1.4241 -0.5611 -1.8365
 4461SOL    HW224846   0.854   0.748   8.741 -1.2216  0.8224 -0.4099
 4462SOL     OW24847   1.408   1.491   1.544 -0.1288 -0.4546 -0.4900
 4462SOL    HW124848   1.325   1.519   1.582 -0.0781  0.2081 -0.8846
 4462SOL    HW224849   1.429   1.421   1.606  1.8771  1.6191  1.1680
 4463SOL     OW24850   1.929   3.707   3.698 -0.2301  0.1750  0.5196
 4463SOL    HW124851   1.927   3.797   3.663  1.1927  0.2497  0.6179
 4463SOL    HW224852   1.837   3.722   3.717  0.7262  4.6601  1.8464
 4464SOL     OW24853   1.322   2.542   6.769  0.1103  0.2966 -0.2804
 4464SOL    HW124854   1.411   2.565   6.742  1.0489 -1.3635  1.4087
 4464SOL    HW224855   1.325   2.447   6.756 -0.0350  0.2568 -0.0338
 4465SOL     OW24856   0.271   4.691   6.422 -0.0142 -0.0287 -0.2073
 4465SOL    HW124857   0.244   4.631   6.353 -0.5475 -0.0214 -0.0099
 4465SOL    HW224858   0.314   4.630   6.482  0.9853  0.9927  0.1033
 4466SOL     OW24859   2.127   4.599   6.964 -0.5256  0.0476 -0.1134
 4466SOL    HW124860   2.110   4.543   7.039  3.4978 -1.5126 -0.3595
 4466SOL    HW224861   2.041   4.604   6.921  0.1402  1.7695 -1.2988
 4467SOL     OW24862   2.433   3.590   8.788 -0.4145 -0.1101  0.2110
 4467SOL    HW124863   2.493   3.539   8.734  1.1241  2.5241 -0.5867
 4467SOL    HW224864   2.425   3.537   8.867 -0.7555  0.0336  0.2740
 4468SOL     OW24865   3.133   3.442  17.116  0.5558 -0.1179 -0.1963
 4468SOL    HW124866   3.042   3.443  17.145  1.1832  2.0876  1.7079
 4468SOL    HW224867   3.119   3.460  17.023 -0.6046  1.2856  0.2396
 4469SOL     OW24868   1.027   2.494  13.795 -0.0058  0.0018 -0.4043
 4469SOL    HW124869   1.003   2.440  13.720  0.2317 -0.8791  0.1603
 4469SOL    HW224870   1.107   2.451  13.823 -1.2275 -0.9361  1.6734
 4470SOL     OW24871   3.100   3.036   7.737  0.1788 -0.1703  0.6492
 4470SOL    HW124872   3.193   3.020   7.723 -0.1792 -0.2434 -1.7244
 4470SOL    HW224873   3.101   3.132   7.742  0.2425 -0.1041 -0.6747
 4471SOL     OW24874   4.604   2.953  10.281 -0.0329  0.7933 -0.2172
 4471SOL    HW124875   4.678   2.962  10.221  0.6056  0.8632  0.5786
 4471SOL    HW224876   4.531   2.928  10.224 -0.7865  0.3057  0.9561
 4472SOL     OW24877   3.662   3.279  17.099  0.3091 -0.1112  0.1821
 4472SOL    HW124878   3.728   3.252  17.164  0.6674  1.7371  0.5877
 4472SOL    HW224879   3.587   3.300  17.154 -0.1255 -1.7741  0.2230
 4473SOL     OW24880   1.907   3.661   8.774  0.0743  0.1232  0.0307
 4473SOL    HW124881   1.868   3.603   8.839 -0.8020  0.0419 -0.5725
 4473SOL    HW224882   1.995   3.625   8.767 -0.4114 -1.0192 -0.1985
 4474SOL     OW24883   4.681   1.573   6.040  0.1998  0.2181  0.1465
 4474SOL    HW124884   0.020   1.541   6.109  0.9480 -1.5728 -1.2855
 4474SOL    HW224885   4.681   1.500   5.977 -0.8975  0.9835 -0.7580
 4475SOL     OW24886   3.488   0.473   2.389 -0.4990  0.1919  0.3973
 4475SOL    HW124887   3.474   0.558   2.431 -1.2821 -0.0040  0.5404
 4475SOL    HW224888   3.578   0.457   2.417  0.2490  0.4715 -1.8091
 4476SOL     OW24889   2.319   1.076   9.953 -0.5256  0.6926 -0.2279
 4476SOL    HW124890   2.270   1.119   9.883 -0.0720  2.2382  0.3843
 4476SOL    HW224891   2.264   1.003   9.980  1.1336 -1.1886 -1.8779
 4477SOL     OW24892   2.989   1.036  16.061 -0.1168 -0.4681  0.5984
 4477SOL    HW124893   2.998   0.947  16.025  1.5862 -0.3852  0.8346
 4477SOL    HW224894   3.034   1.034  16.145  1.4289  0.9500 -0.1911
 4478SOL     OW24895   4.284   0.069   2.863 -0.1945 -0.2901 -0.3754
 4478SOL    HW124896   4.272   0.155   2.823  1.0244  0.4205  0.7698
 4478SOL    HW224897   4.376   0.050   2.843  0.0655 -1.4106  1.8202
 4479SOL     OW24898   1.249   1.318   2.969  0.0788  0.3538  0.2460
 4479SOL    HW124899   1.234   1.296   3.060  1.0130  5.2624  1.5804
 4479SOL    HW224900   1.200   1.240   2.940  1.1597  0.3829 -1.7132
 4480SOL     OW24901   2.772   2.461  11.949  0.4441 -0.9089  0.2481
 4480SOL    HW124902   2.738   2.550  11.953 -0.1057 -1.0406 -1.8591
 4480SOL    HW224903   2.837   2.465  12.019  0.5389 -1.2916  0.1814
 4481SOL     OW24904   0.106   3.839  17.641  0.5348  0.6369 -0.6548
 4481SOL    HW124905   0.072   3.874  17.559 -2.2508 -0.6213 -0.0695
 4481SOL    HW224906   0.161   3.910  17.672  0.4002 -0.8123  2.9345
 4482SOL     OW24907   4.447   1.853   3.976  0.3375 -0.3080  0.0772
 4482SOL    HW124908   4.409   1.823   3.894 -2.3891  2.5702  0.2920
 4482SOL    HW224909   4.529   1.803   3.980  0.8002  0.3348 -1.5032
 4483SOL     OW24910   2.402   3.748   8.341  0.3369  0.3838  0.1019
 4483SOL    HW124911   2.403   3.838   8.374  2.0026  0.3291  0.2185
 4483SOL    HW224912   2.475   3.706   8.386 -0.9451 -0.1896  1.6142
 4484SOL     OW24913   3.635   2.768  12.113  0.3236 -1.0924  0.4746
 4484SOL    HW124914   3.594   2.682  12.116 -1.7351 -0.1581 -0.8238
 4484SOL    HW224915   3.718   2.752  12.158 -0.1277  1.5175  2.2655
 4485SOL     OW24916   2.237   2.676   2.067 -0.8869  0.0467 -0.0741
 4485SOL    HW124917   2.230   2.738   2.140  0.0384 -2.1722  1.9399
 4485SOL    HW224918   2.159   2.624   2.087  0.2997 -1.7374 -0.0872
 4486SOL     OW24919   3.061   4.385   6.633  0.4591 -0.2280  0.6215
 4486SOL    HW124920   3.022   4.457   6.684  0.7587 -0.5790  1.3460
 4486SOL    HW224921   3.148   4.423   6.621 -0.2607  1.5237  0.9292
 4487SOL     OW24922   2.008   2.551   2.148  0.0576  0.3987 -0.3612
 4487SOL    HW124923   1.964   2.469   2.125  1.5891  0.0450 -2.0368
 4487SOL    HW224924   1.980   2.555   2.239 -0.3863  0.2384 -0.4900
 4488SOL     OW24925   0.947   4.548   5.696  0.8906  0.3761 -0.1140
 4488SOL    HW124926   0.958   4.490   5.621  0.7828  1.5568 -1.0430
 4488SOL    HW224927   0.905   4.626   5.660 -0.8635 -0.1571  0.7849
 4489SOL     OW24928   1.168   0.092   2.624  0.0413 -0.6372  0.8690
 4489SOL    HW124929   1.181   0.111   2.531 -0.6177 -3.6476  0.1671
 4489SOL    HW224930   1.251   0.124   2.658  0.6740 -1.8169  0.4490
 4490SOL     OW24931   2.736   2.138  16.519 -0.4971 -0.2603  0.2200
 4490SOL    HW124932   2.730   2.183  16.603  1.1175  0.3225  0.0305
 4490SOL    HW224933   2.738   2.210  16.455 -1.1297 -2.2650 -2.0388
 4491SOL     OW24934   0.611   0.949   8.655  0.2576 -0.2514 -0.8165
 4491SOL    HW124935   0.549   1.022   8.649 -1.7268 -1.8144  1.3065
 4491SOL    HW224936   0.665   0.970   8.578 -1.7951 -0.1908 -2.2310
 4492SOL     OW24937   1.643   0.487   7.376  0.3082 -0.3794 -0.0423
 4492SOL    HW124938   1.572   0.446   7.426  0.2382  0.3851  0.4789
 4492SOL    HW224939   1.714   0.428   7.402 -0.0733 -0.6505  0.3763
 4493SOL     OW24940   3.678   0.411   7.793  0.1775  0.1893  0.0119
 4493SOL    HW124941   3.640   0.328   7.766 -0.1254  1.1620 -2.5649
 4493SOL    HW224942   3.640   0.404   7.880 -1.7301 -1.5861 -0.9536
 4494SOL     OW24943   4.101   3.673   8.309  0.0309  0.1922 -0.0832
 4494SOL    HW124944   4.159   3.620   8.254  0.0100 -0.8436  0.8965
 4494SOL    HW224945   4.172   3.704   8.365 -0.8168  0.9643  0.5597
 4495SOL     OW24946   1.057   4.111   9.148 -0.5429  0.7206 -0.3109
 4495SOL    HW124947   1.020   4.161   9.221 -0.4285 -1.2585  1.0998
 4495SOL    HW224948   1.044   4.020   9.175 -3.8219  0.7393 -1.8164
 4496SOL     OW24949   0.385   4.095   2.518 -0.7043 -0.0529 -0.7304
 4496SOL    HW124950   0.465   4.044   2.507  0.0977  0.8535  1.0340
 4496SOL    HW224951   0.408   4.162   2.583 -0.0417  1.3418 -2.3916
 4497SOL     OW24952   4.099   2.754  14.976  0.7785 -0.2988  0.1790
 4497SOL    HW124953   4.158   2.814  14.930 -1.2270  1.7478  0.2853
 4497SOL    HW224954   4.157   2.731  15.048 -1.6767  1.1920  2.6280
 4498SOL     OW24955   3.383   0.394   6.828  0.7400 -0.3473 -0.5655
 4498SOL    HW124956   3.362   0.458   6.760 -0.4104 -1.2714 -1.0904
 4498SOL    HW224957   3.434   0.444   6.891  0.6802 -0.2017 -0.6338
 4499SOL     OW24958   2.308   1.641   0.172  0.0639 -0.2384 -0.2786
 4499SOL    HW124959   2.241   1.643   0.241 -0.4547 -0.9344 -0.7561
 4499SOL    HW224960   2.386   1.653   0.225  0.0821 -1.6612  0.0184
 4500SOL     OW24961   2.219   0.523  16.182  0.8769  0.4973  0.0484
 4500SOL    HW124962   2.155   0.590  16.207 -2.4819 -2.5234 -0.5886
 4500SOL    HW224963   2.262   0.578  16.116  1.3368 -0.5884 -0.5415
 4501SOL     OW24964   3.211   0.074  15.029  0.0519  0.6805  0.5575
 4501SOL    HW124965   3.204   0.069  14.933  1.5235  0.0667  0.4944
 4501SOL    HW224966   3.253   0.160  15.029  3.6804 -1.1279  1.3717
 4502SOL     OW24967   1.585   0.982  10.728  0.1804 -0.0590 -0.1546
 4502SOL    HW124968   1.672   1.017  10.710  1.0674 -1.4430  1.5375
 4502SOL    HW224969   1.542   0.990  10.643 -0.1613  0.3480  0.0541
 4503SOL     OW24970   2.895   4.187   5.905 -0.2431 -0.1787 -0.0761
 4503SOL    HW124971   2.892   4.123   5.833  0.2439 -1.3725  0.9656
 4503SOL    HW224972   2.822   4.160   5.960 -1.0320  2.5182  0.1886
 4504SOL     OW24973   0.870   4.693  17.067 -0.8604  0.0959  0.0000
 4504SOL    HW124974   0.913   4.669  17.150  0.9576  1.5563 -0.5151
 4504SOL    HW224975   0.782   4.696  17.104 -1.0586  3.0971 -0.7487
 4505SOL     OW24976   1.816   1.954  11.853 -0.0604 -0.5784  0.4548
 4505SOL    HW124977   1.807   2.049  11.862 -0.3372 -0.4281 -1.3824
 4505SOL    HW224978   1.908   1.946  11.878  0.8383 -0.8974 -3.0049
 4506SOL     OW24979   0.119   0.457   0.713  0.1582 -0.2663 -0.4363
 4506SOL    HW124980   0.047   0.421   0.766 -1.0476  0.5167 -1.5303
 4506SOL    HW224981   0.064   0.512   0.656 -1.5382  0.6646  2.0973
 4507SOL     OW24982   1.703   2.114   6.391  0.1553  0.4865 -0.7678
 4507SOL    HW124983   1.694   2.095   6.484  1.8332  1.0521 -0.5012
 4507SOL    HW224984   1.746   2.033   6.363 -1.8710 -0.7857 -0.2614
 4508SOL     OW24985   2.128   3.479  14.720 -0.2157  0.1566  0.6526
 4508SOL    HW124986   2.142   3.573  14.719 -0.4509  0.1903  0.6722
 4508SOL    HW224987   2.209   3.437  14.750 -1.3927 -2.0305  0.8114
 4509SOL     OW24988   1.953   0.074   5.855  0.5122 -0.2980 -0.3766
 4509SOL    HW124989   2.024   0.137   5.840  0.4373 -0.4028 -1.1782
 4509SOL    HW224990   1.992   4.718   5.809  0.1916 -0.8483  0.2326
 4510SOL     OW24991   1.586   0.151   7.541  0.1890 -0.1521 -0.0749
 4510SOL    HW124992   1.640   0.212   7.593  0.1468  0.9092 -1.2607
 4510SOL    HW224993   1.635   0.069   7.542 -0.4516 -0.5325 -0.4713
 4511SOL     OW24994   3.001   1.615  16.314  0.3261  0.0699  0.3276
 4511SOL    HW124995   2.932   1.561  16.274  0.0228  1.4717 -1.0280
 4511SOL    HW224996   2.954   1.666  16.379 -0.8563 -0.0631 -0.4187
 4512SOL     OW24997   0.620   1.594   3.989  0.2557  0.3442  0.1209
 4512SOL    HW124998   0.606   1.629   3.901  2.1825  0.8759  0.0296
 4512SOL    HW224999   0.686   1.528   3.973 -2.1572 -2.7064  2.8258
 4513SOL     OW25000   0.528   4.037   1.088  0.4393  0.7275  0.3164
 4513SOL    HW125001   0.594   4.094   1.049 -0.4944 -0.1248 -2.4735
 4513SOL    HW225002   0.591   3.967   1.107 -0.5837 -0.1800  0.3577
 4514SOL     OW25003   2.921   4.682  15.476  0.2006 -0.4261 -0.0613
 4514SOL    HW125004   2.967   0.010  15.545 -1.0757 -0.5524  0.8716
 4514SOL    HW225005   2.905   0.043  15.424 -1.6736 -1.2914 -0.8387
 4515SOL     OW25006   2.807   2.554   2.565  0.0178 -0.5873  0.1653
 4515SOL    HW125007   2.832   2.497   2.492 -0.8966 -1.8000  0.7985
 4515SOL    HW225008   2.821   2.646   2.542  0.9396 -0.0362  3.0338
 4516SOL     OW25009   1.988   4.406   4.682  0.3571 -0.0473  0.3845
 4516SOL    HW125010   2.029   4.369   4.604  0.1770 -0.6150  0.5565
 4516SOL    HW225011   1.947   4.485   4.647 -0.3211 -0.6159 -0.0746
 4517SOL     OW25012   4.314   3.027  12.206  0.2231  0.0402 -0.3144
 4517SOL    HW125013   4.275   3.106  12.244 -0.4556 -1.0861  1.2921
 4517SOL    HW225014   4.405   3.045  12.227  0.3745  1.1473 -1.8611
 4518SOL     OW25015   2.440   3.425   0.513  0.0375 -0.4920  0.1037
 4518SOL    HW125016   2.415   3.357   0.576 -0.4341 -0.3704  0.0488
 4518SOL    HW225017   2.510   3.378   0.467 -0.0349 -2.0898  1.6075
 4519SOL     OW25018   0.809   1.353   1.086 -0.0204 -0.1769  0.3308
 4519SOL    HW125019   0.856   1.416   1.031  1.2882 -1.6829 -0.2477
 4519SOL    HW225020   0.877   1.349   1.152 -1.1116  0.8109  1.5096
 4520SOL     OW25021   2.542   2.508  16.485  0.3778  0.0336 -0.6366
 4520SOL    HW125022   2.482   2.453  16.434  1.7429 -1.4892 -0.6126
 4520SOL    HW225023   2.497   2.592  16.478 -0.0113 -0.1044  0.2988
 4521SOL     OW25024   2.774   0.412   1.508  0.1169  0.1101  0.1310
 4521SOL    HW125025   2.813   0.396   1.594  1.4608 -0.4115 -0.5746
 4521SOL    HW225026   2.750   0.505   1.511 -2.8530 -0.6725  0.2406
 4522SOL     OW25027   4.417   2.268   3.075 -0.2578 -0.1965  0.0104
 4522SOL    HW125028   4.426   2.357   3.040 -1.1009 -0.4542 -0.8400
 4522SOL    HW225029   4.366   2.223   3.008  0.2993  0.2754 -0.7267
 4523SOL     OW25030   1.081   0.018   9.253  0.7058 -0.1795 -0.4996
 4523SOL    HW125031   1.154   0.041   9.310  0.8630  0.0439 -0.7920
 4523SOL    HW225032   1.035   4.666   9.298  0.3492 -0.5682 -1.4733
 4524SOL     OW25033   1.002   4.307  11.292 -0.5350 -0.2763 -0.4330
 4524SOL    HW125034   1.000   4.262  11.207  1.4335 -2.3578  0.6266
 4524SOL    HW225035   0.986   4.239  11.357 -0.1859 -1.0094 -1.1193
 4525SOL     OW25036   1.118   4.007   9.491  0.2001 -0.2548 -1.0016
 4525SOL    HW125037   1.095   3.925   9.448 -1.3489  0.3336 -1.3131
 4525SOL    HW225038   1.156   3.975   9.572 -2.3240  1.6625  0.9480
 4526SOL     OW25039   3.409   3.695  11.113  0.3596 -0.1093  0.1357
 4526SOL    HW125040   3.477   3.738  11.165  0.4010  0.0367 -0.0402
 4526SOL    HW225041   3.465   3.639  11.059  0.3952  0.7985 -0.7578
 4527SOL     OW25042   4.337   2.557  15.996  0.9625 -1.0921 -0.0956
 4527SOL    HW125043   4.309   2.648  16.008  0.8551 -1.1183 -0.1426
 4527SOL    HW225044   4.263   2.510  16.036  1.5020 -1.7904  0.0757
 4528SOL     OW25045   0.387   0.100   3.527  0.1550  0.4903  0.3110
 4528SOL    HW125046   0.340   0.078   3.447  0.5147  0.6574  0.0556
 4528SOL    HW225047   0.329   0.162   3.571 -0.7262  0.0222 -0.2009
 4529SOL     OW25048   2.640   2.607   2.320  0.0310  0.2433 -0.0735
 4529SOL    HW125049   2.587   2.682   2.348  1.5258  0.6278  1.7173
 4529SOL    HW225050   2.721   2.636   2.360  1.3490 -1.3690 -1.5820
 4530SOL     OW25051   2.471   0.333   8.812  0.4845  0.6744 -0.8028
 4530SOL    HW125052   2.468   0.368   8.900  0.8424  0.5313 -0.7316
 4530SOL    HW225053   2.559   0.296   8.821  0.6928  0.9124 -1.8778
 4531SOL     OW25054   0.498   2.009  12.716 -0.6623 -0.5214 -0.0561
 4531SOL    HW125055   0.458   2.040  12.635 -1.1396 -0.7624  0.0858
 4531SOL    HW225056   0.564   1.951  12.678 -0.2332  0.1987 -0.4115
 4532SOL     OW25057   2.036   4.473   7.869 -0.4775 -0.6112 -0.1202
 4532SOL    HW125058   1.965   4.492   7.808  0.8307 -0.3149 -1.5303
 4532SOL    HW225059   2.094   4.437   7.802  0.2496  2.2196 -1.0214
 4533SOL     OW25060   1.725   1.930   4.096 -0.0745  0.2318 -0.2100
 4533SOL    HW125061   1.733   1.936   4.192  1.0934 -1.0318 -0.2213
 4533SOL    HW225062   1.708   2.022   4.077 -3.0020  0.1394  1.9620
 4534SOL     OW25063   2.234   0.073   6.802 -0.3513  0.3092  0.9174
 4534SOL    HW125064   2.243   0.137   6.872 -0.9303  0.8966  0.4469
 4534SOL    HW225065   2.197   0.002   6.854 -0.4810  0.0304  0.4461
 4535SOL     OW25066   1.654   4.682  15.851  0.0430  0.1276  0.1527
 4535SOL    HW125067   1.588   4.620  15.883  1.2154 -1.3944 -0.3908
 4535SOL    HW225068   1.720   4.621  15.820 -1.3298 -2.0863  1.5402
 4536SOL     OW25069   1.270   2.103   2.308  0.2731 -0.3120 -0.4140
 4536SOL    HW125070   1.287   2.148   2.225 -1.2672 -1.7149 -1.4871
 4536SOL    HW225071   1.343   2.042   2.315  0.9494  0.5939  0.4184
 4537SOL     OW25072   4.148   2.762  16.276  0.0920 -0.0757  0.1636
 4537SOL    HW125073   4.089   2.835  16.256 -0.4495 -0.7310 -0.6446
 4537SOL    HW225074   4.186   2.789  16.360  1.4779  0.9764 -0.7912
 4538SOL     OW25075   3.225   1.607  12.708  0.4491  0.1204  0.1294
 4538SOL    HW125076   3.154   1.550  12.678  0.3440  1.0456 -1.3501
 4538SOL    HW225077   3.181   1.688  12.681 -2.8605 -0.7862  2.7085
 4539SOL     OW25078   0.808   2.773   8.228  0.4347  0.2477  0.3714
 4539SOL    HW125079   0.796   2.703   8.164  0.8362  1.9539 -1.6051
 4539SOL    HW225080   0.837   2.722   8.303  0.6336  0.4741  0.4497
 4540SOL     OW25081   3.265   3.998   0.422 -0.7090 -0.4321 -0.4282
 4540SOL    HW125082   3.176   4.017   0.451 -0.4797  0.6186 -0.4164
 4540SOL    HW225083   3.262   3.912   0.380 -1.0172 -0.4038 -0.4624
 4541SOL     OW25084   0.402   1.638  13.200 -0.1064  0.3953 -0.7476
 4541SOL    HW125085   0.333   1.623  13.136  0.1417 -1.5171 -0.5548
 4541SOL    HW225086   0.408   1.733  13.190  1.6172  0.3814  0.1693
 4542SOL     OW25087   3.250   3.072   6.639 -0.8236 -0.4427 -0.1995
 4542SOL    HW125088   3.322   3.034   6.689 -0.2454  1.7048  0.6140
 4542SOL    HW225089   3.292   3.147   6.598 -0.1827  0.7467  2.6126
 4543SOL     OW25090   4.167   0.826  17.216  0.2258  0.0885 -0.1305
 4543SOL    HW125091   4.197   0.815  17.126 -0.7217  1.1492 -0.5860
 4543SOL    HW225092   4.107   0.900  17.203 -2.0733 -1.4590  1.5713
 4544SOL     OW25093   0.021   2.680   0.887  0.2310 -0.8002 -0.4537
 4544SOL    HW125094   4.689   2.603   0.912  1.8048 -0.8698  2.5140
 4544SOL    HW225095   0.021   2.661   0.793  0.0480 -2.5181 -0.1004
 4545SOL     OW25096   1.614   4.369   5.607  0.3470  0.1358  0.1197
 4545SOL    HW125097   1.533   4.420   5.617 -0.4602 -1.5923  2.5766
 4545SOL    HW225098   1.575   4.295   5.561 -2.1734  0.7677  1.2173
 4546SOL     OW25099   1.355   1.862   9.906  0.1500 -0.1946 -0.0546
 4546SOL    HW125100   1.426   1.801   9.926  0.5055  1.1388  2.7101
 4546SOL    HW225101   1.388   1.943   9.945  3.0285 -1.1298 -0.5453
 4547SOL     OW25102   4.518   3.053   3.372 -0.0486  0.3078 -0.1490
 4547SOL    HW125103   4.439   2.999   3.381 -0.3529  0.7946  0.0715
 4547SOL    HW225104   4.473   3.136   3.358  0.5587  0.7531  0.5679
 4548SOL     OW25105   3.715   0.096   7.973 -1.1302 -0.2303 -0.6149
 4548SOL    HW125106   3.748   0.155   8.040 -0.7405  0.2668 -1.2438
 4548SOL    HW225107   3.679   0.024   8.025 -4.1591  1.3331 -0.5756
 4549SOL     OW25108   0.153   0.294   0.279 -0.7054 -0.0099  0.3022
 4549SOL    HW125109   0.141   0.280   0.373 -0.6612 -0.7162  0.2030
 4549SOL    HW225110   0.161   0.204   0.248 -0.7562  0.0260  0.1825
 4550SOL     OW25111   1.180   0.012   3.624  0.2494  0.6081  0.2065
 4550SOL    HW125112   1.099   0.037   3.579  2.0957  3.1550 -1.6303
 4550SOL    HW225113   1.215   4.655   3.578  2.6450  2.7793 -1.4847
 4551SOL     OW25114   1.064   1.554   4.423  0.0413  0.3495  0.5839
 4551SOL    HW125115   0.969   1.567   4.415  0.1460  1.4233  1.0878
 4551SOL    HW225116   1.105   1.577   4.339 -0.8963 -1.1957 -0.3042
 4552SOL     OW25117   0.253   2.112   9.045  0.5318 -0.7629  0.2985
 4552SOL    HW125118   0.273   2.063   9.125  1.1558 -0.7785  0.1360
 4552SOL    HW225119   0.220   2.194   9.081  1.9381  0.6422 -1.6109
 4553SOL     OW25120   0.443   2.631   5.041  0.4252 -0.1097  0.4569
 4553SOL    HW125121   0.380   2.584   4.986  0.0395  0.7689  0.1313
 4553SOL    HW225122   0.391   2.705   5.071 -1.8659 -2.3312  1.9288
 4554SOL     OW25123   2.125   3.675  11.392 -0.0899  0.0378  0.0937
 4554SOL    HW125124   2.174   3.754  11.369 -1.9223  0.8692 -0.9282
 4554SOL    HW225125   2.059   3.680  11.323  1.7334 -2.3522 -1.8450
 4555SOL     OW25126   4.615   1.259   4.728  0.2665 -0.3539 -0.5065
 4555SOL    HW125127   4.670   1.186   4.755  0.1327 -0.6171 -0.9528
 4555SOL    HW225128   4.537   1.213   4.697 -2.9010  4.1360  0.6675
 4556SOL     OW25129   3.313   3.692  15.012 -0.8295  0.2929  0.2072
 4556SOL    HW125130   3.399   3.731  15.032 -0.2476  0.9104 -3.5466
 4556SOL    HW225131   3.281   3.662  15.097 -0.1223  1.0384  0.7422
 4557SOL     OW25132   0.481   0.547   7.387 -0.0108 -0.5761 -0.4101
 4557SOL    HW125133   0.476   0.619   7.324  0.9167 -0.0603  0.0972
 4557SOL    HW225134   0.389   0.539   7.410 -0.0711 -0.0193 -0.4653
 4558SOL     OW25135   3.405   0.969   4.105  0.1965  0.4975  0.0746
 4558SOL    HW125136   3.328   1.023   4.121 -0.3000 -0.6304  1.4701
 4558SOL    HW225137   3.440   0.950   4.192  0.5000  0.6864 -0.0060
 4559SOL     OW25138   0.452   0.512  15.105 -0.4157 -0.3998  0.1809
 4559SOL    HW125139   0.428   0.504  15.013  2.2310 -0.8711 -0.4689
 4559SOL    HW225140   0.535   0.465  15.114 -2.0655 -3.0064  1.7175
 4560SOL     OW25141   4.693   3.873  14.691 -0.8527  0.1845 -0.3273
 4560SOL    HW125142   4.635   3.799  14.702  1.4154 -1.4804  0.4901
 4560SOL    HW225143   4.624   3.933  14.663 -1.9792  0.2129  2.4440
 4561SOL     OW25144   0.681   2.997   5.489  0.0829 -1.0782  0.0016
 4561SOL    HW125145   0.623   2.931   5.450 -2.6259  0.9601  0.5564
 4561SOL    HW225146   0.728   3.021   5.409  0.2642 -1.1359  0.0919
 4562SOL     OW25147   4.077   1.575   5.951 -0.2019 -0.1168 -0.2465
 4562SOL    HW125148   4.128   1.497   5.974  1.0455  0.5044 -0.8607
 4562SOL    HW225149   4.146   1.635   5.921 -0.0235 -0.5651 -0.7402
 4563SOL     OW25150   2.896   1.289   8.278  0.2630 -0.0196 -0.0788
 4563SOL    HW125151   2.974   1.345   8.284 -0.5645  1.3937 -2.3103
 4563SOL    HW225152   2.929   1.218   8.223 -0.0251 -1.5216  1.7051
 4564SOL     OW25153   2.171   2.727   7.568  0.9267  0.2967  0.0117
 4564SOL    HW125154   2.139   2.764   7.485 -1.8358  0.5338  1.1753
 4564SOL    HW225155   2.201   2.640   7.541 -1.0646 -0.7817  1.2900
 4565SOL     OW25156   3.577   0.318   4.558  0.2957 -0.2923  0.2385
 4565SOL    HW125157   3.585   0.223   4.545  0.3632 -0.3524  0.7239
 4565SOL    HW225158   3.566   0.321   4.653  1.9052 -0.6051  0.4325
 4566SOL     OW25159   0.605   0.488  15.465 -0.1786  0.3155  0.2079
 4566SOL    HW125160   0.632   0.491  15.557 -0.5451 -2.5741  0.4048
 4566SOL    HW225161   0.654   0.557  15.420  2.7248 -1.3355  0.8204
 4567SOL     OW25162   2.926   1.028   9.293 -0.3351 -0.3617  0.6321
 4567SOL    HW125163   2.998   0.996   9.239 -0.9244  0.8968 -0.9192
 4567SOL    HW225164   2.880   1.060   9.215  2.8732 -0.0088 -1.1099
 4568SOL     OW25165   3.287   2.050   5.297  0.2718  0.1557  0.8646
 4568SOL    HW125166   3.333   1.966   5.291 -0.5762 -0.1965 -0.6473
 4568SOL    HW225167   3.364   2.103   5.279  0.7003 -1.0686 -0.9313
 4569SOL     OW25168   4.344   1.887  10.509  0.4141  0.1415 -0.1225
 4569SOL    HW125169   4.394   1.808  10.487  0.2194 -0.0040 -0.0462
 4569SOL    HW225170   4.413   1.929  10.559  0.3926 -1.8567  1.6097
 4570SOL     OW25171   1.476   2.866  10.830  0.4100 -0.5330  0.2625
 4570SOL    HW125172   1.507   2.900  10.747 -0.7556 -0.8194 -0.2939
 4570SOL    HW225173   1.418   2.939  10.854  0.0591 -0.9132  0.5876
 4571SOL     OW25174   0.431   4.145   0.238  0.8934 -0.2610 -0.2918
 4571SOL    HW125175   0.495   4.151   0.309 -0.6702  2.1609  0.9189
 4571SOL    HW225176   0.356   4.172   0.290  0.4520 -0.8439 -0.6292
 4572SOL     OW25177   2.959   0.379  11.508  0.5008 -0.3944 -0.5303
 4572SOL    HW125178   2.967   0.336  11.423  0.0955  0.6453 -1.0936
 4572SOL    HW225179   2.864   0.391  11.503  0.3472 -0.6770  1.8703
 4573SOL     OW25180   2.075   2.381   4.048  0.0089  0.8194  0.3622
 4573SOL    HW125181   2.067   2.366   4.142  1.7979 -1.9170  0.0845
 4573SOL    HW225182   2.168   2.372   4.027 -0.4318  0.9058 -1.6153
 4574SOL     OW25183   0.698   0.696   2.129  0.1581  0.4976 -0.5224
 4574SOL    HW125184   0.665   0.609   2.109  1.7136  0.3001 -2.2878
 4574SOL    HW225185   0.791   0.686   2.109  0.4116  0.7544  0.5357
 4575SOL     OW25186   0.802   3.216   6.147 -0.3011 -0.3956  0.1018
 4575SOL    HW125187   0.718   3.263   6.151 -0.6566 -0.9065 -1.1159
 4575SOL    HW225188   0.835   3.263   6.070 -2.7802  1.4730  0.1689
 4576SOL     OW25189   3.817   0.636   2.604 -0.0031 -0.0650  0.3696
 4576SOL    HW125190   3.906   0.618   2.575 -0.0902 -3.8752  2.5172
 4576SOL    HW225191   3.760   0.559   2.597 -0.6237  0.4135  0.0989
 4577SOL     OW25192   1.013   4.015  12.146 -0.3436 -0.2963  0.3919
 4577SOL    HW125193   1.067   3.966  12.085 -1.1325  0.1169 -0.6470
 4577SOL    HW225194   0.926   3.997  12.109  0.6380  1.1597 -2.5632
 4578SOL     OW25195   2.136   2.525  16.491  0.2051  0.1435 -0.0270
 4578SOL    HW125196   2.104   2.601  16.442 -1.5825 -1.1213 -0.8245
 4578SOL    HW225197   2.191   2.490  16.421 -0.2369 -0.3082 -0.1484
 4579SOL     OW25198   4.019   0.876  16.912 -0.3512  0.3358  0.1958
 4579SOL    HW125199   3.968   0.896  16.832 -0.1702  1.9691  0.4830
 4579SOL    HW225200   3.988   0.944  16.973 -0.6815  0.5579 -0.2118
 4580SOL     OW25201   1.974   1.266  12.537  0.3132  0.0492  0.0018
 4580SOL    HW125202   1.976   1.247  12.443 -3.4524 -4.2404  0.7606
 4580SOL    HW225203   1.933   1.352  12.540 -0.6428 -0.3096 -3.4488
 4581SOL     OW25204   1.743   4.344   5.306 -0.0413  0.1495 -0.0172
 4581SOL    HW125205   1.831   4.314   5.327  0.3552  0.4330 -1.2786
 4581SOL    HW225206   1.713   4.364   5.395  0.7498  3.2014 -0.4298
 4582SOL     OW25207   3.030   0.756   3.844  0.2336  0.3070 -0.2094
 4582SOL    HW125208   3.091   0.742   3.772  1.4196 -0.9098  1.0240
 4582SOL    HW225209   2.998   0.843   3.819  0.4027 -0.3783 -2.7159
 4583SOL     OW25210   4.168   4.219  13.344  0.2915 -0.2518 -0.2418
 4583SOL    HW125211   4.127   4.201  13.259  0.9287  2.7866 -1.1788
 4583SOL    HW225212   4.158   4.137  13.393 -3.1028  1.4888  2.0201
 4584SOL     OW25213   1.657   4.362   7.537  0.9113 -0.4444  0.0579
 4584SOL    HW125214   1.578   4.308   7.535  0.6662 -0.0404 -1.4258
 4584SOL    HW225215   1.716   4.287   7.525  1.5600  0.1768 -0.6510
 4585SOL     OW25216   4.620   2.602   9.064 -0.0994  0.2019  0.1582
 4585SOL    HW125217   4.701   2.649   9.042 -0.8042  1.2501 -0.2009
 4585SOL    HW225218   4.607   2.554   8.982 -1.3867 -0.3520  0.6827
 4586SOL     OW25219   1.434   3.330   8.211  0.2187 -0.0652 -0.0074
 4586SOL    HW125220   1.420   3.393   8.140 -0.6186  1.1064  1.2094
 4586SOL    HW225221   1.352   3.347   8.256  0.7093  1.0317  0.4660
 4587SOL     OW25222   1.763   0.461   3.606  0.7179 -0.4050  0.5362
 4587SOL    HW125223   1.810   0.481   3.525  0.3772  0.2090  0.4913
 4587SOL    HW225224   1.820   0.405   3.659  0.2999 -0.4860  0.9019
 4588SOL     OW25225   3.724   0.589  16.053  0.5993 -0.4039 -0.1654
 4588SOL    HW125226   3.721   0.539  15.972  1.5458  1.1560 -1.1519
 4588SOL    HW225227   3.818   0.587  16.068  0.5374 -0.9223  0.1823
 4589SOL     OW25228   4.359   4.408   7.165 -0.8028 -0.3338  0.2220
 4589SOL    HW125229   4.292   4.340   7.165 -0.5053 -0.6364  1.4980
 4589SOL    HW225230   4.411   4.386   7.243  0.0284  2.0574  0.3558
 4590SOL     OW25231   3.753   3.046   1.152  0.3737 -0.1915 -0.2282
 4590SOL    HW125232   3.672   3.031   1.200  1.5802 -0.3903  1.7572
 4590SOL    HW225233   3.726   3.119   1.097 -0.2191  2.1691  3.1885
 4591SOL     OW25234   2.848   3.220   7.464  0.6146 -0.2166 -0.5548
 4591SOL    HW125235   2.830   3.137   7.508 -0.4839 -0.0560 -0.6855
 4591SOL    HW225236   2.894   3.280   7.522 -0.7666 -0.7852  1.1154
 4592SOL     OW25237   1.927   3.379   2.606  0.5592  0.5136  0.0494
 4592SOL    HW125238   1.862   3.309   2.615  1.2422 -0.5414 -2.9064
 4592SOL    HW225239   1.880   3.462   2.617 -0.3032  0.1613 -0.9463
 4593SOL     OW25240   3.459   2.173   7.481 -0.4870  0.3909 -0.8149
 4593SOL    HW125241   3.433   2.193   7.391  1.5942  0.2475 -1.4489
 4593SOL    HW225242   3.395   2.231   7.522 -2.5081 -1.4531 -1.3715
 4594SOL     OW25243   2.988   2.924   5.237 -0.2067 -0.3217  0.2505
 4594SOL    HW125244   3.000   2.934   5.332  1.1661  0.2450  0.0207
 4594SOL    HW225245   3.016   2.833   5.225 -0.4923 -0.1298 -1.7730
 4595SOL     OW25246   1.154   1.986  15.985  0.5228  0.7337 -0.1731
 4595SOL    HW125247   1.091   2.058  15.993 -0.7745 -0.4748  0.4117
 4595SOL    HW225248   1.168   1.982  15.891  1.8739 -1.6775  0.1323
 4596SOL     OW25249   1.675   0.781   4.542  0.4013  0.7829  0.5173
 4596SOL    HW125250   1.683   0.691   4.571 -1.3036 -0.2226 -2.1874
 4596SOL    HW225251   1.754   0.830   4.566 -0.3478  2.6200 -0.7770
 4597SOL     OW25252   3.505   3.442   8.776  0.6800 -0.2031 -0.1524
 4597SOL    HW125253   3.486   3.349   8.784 -0.1776  0.1024  1.4666
 4597SOL    HW225254   3.423   3.485   8.754  1.6021  1.3670 -0.5393
 4598SOL     OW25255   1.326   0.864   5.982  0.4569 -0.1534  0.2612
 4598SOL    HW125256   1.333   0.770   6.000  0.9579 -0.0070  0.8318
 4598SOL    HW225257   1.407   0.891   5.938  0.8286 -0.1184  0.9721
 4599SOL     OW25258   3.292   0.912   7.638  0.0478 -0.1973 -0.1347
 4599SOL    HW125259   3.227   0.843   7.639  2.0424 -2.0947 -0.4752
 4599SOL    HW225260   3.308   0.919   7.732  0.0817 -0.4857 -0.1200
 4600SOL     OW25261   0.868   3.404   0.957 -0.5983  1.0157 -0.4967
 4600SOL    HW125262   0.779   3.407   0.923 -0.6123 -1.2681 -0.6429
 4600SOL    HW225263   0.871   3.309   0.967  0.7980  0.9674 -1.2817
 4601SOL     OW25264   1.362   0.772   8.257 -0.2438 -0.5877  0.3483
 4601SOL    HW125265   1.454   0.745   8.262  0.0996  0.3423 -1.1278
 4601SOL    HW225266   1.341   0.776   8.351  0.2495 -0.5512  0.4616
 4602SOL     OW25267   1.419   2.457   8.795 -1.0500  0.8712  0.1359
 4602SOL    HW125268   1.382   2.508   8.866 -0.6414  3.0587 -1.2127
 4602SOL    HW225269   1.504   2.490   8.764 -0.8272  0.2090  0.0375
 4603SOL     OW25270   3.212   3.360   8.041 -0.7507 -0.4581  0.0930
 4603SOL    HW125271   3.220   3.378   8.135 -0.0552  2.1022 -0.4591
 4603SOL    HW225272   3.116   3.356   8.044 -0.6761 -0.6632  2.0395
 4604SOL     OW25273   0.429   1.823  17.387 -0.4657 -0.3182 -0.1305
 4604SOL    HW125274   0.446   1.771  17.308  1.5382 -0.7848  0.6016
 4604SOL    HW225275   0.476   1.764  17.446  0.5062  0.8732  0.2836
 4605SOL     OW25276   1.189   0.854  10.675 -0.3236  0.0440 -0.1069
 4605SOL    HW125277   1.118   0.791  10.686 -1.2906  1.6592  3.0349
 4605SOL    HW225278   1.262   0.803  10.640  0.8342  1.8408 -0.3150
 4606SOL     OW25279   3.741   4.631   2.186  0.4015  0.8106  0.5971
 4606SOL    HW125280   3.795   4.637   2.265  0.8955  2.1987  0.1441
 4606SOL    HW225281   3.762   4.542   2.159 -0.6352  0.0624  2.2382
 4607SOL     OW25282   2.712   2.350   8.304 -0.2016 -0.1122 -0.6698
 4607SOL    HW125283   2.692   2.397   8.385  4.4548  0.1180  0.3608
 4607SOL    HW225284   2.738   2.263   8.334  0.1205 -0.1791 -1.1369
 4608SOL     OW25285   3.731   3.685   5.721  0.1776 -0.2395 -0.2876
 4608SOL    HW125286   3.793   3.641   5.780 -0.5022  3.6048  3.2843
 4608SOL    HW225287   3.648   3.641   5.744 -0.0227 -0.8013 -2.0525
 4609SOL     OW25288   2.012   0.055  13.701  0.3246 -0.6853  0.0286
 4609SOL    HW125289   2.062   4.692  13.690  2.0495  0.2926  0.6250
 4609SOL    HW225290   2.063   0.090  13.774 -0.6939 -1.0348  0.9029
 4610SOL     OW25291   2.077   4.214   5.771 -0.1359 -0.0256  0.1020
 4610SOL    HW125292   1.986   4.242   5.762 -0.4192 -0.9546  0.0274
 4610SOL    HW225293   2.067   4.122   5.797  0.5463 -0.2056 -0.2682
 4611SOL     OW25294   1.387   4.331   3.803 -0.1158 -0.2590  0.5982
 4611SOL    HW125295   1.338   4.337   3.722  1.2144  0.2984 -0.1709
 4611SOL    HW225296   1.394   4.236   3.812  1.0537 -0.1806  0.6287
 4612SOL     OW25297   1.495   3.723   4.238 -0.3662  0.0700 -0.2703
 4612SOL    HW125298   1.451   3.803   4.209 -2.6953 -0.2991  2.3332
 4612SOL    HW225299   1.467   3.662   4.170  0.6759 -1.1875  0.4343
 4613SOL     OW25300   0.692   0.053   1.862  0.5231 -0.2733  0.0491
 4613SOL    HW125301   0.664   4.709   1.795 -0.2677  1.3095 -1.0908
 4613SOL    HW225302   0.756   0.109   1.818  0.6223 -0.7646 -0.4359
 4614SOL     OW25303   3.392   4.459   3.800  0.0974  0.0115  0.2198
 4614SOL    HW125304   3.309   4.413   3.813  0.7533 -1.2498 -0.1379
 4614SOL    HW225305   3.407   4.465   3.705 -1.0185 -0.9260 -0.0139
 4615SOL     OW25306   1.142   1.265  12.873 -0.0126  0.1714  0.1685
 4615SOL    HW125307   1.070   1.230  12.820  0.8745  0.1362 -1.0250
 4615SOL    HW225308   1.142   1.204  12.947 -0.0509 -2.0571 -1.6583
 4616SOL     OW25309   0.477   2.664  11.168 -0.1153  0.2345  0.2522
 4616SOL    HW125310   0.438   2.711  11.095 -1.5226  1.1361  1.5970
 4616SOL    HW225311   0.397   2.636  11.213 -1.1022 -0.9441 -2.2562
 4617SOL     OW25312   4.538   0.187   0.257 -0.0444  0.3545 -0.8815
 4617SOL    HW125313   4.520   0.170   0.349 -0.4266 -0.6861 -1.1487
 4617SOL    HW225314   4.538   0.098   0.223 -1.4529  0.6942 -1.7787
 4618SOL     OW25315   0.898   4.505  12.748  0.1492  0.3179  0.1694
 4618SOL    HW125316   0.845   4.481  12.672  0.4395  0.0581  0.0488
 4618SOL    HW225317   0.886   4.419  12.789 -3.4294  1.4675  1.4466
 4619SOL     OW25318   1.802   1.524   0.960 -0.0367  0.2293 -0.1767
 4619SOL    HW125319   1.893   1.524   0.989  0.8404 -0.0729 -2.9549
 4619SOL    HW225320   1.757   1.516   1.044 -1.7083  2.7840 -0.8321
 4620SOL     OW25321   2.469   4.214  15.767 -0.1303  0.2411 -0.3958
 4620SOL    HW125322   2.446   4.287  15.824  1.2339  0.2778  0.1152
 4620SOL    HW225323   2.412   4.222  15.690 -0.2366 -0.2942 -0.3699
 4621SOL     OW25324   2.149   3.733   0.346 -0.5815 -0.4360 -0.0930
 4621SOL    HW125325   2.208   3.713   0.274 -1.4151 -0.6186 -0.7304
 4621SOL    HW225326   2.132   3.824   0.322  1.0599  0.7895  3.4186
 4622SOL     OW25327   0.594   2.240   4.585 -0.6198 -0.4081  0.4490
 4622SOL    HW125328   0.675   2.199   4.617 -1.1687 -1.2977  0.7245
 4622SOL    HW225329   0.596   2.202   4.497 -0.4991 -1.1667  0.7715
 4623SOL     OW25330   1.904   4.426  15.403 -0.2405  0.1385 -0.1801
 4623SOL    HW125331   1.931   4.337  15.427  0.4753  0.0578 -1.2467
 4623SOL    HW225332   1.984   4.465  15.438  1.9200 -1.7766 -2.9403
 4624SOL     OW25333   0.267   3.169  14.433  0.1227 -0.0857  0.2160
 4624SOL    HW125334   0.172   3.175  14.438  0.1434  0.5910 -0.1823
 4624SOL    HW225335   0.274   3.074  14.440  1.0630  0.0145  0.6824
 4625SOL     OW25336   1.058   2.932   6.496 -0.0775  0.0342 -0.5479
 4625SOL    HW125337   1.021   2.850   6.465 -0.1484  0.0697 -0.5568
 4625SOL    HW225338   0.979   2.973   6.533  0.2934  0.2535  0.0167
 4626SOL     OW25339   3.661   2.327   7.206  0.0220 -0.0388 -0.5469
 4626SOL    HW125340   3.591   2.292   7.260  1.0775 -2.1477 -0.5265
 4626SOL    HW225341   3.624   2.407   7.169  2.0669  0.3707 -1.7366
 4627SOL     OW25342   0.755   2.847  17.643  0.1874 -0.4161 -0.1030
 4627SOL    HW125343   0.810   2.784  17.596 -0.5964 -0.9164 -0.3374
 4627SOL    HW225344   0.797   2.851   0.053 -1.8451  1.7424  0.7728
 4628SOL     OW25345   0.622   0.428   3.688  0.0933 -0.2445 -0.0621
 4628SOL    HW125346   0.698   0.479   3.717 -0.2592  0.2644 -0.0300
 4628SOL    HW225347   0.619   0.384   3.773 -2.1793  0.3003  0.1460
 4629SOL     OW25348   3.231   2.478   0.910  0.1343  0.3625 -0.7569
 4629SOL    HW125349   3.157   2.444   0.959  0.4549  2.0327  0.8544
 4629SOL    HW225350   3.197   2.489   0.821 -1.0934  0.6353 -0.2477
 4630SOL     OW25351   2.377   3.246   1.081 -0.3713 -0.3675  0.0798
 4630SOL    HW125352   2.338   3.174   1.130 -0.5367  0.2918  0.9046
 4630SOL    HW225353   2.445   3.268   1.144 -0.8569 -1.1176  0.8581
 4631SOL     OW25354   3.585   2.258  14.463 -0.3468 -0.2386  0.1641
 4631SOL    HW125355   3.637   2.290  14.537  1.6416  0.2260 -1.4609
 4631SOL    HW225356   3.629   2.298  14.388 -2.6095  2.8605  0.4677
 4632SOL     OW25357   3.310   1.615   7.975  0.3264  0.0646  0.3141
 4632SOL    HW125358   3.250   1.611   7.901  1.1350 -0.1400 -0.3325
 4632SOL    HW225359   3.346   1.703   7.964  0.2140 -0.0264 -0.7959
 4633SOL     OW25360   4.238   4.054   5.848 -0.2871 -0.1814 -0.5772
 4633SOL    HW125361   4.176   4.031   5.917  0.3755  0.8647  0.3603
 4633SOL    HW225362   4.269   4.141   5.870  0.8039 -0.2395 -1.8720
 4634SOL     OW25363   3.721   4.682  11.965  0.6400  0.9677 -0.2660
 4634SOL    HW125364   3.778   4.685  12.042  0.8871 -1.4743 -0.3687
 4634SOL    HW225365   3.769   4.625  11.905  0.4102  0.8392 -0.3281
 4635SOL     OW25366   4.105   1.744   5.147 -0.0217  0.1393  0.4408
 4635SOL    HW125367   4.104   1.730   5.242 -0.3828 -1.8545  0.1294
 4635SOL    HW225368   4.063   1.668   5.108  0.1949 -0.8575  2.1248
 4636SOL     OW25369   0.416   3.639   4.456 -0.5755  0.3793  0.1631
 4636SOL    HW125370   0.356   3.657   4.384 -1.3079 -0.5683  0.5409
 4636SOL    HW225371   0.364   3.573   4.502 -0.1029 -0.8173 -0.9899
 4637SOL     OW25372   0.850   3.603   9.289 -0.1094 -0.0085 -0.2053
 4637SOL    HW125373   0.802   3.567   9.214 -1.9247  1.0609  0.4444
 4637SOL    HW225374   0.790   3.588   9.362  0.1521  2.0271  0.4009
 4638SOL     OW25375   1.177   2.305   4.053 -0.4507 -0.0291 -0.0295
 4638SOL    HW125376   1.218   2.390   4.067  0.5383 -0.4530 -0.3321
 4638SOL    HW225377   1.086   2.334   4.055 -1.4490 -3.0521 -1.0024
 4639SOL     OW25378   0.447   0.526   9.129 -0.1426 -0.1287 -0.1513
 4639SOL    HW125379   0.378   0.509   9.193 -0.3439 -0.0609 -0.3501
 4639SOL    HW225380   0.401   0.518   9.045  2.0110 -1.6133 -1.1837
 4640SOL     OW25381   1.032   1.346   9.289  0.5668  0.1761  0.4786
 4640SOL    HW125382   1.100   1.405   9.320  0.6989 -0.9852  2.4004
 4640SOL    HW225383   1.080   1.299   9.220 -0.4096 -0.6020  0.3240
 4641SOL     OW25384   2.921   2.507   6.444  0.1946  0.2533  0.1794
 4641SOL    HW125385   2.923   2.522   6.538  1.3165 -0.5307  0.2738
 4641SOL    HW225386   2.843   2.452   6.432  1.0992 -1.0764  0.3497
 4642SOL     OW25387   1.117   0.650   8.796 -0.2628 -0.2331  0.0007
 4642SOL    HW125388   1.206   0.617   8.810 -0.0163  0.5684  0.3884
 4642SOL    HW225389   1.067   0.624   8.873 -1.3326  0.1201 -0.5775
 4643SOL     OW25390   3.402   0.365   7.394  0.6270  0.3766 -0.4004
 4643SOL    HW125391   3.416   0.368   7.489 -3.1176 -1.9443  0.2420
 4643SOL    HW225392   3.325   0.309   7.391  0.9702 -0.1007 -0.3503
 4644SOL     OW25393   3.032   2.136   7.691  0.5182  0.2969 -0.7551
 4644SOL    HW125394   2.981   2.094   7.622  3.1274  0.6344 -2.8596
 4644SOL    HW225395   3.073   2.057   7.726 -0.6242  0.9603  2.0910
 4645SOL     OW25396   2.654   1.651   7.241 -0.2637 -0.0800  0.1116
 4645SOL    HW125397   2.612   1.581   7.192  0.5487  1.3776 -2.6776
 4645SOL    HW225398   2.698   1.605   7.312  0.5618  1.2064  0.4283
 4646SOL     OW25399   2.397   0.805  10.580 -0.7493 -0.3171 -0.8743
 4646SOL    HW125400   2.488   0.776  10.588 -1.1262 -2.0581 -2.7145
 4646SOL    HW225401   2.350   0.722  10.593  0.4662 -0.9382 -0.4208
 4647SOL     OW25402   3.786   3.798   6.753  0.1581 -0.0417 -0.0724
 4647SOL    HW125403   3.854   3.824   6.816 -0.7032 -1.6270  1.5289
 4647SOL    HW225404   3.752   3.883   6.726 -1.5183  0.1922  2.7914
 4648SOL     OW25405   4.289   0.916   7.221 -0.2771  0.1883 -0.4329
 4648SOL    HW125406   4.356   0.974   7.258 -0.5980  1.3499 -1.7002
 4648SOL    HW225407   4.253   0.882   7.303 -0.0002  0.8619 -0.0250
 4649SOL     OW25408   3.295   3.390  13.217  0.4552  0.0327  0.4032
 4649SOL    HW125409   3.328   3.316  13.166 -1.0908 -0.4787  0.1486
 4649SOL    HW225410   3.310   3.355  13.305 -0.1963 -1.1766  0.0282
 4650SOL     OW25411   0.641   3.636   6.561 -0.2045  0.0499  0.0538
 4650SOL    HW125412   0.701   3.674   6.625  0.0519 -1.1082  0.4932
 4650SOL    HW225413   0.644   3.702   6.491 -1.7298 -0.7138 -0.7276
 4651SOL     OW25414   1.040   0.439  13.621 -0.8793  0.3320  0.0781
 4651SOL    HW125415   0.993   0.483  13.691 -0.4594  2.1154 -0.7377
 4651SOL    HW225416   0.973   0.402  13.564 -0.4243  0.2005 -0.3740
 4652SOL     OW25417   1.977   2.174  14.312  0.0329  0.0997 -0.5406
 4652SOL    HW125418   1.960   2.087  14.349 -1.5727 -0.6494 -3.0188
 4652SOL    HW225419   2.050   2.155  14.252 -1.3458 -1.3763 -1.7543
 4653SOL     OW25420   0.966   3.491   0.266 -0.2250 -0.0986  0.5741
 4653SOL    HW125421   0.925   3.516   0.349 -0.0944 -0.2793  0.6938
 4653SOL    HW225422   1.055   3.526   0.272  0.9103 -3.3897  2.8450
 4654SOL     OW25423   1.129   4.499   5.881  0.8487  0.0385 -0.5472
 4654SOL    HW125424   1.190   4.569   5.857 -1.3927  2.1496 -0.1190
 4654SOL    HW225425   1.064   4.524   5.815  0.5113  2.4943  0.7096
 4655SOL     OW25426   2.257   4.063   0.317  0.1313  0.5364  0.0485
 4655SOL    HW125427   2.231   4.154   0.322 -0.4311  0.3660  0.1888
 4655SOL    HW225428   2.325   4.073   0.250 -0.7305  1.8257 -0.6258
 4656SOL     OW25429   2.773   0.573   3.128  0.3030 -0.0840 -0.1593
 4656SOL    HW125430   2.742   0.576   3.037 -0.1831 -3.1744 -0.1098
 4656SOL    HW225431   2.702   0.612   3.179  1.9189 -1.9238  3.4688
 4657SOL     OW25432   3.599   0.454   3.450  0.0834  0.0358 -0.1758
 4657SOL    HW125433   3.608   0.358   3.449 -1.5573 -0.0942 -1.9985
 4657SOL    HW225434   3.681   0.485   3.411  1.1920 -0.9799  1.3390
 4658SOL     OW25435   0.853   1.738   7.796 -0.2680 -0.3851  0.3425
 4658SOL    HW125436   0.778   1.690   7.832 -2.5870  2.4606 -0.7390
 4658SOL    HW225437   0.924   1.690   7.839 -0.0395 -0.7698 -0.4767
 4659SOL     OW25438   1.301   4.030   0.671  0.6421 -0.2726 -0.0669
 4659SOL    HW125439   1.373   3.987   0.625  0.6690  0.1967 -0.4675
 4659SOL    HW225440   1.265   3.948   0.705  1.5345 -1.5241 -2.1413
 4660SOL     OW25441   2.799   3.054   4.170  0.3534 -0.0320  0.1626
 4660SOL    HW125442   2.821   2.987   4.106  0.9924 -0.3818  0.7558
 4660SOL    HW225443   2.720   3.014   4.207  1.3180 -2.6270 -0.5923
 4661SOL     OW25444   1.861   0.254  10.718  0.3802 -0.3351 -0.2460
 4661SOL    HW125445   1.793   0.196  10.754  1.0764 -1.2016 -0.3064
 4661SOL    HW225446   1.808   0.283  10.644  0.8719 -2.3523 -1.4103
 4662SOL     OW25447   2.346   2.804  17.500  0.1665  0.2074 -0.5678
 4662SOL    HW125448   2.264   2.761  17.521  0.9498 -0.7361  0.5738
 4662SOL    HW225449   2.411   2.770  17.561 -0.0274  1.0025  0.0762
 4663SOL     OW25450   0.591   0.031  13.014 -0.2937 -0.0875  0.7467
 4663SOL    HW125451   0.617   0.075  13.095 -0.3736  1.1499  0.0952
 4663SOL    HW225452   0.531   0.102  12.991 -0.5237 -0.8143 -0.9105
 4664SOL     OW25453   4.092   0.177   3.682 -0.2366 -0.2317  0.1556
 4664SOL    HW125454   4.149   0.139   3.748  0.5333  1.4622  0.4604
 4664SOL    HW225455   4.005   0.161   3.719 -0.7647  2.4172  0.0831
 4665SOL     OW25456   1.781   3.592   7.151 -0.1586  0.2930 -0.1323
 4665SOL    HW125457   1.787   3.623   7.241  3.1066 -0.7041  0.0023
 4665SOL    HW225458   1.863   3.542   7.152  0.7953  1.8907  2.2866
 4666SOL     OW25459   2.596   3.004  11.882 -0.3353  0.1878 -0.2894
 4666SOL    HW125460   2.644   2.924  11.862  1.0066  0.5221  1.5864
 4666SOL    HW225461   2.631   3.081  11.837 -0.1404 -0.1122 -0.6403
 4667SOL     OW25462   2.841   3.725   6.996 -0.6490  0.1618  0.4064
 4667SOL    HW125463   2.768   3.700   7.052  0.0747 -0.1639  1.1982
 4667SOL    HW225464   2.829   3.667   6.921  3.0898  1.0042 -0.8735
 4668SOL     OW25465   4.705   1.675   1.492  0.0017 -0.0102 -0.1833
 4668SOL    HW125466   4.622   1.693   1.446 -0.0773  0.1828  0.0341
 4668SOL    HW225467   0.002   1.583   1.472 -1.4504 -0.5339  1.0461
 4669SOL     OW25468   2.152   3.959   8.468  0.2669  0.0840  0.0503
 4669SOL    HW125469   2.243   3.968   8.440 -0.7357  0.3891 -3.1288
 4669SOL    HW225470   2.142   4.042   8.516 -1.7680 -0.3799  0.4505
 4670SOL     OW25471   4.074   3.027   7.770 -0.0104 -0.2283 -0.1376
 4670SOL    HW125472   4.087   2.946   7.721 -0.8393 -0.6438  0.3201
 4670SOL    HW225473   4.087   3.010   7.863 -0.2625 -1.5044 -0.3357
 4671SOL     OW25474   2.489   4.135   4.146  0.1921  0.0849  0.1747
 4671SOL    HW125475   2.460   4.046   4.125  1.0004 -0.5419  1.7462
 4671SOL    HW225476   2.582   4.122   4.168  0.6156  0.0555 -1.5922
 4672SOL     OW25477   3.304   2.220   2.735 -0.4190  0.2161 -0.0996
 4672SOL    HW125478   3.317   2.243   2.827  2.2710 -3.3902  0.4035
 4672SOL    HW225479   3.316   2.303   2.688 -2.1188  1.4977  1.7474
 4673SOL     OW25480   0.964   2.895   6.840  0.6629 -0.5836  0.3488
 4673SOL    HW125481   1.040   2.838   6.841  0.4307 -0.8823  0.6490
 4673SOL    HW225482   0.939   2.905   6.931  0.5360  0.1145  0.2385
 4674SOL     OW25483   3.326   0.853  16.041  0.0760 -0.1078  0.7419
 4674SOL    HW125484   3.236   0.837  16.069  0.3113  1.8878  2.5421
 4674SOL    HW225485   3.340   0.774  15.988  1.9633  0.4784  0.3323
 4675SOL     OW25486   1.179   4.278   5.554  0.1783  0.4008 -0.0925
 4675SOL    HW125487   1.257   4.330   5.534  0.9853  0.0815  2.1107
 4675SOL    HW225488   1.108   4.334   5.521 -0.6274  0.3330  1.5118
 4676SOL     OW25489   4.477   1.060   7.362  0.6596  0.8173  0.0484
 4676SOL    HW125490   4.497   1.020   7.447 -2.1025 -0.7046 -0.0077
 4676SOL    HW225491   4.418   1.130   7.387 -1.1752  0.0730 -2.1918
 4677SOL     OW25492   1.146   4.071  10.446 -0.4177 -0.1212 -0.3955
 4677SOL    HW125493   1.195   4.015  10.507  0.2249  1.3540  0.4297
 4677SOL    HW225494   1.212   4.094  10.380  0.8240  3.1138  1.9483
 4678SOL     OW25495   4.270   1.397   0.759 -0.3755  0.0101 -0.0684
 4678SOL    HW125496   4.330   1.323   0.744  0.7104  0.9377 -0.2987
 4678SOL    HW225497   4.282   1.448   0.679  1.3520  1.9142  1.4193
 4679SOL     OW25498   1.852   3.832   3.207  0.4336  0.1251  0.5657
 4679SOL    HW125499   1.925   3.793   3.160  1.0003  2.3034 -0.3594
 4679SOL    HW225500   1.777   3.821   3.149  0.4779  1.2330  0.2934
 4680SOL     OW25501   1.960   1.886   0.208 -0.4069  0.5298 -0.1373
 4680SOL    HW125502   1.906   1.809   0.191  2.4571 -0.8766 -2.8600
 4680SOL    HW225503   2.037   1.845   0.248 -0.8566 -0.3221 -0.1379
 4681SOL     OW25504   3.040   2.676   2.346 -0.1020  0.0947  0.3259
 4681SOL    HW125505   3.133   2.679   2.369  0.2004 -0.1312 -0.8999
 4681SOL    HW225506   3.001   2.589   2.357 -1.7372  0.7470 -0.1946
 4682SOL     OW25507   2.383   0.789   6.126 -0.1064 -0.3475 -0.5208
 4682SOL    HW125508   2.337   0.776   6.209  0.5183 -1.0556 -0.2871
 4682SOL    HW225509   2.323   0.735   6.074 -0.8070 -0.5312  0.4758
 4683SOL     OW25510   3.548   2.177   6.805 -0.5675  0.4512 -0.4503
 4683SOL    HW125511   3.469   2.180   6.858 -0.1220  1.2263  0.1751
 4683SOL    HW225512   3.546   2.262   6.761 -4.0214  0.1806 -0.8278
 4684SOL     OW25513   3.232   4.312   7.723  0.2297 -0.1296  0.1675
 4684SOL    HW125514   3.203   4.220   7.725 -1.5104  0.3956 -1.0354
 4684SOL    HW225515   3.276   4.312   7.808  2.2827 -2.3474 -0.9024
 4685SOL     OW25516   3.663   1.141  13.657 -0.0683 -0.0708  0.1068
 4685SOL    HW125517   3.627   1.055  13.678 -0.6814  0.4369  1.1090
 4685SOL    HW225518   3.758   1.127  13.653 -0.3571 -2.1263  0.5731
 4686SOL     OW25519   4.628   1.825  14.061  0.0096  0.2304 -0.1093
 4686SOL    HW125520   4.576   1.877  14.122  1.3273 -0.6470  1.7855
 4686SOL    HW225521   4.717   1.853  14.083 -0.2169 -1.0342  2.4333
 4687SOL     OW25522   0.839   3.241   0.470  0.2940 -0.2098 -1.0850
 4687SOL    HW125523   0.785   3.316   0.449  0.4162  0.2610  0.2692
 4687SOL    HW225524   0.824   3.182   0.396  1.9030 -0.3611 -1.2862
 4688SOL     OW25525   1.093   1.140   8.222 -0.3571  0.0606 -0.7676
 4688SOL    HW125526   1.147   1.188   8.161 -2.2784  2.8029 -0.3109
 4688SOL    HW225527   1.026   1.202   8.250  1.2081  1.2965  0.1971
 4689SOL     OW25528   0.336   3.377   4.910 -0.3851 -0.3660 -0.1211
 4689SOL    HW125529   0.420   3.335   4.893  0.2332  1.6665 -2.1188
 4689SOL    HW225530   0.351   3.472   4.908 -0.6178 -0.3083  1.6907
 4690SOL     OW25531   4.018   1.281  17.026 -0.1256 -1.0201 -0.8471
 4690SOL    HW125532   3.996   1.292  17.119 -2.7205  1.8142 -1.8073
 4690SOL    HW225533   4.028   1.375  17.008 -0.4493 -0.3885  2.1918
 4691SOL     OW25534   0.245   0.453  17.473 -0.0822 -0.1434 -0.1799
 4691SOL    HW125535   0.254   0.522  17.409 -0.6810  1.2917  1.2842
 4691SOL    HW225536   0.153   0.433  17.455 -0.9829  0.2157  3.8602
 4692SOL     OW25537   4.151   4.503  14.751  0.1032 -0.3180 -0.1337
 4692SOL    HW125538   4.116   4.423  14.713  0.2675 -0.4154 -0.0784
 4692SOL    HW225539   4.212   4.463  14.813  0.4923 -1.3005 -1.1519
 4693SOL     OW25540   4.234   0.131  16.103 -0.2179  0.0124 -0.2077
 4693SOL    HW125541   4.239   0.037  16.086  1.3330 -0.0325  0.4658
 4693SOL    HW225542   4.277   0.133  16.189  0.2787  0.2976 -0.4674
 4694SOL     OW25543   3.402   1.378   5.906 -0.1133 -0.3005 -0.3317
 4694SOL    HW125544   3.403   1.285   5.885 -0.4337 -0.7506  1.6426
 4694SOL    HW225545   3.399   1.367   6.001  0.4268 -2.4108 -0.5459
 4695SOL     OW25546   3.746   1.059  13.000 -0.3971 -0.1976 -0.5327
 4695SOL    HW125547   3.744   1.070  12.905 -0.5777  0.2313 -0.4828
 4695SOL    HW225548   3.837   1.030  12.992 -0.4634 -0.6012  0.1417
 4696SOL     OW25549   4.349   2.348  15.773  0.1449  0.1867  0.3046
 4696SOL    HW125550   4.271   2.298  15.797  1.2507 -1.7300 -0.0959
 4696SOL    HW225551   4.340   2.331  15.679  1.2532  0.8762  0.0797
 4697SOL     OW25552   0.319   2.033  15.039  0.1961  0.4899  0.3692
 4697SOL    HW125553   0.239   2.009  15.087 -0.3072  2.8280  0.6994
 4697SOL    HW225554   0.302   2.110  14.985  0.9747  0.5468  0.2045
 4698SOL     OW25555   0.787   4.484  13.552  0.5806  0.5986  0.1452
 4698SOL    HW125556   0.710   4.471  13.608 -1.3985  0.6467 -2.5320
 4698SOL    HW225557   0.741   4.530  13.482 -2.5010 -0.3719  1.5236
 4699SOL     OW25558   3.543   3.819   4.105 -0.4760  0.3962  0.1427
 4699SOL    HW125559   3.464   3.873   4.110 -0.8821  0.1263 -2.9923
 4699SOL    HW225560   3.604   3.886   4.072 -2.0978  1.7746 -0.0781
 4700SOL     OW25561   4.649   4.147   4.071  0.6146  0.1884 -0.0818
 4700SOL    HW125562   4.565   4.190   4.086  0.1711 -0.7384  0.1294
 4700SOL    HW225563   4.625   4.102   3.990 -1.2488 -0.5092  0.8420
 4701SOL     OW25564   1.104   2.817  16.708  0.1002  0.3057 -0.1907
 4701SOL    HW125565   1.038   2.845  16.644 -0.2388  0.9035  0.4284
 4701SOL    HW225566   1.154   2.898  16.718 -1.4263  1.2566 -0.2433
 4702SOL     OW25567   3.064   2.574   1.931  0.7998  0.2741 -0.5617
 4702SOL    HW125568   2.977   2.555   1.968  1.0704 -1.6891 -0.9317
 4702SOL    HW225569   3.084   2.500   1.873 -0.3014  0.9237 -1.7890
 4703SOL     OW25570   2.718   3.602   3.018  0.1008 -0.0578  0.0572
 4703SOL    HW125571   2.651   3.666   2.994 -0.7988 -1.4914 -1.2894
 4703SOL    HW225572   2.702   3.580   3.110 -3.4490  0.2377 -0.4911
 4704SOL     OW25573   2.193   4.108   2.247 -0.2238  0.2588  0.0098
 4704SOL    HW125574   2.197   4.203   2.254  0.7666  0.2484 -0.4591
 4704SOL    HW225575   2.192   4.084   2.340 -2.5298 -1.5589 -0.4824
 4705SOL     OW25576   4.630   3.550   4.255  0.1745  0.4206  0.1037
 4705SOL    HW125577   4.648   3.636   4.216  2.9303  0.3299  1.1874
 4705SOL    HW225578   4.566   3.577   4.321  0.2256 -0.1615  0.3933
 4706SOL     OW25579   4.521   3.066  17.179 -0.4434  0.2333  0.2469
 4706SOL    HW125580   4.506   2.974  17.158  2.6687  0.0524 -1.1239
 4706SOL    HW225581   4.614   3.062  17.197 -0.2990  0.1557 -0.5273
 4707SOL     OW25582   1.290   0.670  14.824 -0.3223  0.7507  0.2320
 4707SOL    HW125583   1.368   0.633  14.782  0.7570  1.5087  1.5956
 4707SOL    HW225584   1.322   0.752  14.861 -0.2176  0.0266  1.7377
 4708SOL     OW25585   0.005   0.556   5.637  0.7634  0.4839 -0.2676
 4708SOL    HW125586   4.656   0.493   5.609  1.3978  0.2610 -1.2633
 4708SOL    HW225587   0.016   0.621   5.569 -2.8992  0.5683 -0.7828
 4709SOL     OW25588   0.992   4.453   7.824 -0.1072 -0.4845 -0.2358
 4709SOL    HW125589   1.028   4.432   7.910 -0.1842  0.2241 -0.0263
 4709SOL    HW225590   1.065   4.432   7.766  0.3226  1.9429 -0.5850
 4710SOL     OW25591   0.036   0.910   4.295  0.8672  0.7253  0.2832
 4710SOL    HW125592   0.095   0.894   4.221  2.8498  1.0939  1.7763
 4710SOL    HW225593   0.026   0.821   4.328  0.0153  0.5920 -0.3137
 4711SOL     OW25594   3.447   2.303   8.202  0.1843 -0.3294 -0.4418
 4711SOL    HW125595   3.401   2.246   8.140  1.9131 -2.2382  0.0093
 4711SOL    HW225596   3.492   2.249   8.267  2.1487  2.1050  0.2309
 4712SOL     OW25597   4.348   3.439  14.768  0.1215  0.9776  0.6609
 4712SOL    HW125598   4.292   3.489  14.708 -2.1455 -2.1251  0.2358
 4712SOL    HW225599   4.349   3.507  14.837  2.2165  0.4684  1.1122
 4713SOL     OW25600   1.778   2.749   6.796  0.5495  0.0031 -0.3280
 4713SOL    HW125601   1.770   2.672   6.852 -1.9522 -0.3030 -1.0713
 4713SOL    HW225602   1.779   2.710   6.709 -0.5055 -2.6670  0.8679
 4714SOL     OW25603   2.508   2.736   4.740  0.0402 -0.1084 -0.1512
 4714SOL    HW125604   2.509   2.662   4.801  2.0157  1.8242  2.1390
 4714SOL    HW225605   2.469   2.794   4.805  1.3220  2.2324 -1.4528
 4715SOL     OW25606   0.832   4.009   3.701  0.1437  0.0265 -0.1641
 4715SOL    HW125607   0.842   3.916   3.681  0.8708  0.4797 -1.8906
 4715SOL    HW225608   0.921   4.038   3.720  0.5296  0.0401 -2.0399
 4716SOL     OW25609   3.369   0.184  13.437 -0.3831  1.4309 -0.0577
 4716SOL    HW125610   3.313   0.258  13.413 -0.1880  1.2383 -1.1339
 4716SOL    HW225611   3.322   0.142  13.509  2.0681 -0.1685  0.6114
 4717SOL     OW25612   1.128   4.555   3.179  0.1650 -0.1864  0.3650
 4717SOL    HW125613   1.138   4.461   3.192 -0.7532 -0.3491 -0.1244
 4717SOL    HW225614   1.156   4.567   3.088 -1.0669 -0.7710 -0.0849
 4718SOL     OW25615   0.201   2.943   1.963 -0.1581  0.1430 -0.3910
 4718SOL    HW125616   0.120   2.900   1.992  0.1647 -0.1343  0.1086
 4718SOL    HW225617   0.161   2.987   1.888 -0.9279 -0.9526 -0.6205
 4719SOL     OW25618   0.388   1.449   8.853  0.4014 -0.3211 -0.0756
 4719SOL    HW125619   0.454   1.449   8.922 -2.1006  5.7132  2.2965
 4719SOL    HW225620   0.448   1.430   8.781  0.0407  0.4003 -0.5628
 4720SOL     OW25621   1.079   3.786  13.593  0.1874 -0.0721 -0.1352
 4720SOL    HW125622   1.053   3.864  13.642 -0.2649 -0.5802  0.4342
 4720SOL    HW225623   1.174   3.778  13.604  0.1884 -1.8929 -1.3590
 4721SOL     OW25624   0.260   2.781  14.267 -0.3018  0.4610  0.1440
 4721SOL    HW125625   0.350   2.748  14.270 -0.9392 -1.1974  1.4861
 4721SOL    HW225626   0.267   2.811  14.358  1.6601 -0.1986  0.2197
 4722SOL     OW25627   1.943   0.959  12.739  0.3830 -0.2369  0.4115
 4722SOL    HW125628   1.959   0.884  12.796 -1.2014 -0.4830  0.5291
 4722SOL    HW225629   2.033   0.973  12.712  1.0088  1.1985  3.1752
 4723SOL     OW25630   2.818   4.438   8.015 -0.3671  0.3888 -0.0077
 4723SOL    HW125631   2.765   4.398   8.084  1.3554 -2.9776 -0.6107
 4723SOL    HW225632   2.791   4.386   7.940  0.2336 -0.1862  0.1683
 4724SOL     OW25633   3.261   1.587   6.201  0.8423 -0.3118 -0.0757
 4724SOL    HW125634   3.265   1.642   6.123  0.0844  1.4362  1.1284
 4724SOL    HW225635   3.337   1.616   6.252 -0.8878  1.3356  1.5519
 4725SOL     OW25636   2.784   2.725   5.435  0.1305 -0.4035 -0.0819
 4725SOL    HW125637   2.720   2.654   5.436 -2.0764  1.5999  1.4565
 4725SOL    HW225638   2.865   2.677   5.450  0.1442 -0.6367 -0.8904
 4726SOL     OW25639   2.831   0.392   4.895  0.4186  0.1602  0.0038
 4726SOL    HW125640   2.752   0.340   4.879 -0.2622  1.4480 -0.7445
 4726SOL    HW225641   2.875   0.363   4.815  0.1058  0.5326 -0.3033
 4727SOL     OW25642   1.303   0.173  12.372  0.5399  0.2121  0.7026
 4727SOL    HW125643   1.343   0.196  12.288  1.0609 -0.7438  0.6932
 4727SOL    HW225644   1.275   0.083  12.353  0.8873  0.2515  0.0127
 4728SOL     OW25645   0.874   0.858   0.839  0.6677 -0.5054  0.0369
 4728SOL    HW125646   0.852   0.872   0.747  0.1201 -2.0282 -0.0539
 4728SOL    HW225647   0.852   0.941   0.882  0.4067 -0.5304 -0.0471
 4729SOL     OW25648   4.488   3.847   8.644 -0.6506  0.8135  0.1955
 4729SOL    HW125649   4.552   3.827   8.576  0.7789  3.6097  0.7223
 4729SOL    HW225650   4.412   3.854   8.587  0.0862  0.4261 -0.8288
 4730SOL     OW25651   3.048   4.674   8.278  0.2880  0.2651 -0.3032
 4730SOL    HW125652   2.998   4.625   8.343 -1.6469  0.9129 -1.2848
 4730SOL    HW225653   3.105   4.606   8.242  0.3177 -0.2817  0.7932
 4731SOL     OW25654   0.330   0.733  14.431 -0.0778 -0.1964  0.5446
 4731SOL    HW125655   0.355   0.745  14.339  1.2718 -1.5414  0.7329
 4731SOL    HW225656   0.417   0.728  14.471  0.5618  2.2126 -0.4941
 4732SOL     OW25657   2.616   3.541   3.280  0.7987 -0.4877 -0.5783
 4732SOL    HW125658   2.601   3.572   3.369 -1.2951 -0.0962 -1.0649
 4732SOL    HW225659   2.639   3.449   3.287 -1.2767 -1.0417 -1.2448
 4733SOL     OW25660   2.410   2.098  10.434 -0.3589 -0.0964  0.7247
 4733SOL    HW125661   2.503   2.117  10.433 -0.2490 -0.6873 -0.0442
 4733SOL    HW225662   2.385   2.189  10.419  0.3558 -0.2938 -1.6161
 4734SOL     OW25663   3.492   0.157  16.553  0.1861 -0.3716 -0.3514
 4734SOL    HW125664   3.409   0.113  16.572 -1.1993  1.4556 -2.2193
 4734SOL    HW225665   3.477   0.175  16.460  0.9577  1.7972 -0.0474
 4735SOL     OW25666   4.111   4.217   7.187 -0.3757 -0.1765  0.0482
 4735SOL    HW125667   4.056   4.291   7.159  0.4124  1.5313  2.9064
 4735SOL    HW225668   4.134   4.167   7.109  1.0098 -0.7564  0.8185
 4736SOL     OW25669   0.975   3.788   8.467 -0.1613  0.4900 -0.5529
 4736SOL    HW125670   1.070   3.779   8.480 -0.0258  2.1538 -0.3912
 4736SOL    HW225671   0.960   3.849   8.538 -0.2340  0.9681 -0.9835
 4737SOL     OW25672   2.543   1.222   0.157  0.1228  0.1997 -0.6187
 4737SOL    HW125673   2.448   1.232   0.150 -0.0169 -0.2321  0.6735
 4737SOL    HW225674   2.546   1.138   0.203  0.2214  0.0758 -0.8511
 4738SOL     OW25675   1.548   1.354   5.130  0.0773 -0.2433 -0.2956
 4738SOL    HW125676   1.500   1.432   5.101 -1.9103 -1.5207 -0.5130
 4738SOL    HW225677   1.621   1.408   5.159  0.1537 -0.6432  0.2544
 4739SOL     OW25678   2.976   1.427   5.686 -0.6521 -0.5599  0.1823
 4739SOL    HW125679   2.990   1.512   5.644 -0.8311  0.5573  2.3834
 4739SOL    HW225680   3.028   1.442   5.765  0.7619  0.6526 -0.9761
 4740SOL     OW25681   4.101   1.787  11.216  0.6205  0.3557 -0.2355
 4740SOL    HW125682   4.156   1.748  11.284 -0.5332 -2.2373 -0.8051
 4740SOL    HW225683   4.035   1.718  11.211  2.5634 -1.4085 -1.9117
 4741SOL     OW25684   1.975   0.167   8.704 -0.1281 -0.7041 -0.0570
 4741SOL    HW125685   1.989   0.073   8.714  0.2703 -0.4819  1.4600
 4741SOL    HW225686   2.065   0.192   8.683  0.4590 -1.9691  0.9576
 4742SOL     OW25687   1.053   0.014  16.664  0.4471 -0.4771 -0.3125
 4742SOL    HW125688   1.119   0.078  16.637 -0.3340  1.1982  1.7213
 4742SOL    HW225689   1.006   0.008  16.581 -0.6749  0.2465  0.2726
 4743SOL     OW25690   1.998   1.250   6.975 -0.0499 -0.0976 -0.1016
 4743SOL    HW125691   2.015   1.230   6.883 -0.3621 -2.3706  0.3363
 4743SOL    HW225692   1.965   1.165   7.004 -0.5727  0.0279 -0.3104
 4744SOL     OW25693   3.510   3.712   5.176  0.6948  0.5688  0.0078
 4744SOL    HW125694   3.603   3.707   5.201  1.0430  1.4145 -1.1091
 4744SOL    HW225695   3.474   3.755   5.253 -1.1995  0.3898 -0.7711
 4745SOL     OW25696   1.877   1.386   4.440  0.0733  0.0959  0.1990
 4745SOL    HW125697   1.970   1.376   4.460  0.4242  1.7645 -0.6048
 4745SOL    HW225698   1.843   1.430   4.518  1.4637  0.4217  0.6260
 4746SOL     OW25699   4.544   4.657  16.145  0.5753 -0.3352 -0.5765
 4746SOL    HW125700   4.467   4.657  16.088  1.3032 -0.8385 -1.5788
 4746SOL    HW225701   4.553   0.032  16.164  1.3794 -0.0955 -2.1116
 4747SOL     OW25702   3.682   2.052  13.803 -0.0638 -0.0226 -0.3510
 4747SOL    HW125703   3.606   2.027  13.856 -1.2356 -0.4695 -2.2457
 4747SOL    HW225704   3.720   1.968  13.780 -1.8158 -0.6804 -0.8193
 4748SOL     OW25705   1.391   2.686  11.064 -0.6742 -0.0806 -0.5628
 4748SOL    HW125706   1.334   2.624  11.019 -2.5701  0.1390  1.5595
 4748SOL    HW225707   1.329   2.744  11.107 -1.2898 -2.9822  2.5051
 4749SOL     OW25708   3.007   3.851  11.405  0.1415  0.0961 -0.8051
 4749SOL    HW125709   2.935   3.914  11.409 -0.0560 -0.0916 -1.3835
 4749SOL    HW225710   3.050   3.858  11.319 -0.5947 -3.2487 -1.4410
 4750SOL     OW25711   0.903   3.904   4.602 -0.5485  0.2660  0.2262
 4750SOL    HW125712   0.882   3.811   4.605 -1.2163  0.4399  0.8183
 4750SOL    HW225713   0.965   3.904   4.674 -1.5926 -0.8215  1.1203
 4751SOL     OW25714   4.384   1.515   8.448  0.5357  0.4764  0.6869
 4751SOL    HW125715   4.364   1.594   8.499  0.9824 -0.0795  1.7082
 4751SOL    HW225716   4.418   1.451   8.510  1.5659 -1.0585 -1.4858
 4752SOL     OW25717   3.664   4.235   1.649  0.3618  0.1584  0.0419
 4752SOL    HW125718   3.702   4.242   1.736 -1.3233  3.4597  0.5150
 4752SOL    HW225719   3.685   4.147   1.618 -1.3183 -0.8283  1.6323
 4753SOL     OW25720   2.860   2.879   0.259 -0.4960 -0.1533  0.0014
 4753SOL    HW125721   2.911   2.800   0.276  0.5595  1.0138  2.2710
 4753SOL    HW225722   2.864   2.882   0.163 -1.6255  1.3456 -0.0072
 4754SOL     OW25723   4.561   2.885  12.013 -0.7373  0.6181 -0.0774
 4754SOL    HW125724   4.536   2.941  11.939  1.7894  0.0265 -1.3913
 4754SOL    HW225725   4.474   2.856  12.037  0.0550 -0.2041  1.8193
 4755SOL     OW25726   4.128   1.369   4.188  0.9342  0.2203  0.4927
 4755SOL    HW125727   4.044   1.414   4.197  0.9869  0.4891 -0.3359
 4755SOL    HW225728   4.155   1.390   4.098 -0.6159  1.3752  0.2902
 4756SOL     OW25729   1.232   2.509  10.926 -0.1594 -0.2126  0.3029
 4756SOL    HW125730   1.142   2.531  10.902  0.4628  2.5606  0.5775
 4756SOL    HW225731   1.214   2.458  11.005 -1.0005 -0.7292 -0.2276
 4757SOL     OW25732   0.537   2.077  16.413  0.1766  0.7352  0.3432
 4757SOL    HW125733   0.449   2.106  16.388  0.2335 -0.9258 -1.7620
 4757SOL    HW225734   0.595   2.075  16.336  0.7512 -0.5608  0.8098
 4758SOL     OW25735   2.250   2.669   6.469  0.3453 -0.2618  0.0949
 4758SOL    HW125736   2.239   2.660   6.374  1.2041 -0.6481  0.0339
 4758SOL    HW225737   2.237   2.763   6.485 -2.1177 -0.5473 -0.1938
 4759SOL     OW25738   4.362   3.293   5.573  0.0336 -0.1497 -0.0326
 4759SOL    HW125739   4.294   3.241   5.616 -1.3381 -0.7264 -2.8936
 4759SOL    HW225740   4.360   3.252   5.487  1.1550 -0.5239  0.1254
 4760SOL     OW25741   1.406   0.053   7.385  0.0973  0.0503  0.3515
 4760SOL    HW125742   1.442   0.100   7.310  1.2020  1.3489  1.6910
 4760SOL    HW225743   1.463   0.079   7.458 -0.7487 -1.0773  1.4314
 4761SOL     OW25744   4.493   3.092   8.240  0.2697 -0.6226  0.3361
 4761SOL    HW125745   4.458   3.017   8.192 -3.2222  1.5773 -0.5711
 4761SOL    HW225746   4.571   3.053   8.280  0.9917  1.3598  0.8604
 4762SOL     OW25747   3.537   1.087  15.869 -0.3980  0.0288  0.1103
 4762SOL    HW125748   3.558   1.177  15.845  1.5704 -0.8517 -1.4160
 4762SOL    HW225749   3.459   1.097  15.924 -0.8117 -1.8349 -0.1137
 4763SOL     OW25750   1.432   3.504   3.819  0.2219  0.4244  0.4169
 4763SOL    HW125751   1.417   3.441   3.890  0.1501  1.1632  1.0487
 4763SOL    HW225752   1.524   3.499   3.795 -1.0305 -0.3015 -4.4128
 4764SOL     OW25753   2.404   2.117  17.308 -0.2548  0.1000 -0.3501
 4764SOL    HW125754   2.338   2.061  17.348 -0.6415  0.6841 -0.1640
 4764SOL    HW225755   2.433   2.055  17.241 -1.8257 -1.2871  0.2712
 4765SOL     OW25756   2.101   3.389  15.039 -0.9624  0.1769  0.5541
 4765SOL    HW125757   2.159   3.358  15.108 -0.1393  1.4997  0.4511
 4765SOL    HW225758   2.161   3.449  14.995 -0.1711 -0.2367  1.0745
 4766SOL     OW25759   2.563   0.718   6.803 -0.7981  0.2516 -0.5564
 4766SOL    HW125760   2.639   0.695   6.749 -2.0415  0.1170 -2.2265
 4766SOL    HW225761   2.489   0.692   6.749 -2.2490 -0.6904  1.9295
 4767SOL     OW25762   4.005   0.460   5.499  0.2149 -0.2710 -0.9165
 4767SOL    HW125763   4.007   0.555   5.514  0.6686 -0.7389  2.0032
 4767SOL    HW225764   4.010   0.436   5.591  0.8866 -0.9464 -1.1342
 4768SOL     OW25765   3.196   1.723   8.964 -0.5628 -0.1615 -0.1581
 4768SOL    HW125766   3.161   1.764   9.043  2.0040 -1.2959  1.5673
 4768SOL    HW225767   3.164   1.774   8.890 -0.9961  1.7198  1.3358
 4769SOL     OW25768   0.549   0.771   5.425  0.3699  0.0319 -0.5308
 4769SOL    HW125769   0.553   0.742   5.334 -1.2498 -0.1402 -0.5376
 4769SOL    HW225770   0.463   0.812   5.420 -1.1350 -3.2114 -1.2027
 4770SOL     OW25771   2.411   1.487   4.395  0.2520 -0.0299 -0.7150
 4770SOL    HW125772   2.473   1.518   4.328  1.3799  0.8669  0.7240
 4770SOL    HW225773   2.466   1.485   4.473  1.9453 -0.0598 -1.9095
 4771SOL     OW25774   0.390   3.589  10.316 -0.0527  0.4022 -0.4599
 4771SOL    HW125775   0.452   3.597  10.388  1.3641 -0.5945 -1.5608
 4771SOL    HW225776   0.387   3.495  10.297 -2.3149  0.0721  1.5764
 4772SOL     OW25777   2.383   1.939  14.384 -0.4020 -0.5600 -0.3657
 4772SOL    HW125778   2.475   1.964  14.388 -0.0310 -2.2264  1.6014
 4772SOL    HW225779   2.389   1.844  14.398 -0.7349 -0.4461  0.4789
 4773SOL     OW25780   3.414   4.344   8.644  0.2197  0.4736  0.5045
 4773SOL    HW125781   3.442   4.422   8.692  0.3304  1.6069 -1.3855
 4773SOL    HW225782   3.320   4.359   8.633 -0.2350 -2.2754  0.5910
 4774SOL     OW25783   2.947   2.229  16.246 -1.5424 -0.1356 -0.3261
 4774SOL    HW125784   2.862   2.257  16.278 -1.1625  0.2180  0.3670
 4774SOL    HW225785   2.972   2.153  16.299  2.2996  0.8075 -0.7711
 4775SOL     OW25786   3.251   0.799   6.815  0.3448 -0.2389  0.1740
 4775SOL    HW125787   3.295   0.732   6.762 -1.0002 -0.4598 -0.6488
 4775SOL    HW225788   3.183   0.746   6.855  0.7507 -2.8041 -2.4772
 4776SOL     OW25789   4.360   3.125   7.799  0.0593 -0.6126 -0.6805
 4776SOL    HW125790   4.378   3.109   7.706 -0.8541 -1.8428 -0.6489
 4776SOL    HW225791   4.274   3.086   7.818 -0.0250 -0.1325 -0.0775
 4777SOL     OW25792   2.972   2.650   9.262  0.0933  0.1434 -0.3374
 4777SOL    HW125793   3.035   2.689   9.322  1.6593 -1.9970 -0.5741
 4777SOL    HW225794   2.996   2.717   9.199  0.6191 -1.4409 -1.8291
 4778SOL     OW25795   1.104   1.190   3.235  0.3997 -0.0642  0.0135
 4778SOL    HW125796   1.091   1.283   3.216  0.3738  0.2005  1.3010
 4778SOL    HW225797   1.036   1.134   3.197  0.9606 -0.1857 -0.8184
 4779SOL     OW25798   4.392   3.452   1.509 -0.2265  0.1368 -0.1054
 4779SOL    HW125799   4.469   3.508   1.514 -0.6786  0.9919 -2.8952
 4779SOL    HW225800   4.348   3.500   1.439 -0.0219  2.2470  1.2108
 4780SOL     OW25801   2.288   2.977   6.339 -0.5183  0.5635 -0.0499
 4780SOL    HW125802   2.210   2.923   6.333  1.3415 -2.1866  0.8007
 4780SOL    HW225803   2.310   2.997   6.248  1.3839  1.1326  0.5310
 4781SOL     OW25804   1.677   1.111  12.473  0.0815 -0.4215  0.2456
 4781SOL    HW125805   1.607   1.127  12.410 -0.9650  0.2132  1.5553
 4781SOL    HW225806   1.716   1.199  12.470  1.7381 -1.2233 -1.6343
 4782SOL     OW25807   0.716   2.552   6.338  0.4350 -0.8956  0.8621
 4782SOL    HW125808   0.726   2.518   6.249 -3.4514  1.6516 -0.5356
 4782SOL    HW225809   0.712   2.473   6.392  2.2396 -0.5024  1.5733
 4783SOL     OW25810   2.731   2.254   3.070 -0.1715  0.3061  0.0195
 4783SOL    HW125811   2.644   2.263   3.032 -0.6450  1.3852  1.3804
 4783SOL    HW225812   2.769   2.209   2.994 -0.6578  1.7405 -1.0670
 4784SOL     OW25813   4.639   1.637   3.631 -0.1144 -0.0800  0.5781
 4784SOL    HW125814   0.008   1.638   3.592 -1.0040 -3.0663 -1.4773
 4784SOL    HW225815   4.633   1.544   3.653 -1.1860 -0.1222  0.0935
 4785SOL     OW25816   0.341   3.697   6.550 -0.1115 -0.2080  0.3087
 4785SOL    HW125817   0.403   3.685   6.477 -1.2561  1.4299 -0.9369
 4785SOL    HW225818   0.375   3.778   6.587  0.8089  0.0181 -1.0073
 4786SOL     OW25819   1.099   4.568   7.488  0.2385  0.0588 -0.6724
 4786SOL    HW125820   1.081   4.652   7.530 -0.4413  0.5107 -1.8599
 4786SOL    HW225821   1.020   4.553   7.436  0.8837 -0.4946 -1.4985
 4787SOL     OW25822   0.426   4.108  16.330 -0.4687 -0.7795  0.5087
 4787SOL    HW125823   0.477   4.176  16.373  1.0382 -1.6101  0.0321
 4787SOL    HW225824   0.487   4.034  16.320 -0.3725 -0.7239  0.6913
 4788SOL     OW25825   3.719   2.044  14.147 -0.2730  0.1203  0.2604
 4788SOL    HW125826   3.657   2.056  14.075 -2.0084  2.2182  2.0929
 4788SOL    HW225827   3.661   2.015  14.217 -2.2199 -1.1420 -1.8723
 4789SOL     OW25828   2.053   2.813   7.289  0.0382  0.1007  0.9738
 4789SOL    HW125829   1.958   2.813   7.275  0.2695 -1.9558 -0.6925
 4789SOL    HW225830   2.079   2.725   7.262  0.1824 -0.0131  1.4855
 4790SOL     OW25831   0.474   3.610  16.620 -0.2198  0.2821 -0.3492
 4790SOL    HW125832   0.411   3.538  16.623  1.1474 -0.8606  1.9630
 4790SOL    HW225833   0.458   3.652  16.705 -0.4568 -1.9581  0.7349
 4791SOL     OW25834   2.285   1.396   4.156 -0.4511  0.5115 -0.4841
 4791SOL    HW125835   2.311   1.452   4.229  0.1664  0.3758 -0.6032
 4791SOL    HW225836   2.300   1.464   4.091 -2.3054 -0.0317 -1.4873
 4792SOL     OW25837   2.697   1.532   7.675  0.2939 -0.3878  0.2773
 4792SOL    HW125838   2.765   1.540   7.608  0.9056  0.2814  0.9888
 4792SOL    HW225839   2.698   1.617   7.718  0.5314 -0.5338  0.5589
 4793SOL     OW25840   3.838   0.089   3.826 -0.2260  0.1956 -0.2423
 4793SOL    HW125841   3.833   0.069   3.920  1.8942  0.5527 -0.0511
 4793SOL    HW225842   3.844   0.183   3.837  1.6867  0.0047  0.3397
 4794SOL     OW25843   3.652   2.667  17.634 -0.5161  0.2412  0.6791
 4794SOL    HW125844   3.580   2.726  17.656 -3.9394 -3.1052 -1.7004
 4794SOL    HW225845   3.692   2.726  17.569 -1.0587 -0.2353 -0.0873
 4795SOL     OW25846   3.285   2.561   4.449  0.0007  0.4555  0.3799
 4795SOL    HW125847   3.189   2.561   4.456  0.0246  0.0761  0.7121
 4795SOL    HW225848   3.300   2.642   4.400 -1.2002  1.1344  1.1378
 4796SOL     OW25849   0.327   2.438   5.213  0.3557  0.2101  0.0078
 4796SOL    HW125850   0.296   2.439   5.123 -1.9957  1.9129  0.8400
 4796SOL    HW225851   0.389   2.510   5.214 -1.7136  1.9794  0.3169
 4797SOL     OW25852   1.162   0.100   7.109  0.1389  1.4287 -0.5643
 4797SOL    HW125853   1.253   0.129   7.103  0.5226  0.1207 -0.9917
 4797SOL    HW225854   1.130   0.147   7.186 -1.8931  0.2556 -0.7004
 4798SOL     OW25855   0.039   2.931   6.794  0.2221  0.6173 -0.4101
 4798SOL    HW125856   4.717   2.910   6.709  1.8593  2.3084 -1.6132
 4798SOL    HW225857   0.128   2.944   6.761  0.5802  1.6447  0.9964
 4799SOL     OW25858   0.058   2.643   1.501  0.4401 -0.0844 -0.1390
 4799SOL    HW125859   0.016   2.657   1.416  1.1122  2.5016 -0.0523
 4799SOL    HW225860   0.076   2.734   1.524 -0.9208 -0.4849  2.5333
 4800SOL     OW25861   1.638   0.703   7.537  0.3082 -0.0700 -0.1469
 4800SOL    HW125862   1.726   0.683   7.570  0.4266  0.8131  0.0599
 4800SOL    HW225863   1.631   0.638   7.467 -0.4846  0.3208 -0.4317
 4801SOL     OW25864   3.619   2.722   4.666  0.5423 -0.0729  0.2115
 4801SOL    HW125865   3.678   2.654   4.636 -0.6269 -1.5813  1.3303
 4801SOL    HW225866   3.535   2.675   4.667 -0.4067  1.5248 -2.4006
 4802SOL     OW25867   1.079   2.023   3.094  0.3172  0.0692 -0.0516
 4802SOL    HW125868   0.992   2.021   3.133  0.5826  0.9246  0.5769
 4802SOL    HW225869   1.137   2.014   3.170 -0.9535  0.1748  0.9210
 4803SOL     OW25870   3.993   3.855  15.005 -0.6286  0.5222  0.1869
 4803SOL    HW125871   3.943   3.892  14.932 -0.8493  1.6843  0.9189
 4803SOL    HW225872   4.080   3.893  14.994  0.0341 -0.8541  0.7049
 4804SOL     OW25873   4.383   4.065  12.735 -0.2867 -0.3452 -0.0630
 4804SOL    HW125874   4.399   4.004  12.663 -3.1285 -0.1365 -0.8610
 4804SOL    HW225875   4.420   4.011  12.804  1.4975 -0.1149 -0.8380
 4805SOL     OW25876   3.231   2.844  17.441  0.2186  0.7057  0.0650
 4805SOL    HW125877   3.266   2.843  17.531  0.8666 -1.8951 -0.2135
 4805SOL    HW225878   3.221   2.938  17.429 -0.7190  0.4583 -0.9985
 4806SOL     OW25879   2.692   3.620  17.605  0.3276  0.1165  0.3470
 4806SOL    HW125880   2.637   3.569  17.546  0.3589  1.5092 -0.8863
 4806SOL    HW225881   2.636   3.693  17.632 -0.4662 -0.0859 -0.7622
 4807SOL     OW25882   3.100   2.263  12.112 -0.1316  0.3113  0.7096
 4807SOL    HW125883   3.124   2.196  12.048 -1.0384  0.1256  0.5633
 4807SOL    HW225884   3.091   2.214  12.193 -2.8870 -3.4274 -1.8560
 4808SOL     OW25885   2.345   2.853   0.961  0.1045  0.3711  0.2912
 4808SOL    HW125886   2.425   2.906   0.955 -0.1436  0.5511 -1.6277
 4808SOL    HW225887   2.275   2.901   1.004  0.2360  0.1339  0.7729
 4809SOL     OW25888   1.708   0.497   2.142  0.0542  0.5785  0.2688
 4809SOL    HW125889   1.800   0.523   2.149  0.1173  0.6040 -0.7068
 4809SOL    HW225890   1.665   0.558   2.202  0.1257  2.8137 -1.9655
 4810SOL     OW25891   1.823   2.678   5.222  0.2229 -0.5035  0.4062
 4810SOL    HW125892   1.863   2.764   5.209 -3.3110  1.3225  1.4520
 4810SOL    HW225893   1.737   2.698   5.261 -0.0043 -1.3120  0.3112
 4811SOL     OW25894   0.007   1.207  12.478  0.3733  0.1587  0.2206
 4811SOL    HW125895   0.020   1.301  12.478 -0.5975  0.2864 -1.6418
 4811SOL    HW225896   4.653   1.192  12.417  0.5018  1.4830 -0.2590
 4812SOL     OW25897   3.207   0.057  12.289 -0.5929  0.0790  0.7060
 4812SOL    HW125898   3.235   0.134  12.240  1.1638  0.2346  1.9808
 4812SOL    HW225899   3.236   4.707  12.228 -0.2653  1.1879 -0.3574
 4813SOL     OW25900   3.035   3.913  16.074  0.3058 -0.1537 -0.1796
 4813SOL    HW125901   2.960   3.966  16.103  0.9795  1.5701 -1.6558
 4813SOL    HW225902   2.992   3.828  16.061 -0.5148  0.2871 -0.3623
 4814SOL     OW25903   1.485   1.450   6.650 -0.3378  0.2389  0.0067
 4814SOL    HW125904   1.486   1.534   6.604  0.3741  1.5182  2.3959
 4814SOL    HW225905   1.508   1.389   6.579  0.3993  1.0558 -0.4565
 4815SOL     OW25906   0.836   4.689   0.714 -0.0418  0.0051 -0.6784
 4815SOL    HW125907   0.807   0.048   0.763 -1.0751 -0.3039 -0.7950
 4815SOL    HW225908   0.900   4.653   0.776 -1.3178  0.1890  0.7729
 4816SOL     OW25909   3.166   0.177   2.312 -0.2990 -0.3489 -0.0017
 4816SOL    HW125910   3.221   0.196   2.236 -0.5941  1.0901  0.1378
 4816SOL    HW225911   3.146   0.083   2.316 -1.1460 -0.2692 -2.1570
 4817SOL     OW25912   3.662   2.696   7.677 -0.3489  0.1566 -0.6000
 4817SOL    HW125913   3.633   2.754   7.606 -1.9100  0.2580  0.1228
 4817SOL    HW225914   3.673   2.615   7.627 -0.4073 -0.3849  0.2734
 4818SOL     OW25915   1.524   1.764   3.499  0.0724 -0.1692 -0.3538
 4818SOL    HW125916   1.584   1.825   3.458  1.1471 -0.3232  1.0015
 4818SOL    HW225917   1.520   1.702   3.427 -0.7130 -0.7847  0.2089
 4819SOL     OW25918   0.068   3.755   2.266  0.3302  0.1254 -0.3433
 4819SOL    HW125919   0.136   3.817   2.239 -0.6043  1.1385 -0.3936
 4819SOL    HW225920   0.012   3.752   2.188  0.4827 -4.1850 -0.2614
 4820SOL     OW25921   1.562   3.870   0.194  0.1319  0.6247 -0.4178
 4820SOL    HW125922   1.640   3.925   0.195 -0.6809  1.7618 -0.2681
 4820SOL    HW225923   1.526   3.894   0.279  2.0204 -0.9535  0.8344
 4821SOL     OW25924   1.112   2.717   9.490  0.5415 -0.2384 -0.6538
 4821SOL    HW125925   1.053   2.642   9.488 -0.8717  0.8264  0.9322
 4821SOL    HW225926   1.180   2.685   9.551 -1.8013 -2.5082  0.7820
 4822SOL     OW25927   2.933   2.197  17.363  0.3829 -0.1103  0.4201
 4822SOL    HW125928   3.024   2.167  17.361  1.0197  1.7498  1.0853
 4822SOL    HW225929   2.917   2.209  17.270  0.8518 -4.6954 -0.2285
 4823SOL     OW25930   1.110   2.083  11.188  0.2963  0.6620  0.2569
 4823SOL    HW125931   1.059   2.004  11.207  0.3496  1.3767  3.4402
 4823SOL    HW225932   1.197   2.046  11.178  0.1504  0.0283  1.2735
 4824SOL     OW25933   2.700   1.948   3.645 -0.3293  0.5015 -0.7896
 4824SOL    HW125934   2.755   1.869   3.644 -3.4310 -1.7238  2.8949
 4824SOL    HW225935   2.613   1.907   3.648  0.4713 -1.3127 -2.3727
 4825SOL     OW25936   3.647   0.080  16.105  0.7457 -0.4421  0.7617
 4825SOL    HW125937   3.728   0.121  16.076  1.0315 -0.6683  1.2296
 4825SOL    HW225938   3.690   4.715  16.125 -1.2512 -1.0485  2.6057
 4826SOL     OW25939   2.750   0.648   1.658  0.0048  0.4131 -0.0374
 4826SOL    HW125940   2.702   0.609   1.731 -1.0776  2.3151  0.2708
 4826SOL    HW225941   2.701   0.729   1.647 -2.3429 -0.9849 -0.0050
 4827SOL     OW25942   2.696   1.358  13.479 -0.2163  0.0100 -0.7726
 4827SOL    HW125943   2.777   1.366  13.429  0.6243  0.3730  0.6511
 4827SOL    HW225944   2.639   1.326  13.409 -0.6967  0.3690 -0.5491
 4828SOL     OW25945   0.158   0.592  10.383  0.8088  0.3660  0.3849
 4828SOL    HW125946   0.087   0.589  10.319  1.3251  1.9597 -0.2651
 4828SOL    HW225947   0.218   0.560  10.316  0.6841  0.4553  0.2314
 4829SOL     OW25948   2.024   2.747  11.896 -0.1773 -0.3182 -0.0457
 4829SOL    HW125949   2.095   2.687  11.874  1.9260  2.7334 -1.6504
 4829SOL    HW225950   2.063   2.813  11.954  2.7584 -0.5764 -1.7392
 4830SOL     OW25951   1.386   3.905   1.960  0.1529 -0.6688  0.0914
 4830SOL    HW125952   1.305   3.867   1.991  0.8911 -3.5750 -1.5105
 4830SOL    HW225953   1.410   3.850   1.886  0.3472 -0.0161 -0.3373
 4831SOL     OW25954   2.978   3.305   7.234  0.0074  0.0510  0.1305
 4831SOL    HW125955   2.939   3.292   7.320 -1.8812  5.7605  0.1181
 4831SOL    HW225956   3.015   3.393   7.233  0.9795 -0.3594 -0.4653
 4832SOL     OW25957   1.829   4.336  16.264 -0.2752 -0.2332  0.5898
 4832SOL    HW125958   1.836   4.331  16.169  1.8628  3.6966  0.5214
 4832SOL    HW225959   1.918   4.307  16.285 -0.7952 -2.5984 -0.4946
 4833SOL     OW25960   1.972   2.515   8.768  0.0753  0.1643  0.4378
 4833SOL    HW125961   1.918   2.586   8.803 -1.8050 -1.0065 -0.1522
 4833SOL    HW225962   2.045   2.518   8.830  2.9950 -0.6831 -2.8718
 4834SOL     OW25963   0.064   3.888  12.273  0.3664  0.2449 -0.4463
 4834SOL    HW125964   4.716   3.831  12.234  0.8767 -0.3838 -0.3951
 4834SOL    HW225965   0.067   3.858  12.364  3.0820 -1.0961 -0.9898
 4835SOL     OW25966   2.331   1.677  14.934  0.0150  0.1374 -0.0134
 4835SOL    HW125967   2.303   1.658  14.844 -0.6788  2.4463 -0.2758
 4835SOL    HW225968   2.274   1.618  14.983  0.6754 -2.8602 -2.8633
 4836SOL     OW25969   2.607   2.165   3.293  0.0803 -0.7385 -0.1367
 4836SOL    HW125970   2.546   2.097   3.264 -2.0537  1.1452 -0.1486
 4836SOL    HW225971   2.660   2.178   3.214 -2.6355  0.4836 -1.7750
 4837SOL     OW25972   1.971   2.202   5.237 -0.3516  0.3528 -0.0951
 4837SOL    HW125973   1.995   2.292   5.217 -1.3122  0.9115  1.2386
 4837SOL    HW225974   1.952   2.202   5.331  1.0324  2.5548  0.1735
 4838SOL     OW25975   1.978   4.428   8.488 -0.1702  0.4246 -0.3148
 4838SOL    HW125976   2.014   4.476   8.414  1.6060  0.5239  0.6310
 4838SOL    HW225977   1.914   4.491   8.521 -1.6106 -0.7183 -0.8916
 4839SOL     OW25978   3.589   0.902   5.108  0.3823 -0.2121  0.0910
 4839SOL    HW125979   3.660   0.841   5.093  0.4523 -0.4836  1.5063
 4839SOL    HW225980   3.540   0.894   5.027 -1.1388  0.2951  0.9517
 4840SOL     OW25981   3.951   2.418   1.128  0.0571  0.0230 -0.0359
 4840SOL    HW125982   3.868   2.381   1.100  1.0995 -2.9371  0.8119
 4840SOL    HW225983   3.998   2.339   1.155 -0.6500  0.2226  1.7760
 4841SOL     OW25984   3.732   1.564   7.979 -0.3030 -0.1741 -0.3294
 4841SOL    HW125985   3.811   1.526   8.018 -1.0947 -0.7455  0.7009
 4841SOL    HW225986   3.679   1.584   8.056 -0.4910 -0.5314 -0.3658
 4842SOL     OW25987   1.038   3.488   6.751 -0.1861 -0.1276  0.0461
 4842SOL    HW125988   1.111   3.478   6.812 -1.9293 -0.6905  2.0323
 4842SOL    HW225989   1.080   3.461   6.669  3.5219  2.1579  1.2066
 4843SOL     OW25990   0.089   4.425   4.805  0.1805 -0.3090 -0.1683
 4843SOL    HW125991   0.039   4.435   4.724 -1.0868 -1.9101  0.4133
 4843SOL    HW225992   0.157   4.364   4.773 -0.4340  0.6733 -3.3511
 4844SOL     OW25993   2.024   1.942  12.046  0.1179  0.4691 -0.0450
 4844SOL    HW125994   2.084   1.963  11.974 -0.0957 -0.2059 -0.4155
 4844SOL    HW225995   2.089   1.916  12.111 -1.5574 -1.0717  1.0141
 4845SOL     OW25996   1.897   0.261   0.863 -0.9081 -0.5423 -0.3503
 4845SOL    HW125997   1.832   0.292   0.925  1.6872 -0.0481  2.1149
 4845SOL    HW225998   1.881   0.166   0.864  3.3017 -1.2776 -0.5475
 4846SOL     OW25999   3.394   2.656   6.137 -0.1138 -0.4205 -0.1065
 4846SOL    HW126000   3.425   2.629   6.051  0.3123  0.7281 -0.3168
 4846SOL    HW226001   3.392   2.580   6.196 -1.7202  0.1382  0.5513
 4847SOL     OW26002   3.232   1.023   9.390  0.2898 -0.9368  0.6872
 4847SOL    HW126003   3.275   0.945   9.354  1.2715 -0.4722  0.8781
 4847SOL    HW226004   3.222   1.072   9.308  0.2465 -0.9909  0.6600
 4848SOL     OW26005   0.119   4.495   7.304  0.3767 -0.4849 -0.0495
 4848SOL    HW126006   0.138   4.403   7.324  2.1034 -0.3913 -1.2252
 4848SOL    HW226007   0.204   4.535   7.285 -0.4471  1.6284  0.6564
 4849SOL     OW26008   0.635   1.510   2.662 -0.1158 -0.0198  0.7328
 4849SOL    HW126009   0.632   1.418   2.637  0.7888  0.1014  0.1434
 4849SOL    HW226010   0.724   1.531   2.632 -0.8724  1.2104 -0.6890
 4850SOL     OW26011   2.223   2.905  12.765 -0.4236  0.5992  0.2954
 4850SOL    HW126012   2.313   2.908  12.731 -0.1586 -1.8979  0.7343
 4850SOL    HW226013   2.173   2.866  12.694 -0.2863  0.4795  0.2631
 4851SOL     OW26014   0.895   2.306   1.600 -0.1107 -0.2120 -0.5364
 4851SOL    HW126015   0.931   2.225   1.562 -1.1764 -1.6729  1.5884
 4851SOL    HW226016   0.802   2.294   1.582 -0.4819  0.9512  0.6860
 4852SOL     OW26017   4.369   3.724  17.420 -0.2504  0.0175 -0.3328
 4852SOL    HW126018   4.445   3.715  17.478 -0.7201  1.0337  0.4570
 4852SOL    HW226019   4.392   3.814  17.395  0.0562  0.2344  0.7211
 4853SOL     OW26020   3.918   0.161  11.764 -0.4632 -0.0043  0.1506
 4853SOL    HW126021   3.867   0.081  11.782  1.1556 -0.8136  1.1351
 4853SOL    HW226022   3.938   0.186  11.854  1.5715  0.9838 -0.5825
 4854SOL     OW26023   3.642   2.886   2.002  0.3746  0.3651 -0.2301
 4854SOL    HW126024   3.670   2.941   1.928 -0.0352 -1.1208 -1.4953
 4854SOL    HW226025   3.572   2.829   1.969  1.6079 -2.9939  2.9540
 4855SOL     OW26026   0.636   2.357   2.083  0.6063 -0.2847 -0.3302
 4855SOL    HW126027   0.646   2.286   2.147  0.6100 -0.2717 -0.3161
 4855SOL    HW226028   0.590   2.422   2.135  0.8236 -0.2247 -0.2119
 4856SOL     OW26029   4.206   0.228   7.864  0.2920  0.1055 -0.1381
 4856SOL    HW126030   4.147   0.162   7.827 -1.3244  2.0816 -1.1057
 4856SOL    HW226031   4.167   0.243   7.950  2.3340  1.5700  0.5185
 4857SOL     OW26032   0.768   0.186   6.208  0.2085 -0.7942  0.3984
 4857SOL    HW126033   0.680   0.150   6.202  0.7116 -1.9409 -0.1840
 4857SOL    HW226034   0.770   0.251   6.138 -1.1368 -0.8618  0.3006
 4858SOL     OW26035   0.684   3.577   5.782  0.0817  0.3238  0.6414
 4858SOL    HW126036   0.601   3.582   5.829 -0.1261  0.5829  0.2424
 4858SOL    HW226037   0.700   3.670   5.769  0.3354  0.3774  1.3156
 4859SOL     OW26038   4.499   2.911  10.039 -0.1603 -0.0666 -0.1517
 4859SOL    HW126039   4.536   2.874   9.958 -0.0947  1.2889 -0.7441
 4859SOL    HW226040   4.436   2.839  10.050  2.1089 -1.6761  2.2299
 4860SOL     OW26041   3.835   3.759  13.807 -0.6460 -0.2631 -0.3603
 4860SOL    HW126042   3.915   3.809  13.790 -3.3124  4.6071  1.2841
 4860SOL    HW226043   3.782   3.832  13.840  0.2540  0.1686  0.1146
 4861SOL     OW26044   4.581   2.572  13.183 -0.2922  0.0191  0.6512
 4861SOL    HW126045   4.491   2.595  13.205 -0.1987 -0.9706  2.0066
 4861SOL    HW226046   4.571   2.483  13.150 -1.5630  1.6506 -3.4476
 4862SOL     OW26047   1.041   3.239   4.189  0.1645  0.0101  0.6476
 4862SOL    HW126048   1.083   3.155   4.209  0.1767 -0.3291 -0.7923
 4862SOL    HW226049   0.983   3.240   4.266  0.5941  0.9004  0.9593
 4863SOL     OW26050   3.778   1.177   3.394 -0.2335 -0.2945 -0.0363
 4863SOL    HW126051   3.749   1.158   3.483  1.5398 -0.1948  0.5680
 4863SOL    HW226052   3.728   1.256   3.374  0.5576  0.4126  0.7582
 4864SOL     OW26053   3.990   3.052   5.233 -0.0586  0.6523 -0.2100
 4864SOL    HW126054   4.084   3.038   5.240 -0.4299 -1.5905  0.2335
 4864SOL    HW226055   3.961   3.052   5.324  1.8357  1.5281  0.4034
 4865SOL     OW26056   2.242   4.676   3.513 -0.1302  0.2273  0.0545
 4865SOL    HW126057   2.249   4.659   3.607 -2.4195  2.2873  0.6121
 4865SOL    HW226058   2.300   0.034   3.509  0.2412 -0.0281  0.6898
 4866SOL     OW26059   0.359   4.567   7.705  0.2978 -0.3074 -0.1738
 4866SOL    HW126060   0.441   4.604   7.738  0.1443 -1.8401  1.9700
 4866SOL    HW226061   0.394   4.485   7.671  0.6264 -0.2076 -0.0732
 4867SOL     OW26062   2.639   4.166   4.548  0.1625 -0.0184  0.4162
 4867SOL    HW126063   2.610   4.249   4.509 -1.8246 -1.3597 -0.9513
 4867SOL    HW226064   2.583   4.113   4.492 -0.3563  0.4712  0.4678
 4868SOL     OW26065   2.097   0.808   9.253  0.2348  0.0165 -0.1227
 4868SOL    HW126066   2.064   0.897   9.243 -1.6293 -0.7028 -0.2168
 4868SOL    HW226067   2.184   0.819   9.212 -0.1570 -2.6811 -1.6607
 4869SOL     OW26068   4.164   3.646   0.094  0.2943  0.0639 -0.4219
 4869SOL    HW126069   4.152   3.663   0.187  0.8040 -0.6571 -0.2281
 4869SOL    HW226070   4.259   3.648   0.086  0.5630  1.6616  3.4726
 4870SOL     OW26071   1.985   2.471   5.167 -0.3654  0.2395  0.2942
 4870SOL    HW126072   1.924   2.541   5.192 -1.7746 -0.8804 -0.0102
 4870SOL    HW226073   2.026   2.509   5.089  1.5742  0.2132  1.3168
 4871SOL     OW26074   3.389   2.859  12.184  0.0660  0.0656 -0.6308
 4871SOL    HW126075   3.472   2.843  12.139  0.2588 -1.7072  0.3623
 4871SOL    HW226076   3.411   2.844  12.276 -0.1360  0.1190 -0.5760
 4872SOL     OW26077   3.544   2.700  10.774  0.3694  0.5540  0.0123
 4872SOL    HW126078   3.507   2.768  10.832 -0.9105  1.6833 -2.1185
 4872SOL    HW226079   3.463   2.674  10.732  1.0450 -1.2016 -0.1849
 4873SOL     OW26080   1.742   1.178   4.350 -0.5127  0.2692  0.1268
 4873SOL    HW126081   1.668   1.179   4.411  0.5944  1.8710  1.4131
 4873SOL    HW226082   1.797   1.251   4.377 -0.6559  0.6926 -0.7430
 4874SOL     OW26083   0.420   0.068   9.377 -0.1563 -0.5269  0.1742
 4874SOL    HW126084   0.474   0.079   9.299 -1.9676  2.7891 -0.5998
 4874SOL    HW226085   0.347   0.017   9.342 -0.0398  0.0165 -0.8506
 4875SOL     OW26086   1.186   0.014  10.079 -0.4177  0.0967  0.3487
 4875SOL    HW126087   1.178   4.710   9.986 -0.2645  1.0366  0.1029
 4875SOL    HW226088   1.187   4.651  10.129  2.0147  1.3394  2.3467
 4876SOL     OW26089   1.929   2.097   6.757  0.6541 -0.2277 -0.0071
 4876SOL    HW126090   1.934   2.065   6.847  0.2373 -1.1021 -0.2902
 4876SOL    HW226091   1.925   2.192   6.768  0.3809 -0.1144 -1.0492
 4877SOL     OW26092   4.296   4.549   0.540 -0.0655 -0.5933 -0.3237
 4877SOL    HW126093   4.309   4.516   0.629  0.7060  0.3650 -0.0737
 4877SOL    HW226094   4.279   4.637   0.573  1.7484  0.8325 -3.1991
 4878SOL     OW26095   4.328   0.945   4.061 -0.2300  0.0060  0.5185
 4878SOL    HW126096   4.358   0.993   3.983  1.8652 -1.1826  0.5892
 4878SOL    HW226097   4.296   1.019   4.112  2.2404  1.1654  0.4233
 4879SOL     OW26098   1.542   1.993  13.783 -0.4318 -0.1778  0.4112
 4879SOL    HW126099   1.555   1.988  13.878 -0.5414 -0.3876  0.4142
 4879SOL    HW226100   1.455   2.032  13.788 -0.8623 -0.8284 -2.0401
 4880SOL     OW26101   2.848   0.149   5.764  0.1841 -0.2072  0.1428
 4880SOL    HW126102   2.842   0.236   5.804 -0.8423 -0.1629 -0.1205
 4880SOL    HW226103   2.942   0.133   5.772  0.3560 -0.3528 -2.2401
 4881SOL     OW26104   3.380   4.296   2.060  0.2834 -0.0174  0.5110
 4881SOL    HW126105   3.398   4.313   1.968 -1.9303 -0.6439 -0.0536
 4881SOL    HW226106   3.285   4.287   2.049  0.4385 -1.4291  0.4078
 4882SOL     OW26107   0.481   2.083   7.071  0.5570  0.2005 -0.2710
 4882SOL    HW126108   0.544   2.087   7.000 -0.1585 -0.3576 -0.9389
 4882SOL    HW226109   0.434   2.009   7.032  3.5828 -1.7300 -0.1963
 4883SOL     OW26110   2.258   3.537  14.272  0.3656 -0.3545  0.1199
 4883SOL    HW126111   2.285   3.481  14.344 -0.0337  0.4557  0.9033
 4883SOL    HW226112   2.168   3.510  14.254  0.5467  0.9303 -2.6461
 4884SOL     OW26113   3.085   1.098   5.572  0.5468 -0.1510 -0.4249
 4884SOL    HW126114   3.170   1.083   5.530 -0.1642 -0.6008 -1.7034
 4884SOL    HW226115   3.042   1.120   5.489  0.2179 -0.2675 -0.2832
 4885SOL     OW26116   1.313   1.137   4.404 -0.6520 -0.3221 -0.0979
 4885SOL    HW126117   1.376   1.122   4.474  0.8482 -0.7226 -1.5423
 4885SOL    HW226118   1.364   1.132   4.324  0.3626 -0.2316  0.5521
 4886SOL     OW26119   3.218   2.708   5.702  0.3249  0.4019  1.0576
 4886SOL    HW126120   3.288   2.683   5.763  2.3599 -3.0165 -2.7048
 4886SOL    HW226121   3.278   2.767   5.656 -2.3129  2.5468  0.3650
 4887SOL     OW26122   2.200   3.027  16.236 -0.1408 -0.3015  0.1342
 4887SOL    HW126123   2.206   3.118  16.264  0.3739  1.0150 -4.2972
 4887SOL    HW226124   2.294   3.016  16.218 -0.2024 -0.1824 -0.2492
 4888SOL     OW26125   1.057   0.193   1.043 -0.6271  0.4766  0.3813
 4888SOL    HW126126   1.021   0.277   1.072  1.9951  2.4661 -2.0484
 4888SOL    HW226127   1.145   0.186   1.081 -1.1022  0.2346  1.4392
 4889SOL     OW26128   1.762   3.689  13.736  0.5635  0.0821  0.0716
 4889SOL    HW126129   1.787   3.608  13.692 -3.2747 -1.5881  0.9465
 4889SOL    HW226130   1.713   3.730  13.665  1.8968  1.6751  0.0620
 4890SOL     OW26131   4.315   0.688   2.500  0.3611 -0.6440  0.1532
 4890SOL    HW126132   4.366   0.656   2.425  0.3454 -2.2674  0.8266
 4890SOL    HW226133   4.364   0.650   2.572  1.1041  2.0124  1.0421
 4891SOL     OW26134   3.774   0.343   8.110  0.5838 -0.2705  0.0730
 4891SOL    HW126135   3.758   0.331   8.204  2.2289  1.9732  0.6414
 4891SOL    HW226136   3.716   0.414   8.083  2.0514  0.4034 -1.3041
 4892SOL     OW26137   2.235   0.254   7.767 -0.0339 -0.4881 -0.0897
 4892SOL    HW126138   2.210   0.177   7.817  0.9489  0.3830  1.7712
 4892SOL    HW226139   2.150   0.295   7.756  0.2491 -0.3467 -1.7287
 4893SOL     OW26140   1.596   2.239   8.526  0.1996  0.0488  0.5609
 4893SOL    HW126141   1.610   2.145   8.537 -2.0957 -0.4190 -0.5668
 4893SOL    HW226142   1.660   2.282   8.584  2.3711  1.0884 -2.6237
 4894SOL     OW26143   1.018   3.978  13.771 -0.4456  0.3379 -0.2816
 4894SOL    HW126144   0.953   4.047  13.756  0.1961  0.9509 -0.2968
 4894SOL    HW226145   1.058   3.999  13.856  1.5520  1.7728 -1.5522
 4895SOL     OW26146   4.614   3.385   9.564  0.1613  0.2582  0.0220
 4895SOL    HW126147   4.600   3.478   9.549 -2.5823 -0.0444  0.6532
 4895SOL    HW226148   4.563   3.368   9.643  2.2629 -2.2152  0.8518
 4896SOL     OW26149   0.958   0.217   7.764 -0.2440  0.0964 -0.2966
 4896SOL    HW126150   0.936   0.131   7.800  0.1386  1.2499  2.7447
 4896SOL    HW226151   1.029   0.194   7.704  0.8085  0.0882  0.9302
 4897SOL     OW26152   0.512   1.251   2.585 -0.4565  0.5632  0.0820
 4897SOL    HW126153   0.436   1.204   2.620 -1.5738  2.2475 -0.0846
 4897SOL    HW226154   0.471   1.304   2.516  1.0541  1.0808 -0.4180
 4898SOL     OW26155   0.543   4.241  12.801 -0.7854 -0.3185 -0.1544
 4898SOL    HW126156   0.503   4.316  12.846 -1.0564  1.0183 -2.5705
 4898SOL    HW226157   0.466   4.191  12.774 -0.1174 -0.8840 -1.0358
 4899SOL     OW26158   1.261   3.194   3.190 -0.6621 -0.0848 -0.2861
 4899SOL    HW126159   1.174   3.203   3.151 -0.7876 -0.1872 -0.0264
 4899SOL    HW226160   1.311   3.161   3.115 -1.1880 -2.5833  0.4548
 4900SOL     OW26161   3.780   0.186   2.059 -0.3730  0.0235 -0.3633
 4900SOL    HW126162   3.752   0.179   1.967  0.9925  0.5937 -0.8338
 4900SOL    HW226163   3.733   0.116   2.105  0.3069 -0.1934  0.0010
 4901SOL     OW26164   1.584   1.196   6.111  0.2012 -0.3096  0.2695
 4901SOL    HW126165   1.493   1.200   6.140  0.2680 -0.1292  0.4500
 4901SOL    HW226166   1.590   1.101   6.098 -0.0403 -0.1949 -0.7172
 4902SOL     OW26167   3.907   3.109   2.692  0.2607  0.5246 -0.4757
 4902SOL    HW126168   3.983   3.152   2.652  1.4727 -1.0215  0.1533
 4902SOL    HW226169   3.871   3.185   2.738 -2.0288 -0.3736 -0.7552
 4903SOL     OW26170   0.396   0.726  13.318 -0.4019 -0.0874  0.1028
 4903SOL    HW126171   0.475   0.704  13.269  0.1686  0.9603  0.5482
 4903SOL    HW226172   0.419   0.678  13.397  0.6260 -1.9015 -1.3183
 4904SOL     OW26173   3.293   1.722   8.616 -0.1377 -0.0786 -0.1522
 4904SOL    HW126174   3.269   1.687   8.702 -3.1911  1.1713 -0.4799
 4904SOL    HW226175   3.366   1.664   8.596 -1.6921 -1.8796 -0.5540
 4905SOL     OW26176   0.017   3.392   1.177  0.2655  0.5095  0.4960
 4905SOL    HW126177   0.029   3.345   1.260  1.3092 -0.4126 -0.1879
 4905SOL    HW226178   0.081   3.343   1.126 -0.3847 -1.0589  1.1802
 4906SOL     OW26179   2.113   0.052   7.294  0.1718  0.0791  0.5062
 4906SOL    HW126180   2.204   0.063   7.266 -0.0208  0.2831 -0.0542
 4906SOL    HW226181   2.062   0.101   7.229 -0.0727 -1.9936 -0.8648
 4907SOL     OW26182   3.196   2.740   0.595  0.4799  0.1730 -0.3585
 4907SOL    HW126183   3.175   2.832   0.611 -0.6547 -0.0885 -0.3578
 4907SOL    HW226184   3.132   2.702   0.654  1.3696 -0.7063  0.0327
 4908SOL     OW26185   4.121   4.174   5.629 -0.4485  0.2698 -0.5920
 4908SOL    HW126186   4.202   4.143   5.669 -2.5130 -2.7894  1.2635
 4908SOL    HW226187   4.068   4.094   5.625 -1.8659  1.2294 -1.0178
 4909SOL     OW26188   2.571   0.177   9.463  0.4247 -0.4100  0.3336
 4909SOL    HW126189   2.513   0.218   9.528 -0.7943 -0.6550 -0.6023
 4909SOL    HW226190   2.623   0.118   9.518 -0.1233 -2.9545 -1.9377
 4910SOL     OW26191   0.102   4.609   3.164  0.5146 -0.6541 -0.2729
 4910SOL    HW126192   0.088   4.676   3.097  0.5661 -0.1919  0.1778
 4910SOL    HW226193   0.177   4.567   3.123  0.6546  0.4702 -1.1667
 4911SOL     OW26194   4.385   3.570   4.389 -0.1102 -0.1378  0.5354
 4911SOL    HW126195   4.312   3.628   4.369  1.6222  1.6129 -0.8186
 4911SOL    HW226196   4.338   3.498   4.431 -1.5730 -0.6913 -2.0712
 4912SOL     OW26197   0.875   0.914  10.859  0.1627 -0.0591 -0.2406
 4912SOL    HW126198   0.859   0.837  10.914  0.4016 -1.0514 -1.5905
 4912SOL    HW226199   0.836   0.893  10.775 -1.9592  0.0637  0.6947
 4913SOL     OW26200   3.365   3.310  17.185  0.0138  0.2332 -0.5375
 4913SOL    HW126201   3.300   3.371  17.151 -0.7678 -0.8348 -0.9712
 4913SOL    HW226202   3.334   3.273  17.267 -1.0872 -0.4885 -1.2818
 4914SOL     OW26203   2.062   0.051   9.870 -0.0166 -0.5512  0.5321
 4914SOL    HW126204   2.124   0.091   9.809  0.1715  0.2012  1.2129
 4914SOL    HW226205   2.124   4.708   9.910  1.1364 -0.2588 -0.7875
 4915SOL     OW26206   2.645   0.571  13.393 -0.0539  0.1719  0.5163
 4915SOL    HW126207   2.681   0.581  13.481 -0.7893 -0.0047  0.8290
 4915SOL    HW226208   2.550   0.571  13.404 -0.1297  1.2929 -0.0393
 4916SOL     OW26209   1.035   0.307   9.238  0.5788  0.3359  0.0266
 4916SOL    HW126210   1.077   0.234   9.282 -0.9543 -1.2640 -1.1593
 4916SOL    HW226211   1.104   0.339   9.180 -0.2451  1.7149 -0.1929
 4917SOL     OW26212   0.231   0.193   3.269  0.1177 -0.3500 -0.2659
 4917SOL    HW126213   0.166   0.128   3.241 -2.2262  0.4130  3.3187
 4917SOL    HW226214   0.182   0.273   3.248 -0.8714 -0.8929 -0.0523
 4918SOL     OW26215   1.423   1.171   7.777  0.1798 -0.1268 -0.0543
 4918SOL    HW126216   1.459   1.083   7.779 -0.3377 -0.3361  0.1552
 4918SOL    HW226217   1.458   1.202   7.694 -0.2307 -0.6998 -0.4310
 4919SOL     OW26218   0.174   0.036   7.693  0.4565 -0.1008  0.2277
 4919SOL    HW126219   0.201   0.106   7.634  0.5956  1.3859  2.0624
 4919SOL    HW226220   0.243   4.688   7.689  0.8491  0.2982  0.3308
 4920SOL     OW26221   0.262   3.327   5.887 -0.1212  0.5295 -0.0044
 4920SOL    HW126222   0.230   3.240   5.863  1.0998 -0.3376  1.4904
 4920SOL    HW226223   0.207   3.347   5.962 -0.4513 -2.8697  0.6669
 4921SOL     OW26224   1.789   3.989   0.138 -0.3304  1.1397  0.2404
 4921SOL    HW126225   1.878   3.984   0.172 -0.3571 -1.7297 -0.1517
 4921SOL    HW226226   1.784   4.072   0.090  0.7355  1.6728  1.0641
 4922SOL     OW26227   3.458   3.758  12.211 -0.2085 -0.1884  0.2000
 4922SOL    HW126228   3.375   3.747  12.256  0.1567 -1.0338  0.6617
 4922SOL    HW226229   3.448   3.696  12.139  1.0059 -0.6009  0.3839
 4923SOL     OW26230   3.184   0.856   3.635  0.2613 -0.1476  0.6372
 4923SOL    HW126231   3.271   0.836   3.601  0.4245  2.0665 -0.2610
 4923SOL    HW226232   3.135   0.877   3.555 -1.1350 -0.7181  1.3295
 4924SOL     OW26233   2.216   4.489  15.420  0.5583 -0.1022 -0.0388
 4924SOL    HW126234   2.303   4.455  15.438  0.0572 -0.3355  1.9549
 4924SOL    HW226235   2.217   4.495  15.324  1.3428  0.2835 -0.0061
 4925SOL     OW26236   3.939   3.546   7.152  0.5195 -0.7838 -0.0113
 4925SOL    HW126237   3.926   3.634   7.117 -0.1310 -0.9218 -0.1115
 4925SOL    HW226238   3.982   3.565   7.235  0.2862 -2.1723  0.4250
 4926SOL     OW26239   1.001   4.065   8.892 -0.1282  0.2454 -0.1640
 4926SOL    HW126240   1.016   3.972   8.910  0.9805  0.2828 -0.8708
 4926SOL    HW226241   1.015   4.094   8.982  0.3678 -0.2516 -0.0802
 4927SOL     OW26242   4.004   1.800  15.100  0.3611  0.4642 -0.2125
 4927SOL    HW126243   4.044   1.851  15.029  0.4305  1.4894  0.5735
 4927SOL    HW226244   3.914   1.789  15.070  1.0417 -1.3625 -1.5888
 4928SOL     OW26245   4.666   4.710   6.203 -0.1071 -0.2218 -0.3464
 4928SOL    HW126246   4.714   0.063   6.245 -3.2799  1.4544  0.4512
 4928SOL    HW226247   0.013   4.646   6.173  0.7649 -0.4255  2.0107
 4929SOL     OW26248   3.146   1.370  10.097  0.1039  0.0275  0.1788
 4929SOL    HW126249   3.056   1.388  10.069 -0.1097 -0.9897  0.1826
 4929SOL    HW226250   3.146   1.283  10.057 -1.0737 -0.0563  0.3585
 4930SOL     OW26251   3.441   2.653  12.649  0.4065 -0.1400 -0.2511
 4930SOL    HW126252   3.393   2.570  12.657 -0.4470  0.3090 -0.7117
 4930SOL    HW226253   3.424   2.684  12.737 -0.2128  1.0455 -0.7904
 4931SOL     OW26254   2.599   3.761   4.742 -0.1197  0.2416  0.4304
 4931SOL    HW126255   2.597   3.681   4.690  1.1815 -0.0689  0.8640
 4931SOL    HW226256   2.529   3.747   4.806 -0.4444  0.7578  0.1975
 4932SOL     OW26257   3.826   4.203   4.263  0.3875 -0.3826 -0.7084
 4932SOL    HW126258   3.838   4.174   4.354  2.3176  1.1310 -0.4972
 4932SOL    HW226259   3.900   4.165   4.217 -0.8044 -1.1478 -2.0081
 4933SOL     OW26260   1.848   0.726  16.023 -0.1505  0.6363  0.0152
 4933SOL    HW126261   1.764   0.744  15.982 -0.2698 -0.9218 -0.4447
 4933SOL    HW226262   1.899   0.806  16.013  0.8872 -0.0356 -0.0584
 4934SOL     OW26263   1.507   1.660   2.789 -0.2420  0.0797 -0.1565
 4934SOL    HW126264   1.550   1.649   2.704  0.6056  1.5046  0.0897
 4934SOL    HW226265   1.573   1.717   2.829  1.5263 -1.3792 -1.0061
 4935SOL     OW26266   1.242   2.162   1.081 -0.4055  0.5579  0.3282
 4935SOL    HW126267   1.244   2.151   0.986  0.1108  1.7624  0.1984
 4935SOL    HW226268   1.155   2.130   1.104 -0.6209  1.0004  0.1343
 4936SOL     OW26269   2.317   3.843   6.187 -0.2868 -0.2873  0.1028
 4936SOL    HW126270   2.362   3.911   6.237 -1.1274 -0.4360  1.0576
 4936SOL    HW226271   2.253   3.900   6.145 -0.9478 -0.9388  0.2273
 4937SOL     OW26272   1.689   2.032   6.654  0.2194 -0.2055  0.2684
 4937SOL    HW126273   1.773   2.049   6.696 -0.9897  3.1811  1.3655
 4937SOL    HW226274   1.664   1.954   6.704 -2.0085 -0.7887 -1.7399
 4938SOL     OW26275   2.613   0.346  16.065 -0.3459 -0.3295  0.5188
 4938SOL    HW126276   2.706   0.368  16.075  0.1873 -2.4736  0.2949
 4938SOL    HW226277   2.587   0.392  16.145 -0.7490 -1.4971  1.0627
 4939SOL     OW26278   0.464   4.412  10.875  0.3394 -0.1064  0.1792
 4939SOL    HW126279   0.380   4.424  10.919  0.5672  0.3096  0.5001
 4939SOL    HW226280   0.515   4.443  10.949 -1.2824  0.3044  1.1043
 4940SOL     OW26281   2.054   0.966   0.559  0.7871 -0.0434  0.1209
 4940SOL    HW126282   2.131   0.993   0.609  2.7607 -2.7476 -1.4512
 4940SOL    HW226283   2.063   1.012   0.476 -0.2707  2.0412  1.1533
 4941SOL     OW26284   2.975   1.532   9.473  0.2220 -0.2798 -0.6780
 4941SOL    HW126285   3.060   1.572   9.452  1.5874 -2.7914  0.0841
 4941SOL    HW226286   2.920   1.573   9.407  2.0101 -0.1598 -2.0942
 4942SOL     OW26287   3.267   1.826  12.180 -0.0845  0.6792  0.0001
 4942SOL    HW126288   3.283   1.734  12.157 -0.1459  0.5573  0.4526
 4942SOL    HW226289   3.350   1.870  12.160  0.8209  0.2019  2.7103
 4943SOL     OW26290   4.196   3.596  12.694 -0.3733 -1.1643  0.1394
 4943SOL    HW126291   4.167   3.559  12.611  0.6596 -1.2726 -0.1685
 4943SOL    HW226292   4.256   3.667  12.673  0.0339 -1.9966 -1.4632
 4944SOL     OW26293   2.693   3.279   0.721  0.3994  0.5986 -0.6545
 4944SOL    HW126294   2.662   3.195   0.755  3.3880  0.2768  1.2149
 4944SOL    HW226295   2.643   3.346   0.767  0.0688  1.3303 -2.0719
 4945SOL     OW26296   3.355   2.903   0.039 -0.2747 -0.3337  0.0481
 4945SOL    HW126297   3.285   2.887   0.103  1.5818 -2.3543  1.6236
 4945SOL    HW226298   3.432   2.884   0.093 -0.6029 -0.4790  0.4717
 4946SOL     OW26299   2.451   1.405   7.598  0.1524  0.1760  0.0693
 4946SOL    HW126300   2.492   1.331   7.552  0.0317 -0.3147  0.7420
 4946SOL    HW226301   2.533   1.454   7.601  0.6346 -0.5595 -1.1821
 4947SOL     OW26302   0.044   2.114  10.473 -0.4580 -0.3702 -0.1860
 4947SOL    HW126303   0.015   2.029  10.438 -0.1327  0.2138 -1.8798
 4947SOL    HW226304   0.139   2.118  10.462 -0.7071  0.7728 -1.9759
 4948SOL     OW26305   0.139   3.410   1.605 -0.2924 -0.2348 -0.1988
 4948SOL    HW126306   0.051   3.377   1.623 -0.2048 -0.3768 -0.0290
 4948SOL    HW226307   0.163   3.350   1.535 -1.3383  0.3737 -1.0775
 4949SOL     OW26308   0.337   1.228  15.637 -0.1413  0.6542 -0.1369
 4949SOL    HW126309   0.275   1.207  15.567 -0.3628  1.0938 -0.0753
 4949SOL    HW226310   0.383   1.144  15.640 -2.4496 -0.5809  0.6877
 4950SOL     OW26311   2.423   2.625   6.678 -0.1992 -0.1610 -0.0452
 4950SOL    HW126312   2.446   2.710   6.642  0.1091  0.2155  1.0438
 4950SOL    HW226313   2.349   2.609   6.619 -0.8001  0.5387  0.5116
 4951SOL     OW26314   0.207   2.947  15.045 -0.2498  0.2025  0.2733
 4951SOL    HW126315   0.256   2.987  15.117 -1.1401  1.4444  0.1892
 4951SOL    HW226316   0.211   2.855  15.070 -0.7649  0.0957 -0.0304
 4952SOL     OW26317   4.604   2.206   5.765 -0.1237  0.5393 -0.0714
 4952SOL    HW126318   4.626   2.189   5.673  0.0133  0.8164 -0.0919
 4952SOL    HW226319   4.549   2.129   5.772 -1.2731  1.4065  0.4283
 4953SOL     OW26320   0.946   1.055   4.982 -0.0006  0.0631 -0.4682
 4953SOL    HW126321   1.035   1.080   5.005 -1.2705  1.8495  2.4654
 4953SOL    HW226322   0.939   0.962   5.005 -1.1879 -0.2312 -1.9527
 4954SOL     OW26323   3.509   2.520  12.127 -0.0206 -0.3696 -0.2395
 4954SOL    HW126324   3.415   2.514  12.114  0.3415 -1.4245 -2.3647
 4954SOL    HW226325   3.532   2.429  12.109 -1.2101 -0.7431  0.1213
 4955SOL     OW26326   2.999   2.593   0.726 -0.2851  0.0538 -0.0474
 4955SOL    HW126327   2.919   2.563   0.683 -1.1675  0.7514  1.1080
 4955SOL    HW226328   3.055   2.517   0.708  0.8222  1.1753 -1.3387
 4956SOL     OW26329   1.214   4.161   3.006  0.4227  0.2043 -0.1498
 4956SOL    HW126330   1.186   4.147   2.915 -0.1309  1.3541 -0.1591
 4956SOL    HW226331   1.298   4.203   2.988  0.4121  0.6829  0.9301
 4957SOL     OW26332   2.544   2.283  12.843  0.3298  0.2960  0.2997
 4957SOL    HW126333   2.563   2.355  12.783 -0.2457  0.5338  0.4043
 4957SOL    HW226334   2.632   2.246  12.844 -0.5099 -1.6833  0.7663
 4958SOL     OW26335   2.959   3.583   2.862 -0.6698 -0.3004 -0.5147
 4958SOL    HW126336   2.964   3.674   2.891 -1.2351  0.0929 -1.6501
 4958SOL    HW226337   2.881   3.564   2.914 -1.0867  0.0198 -1.0225
 4959SOL     OW26338   1.613   1.906   5.706 -0.6207  0.2042  0.3316
 4959SOL    HW126339   1.644   1.938   5.791  0.4029  2.5784 -0.9512
 4959SOL    HW226340   1.667   1.948   5.640  1.7626 -2.8978  0.3102
 4960SOL     OW26341   0.796   2.868  13.246 -0.0639  0.4959  0.2677
 4960SOL    HW126342   0.885   2.869  13.281 -0.0245 -1.8595  0.2514
 4960SOL    HW226343   0.805   2.862  13.151 -0.3238  0.7611  0.2279
 4961SOL     OW26344   2.185   0.361   2.351 -0.3758 -0.5007 -0.2929
 4961SOL    HW126345   2.239   0.295   2.393 -0.2477  0.2125  0.6589
 4961SOL    HW226346   2.241   0.415   2.295  3.7819 -2.6958  1.7669
 4962SOL     OW26347   0.409   2.765   2.228 -0.5077  0.5682  0.3858
 4962SOL    HW126348   0.367   2.732   2.307 -2.0864  0.7043 -0.3819
 4962SOL    HW226349   0.339   2.744   2.166  0.7600  1.4087 -1.3163
 4963SOL     OW26350   3.686   4.048  14.631 -0.1520  0.5125  0.3898
 4963SOL    HW126351   3.701   3.962  14.592  0.0432  1.0273 -0.6869
 4963SOL    HW226352   3.620   4.030  14.698 -0.6175 -0.0879 -0.2363
 4964SOL     OW26353   1.233   0.161  13.696  0.0906  0.0763 -0.3908
 4964SOL    HW126354   1.154   0.116  13.666  1.4526 -2.7055  0.2072
 4964SOL    HW226355   1.289   0.089  13.725  1.8486  1.2373 -0.8742
 4965SOL     OW26356   4.260   2.506   1.581  0.1451 -0.0783  0.9679
 4965SOL    HW126357   4.172   2.484   1.550  0.7998 -1.9234  0.4373
 4965SOL    HW226358   4.252   2.480   1.673 -0.5661 -0.7430  0.7221
 4966SOL     OW26359   1.730   4.418   6.002  0.2537 -0.5007 -0.0438
 4966SOL    HW126360   1.749   4.511   5.998 -0.9886 -0.2244  0.6591
 4966SOL    HW226361   1.668   4.423   6.075 -0.6481  0.1626 -0.8674
 4967SOL     OW26362   0.913   2.806  11.959 -0.1719 -0.4557 -0.1093
 4967SOL    HW126363   0.859   2.867  11.910  0.6729 -0.7061 -1.3295
 4967SOL    HW226364   0.847   2.757  12.009  0.4308 -0.2898  0.8574
 4968SOL     OW26365   2.759   1.787   2.615 -0.1709  0.2790 -0.0724
 4968SOL    HW126366   2.807   1.707   2.596  1.8604  1.9153 -1.7571
 4968SOL    HW226367   2.755   1.822   2.525 -2.4906  0.1570 -0.0209
 4969SOL     OW26368   4.550   1.156   6.702  0.0555 -0.1165  0.0007
 4969SOL    HW126369   4.611   1.229   6.712 -0.4799  0.5086 -1.3051
 4969SOL    HW226370   4.607   1.081   6.685  0.2738  0.3011 -1.1352
 4970SOL     OW26371   3.332   2.432   6.275  0.4696  0.1157  0.5497
 4970SOL    HW126372   3.353   2.418   6.367  2.4347 -1.2778 -0.0975
 4970SOL    HW226373   3.335   2.338   6.259 -0.8660  0.4648 -1.7621
 4971SOL     OW26374   2.278   4.616   8.778  0.5719  0.1217  0.4810
 4971SOL    HW126375   2.243   4.705   8.782  1.0337  0.2592  1.3587
 4971SOL    HW226376   2.373   4.627   8.775  0.2123  2.8733 -1.0537
 4972SOL     OW26377   0.615   3.276   6.929 -0.6575 -0.5218 -0.2050
 4972SOL    HW126378   0.662   3.303   6.850 -0.5025  1.0569  0.4404
 4972SOL    HW226379   0.652   3.330   6.998 -0.4936  0.8913 -1.3882
 4973SOL     OW26380   0.751   0.508   8.677 -0.3769 -0.1417  0.1677
 4973SOL    HW126381   0.755   0.566   8.602  0.0918 -0.7712 -0.2947
 4973SOL    HW226382   0.702   0.570   8.732  0.5382  2.5403 -2.0560
 4974SOL     OW26383   2.575   4.582   3.446  0.0419  0.2396 -0.2733
 4974SOL    HW126384   2.523   4.529   3.507 -0.8143  1.9749  0.5006
 4974SOL    HW226385   2.647   4.611   3.502 -0.0501 -1.0180  0.5169
 4975SOL     OW26386   1.385   2.438   4.991 -0.2337  0.2337  0.1458
 4975SOL    HW126387   1.328   2.362   4.978  0.4039 -0.5125  1.7222
 4975SOL    HW226388   1.419   2.456   4.903 -0.1996 -0.2925  0.0519
 4976SOL     OW26389   0.038   1.134   9.513 -0.5992 -0.4547  0.0664
 4976SOL    HW126390   0.127   1.166   9.523 -1.3585  1.3161  1.2255
 4976SOL    HW226391   0.047   1.051   9.561 -1.3728 -0.3716  0.3718
 4977SOL     OW26392   3.241   0.625  16.333  0.1148  0.0346 -0.1103
 4977SOL    HW126393   3.189   0.545  16.324 -0.5173  0.1060  3.0265
 4977SOL    HW226394   3.201   0.664  16.411  1.9470  1.3990  0.1321
 4978SOL     OW26395   3.280   2.652  17.189  0.1423 -0.0962  0.5619
 4978SOL    HW126396   3.261   2.732  17.140  0.7950  0.2358  0.8578
 4978SOL    HW226397   3.240   2.675  17.273 -0.6276  1.6172 -0.2627
 4979SOL     OW26398   1.473   1.720   8.114  0.3520 -0.1263  0.1952
 4979SOL    HW126399   1.395   1.769   8.086 -0.5868 -2.2636 -0.9008
 4979SOL    HW226400   1.447   1.708   8.205  1.5296 -1.9406  0.2880
 4980SOL     OW26401   1.747   2.445   2.619  0.3640 -0.1676 -0.3169
 4980SOL    HW126402   1.730   2.369   2.676 -0.3723 -0.3927 -0.8450
 4980SOL    HW226403   1.724   2.519   2.675 -1.6484 -0.5643 -0.6371
 4981SOL     OW26404   2.203   2.647   5.775  0.2574  0.8260 -0.0853
 4981SOL    HW126405   2.168   2.682   5.857 -1.7943 -0.3856 -0.4611
 4981SOL    HW226406   2.294   2.678   5.780  0.8262 -1.2896  2.3173
 4982SOL     OW26407   0.788   4.007  12.698 -0.2053  0.0306 -0.0667
 4982SOL    HW126408   0.760   3.952  12.771  1.2121  1.0970  1.2835
 4982SOL    HW226409   0.719   3.989  12.634  0.0513 -0.1977 -0.2795
 4983SOL     OW26410   2.825   3.899   2.608 -0.7290 -0.4278  0.2711
 4983SOL    HW126411   2.768   3.836   2.653 -1.7443 -1.4474 -2.4477
 4983SOL    HW226412   2.773   3.979   2.602  0.2254  0.2790  1.5094
 4984SOL     OW26413   4.558   0.817   6.254 -0.0808  0.2709  0.4742
 4984SOL    HW126414   4.499   0.878   6.210 -0.7584 -1.2677 -0.7702
 4984SOL    HW226415   4.618   0.791   6.184  0.6650  0.8977  0.8885
 4985SOL     OW26416   3.309   0.668  13.898 -0.3465 -0.1339 -0.0430
 4985SOL    HW126417   3.332   0.710  13.981 -3.4438  0.0668  0.7241
 4985SOL    HW226418   3.222   0.708  13.905  1.2968  3.7607 -1.8694
 4986SOL     OW26419   0.131   1.165   7.095 -0.2875  0.3025 -0.1908
 4986SOL    HW126420   0.111   1.176   7.188 -1.4984  0.3747 -0.4556
 4986SOL    HW226421   0.089   1.080   7.088 -1.5571  0.9459 -0.4017
 4987SOL     OW26422   2.524   2.206   5.504 -0.1646 -0.3611 -0.3330
 4987SOL    HW126423   2.435   2.237   5.524 -0.6052  0.3158 -3.2835
 4987SOL    HW226424   2.569   2.202   5.588  4.0032 -0.8097 -2.5723
 4988SOL     OW26425   1.662   0.832  12.277 -0.1158 -0.9320 -0.4544
 4988SOL    HW126426   1.736   0.849  12.336 -0.4711 -0.7239 -0.0637
 4988SOL    HW226427   1.684   0.882  12.199  0.3106 -4.1420 -2.3859
 4989SOL     OW26428   2.584   2.152   9.193 -0.1729 -0.3001  0.3068
 4989SOL    HW126429   2.526   2.191   9.258 -0.5316 -2.1710  1.1132
 4989SOL    HW226430   2.523   2.125   9.123  0.9588  1.9884 -1.5457
 4990SOL     OW26431   2.269   0.809  13.545  0.2660  0.8386  0.4103
 4990SOL    HW126432   2.209   0.877  13.575  0.4610  0.2290  2.1861
 4990SOL    HW226433   2.359   0.839  13.557 -0.3131  2.2697  1.0856
 4991SOL     OW26434   3.445   2.532   7.106  0.6762  0.7283  0.3970
 4991SOL    HW126435   3.389   2.484   7.168  1.3699 -1.0035 -0.3096
 4991SOL    HW226436   3.400   2.509   7.025 -0.8468 -0.2471  1.5275
 4992SOL     OW26437   4.595   4.405   8.028 -0.0624 -0.5644 -0.3258
 4992SOL    HW126438   4.684   4.428   8.055  0.0219 -0.0092 -1.0755
 4992SOL    HW226439   4.575   4.463   7.954  1.1769  0.1247 -0.1126
 4993SOL     OW26440   2.944   3.495   4.321 -0.4821  0.2001 -0.5843
 4993SOL    HW126441   2.857   3.471   4.289 -1.5817  2.0910  0.9297
 4993SOL    HW226442   2.981   3.420   4.368  0.2212  0.5329 -0.5989
 4994SOL     OW26443   2.346   3.949  11.046  0.4275  0.4582 -0.0150
 4994SOL    HW126444   2.398   4.022  11.079  1.2704 -0.2359  0.1888
 4994SOL    HW226445   2.377   3.871  11.093 -2.2841 -0.1840  0.6997
 4995SOL     OW26446   3.106   4.550   7.080 -0.1093 -0.1880  0.5624
 4995SOL    HW126447   3.067   4.617   7.135  0.1697  0.5364 -0.1232
 4995SOL    HW226448   3.151   4.500   7.148  0.8907 -1.1241 -0.7707
 4996SOL     OW26449   1.982   3.834  15.309  0.4561 -0.1786 -0.1365
 4996SOL    HW126450   1.887   3.841  15.304  0.1848 -2.7018  1.5297
 4996SOL    HW226451   2.014   3.925  15.307  2.0784 -0.7593 -1.1573
 4997SOL     OW26452   2.519   3.400   6.274  0.2610 -0.3139 -0.2608
 4997SOL    HW126453   2.554   3.482   6.308  0.1727 -0.7297  0.8385
 4997SOL    HW226454   2.576   3.383   6.200  1.5062 -1.7003  1.0115
 4998SOL     OW26455   1.369   0.026   2.227 -0.1432  0.3409  0.2970
 4998SOL    HW126456   1.335   0.077   2.300  1.0572  0.7092  0.5898
 4998SOL    HW226457   1.435   4.694   2.275 -1.2643  0.2159  1.7115
 4999SOL     OW26458   2.929   3.297   2.860  0.2077 -0.0822  0.1609
 4999SOL    HW126459   3.013   3.266   2.827  0.1005 -0.0575 -0.1282
 4999SOL    HW226460   2.915   3.382   2.818  3.8913  0.7568  0.6240
 5000SOL     OW26461   1.913   4.390   2.541 -0.2613 -0.0447  0.6085
 5000SOL    HW126462   1.855   4.380   2.616 -2.6136  0.6944 -1.0856
 5000SOL    HW226463   1.943   4.299   2.535  1.7482  0.7493 -1.2076
 5001SOL     OW26464   0.354   3.209   9.209  0.0482 -0.4764 -0.3123
 5001SOL    HW126465   0.370   3.253   9.126  2.7743  0.9580  0.9705
 5001SOL    HW226466   0.305   3.276   9.256 -2.0699 -2.1861 -0.0621
 5002SOL     OW26467   0.632   3.022   6.339 -0.8969 -0.2299  0.8127
 5002SOL    HW126468   0.666   3.079   6.270  1.1610  0.1466  2.1411
 5002SOL    HW226469   0.627   2.945   6.282  0.9177  0.2381  0.0297
 5003SOL     OW26470   1.129   1.837  17.632  1.0777 -0.4194  0.4441
 5003SOL    HW126471   1.044   1.856  17.593  1.9914  1.1028 -0.8325
 5003SOL    HW226472   1.139   1.923  17.673 -1.3471 -0.0870  0.3342
 5004SOL     OW26473   3.417   4.000  17.114 -0.4482  0.2018 -0.1045
 5004SOL    HW126474   3.380   3.956  17.038 -1.3822 -2.8627  2.1117
 5004SOL    HW226475   3.342   4.040  17.157  0.6619  0.2820  1.7488
 5005SOL     OW26476   4.032   1.032   1.399  0.5170 -0.1499 -0.0197
 5005SOL    HW126477   4.118   1.073   1.414  0.5356 -1.0429  2.3744
 5005SOL    HW226478   4.031   0.998   1.488 -1.7634  1.5804  0.5999
 5006SOL     OW26479   4.533   4.296   3.209  0.1354  0.1776  0.8046
 5006SOL    HW126480   4.461   4.348   3.173  1.6327  3.1605  2.1792
 5006SOL    HW226481   4.538   4.348   3.289  2.9679  2.2697 -0.7432
 5007SOL     OW26482   0.184   1.389   2.154 -1.0699  0.1056  0.2154
 5007SOL    HW126483   0.244   1.329   2.109 -1.9464  0.2339 -1.1047
 5007SOL    HW226484   0.205   1.373   2.247  1.9484 -0.1969 -0.5197
 5008SOL     OW26485   4.041   3.661   1.709 -0.1441 -0.5614  0.2228
 5008SOL    HW126486   4.067   3.693   1.623 -0.8802 -3.4672 -1.0801
 5008SOL    HW226487   4.132   3.667   1.738  0.4949  2.6992 -2.4831
 5009SOL     OW26488   3.321   3.067   3.901  0.1384 -0.4274 -0.1803
 5009SOL    HW126489   3.310   3.024   3.986  1.2028 -0.6047 -0.1278
 5009SOL    HW226490   3.408   3.029   3.886  0.7076  1.0598 -0.6975
 5010SOL     OW26491   0.339   4.408   6.052 -0.1662 -0.1215  0.1160
 5010SOL    HW126492   0.327   4.503   6.056  0.1109 -0.0856  0.0954
 5010SOL    HW226493   0.430   4.407   6.081  0.3629 -2.8592 -1.6196
 5011SOL     OW26494   4.216   2.468   0.772 -0.3882  0.5063  0.6440
 5011SOL    HW126495   4.122   2.464   0.790 -0.5368  0.3511 -0.1400
 5011SOL    HW226496   4.207   2.545   0.716 -0.1179 -0.1609 -0.3156
 5012SOL     OW26497   1.758   1.502   3.177  0.2705  0.2617  0.1003
 5012SOL    HW126498   1.774   1.571   3.113 -0.8681  0.3528 -0.0815
 5012SOL    HW226499   1.815   1.430   3.149  0.0239 -0.9822  2.7071
 5013SOL     OW26500   1.735   0.517   6.229  0.2432  0.1986  1.1880
 5013SOL    HW126501   1.657   0.530   6.283 -0.9944 -0.2083 -0.5228
 5013SOL    HW226502   1.771   0.605   6.241 -1.0663  1.0080 -0.8100
 5014SOL     OW26503   1.010   3.560   2.156  0.4896  0.6120 -0.4366
 5014SOL    HW126504   1.026   3.652   2.178 -1.7140  1.1034 -0.8958
 5014SOL    HW226505   0.944   3.576   2.088 -1.4242 -2.3910  0.7198
 5015SOL     OW26506   4.495   4.673   3.052  0.2841 -0.0216  0.3736
 5015SOL    HW126507   4.526   4.653   2.964  1.7066 -0.9258  1.0803
 5015SOL    HW226508   4.568   0.001   3.093  0.0421  0.9629 -0.2949
 5016SOL     OW26509   1.862   3.502   8.059  0.3252 -0.0861 -0.1097
 5016SOL    HW126510   1.785   3.456   8.026 -1.2043  2.7011 -0.4776
 5016SOL    HW226511   1.932   3.466   8.006  0.4502 -1.0958  0.7451
 5017SOL     OW26512   3.368   3.672  10.460 -0.3238 -0.3816 -0.2541
 5017SOL    HW126513   3.433   3.712  10.403 -1.9482 -1.0998 -2.6358
 5017SOL    HW226514   3.285   3.712  10.434  0.4483  0.5700 -1.2632
 5018SOL     OW26515   4.044   2.470   8.644  0.1226  0.4103 -0.4290
 5018SOL    HW126516   4.078   2.382   8.661  0.2921 -0.2583 -4.2776
 5018SOL    HW226517   4.004   2.456   8.558  0.0583 -2.9214  0.1301
 5019SOL     OW26518   0.486   0.793   9.129  0.2159  0.0394  0.0428
 5019SOL    HW126519   0.482   0.698   9.138 -1.8687 -0.0281 -1.4360
 5019SOL    HW226520   0.424   0.830   9.192 -0.2288 -0.8692  0.1398
 5020SOL     OW26521   0.571   2.498   3.264  0.2227  0.2687 -0.3647
 5020SOL    HW126522   0.550   2.411   3.296  0.2969 -0.7865 -3.1711
 5020SOL    HW226523   0.488   2.511   3.216  1.1091  0.2126 -1.9120
 5021SOL     OW26524   4.074   4.059   2.634 -0.0960  0.8659  0.4219
 5021SOL    HW126525   3.988   4.037   2.599  1.2117 -1.8036 -1.1258
 5021SOL    HW226526   4.131   4.044   2.559  0.3215 -2.1315  1.3269
 5022SOL     OW26527   0.784   0.019   2.472 -0.1777  0.3204 -0.1276
 5022SOL    HW126528   0.759   0.080   2.542 -0.0848  0.9194 -0.6153
 5022SOL    HW226529   0.756   4.658   2.518  1.8904  1.1146  2.4763
 5023SOL     OW26530   1.360   3.189   3.778 -0.0674  0.6095 -0.3009
 5023SOL    HW126531   1.288   3.189   3.716 -1.2279  1.5608  1.0395
 5023SOL    HW226532   1.415   3.115   3.754  0.4766  0.0263  2.6520
 5024SOL     OW26533   1.216   0.507  14.144  0.3967  0.4312  0.1004
 5024SOL    HW126534   1.305   0.488  14.175  0.3224  1.5123  1.0014
 5024SOL    HW226535   1.215   0.594  14.183  0.8658 -0.5627  2.3443
 5025SOL     OW26536   3.962   2.831   1.149 -0.2681  1.0427 -0.6674
 5025SOL    HW126537   3.903   2.792   1.213 -0.8982 -0.5009 -2.1910
 5025SOL    HW226538   3.912   2.906   1.115 -0.7886  0.4221 -1.2766
 5026SOL     OW26539   2.093   1.484   3.708 -0.2799 -0.0144  0.1516
 5026SOL    HW126540   2.138   1.431   3.773 -0.3518 -0.2292  0.0302
 5026SOL    HW226541   2.052   1.420   3.648  1.0581  0.3029 -1.0910
 5027SOL     OW26542   1.680   0.533   4.617  0.2550  0.0699 -0.3383
 5027SOL    HW126543   1.623   0.538   4.694 -0.3974  0.0302 -0.8161
 5027SOL    HW226544   1.649   0.453   4.573  1.8642 -1.1754  0.7976
 5028SOL     OW26545   3.657   0.112   1.538 -0.0711 -0.2568 -0.0332
 5028SOL    HW126546   3.566   0.094   1.513 -0.9067  1.6391  1.6116
 5028SOL    HW226547   3.702   0.150   1.463 -0.5051  0.5564  0.1118
 5029SOL     OW26548   2.343   0.872   5.210  0.1706  0.0069  0.2545
 5029SOL    HW126549   2.354   0.916   5.294 -0.3690  0.0574  0.3027
 5029SOL    HW226550   2.266   0.816   5.223  0.4293 -0.1025  1.3436
 5030SOL     OW26551   0.506   4.046   3.650  0.0984  0.0764  0.1774
 5030SOL    HW126552   0.475   4.092   3.729  1.1971  1.2274 -0.0499
 5030SOL    HW226553   0.594   4.081   3.634  0.4216 -1.1014 -0.5829
 5031SOL     OW26554   1.018   4.423   8.817 -0.4970 -0.3526 -0.0355
 5031SOL    HW126555   1.070   4.502   8.802 -1.3601 -0.0610 -1.5737
 5031SOL    HW226556   0.963   4.437   8.894 -0.6446  0.5717 -0.3034
 5032SOL     OW26557   4.372   1.484   4.283 -0.1379  0.0185  0.5543
 5032SOL    HW126558   4.425   1.418   4.327 -1.6871 -0.4188  1.7862
 5032SOL    HW226559   4.299   1.428   4.259  2.7612 -2.0006 -3.4335
 5033SOL     OW26560   4.436   2.486   5.831 -0.6957  0.4781  0.0526
 5033SOL    HW126561   4.436   2.497   5.736 -1.9253 -2.0281 -0.2571
 5033SOL    HW226562   4.506   2.421   5.840 -0.0935  0.8282 -2.1450
 5034SOL     OW26563   3.691   0.420  17.144 -0.0931 -0.4054  0.7908
 5034SOL    HW126564   3.613   0.474  17.157  0.1883  0.0367  0.6475
 5034SOL    HW226565   3.702   0.447  17.053  0.6822  0.6148  1.1835
 5035SOL     OW26566   2.565   1.672   5.513 -0.2294 -0.2743 -0.3398
 5035SOL    HW126567   2.492   1.665   5.575 -1.7522  0.5139 -2.0374
 5035SOL    HW226568   2.535   1.729   5.443 -0.1436 -0.7163 -0.7333
 5036SOL     OW26569   0.439   2.801   1.285 -0.7598 -0.1569  0.5225
 5036SOL    HW126570   0.497   2.802   1.361  0.3833  0.3317 -0.3587
 5036SOL    HW226571   0.405   2.712   1.278  0.7209 -0.7982  1.5181
 5037SOL     OW26572   0.969   2.146   6.553  0.1349  0.1724 -0.4953
 5037SOL    HW126573   0.970   2.075   6.617 -0.9801  0.3290 -0.2891
 5037SOL    HW226574   1.055   2.183   6.573  0.1306  0.8352 -1.7181
 5038SOL     OW26575   0.560   2.912   9.293  0.3653  0.0537  0.2967
 5038SOL    HW126576   0.552   2.979   9.225  0.6534 -0.3652 -0.1445
 5038SOL    HW226577   0.643   2.872   9.268 -0.0236 -0.8108  0.3724
 5039SOL     OW26578   1.448   2.957   8.337  0.8335  0.0800 -0.4704
 5039SOL    HW126579   1.527   2.940   8.286  1.1224  1.3441 -0.4440
 5039SOL    HW226580   1.389   2.914   8.276  0.8157 -1.9587  0.9616
 5040SOL     OW26581   1.951   2.681  12.766 -0.5154  0.9298  0.8047
 5040SOL    HW126582   1.885   2.615  12.791 -1.3558  1.8275  0.9796
 5040SOL    HW226583   1.905   2.732  12.699  1.3783  1.2101 -0.2698
 5041SOL     OW26584   3.852   3.006   3.921  0.1687 -0.0085 -0.6757
 5041SOL    HW126585   3.909   2.951   3.867 -0.1863 -0.9933 -0.0306
 5041SOL    HW226586   3.762   2.980   3.903  0.4949 -1.9221  0.5023
 5042SOL     OW26587   0.745   3.556   6.297 -0.4098  0.3287  0.7269
 5042SOL    HW126588   0.678   3.531   6.233  0.4526 -0.0932  0.0008
 5042SOL    HW226589   0.706   3.540   6.384 -0.0727  1.6820  1.1241
 5043SOL     OW26590   1.806   0.901   5.732  0.3675 -0.2135 -0.1189
 5043SOL    HW126591   1.824   0.813   5.765 -0.5561  0.2384  1.6013
 5043SOL    HW226592   1.887   0.923   5.688  1.6731  0.2239  2.5323
 5044SOL     OW26593   1.113   3.189  12.093 -0.2773  0.2477 -0.1470
 5044SOL    HW126594   1.036   3.229  12.052 -0.4848  0.7220  0.7056
 5044SOL    HW226595   1.147   3.134  12.023 -0.4712 -1.3020  0.9701
 5045SOL     OW26596   0.015   2.783   8.289  0.1779  0.2883 -0.1974
 5045SOL    HW126597   4.716   2.727   8.365  0.4462 -0.2382 -0.5258
 5045SOL    HW226598   0.016   2.872   8.324 -3.0138 -0.2285  1.2531
 5046SOL     OW26599   0.844   4.181   1.995 -0.0255 -0.1867 -0.3282
 5046SOL    HW126600   0.780   4.237   2.039  0.7629  0.6125 -0.1840
 5046SOL    HW226601   0.790   4.116   1.950  0.0757 -0.6347  0.2047
 5047SOL     OW26602   0.414   1.603   1.785  0.1789  0.2578 -0.5686
 5047SOL    HW126603   0.505   1.633   1.778  1.2634 -2.9634 -0.3950
 5047SOL    HW226604   0.387   1.641   1.869 -5.3279  0.3428 -2.4380
 5048SOL     OW26605   2.794   0.872  15.925 -0.3391 -0.3176  0.0697
 5048SOL    HW126606   2.803   0.800  15.863  1.4996 -0.2644  0.2658
 5048SOL    HW226607   2.763   0.946  15.872  3.1061  0.4955 -0.8322
 5049SOL     OW26608   2.140   4.195   6.337 -0.2557 -0.7088 -0.9853
 5049SOL    HW126609   2.155   4.195   6.431  1.4341 -4.0781 -1.2556
 5049SOL    HW226610   2.164   4.104   6.319  1.5541 -0.5665  0.8023
 5050SOL     OW26611   2.093   3.294  11.288 -0.0319 -0.5425  0.4068
 5050SOL    HW126612   1.999   3.278  11.281 -0.0747 -0.0747 -0.1502
 5050SOL    HW226613   2.118   3.282  11.197  1.9297  0.6704  0.7963
 5051SOL     OW26614   4.232   3.807   4.340 -0.0027  0.1731 -0.2737
 5051SOL    HW126615   4.205   3.803   4.248  0.4949  0.0918 -0.4161
 5051SOL    HW226616   4.150   3.834   4.382  0.8372  1.3033  0.6006
 5052SOL     OW26617   3.258   0.297   2.045  0.3492  0.0951  0.8737
 5052SOL    HW126618   3.326   0.305   2.113  1.9319  0.3212 -0.7462
 5052SOL    HW226619   3.275   0.205   2.024  0.1353  0.0995  0.6897
 5053SOL     OW26620   3.584   2.130   2.316 -0.3510 -0.1343  0.3697
 5053SOL    HW126621   3.637   2.194   2.364 -2.4803  1.3875  0.7227
 5053SOL    HW226622   3.528   2.092   2.384 -0.3570  1.3673  1.2208
 5054SOL     OW26623   0.911   0.301   8.466 -1.0555 -0.1235  0.1137
 5054SOL    HW126624   0.916   0.392   8.436 -4.6787  0.6801  2.0414
 5054SOL    HW226625   0.939   0.256   8.386  2.9334 -0.1446  1.5265
 5055SOL     OW26626   3.936   3.821   7.659 -0.2831  0.2690  0.0169
 5055SOL    HW126627   3.900   3.760   7.723  2.8810 -1.0066  0.5791
 5055SOL    HW226628   3.976   3.754   7.605  1.8143  1.2678  0.3122
 5056SOL     OW26629   2.267   2.365   0.540  0.2586  0.1459 -0.3886
 5056SOL    HW126630   2.215   2.292   0.572  0.2662  0.2189 -0.2044
 5056SOL    HW226631   2.205   2.437   0.555  1.0815  0.6592  0.5669
 5057SOL     OW26632   2.559   2.284   0.725 -0.0634  0.1422 -0.1697
 5057SOL    HW126633   2.584   2.246   0.641 -0.7529 -0.4976 -0.0843
 5057SOL    HW226634   2.478   2.328   0.700  1.2906  2.9058  0.2009
 5058SOL     OW26635   0.572   3.400   3.069 -0.3889 -0.6121  0.3619
 5058SOL    HW126636   0.639   3.393   3.001  0.9817 -3.3284  1.9885
 5058SOL    HW226637   0.625   3.400   3.149 -2.3079 -0.4684  1.6353
 5059SOL     OW26638   0.387   2.962   4.957 -0.6778 -0.2358 -0.4379
 5059SOL    HW126639   0.479   2.935   4.952 -1.1947 -1.3176 -3.7589
 5059SOL    HW226640   0.390   3.026   5.029 -1.5201 -1.7892  0.9878
 5060SOL     OW26641   2.080   1.354  13.300  0.3063  0.0950 -0.4737
 5060SOL    HW126642   2.065   1.315  13.214 -1.3886 -2.5857  1.0265
 5060SOL    HW226643   2.008   1.416  13.297 -0.0853 -0.2270  2.1262
 5061SOL     OW26644   3.433   4.154  15.159  0.3927 -0.3675 -0.1081
 5061SOL    HW126645   3.377   4.232  15.167  1.3971  0.2307  1.0330
 5061SOL    HW226646   3.500   4.200  15.108 -0.0948 -2.1463 -2.3546
 5062SOL     OW26647   4.396   1.911   6.236  0.8574 -0.4625  0.0096
 5062SOL    HW126648   4.414   1.822   6.206  1.7982  0.1494 -1.2359
 5062SOL    HW226649   4.445   1.922   6.317  0.7391 -4.0190  0.5623
 5063SOL     OW26650   2.700   4.007   7.641 -0.1742  0.4542  0.2214
 5063SOL    HW126651   2.726   3.926   7.598 -1.2639  0.1691  0.0921
 5063SOL    HW226652   2.695   4.074   7.572  1.9855  0.5328  0.1466
 5064SOL     OW26653   4.464   0.702   5.512  0.0527  0.1281 -0.1184
 5064SOL    HW126654   4.526   0.675   5.444  0.5369 -0.4742  0.5634
 5064SOL    HW226655   4.408   0.760   5.460 -0.9346  1.0108  1.9774
 5065SOL     OW26656   0.741   2.267   5.455  0.1911  0.6467  0.0386
 5065SOL    HW126657   0.752   2.361   5.441  0.2818  0.6943  0.4426
 5065SOL    HW226658   0.661   2.253   5.405 -0.3311  1.6567  0.6077
 5066SOL     OW26659   3.858   2.460   5.131  0.8906  0.0759 -0.1241
 5066SOL    HW126660   3.850   2.466   5.035  0.9459 -3.1745 -0.3445
 5066SOL    HW226661   3.950   2.434   5.130  0.7521 -0.4094 -0.3397
 5067SOL     OW26662   2.440   3.555   9.325 -0.6199  0.0967 -0.2590
 5067SOL    HW126663   2.424   3.620   9.393  0.0559 -0.3763  0.3536
 5067SOL    HW226664   2.425   3.607   9.246 -0.9411  0.4885  0.0622
 5068SOL     OW26665   3.524   0.346  17.568  0.7135  1.0160 -0.1340
 5068SOL    HW126666   3.579   0.277  17.531  1.0318  1.4488 -0.4658
 5068SOL    HW226667   3.582   0.420  17.585  0.1997  1.2263  0.6863
 5069SOL     OW26668   1.429   3.015   7.128 -0.2892  0.1930  0.1504
 5069SOL    HW126669   1.517   3.040   7.098 -1.0405  1.8297 -0.6525
 5069SOL    HW226670   1.438   3.043   7.219  1.0433  0.8206 -0.1710
 5070SOL     OW26671   1.494   0.708   1.671 -0.3854  0.4510 -0.4213
 5070SOL    HW126672   1.581   0.701   1.633  0.5982  0.8085  1.7636
 5070SOL    HW226673   1.478   0.617   1.696 -1.6334  0.3042 -1.7571
 5071SOL     OW26674   0.006   2.347  11.451  0.1252 -0.0834  0.0030
 5071SOL    HW126675   0.095   2.383  11.457 -0.2165  0.5360  1.5236
 5071SOL    HW226676   4.674   2.426  11.431 -0.6532 -0.2540  1.2547
 5072SOL     OW26677   0.173   3.962   4.075  0.5082  0.8058  0.1207
 5072SOL    HW126678   0.222   3.929   4.000  0.1739 -2.3822  1.3306
 5072SOL    HW226679   0.152   4.049   4.039  0.1092 -0.9307 -3.7877
 5073SOL     OW26680   2.026   3.473   8.267  0.6188  0.1287 -0.0502
 5073SOL    HW126681   1.987   3.396   8.308  1.4197 -0.3736 -0.2277
 5073SOL    HW226682   1.959   3.491   8.201  2.0484 -2.1850 -2.1293
 5074SOL     OW26683   2.664   2.562   8.891 -0.2084  0.1151  0.0665
 5074SOL    HW126684   2.699   2.605   8.969 -2.2158  0.2023  0.9094
 5074SOL    HW226685   2.569   2.563   8.902 -0.2297  1.1087 -0.2239
 5075SOL     OW26686   0.271   1.739   4.708  0.7246  0.0922  0.2119
 5075SOL    HW126687   0.325   1.683   4.652 -0.6582 -1.0483 -0.0067
 5075SOL    HW226688   0.188   1.731   4.661  0.0654 -1.4617  1.6160
 5076SOL     OW26689   1.816   0.800   2.197 -0.1120 -0.1212  0.2834
 5076SOL    HW126690   1.879   0.729   2.207 -0.1697 -0.0835  0.8943
 5076SOL    HW226691   1.741   0.746   2.173  0.1410  0.3396 -1.5228
 5077SOL     OW26692   3.586   0.436  16.236  0.8236 -0.2143  0.5250
 5077SOL    HW126693   3.629   0.492  16.170  0.0436 -0.2673 -0.0296
 5077SOL    HW226694   3.495   0.444  16.210  1.2086  1.8924 -0.1817
 5078SOL     OW26695   2.421   2.679   7.861  0.4666 -0.0391 -0.1968
 5078SOL    HW126696   2.332   2.656   7.833  1.2385 -1.8224 -1.1592
 5078SOL    HW226697   2.433   2.643   7.949  2.1418 -0.2669 -0.5220
 5079SOL     OW26698   1.698   0.936   1.860 -0.1747  0.0869 -0.0009
 5079SOL    HW126699   1.668   0.910   1.772 -0.8036  0.1438  0.1987
 5079SOL    HW226700   1.658   0.869   1.915  0.4268  0.5366  0.9746
 5080SOL     OW26701   1.261   0.625  10.496  0.0118 -0.2812  0.4247
 5080SOL    HW126702   1.244   0.549  10.551 -0.6017 -1.1472 -0.9775
 5080SOL    HW226703   1.221   0.590  10.416 -2.6148 -0.8594  2.0100
 5081SOL     OW26704   4.597   2.689   3.202  0.2328  0.0065  0.4305
 5081SOL    HW126705   4.644   2.760   3.245 -0.6436  1.8253 -1.6373
 5081SOL    HW226706   4.550   2.737   3.134 -0.6330 -0.5746  0.6096
 5082SOL     OW26707   4.121   0.424   6.057  0.5689  0.3480  0.3379
 5082SOL    HW126708   4.212   0.441   6.084  0.4042  2.2182 -0.2865
 5082SOL    HW226709   4.110   0.333   6.085 -1.2843 -0.7602 -3.9624
 5083SOL     OW26710   4.630   1.347   5.853 -0.3754 -0.3802  0.1035
 5083SOL    HW126711   4.703   1.372   5.796  1.8348 -2.0571  2.1867
 5083SOL    HW226712   4.631   1.252   5.863 -2.2848 -0.4849 -0.6587
 5084SOL     OW26713   0.397   3.399  17.638 -0.2274  0.1759 -0.2280
 5084SOL    HW126714   0.438   3.374  17.556  0.7004  1.6570 -0.2128
 5084SOL    HW226715   0.459   3.370   0.028  0.7878  1.4448 -0.6214
 5085SOL     OW26716   2.318   1.091  11.068 -0.0137  0.0495 -0.4335
 5085SOL    HW126717   2.413   1.080  11.063 -0.2138 -0.6279 -2.7269
 5085SOL    HW226718   2.292   1.108  10.977  0.0268  4.1096  0.2819
 5086SOL     OW26719   3.301   1.145  10.720  0.5545  0.2440  0.6428
 5086SOL    HW126720   3.268   1.082  10.784  0.1653 -0.0161  0.1814
 5086SOL    HW226721   3.353   1.083  10.669  0.5833  1.0300 -0.2766
 5087SOL     OW26722   2.578   1.242  11.105  0.0946 -0.3922  0.4121
 5087SOL    HW126723   2.550   1.279  11.189  2.8939 -1.5965  1.8681
 5087SOL    HW226724   2.606   1.319  11.055  1.7560 -2.2823 -1.5767
 5088SOL     OW26725   1.608   0.114   7.172 -0.6185  0.1130  0.4553
 5088SOL    HW126726   1.665   0.056   7.221 -0.4796  0.1702  0.3612
 5088SOL    HW226727   1.590   0.064   7.093 -1.6987  0.8839  0.2042
 5089SOL     OW26728   0.144   1.260   8.693 -0.3306  0.4063  0.2701
 5089SOL    HW126729   0.160   1.280   8.786 -1.3034 -0.8019  0.6957
 5089SOL    HW226730   0.068   1.317   8.677  0.7677  1.6432 -0.5280
 5090SOL     OW26731   0.838   1.741   1.027  0.1446  0.2975  0.0523
 5090SOL    HW126732   0.865   1.728   1.118  0.7594 -0.2458 -0.2097
 5090SOL    HW226733   0.761   1.686   1.020  0.2850  0.3515 -2.1562
 5091SOL     OW26734   1.624   2.430   2.376 -0.4789 -0.1437 -0.6584
 5091SOL    HW126735   1.531   2.408   2.383 -0.1509 -0.6232  2.2513
 5091SOL    HW226736   1.654   2.433   2.467  1.9793 -2.1697 -1.4131
 5092SOL     OW26737   0.059   3.573   9.963 -0.8950 -0.1256  0.7415
 5092SOL    HW126738   0.082   3.664   9.982  2.1856 -0.5616 -0.9668
 5092SOL    HW226739   0.043   3.546  10.054 -2.0679 -0.0810  0.5478
 5093SOL     OW26740   0.812   4.423   0.998 -0.6928 -0.0095 -0.1514
 5093SOL    HW126741   0.880   4.487   0.974  1.3252 -1.7267  1.0301
 5093SOL    HW226742   0.840   4.392   1.084 -0.0773 -0.5391 -0.5436
 5094SOL     OW26743   0.979   0.018   3.326  0.4131 -0.0899  0.3332
 5094SOL    HW126744   0.935   4.717   3.409 -3.8063 -1.6109 -2.2323
 5094SOL    HW226745   1.040   4.662   3.329 -0.5515 -0.9064 -0.1978
 5095SOL     OW26746   4.144   4.488  12.270 -0.0828 -0.7667 -0.3173
 5095SOL    HW126747   4.180   4.498  12.358  1.1898 -1.5543 -0.7454
 5095SOL    HW226748   4.090   4.566  12.260 -0.1949 -0.5437  1.9414
 5096SOL     OW26749   0.807   4.698   4.097 -0.3417 -0.0864  0.3002
 5096SOL    HW126750   0.839   4.649   4.173  0.0830 -0.9921 -0.4479
 5096SOL    HW226751   0.775   4.637   4.030 -0.4105 -2.1784  2.2234
 5097SOL     OW26752   0.397   4.052   5.819 -0.5057  0.1910  0.1708
 5097SOL    HW126753   0.354   4.119   5.871 -0.4848  0.5403 -0.2641
 5097SOL    HW226754   0.489   4.079   5.823  0.5050 -3.4936  1.5801
 5098SOL     OW26755   1.502   3.640   1.781  0.4892 -0.4105 -0.2365
 5098SOL    HW126756   1.595   3.654   1.767  0.0342  2.2510 -0.6520
 5098SOL    HW226757   1.505   3.583   1.858  0.1318  0.7543  0.6461
 5099SOL     OW26758   0.150   0.600   8.952  0.0940  0.1928 -0.0838
 5099SOL    HW126759   0.084   0.657   8.912 -0.5452 -1.0372 -0.8054
 5099SOL    HW226760   0.194   0.658   9.013  2.5310 -0.5124 -1.1551
 5100SOL     OW26761   3.308   0.043   1.961  0.1973 -0.3235 -0.0745
 5100SOL    HW126762   3.321   4.694   2.027  1.1179 -0.4454 -0.3897
 5100SOL    HW226763   3.217   0.031   1.931 -0.3477 -0.5164  1.6797
 5101SOL     OW26764   3.909   0.807   7.772 -0.4141  0.4987  0.5396
 5101SOL    HW126765   3.902   0.894   7.812 -0.4977  1.0261 -0.6258
 5101SOL    HW226766   3.844   0.816   7.702 -2.3660  1.0438  2.4010
 5102SOL     OW26767   2.299   1.185   4.428 -0.1128 -0.0060 -0.5009
 5102SOL    HW126768   2.272   1.110   4.375 -0.8048  0.6312 -1.0322
 5102SOL    HW226769   2.377   1.212   4.380  0.9526 -0.8513  0.7318
 5103SOL     OW26770   1.892   3.731  11.538 -0.4522 -0.5709  0.2266
 5103SOL    HW126771   1.933   3.790  11.601 -2.1824 -0.8376  1.6265
 5103SOL    HW226772   1.962   3.672  11.510 -0.5763 -1.4160  1.7231
 5104SOL     OW26773   2.749   2.559   1.751  0.6959  0.0400  0.8496
 5104SOL    HW126774   2.748   2.594   1.840  2.4527 -1.4245  1.4541
 5104SOL    HW226775   2.776   2.473   1.783  0.3171  0.3419  1.9987
 5105SOL     OW26776   3.224   0.553   8.657  0.5384  0.0722 -0.3930
 5105SOL    HW126777   3.272   0.509   8.587  2.5020  0.0797  0.9475
 5105SOL    HW226778   3.200   0.635   8.614  0.1176 -0.0785 -0.4506
 5106SOL     OW26779   4.430   2.167   3.551 -0.8576  0.1242 -0.6988
 5106SOL    HW126780   4.475   2.251   3.558 -1.2608  0.0983  2.0916
 5106SOL    HW226781   4.492   2.118   3.498  1.4027 -0.4009  2.4456
 5107SOL     OW26782   1.077   0.433   3.867  0.0625  0.0212  0.7535
 5107SOL    HW126783   1.124   0.501   3.819 -1.5770  0.4071 -0.2879
 5107SOL    HW226784   1.146   0.381   3.907  2.1995  1.7357 -0.7261
 5108SOL     OW26785   3.716   0.205   3.375  0.7293 -0.4933  0.0437
 5108SOL    HW126786   3.739   0.112   3.382  3.1082 -0.0327 -1.5666
 5108SOL    HW226787   3.794   0.242   3.334  0.9386  0.4939  1.3355
 5109SOL     OW26788   1.130   2.481   4.345 -0.7113  0.4078  0.2444
 5109SOL    HW126789   1.076   2.429   4.405  2.3302 -1.6535  1.2109
 5109SOL    HW226790   1.084   2.564   4.354 -1.2180  0.3232 -1.5411
 5110SOL     OW26791   2.386   0.513   5.113 -0.4896  0.0314 -0.1062
 5110SOL    HW126792   2.465   0.563   5.092 -0.3861 -0.5817 -1.1846
 5110SOL    HW226793   2.330   0.544   5.041 -1.1809  1.4772  1.0480
 5111SOL     OW26794   2.222   1.249   1.614  1.0673  0.3322  0.0000
 5111SOL    HW126795   2.163   1.325   1.609 -0.5089 -0.9068 -0.2881
 5111SOL    HW226796   2.176   1.188   1.556  1.5460 -1.4033  1.4777
 5112SOL     OW26797   1.317   3.821   3.536 -0.3394 -0.2827  0.4950
 5112SOL    HW126798   1.258   3.770   3.591 -0.3413  0.1492  0.8968
 5112SOL    HW226799   1.259   3.894   3.512 -0.6854 -0.3192  1.2264
 5113SOL     OW26800   3.165   1.157   9.698  0.0787  0.4984 -0.2990
 5113SOL    HW126801   3.111   1.173   9.776 -0.0808  3.7028 -1.0888
 5113SOL    HW226802   3.237   1.220   9.706  0.1629  0.4201 -0.4431
 5114SOL     OW26803   1.485   0.425   3.604  0.1123  0.0398 -0.0956
 5114SOL    HW126804   1.466   0.442   3.512 -0.5919  0.5052  0.1396
 5114SOL    HW226805   1.579   0.445   3.610  0.6959 -2.3742 -1.0277
 5115SOL     OW26806   4.447   3.505   2.538  0.2790 -0.1563  0.6157
 5115SOL    HW126807   4.361   3.545   2.552 -0.2089 -0.6850 -0.7614
 5115SOL    HW226808   4.493   3.576   2.493 -1.1599  0.5119  0.1653
 5116SOL     OW26809   0.494   4.471  15.183  0.0026  0.3204  0.2055
 5116SOL    HW126810   0.410   4.456  15.140 -0.7190 -0.2152  1.7629
 5116SOL    HW226811   0.503   4.392  15.238 -0.9326 -0.2055 -0.3918
 5117SOL     OW26812   0.437   0.938  14.798 -0.2384  0.5384 -0.0040
 5117SOL    HW126813   0.426   0.980  14.713 -1.1266  0.5448  0.1185
 5117SOL    HW226814   0.357   0.886  14.804  0.2453  0.2197  3.5283
 5118SOL     OW26815   0.250   1.836   0.165 -0.2660 -0.4655  0.7252
 5118SOL    HW126816   0.179   1.790   0.209  0.9335 -0.1734  2.9608
 5118SOL    HW226817   0.290   1.768   0.110  1.1038 -0.2691  1.4723
 5119SOL     OW26818   0.653   2.862  11.301  0.4014 -0.8140 -0.0642
 5119SOL    HW126819   0.586   2.814  11.253  0.7592 -0.9046 -0.4673
 5119SOL    HW226820   0.634   2.956  11.293 -1.4987 -1.1624  0.3240
 5120SOL     OW26821   2.294   0.014   2.493 -0.3049  0.2178 -0.3238
 5120SOL    HW126822   2.223   4.715   2.432  1.4847  0.0416 -2.3810
 5120SOL    HW226823   2.259   4.692   2.572 -1.4626 -0.4715 -1.1869
 5121SOL     OW26824   3.544   2.951  14.002 -0.0181  0.0067 -0.0051
 5121SOL    HW126825   3.472   3.011  14.022  0.5962  0.5792  0.4875
 5121SOL    HW226826   3.609   3.012  13.968 -0.8941  1.8568  1.6807
 5122SOL     OW26827   4.086   2.044  17.614 -0.0957  0.3477 -0.4021
 5122SOL    HW126828   4.004   1.996  17.625  0.1254  0.0417 -0.1121
 5122SOL    HW226829   4.079   2.108   0.009  0.0626  1.9576 -1.8018
 5123SOL     OW26830   0.950   2.967   9.054 -0.2018  0.4631 -0.0930
 5123SOL    HW126831   1.008   2.895   9.027  0.8619  0.4876  2.1387
 5123SOL    HW226832   0.974   2.971   9.147 -0.9126 -1.9573  0.1934
 5124SOL     OW26833   3.892   3.328   2.832 -0.2164  0.3499 -0.0088
 5124SOL    HW126834   3.860   3.411   2.797  1.0006  0.4386 -0.9319
 5124SOL    HW226835   3.911   3.355   2.922  0.8322 -0.0701 -0.1024
 5125SOL     OW26836   1.218   4.434   6.553 -0.1986  0.2331  0.4652
 5125SOL    HW126837   1.176   4.519   6.540  1.7027  1.3003  1.3257
 5125SOL    HW226838   1.292   4.450   6.612 -0.9379  0.2989  1.3767
 5126SOL     OW26839   1.499   1.852   7.057 -0.4561 -0.3014  0.6412
 5126SOL    HW126840   1.593   1.834   7.061 -0.5514 -0.8925  0.2125
 5126SOL    HW226841   1.477   1.802   6.978 -0.4008  2.0088 -0.8365
 5127SOL     OW26842   1.092   2.562  12.306 -0.8645 -0.0819  0.7490
 5127SOL    HW126843   1.021   2.608  12.350 -1.3175 -1.5327  1.5139
 5127SOL    HW226844   1.138   2.634  12.263 -1.4554 -0.2421 -0.1531
 5128SOL     OW26845   3.379   4.102   4.626 -0.6177 -0.1690  0.1722
 5128SOL    HW126846   3.383   4.008   4.607  0.1429 -0.1762  0.3600
 5128SOL    HW226847   3.445   4.109   4.695 -1.0628 -1.1109  0.6890
 5129SOL     OW26848   2.925   4.423   3.407  0.2148  0.0621 -0.4734
 5129SOL    HW126849   2.882   4.373   3.338 -1.3785  0.0322  0.5313
 5129SOL    HW226850   2.855   4.434   3.472  0.3101  0.3813 -0.4245
 5130SOL     OW26851   2.872   2.395   4.359 -0.0596  0.6588  0.1778
 5130SOL    HW126852   2.781   2.413   4.381  0.0202 -0.0966  1.1112
 5130SOL    HW226853   2.884   2.475   4.307 -1.6896  0.4615 -0.4889
 5131SOL     OW26854   3.217   1.777  17.391  0.0170 -0.6739 -0.5340
 5131SOL    HW126855   3.179   1.723  17.460 -0.2399  0.3478  0.1266
 5131SOL    HW226856   3.251   1.713  17.328 -1.8388 -2.1852 -0.0106
 5132SOL     OW26857   0.811   1.531   5.991  0.1087  0.6253 -0.2230
 5132SOL    HW126858   0.866   1.608   6.005  1.7767 -0.6363  0.2407
 5132SOL    HW226859   0.854   1.464   6.044  1.0720  2.9054  1.8391
 5133SOL     OW26860   3.930   3.911  12.460 -0.4959 -0.1100 -0.1589
 5133SOL    HW126861   3.873   3.835  12.472  0.0722 -0.0890  2.7081
 5133SOL    HW226862   3.935   3.945  12.549  0.3482 -1.6523  0.3877
 5134SOL     OW26863   2.767   1.507   5.435  0.5928  0.0132  0.3744
 5134SOL    HW126864   2.847   1.530   5.483  0.6200 -0.2968  0.4767
 5134SOL    HW226865   2.697   1.565   5.464  0.5117  1.0741 -1.9316
 5135SOL     OW26866   2.937   3.679   6.565 -0.1325  0.0261  0.6700
 5135SOL    HW126867   3.024   3.682   6.526 -0.8174  2.7263 -0.6150
 5135SOL    HW226868   2.934   3.747   6.633 -1.1566 -0.4950  1.1489
 5136SOL     OW26869   4.562   0.195   1.605  0.2103  0.3099  0.0705
 5136SOL    HW126870   4.599   0.106   1.604  0.1189  0.2325  2.8650
 5136SOL    HW226871   4.639   0.248   1.585 -0.2161  0.4660 -1.1301
 5137SOL     OW26872   1.475   1.267  13.407 -0.2399  0.3301 -0.2509
 5137SOL    HW126873   1.391   1.222  13.409  0.9609 -1.9562 -1.0795
 5137SOL    HW226874   1.502   1.259  13.498  1.1446  1.2208 -0.5777
 5138SOL     OW26875   4.490   4.259  17.096  0.0438 -0.8376 -0.2264
 5138SOL    HW126876   4.580   4.286  17.116 -0.1183  1.0792 -2.0817
 5138SOL    HW226877   4.439   4.279  17.175 -0.3012  1.1489 -0.9444
 5139SOL     OW26878   1.998   1.339   2.774 -0.4046  0.1662  0.1532
 5139SOL    HW126879   2.074   1.361   2.828  1.6421 -0.4039 -2.5076
 5139SOL    HW226880   2.038   1.289   2.703 -1.9857 -0.1822 -0.4909
 5140SOL     OW26881   3.506   1.024   6.159  0.2772 -0.1355  0.3922
 5140SOL    HW126882   3.486   1.093   6.095 -0.5784 -0.3675  0.4187
 5140SOL    HW226883   3.420   0.982   6.151  1.2325 -2.0493  0.1279
 5141SOL     OW26884   2.572   2.805   6.391 -0.1453 -0.1653 -0.1968
 5141SOL    HW126885   2.567   2.895   6.357 -0.3946 -1.3376 -3.1941
 5141SOL    HW226886   2.655   2.809   6.439 -0.1810 -0.7542 -0.0955
 5142SOL     OW26887   0.244   2.786   3.888 -0.0083 -0.3078 -0.0734
 5142SOL    HW126888   0.169   2.846   3.884 -0.1658 -0.5130 -0.2255
 5142SOL    HW226889   0.225   2.741   3.970 -2.2714 -1.1096 -1.0410
 5143SOL     OW26890   2.778   2.835  11.765 -0.2354  0.2787 -0.1281
 5143SOL    HW126891   2.851   2.873  11.813  0.7125  0.7685 -1.9327
 5143SOL    HW226892   2.788   2.894  11.690  2.3534  1.7248  1.3623
 5144SOL     OW26893   2.201   0.606  10.611  0.2424  0.4860  0.3707
 5144SOL    HW126894   2.145   0.596  10.534  0.4288  2.4799 -0.0270
 5144SOL    HW226895   2.158   0.546  10.672 -3.3239 -0.1229 -2.7305
 5145SOL     OW26896   4.517   1.772   1.785 -0.1007  0.0354 -0.7074
 5145SOL    HW126897   4.474   1.853   1.814  1.4370  0.1810  1.2017
 5145SOL    HW226898   4.543   1.809   1.701  0.6291  1.0744 -0.0335
 5146SOL     OW26899   1.638   1.078   6.499 -0.4919  0.8897 -0.0764
 5146SOL    HW126900   1.711   1.121   6.544  0.8945 -1.6329  0.0426
 5146SOL    HW226901   1.588   1.155   6.469 -1.8236  0.0853  0.0645
 5147SOL     OW26902   3.577   1.471  15.751 -0.0869 -0.5303 -0.5025
 5147SOL    HW126903   3.564   1.431  15.837 -3.6836  0.9281 -0.3410
 5147SOL    HW226904   3.509   1.538  15.761  0.0615 -0.6859  1.4633
 5148SOL     OW26905   0.337   1.314   5.009 -0.5097 -0.3875 -0.4055
 5148SOL    HW126906   0.393   1.315   4.931 -0.3623  0.5857 -0.2775
 5148SOL    HW226907   0.252   1.289   4.974 -0.4580  0.7986 -1.3703
 5149SOL     OW26908   4.340   1.586   9.375 -0.0403  0.4130  0.4147
 5149SOL    HW126909   4.264   1.631   9.411 -0.7141 -1.5018  1.3638
 5149SOL    HW226910   4.292   1.516   9.330 -1.4010  0.4930  1.7590
 5150SOL     OW26911   0.425   1.417   2.833 -0.1876  0.3344 -0.0976
 5150SOL    HW126912   0.480   1.367   2.892 -0.2140 -0.6671 -0.9205
 5150SOL    HW226913   0.481   1.435   2.758  0.7001 -0.0189  0.4827
 5151SOL     OW26914   3.425   1.759  12.481  0.1746 -0.1056 -0.1671
 5151SOL    HW126915   3.467   1.676  12.505 -0.1385 -0.9696 -2.5324
 5151SOL    HW226916   3.479   1.823  12.526 -0.7108 -1.1068  2.3208
 5152SOL     OW26917   4.303   3.236   3.339 -0.1822  0.5093 -0.2337
 5152SOL    HW126918   4.219   3.279   3.326 -0.7476 -1.1693 -2.1263
 5152SOL    HW226919   4.341   3.267   3.421 -0.7063 -1.6244  0.8152
 5153SOL     OW26920   1.165   3.115   2.852 -0.3164 -0.4301 -0.3581
 5153SOL    HW126921   1.098   3.148   2.912  1.3722  2.1897  0.0758
 5153SOL    HW226922   1.184   3.026   2.883 -1.2752 -0.3537  0.4632
 5154SOL     OW26923   3.866   3.817   4.217 -0.0271 -0.0032 -0.2515
 5154SOL    HW126924   3.883   3.822   4.123 -3.4729  1.4321 -0.8144
 5154SOL    HW226925   3.931   3.753   4.246  1.3096  0.2894 -2.5506
 5155SOL     OW26926   2.818   3.316  14.365 -0.2529 -0.1510  0.2498
 5155SOL    HW126927   2.901   3.317  14.412 -1.5286  0.1251  2.4809
 5155SOL    HW226928   2.854   3.305  14.277  1.3195 -0.9696  1.0100
 5156SOL     OW26929   2.865   1.913   2.842 -0.4142  0.4010  0.3338
 5156SOL    HW126930   2.814   1.982   2.800 -0.0248  0.6455  0.2637
 5156SOL    HW226931   2.872   1.857   2.765 -0.0888  0.6665  0.1700
 5157SOL     OW26932   3.733   2.562  11.042 -0.0569 -0.5166  0.2449
 5157SOL    HW126933   3.759   2.639  11.092  1.2855 -0.3834 -0.6539
 5157SOL    HW226934   3.756   2.588  10.953  1.3403 -0.8932  0.4972
 5158SOL     OW26935   4.524   3.600   8.785 -0.3716 -0.4272  0.0176
 5158SOL    HW126936   4.598   3.651   8.817 -0.0350  0.7150 -2.5825
 5158SOL    HW226937   4.567   3.553   8.714 -0.0631  0.0430 -0.1079
 5159SOL     OW26938   1.095   0.905   6.426 -0.0792  0.1153  0.1940
 5159SOL    HW126939   1.074   0.974   6.363  0.1409  2.1684  2.3827
 5159SOL    HW226940   1.157   0.940   6.490  1.0268  0.2601 -0.9581
 5160SOL     OW26941   4.500   4.116   2.985  0.5113  0.5728  0.3377
 5160SOL    HW126942   4.520   4.158   3.069  0.1261 -0.0460  0.7435
 5160SOL    HW226943   4.530   4.180   2.921 -1.9976  0.8070 -0.6113
 5161SOL     OW26944   2.937   0.253   4.189  0.6823 -0.1283 -0.1673
 5161SOL    HW126945   2.926   0.319   4.120  2.0682  1.1469  0.8370
 5161SOL    HW226946   3.028   0.270   4.212  1.2294 -2.9928 -0.2507
 5162SOL     OW26947   3.816   0.562  13.086  0.4028  0.4298  0.3668
 5162SOL    HW126948   3.808   0.554  13.182  0.1760  1.0058  0.3933
 5162SOL    HW226949   3.746   0.503  13.059  0.9421 -0.5475  1.0694
 5163SOL     OW26950   2.927   3.155   0.776  0.0860  0.1104 -0.4053
 5163SOL    HW126951   2.863   3.090   0.805 -0.8799  0.5399 -1.5855
 5163SOL    HW226952   2.862   3.217   0.746  0.8116  1.0238 -0.0802
 5164SOL     OW26953   3.932   4.461   7.189  0.4120 -0.3392 -0.0856
 5164SOL    HW126954   3.848   4.415   7.189  0.2573 -0.0606  1.8196
 5164SOL    HW226955   3.957   4.445   7.280 -2.4991  0.1860  0.8248
 5165SOL     OW26956   0.243   2.929  10.363  0.5507 -0.2156  0.3074
 5165SOL    HW126957   0.334   2.901  10.347  0.2191 -0.0358 -1.7769
 5165SOL    HW226958   0.189   2.896  10.292  2.0263 -1.2914 -0.3217
 5166SOL     OW26959   4.291   4.600  12.497 -0.7785 -0.1759  0.4727
 5166SOL    HW126960   4.303   4.536  12.567 -0.6154 -1.6508 -0.9331
 5166SOL    HW226961   4.286   4.685  12.542  0.3875 -2.0364  4.1638
 5167SOL     OW26962   3.245   3.383   4.136  0.0859 -0.2385 -0.1011
 5167SOL    HW126963   3.223   3.444   4.066  0.0051 -0.8699 -0.6322
 5167SOL    HW226964   3.190   3.308   4.111 -0.1398  0.0671 -0.5084
 5168SOL     OW26965   2.716   3.184   8.582 -0.2329 -0.5786 -0.3383
 5168SOL    HW126966   2.642   3.238   8.610  0.0208 -0.4785  0.1168
 5168SOL    HW226967   2.791   3.222   8.626 -1.3466  1.5783 -0.2841
 5169SOL     OW26968   3.480   2.226   4.657  0.4642  0.4431 -0.1041
 5169SOL    HW126969   3.486   2.318   4.681  2.0190  0.7132 -1.5466
 5169SOL    HW226970   3.479   2.235   4.562 -0.4137  1.2425 -0.0243
 5170SOL     OW26971   3.433   3.833   4.575  0.0625 -0.0616 -0.3706
 5170SOL    HW126972   3.525   3.824   4.551 -0.4593 -1.0460 -1.9729
 5170SOL    HW226973   3.395   3.767   4.518 -2.4985  1.8747 -0.8759
 5171SOL     OW26974   4.642   3.745   2.024  0.4562 -0.6356 -0.3136
 5171SOL    HW126975   4.695   3.720   1.948  1.0618 -1.2895  0.3294
 5171SOL    HW226976   4.613   3.829   1.990  1.4615 -0.3117 -0.3732
 5172SOL     OW26977   1.273   2.135   9.439 -0.2416  0.6108 -0.4419
 5172SOL    HW126978   1.277   2.108   9.347  0.6537  1.0309 -0.5217
 5172SOL    HW226979   1.267   2.229   9.425 -1.0371  0.5427 -0.5321
 5173SOL     OW26980   3.062   1.932   5.425  0.6259  0.1078  0.5257
 5173SOL    HW126981   3.149   1.923   5.385 -0.4182 -0.9253 -1.4410
 5173SOL    HW226982   3.019   1.956   5.344 -0.1923  0.5363  1.0877
 5174SOL     OW26983   3.536   1.817  16.892  0.5427 -0.4271  0.5180
 5174SOL    HW126984   3.463   1.873  16.918  0.8678  0.5910 -0.7558
 5174SOL    HW226985   3.488   1.742  16.856  0.3922  0.2897 -0.7885
 5175SOL     OW26986   3.703   4.306   7.048  0.4014 -0.0415  0.0021
 5175SOL    HW126987   3.631   4.244   7.035  0.9599 -0.9813  1.4150
 5175SOL    HW226988   3.651   4.383   7.069  0.0293 -0.0782 -0.7624
 5176SOL     OW26989   4.153   1.376   8.671 -0.0932 -0.3864 -0.5447
 5176SOL    HW126990   4.137   1.302   8.729  0.3585  1.0472  1.4211
 5176SOL    HW226991   4.206   1.326   8.608  1.1513 -0.8812  0.9117
 5177SOL     OW26992   4.504   1.315   5.232 -0.2401 -0.3635 -0.2871
 5177SOL    HW126993   4.483   1.227   5.201 -3.5379 -0.0707  1.0398
 5177SOL    HW226994   4.444   1.323   5.306 -0.4220  0.7751 -0.5602
 5178SOL     OW26995   4.610   2.577   2.082 -0.3891 -0.5003  0.3436
 5178SOL    HW126996   4.698   2.585   2.117 -0.9469  0.5108  1.5359
 5178SOL    HW226997   4.641   2.536   2.002  0.5085 -2.9394  1.9436
 5179SOL     OW26998   2.992   2.565   5.567 -0.2821  0.1798 -0.6245
 5179SOL    HW126999   3.053   2.637   5.584 -0.6265  0.5938 -1.1512
 5179SOL    HW227000   3.047   2.489   5.583 -0.4178 -0.1509 -1.7010
 5180SOL     OW27001   3.114   2.412   8.309  0.5661 -0.3043 -0.5941
 5180SOL    HW127002   3.056   2.337   8.297 -0.3427 -0.2136  3.2426
 5180SOL    HW227003   3.194   2.368   8.339  0.2665 -0.1431  0.4411
 5181SOL     OW27004   4.234   2.279   6.501  0.4102  0.1208  0.5506
 5181SOL    HW127005   4.233   2.232   6.418 -0.8736  1.9974 -0.4675
 5181SOL    HW227006   4.267   2.211   6.560 -0.0809 -1.0873 -0.5786
 5182SOL     OW27007   1.166   4.517  10.238 -0.2941 -0.2249  0.4902
 5182SOL    HW127008   1.080   4.498  10.200  1.8538 -3.3645 -2.7076
 5182SOL    HW227009   1.146   4.482  10.325 -0.9929  0.6401  0.6837
 5183SOL     OW27010   4.099   1.220  14.807 -0.1190  0.5879 -0.3235
 5183SOL    HW127011   4.022   1.277  14.808  0.6013  1.5626 -0.1259
 5183SOL    HW227012   4.150   1.271  14.743  2.7789 -0.6741  0.9598
 5184SOL     OW27013   2.387   1.327   3.772 -0.0564  0.1464  0.3275
 5184SOL    HW127014   2.407   1.368   3.687  1.7753  1.6577  1.4892
 5184SOL    HW227015   2.446   1.252   3.771  0.2042  0.3460  0.9067
 5185SOL     OW27016   2.952   4.379   9.368 -0.2176 -0.0821 -0.2979
 5185SOL    HW127017   2.919   4.327   9.294  0.0201  0.8834 -1.0923
 5185SOL    HW227018   2.885   4.385   9.436 -0.7927 -0.7337 -0.8007
 5186SOL     OW27019   3.492   1.676   6.849  0.2699 -0.6614 -0.0493
 5186SOL    HW127020   3.583   1.672   6.877 -0.1770  0.0022  1.4739
 5186SOL    HW227021   3.505   1.702   6.757  1.7956 -0.2085  0.2926
 5187SOL     OW27022   3.588   3.041   0.515 -0.7437 -0.4603  0.0561
 5187SOL    HW127023   3.509   3.090   0.538  0.3339  2.0479 -1.5744
 5187SOL    HW227024   3.563   2.955   0.550  0.5953 -1.1820 -0.7417
 5188SOL     OW27025   3.006   3.212  17.385 -0.2270  0.2085 -0.1809
 5188SOL    HW127026   2.976   3.138  17.333 -0.7383 -1.8877  3.0677
 5188SOL    HW227027   2.921   3.253  17.400 -0.6848 -1.7112  2.5576
 5189SOL     OW27028   2.549   2.983   7.491 -0.1412  0.2968 -0.1319
 5189SOL    HW127029   2.482   2.923   7.524 -0.4400 -0.6008 -2.3624
 5189SOL    HW227030   2.579   2.995   7.581  2.3104 -1.2529 -0.7379
 5190SOL     OW27031   0.192   4.596   2.221  0.1279  0.4140  0.4149
 5190SOL    HW127032   0.134   4.665   2.250  0.8631  0.7117  1.1920
 5190SOL    HW227033   0.279   4.610   2.258  0.5139 -1.2072  0.1505
 5191SOL     OW27034   2.405   0.194   5.328 -0.2268  0.1779  0.0131
 5191SOL    HW127035   2.386   0.129   5.396 -1.5667 -0.2659 -0.7924
 5191SOL    HW227036   2.490   0.235   5.347 -0.8961  1.0970  1.0379
 5192SOL     OW27037   3.609   4.483   3.960 -0.0399  0.9431  0.1960
 5192SOL    HW127038   3.527   4.470   3.911 -0.7187  0.7799  1.3653
 5192SOL    HW227039   3.657   4.401   3.946 -1.1122  0.1975  0.8329
 5193SOL     OW27040   3.946   2.759   0.755  0.0545  0.2736  0.3786
 5193SOL    HW127041   3.998   2.727   0.681 -1.0384  0.8028 -0.6012
 5193SOL    HW227042   3.992   2.736   0.836  0.9526  0.3665 -0.1059
 5194SOL     OW27043   1.672   1.313  11.993 -0.0933  0.1311 -0.0923
 5194SOL    HW127044   1.701   1.393  12.038  0.9733  0.8417 -2.0109
 5194SOL    HW227045   1.584   1.338  11.965  0.3609  1.8521 -0.0050
 5195SOL     OW27046   0.100   1.027   8.585  0.5705  0.1896  0.7905
 5195SOL    HW127047   0.112   1.115   8.620 -2.4982  0.6427  0.6794
 5195SOL    HW227048   0.110   0.979   8.667 -0.3453  0.4241  1.0404
 5196SOL     OW27049   3.180   4.637  13.867 -0.6107 -0.7767 -0.4414
 5196SOL    HW127050   3.275   4.631  13.863 -0.5530 -0.6805  0.7029
 5196SOL    HW227051   3.168   4.580  13.943 -0.6726  1.2157  1.0425
 5197SOL     OW27052   0.616   2.906   7.783 -0.5590 -0.4113  0.0963
 5197SOL    HW127053   0.692   2.958   7.808 -1.6237  0.4238  1.6036
 5197SOL    HW227054   0.549   2.973   7.792  1.3932  1.5785 -0.3668
 5198SOL     OW27055   3.240   3.294   4.947 -0.3751  0.6100 -0.3625
 5198SOL    HW127056   3.325   3.338   4.954  0.0657 -0.5016  1.2918
 5198SOL    HW227057   3.189   3.368   4.981  0.4879  0.0811  2.0611
 5199SOL     OW27058   3.302   3.067   2.115 -0.1017 -1.3478 -0.3523
 5199SOL    HW127059   3.351   3.146   2.094 -1.9642  0.2354  1.3497
 5199SOL    HW227060   3.350   3.040   2.193  1.4041  1.6655 -0.2357
 5200SOL     OW27061   3.261   4.530  11.074  0.2917 -0.2108 -0.4387
 5200SOL    HW127062   3.197   4.460  11.064  2.7860 -2.0481 -3.4560
 5200SOL    HW227063   3.331   4.470  11.100  0.3470  0.3392  0.6840
 5201SOL     OW27064   1.554   3.001   3.679 -0.3281  0.0489 -0.6265
 5201SOL    HW127065   1.628   2.942   3.691  0.9885  1.6147 -1.0132
 5201SOL    HW227066   1.604   3.073   3.639 -1.3749  0.5306 -1.0471
 5202SOL     OW27067   4.703   0.898   6.850 -0.4398 -0.8372 -0.2270
 5202SOL    HW127068   4.628   0.852   6.815 -0.4386 -0.5025 -0.6778
 5202SOL    HW227069   4.676   0.916   6.939  0.7186  1.9652 -0.4209
 5203SOL     OW27070   3.652   3.330  17.453 -0.5203 -0.9435 -0.4194
 5203SOL    HW127071   3.723   3.282  17.411 -0.8008 -0.6517 -1.2262
 5203SOL    HW227072   3.692   3.413  17.478  0.9046 -1.5981 -0.5177
 5204SOL     OW27073   2.091   0.322   7.373 -0.2788 -0.0224  0.4161
 5204SOL    HW127074   2.122   0.370   7.295  1.9207 -0.4479  1.0373
 5204SOL    HW227075   2.079   0.234   7.337 -3.2061  0.2049  0.9180
 5205SOL     OW27076   0.005   0.033   2.330 -0.2066 -0.3806  0.1380
 5205SOL    HW127077   0.015   0.128   2.324  0.3488 -0.4838 -0.5496
 5205SOL    HW227078   4.650   0.016   2.271  0.1398  2.3403 -1.1024
 5206SOL     OW27079   2.162   3.518   8.722  0.2822 -0.0642 -0.2153
 5206SOL    HW127080   2.165   3.535   8.628  0.7530  0.5028 -0.0982
 5206SOL    HW227081   2.243   3.562   8.748 -0.5491  1.1177  0.3676
 5207SOL     OW27082   1.125   4.155   7.679 -0.6814 -0.0885  0.3157
 5207SOL    HW127083   1.176   4.236   7.692  0.2509 -0.9618  2.0712
 5207SOL    HW227084   1.070   4.191   7.609  1.6280  0.6904 -1.1220
 5208SOL     OW27085   3.029   1.618   0.891  0.2661 -0.3406  0.0367
 5208SOL    HW127086   3.040   1.681   0.820  1.2667  0.6870  1.0784
 5208SOL    HW227087   3.107   1.562   0.888  0.4363 -0.0264 -1.2677
 5209SOL     OW27088   1.133   2.082   3.773  0.0933  0.2273 -0.6822
 5209SOL    HW127089   1.112   2.095   3.681  0.2973 -1.1630 -0.9179
 5209SOL    HW227090   1.123   2.174   3.797 -1.0407 -0.2691  0.7567
 5210SOL     OW27091   3.632   4.063   6.094  0.0822  0.4077  0.3079
 5210SOL    HW127092   3.720   4.099   6.086  0.1084  0.0246 -1.1785
 5210SOL    HW227093   3.644   3.988   6.035 -1.0274 -1.1509  2.0875
 5211SOL     OW27094   0.008   0.264  11.905 -0.6180  0.2725 -0.2859
 5211SOL    HW127095   0.046   0.259  11.993 -1.7413 -1.7988  0.0901
 5211SOL    HW227096   0.057   0.196  11.859  1.6250  1.4438  0.3686
 5212SOL     OW27097   1.688   2.276   5.159  0.0776  0.4947  0.2600
 5212SOL    HW127098   1.689   2.322   5.075 -3.8631 -1.3762 -0.7857
 5212SOL    HW227099   1.783   2.262   5.161 -0.0721 -0.4423  0.6861
 5213SOL     OW27100   1.363   2.606  15.066  0.5519 -0.6838  0.2441
 5213SOL    HW127101   1.375   2.665  15.140  0.3112 -0.3916  0.0511
 5213SOL    HW227102   1.426   2.650  15.008 -1.4640  1.2909 -0.4455
 5214SOL     OW27103   1.209   3.447   7.591  0.6808 -0.3420 -0.1395
 5214SOL    HW127104   1.161   3.515   7.542  0.6168  0.1839  0.6556
 5214SOL    HW227105   1.188   3.482   7.678  1.9577  1.2436 -0.4699
 5215SOL     OW27106   1.871   0.818   5.286 -0.3174 -0.1802  0.3029
 5215SOL    HW127107   1.936   0.887   5.277  0.4042 -0.8700  0.2411
 5215SOL    HW227108   1.792   0.872   5.283 -1.2649 -1.6554 -1.8389
 5216SOL     OW27109   1.702   4.481   0.272 -0.1969  0.2083  0.3791
 5216SOL    HW127110   1.707   4.391   0.302 -2.0227 -0.3850 -1.1342
 5216SOL    HW227111   1.637   4.511   0.336 -0.1630 -2.4122  1.6230
 5217SOL     OW27112   1.494   1.558   3.317 -0.4747  0.1729  0.1565
 5217SOL    HW127113   1.441   1.479   3.329  1.6273 -0.9534  2.0323
 5217SOL    HW227114   1.562   1.525   3.257 -1.8342 -2.5842  0.1254
 5218SOL     OW27115   2.566   1.074   1.284  0.3575  0.9175 -0.1242
 5218SOL    HW127116   2.588   1.110   1.369 -0.9279  0.2098  0.5049
 5218SOL    HW227117   2.650   1.033   1.263  0.3224  2.7083 -3.7232
 5219SOL     OW27118   0.216   0.551   5.249 -0.0076  0.1043 -0.3379
 5219SOL    HW127119   0.155   0.499   5.197  0.0788  0.9890 -1.3217
 5219SOL    HW227120   0.241   0.474   5.299 -2.3739 -1.6038 -1.7912
 5220SOL     OW27121   1.126   2.330  11.126  0.1405  0.5022 -0.3664
 5220SOL    HW127122   1.102   2.318  11.034  2.0013  0.4764 -0.8501
 5220SOL    HW227123   1.107   2.242  11.159 -2.8230  0.8787 -1.0486
 5221SOL     OW27124   1.670   0.744   6.852  0.3808  0.0603 -0.0947
 5221SOL    HW127125   1.665   0.787   6.767  1.3434 -1.0162 -0.7040
 5221SOL    HW227126   1.610   0.801   6.900  0.2054 -1.6450  1.7441
 5222SOL     OW27127   0.682   0.087   2.971 -1.4294  0.5136  0.7293
 5222SOL    HW127128   0.711   0.133   3.050 -0.7904  0.2974  0.6177
 5222SOL    HW227129   0.737   0.012   2.993 -1.3407 -0.4781 -2.9202
 5223SOL     OW27130   3.594   4.208   8.255  0.3207  0.1168 -0.1439
 5223SOL    HW127131   3.539   4.140   8.293  1.1030 -0.0543  0.6774
 5223SOL    HW227132   3.613   4.176   8.166  2.4982 -0.6130  0.5808
 5224SOL     OW27133   3.465   4.446   8.383  0.1410 -0.3940 -0.5108
 5224SOL    HW127134   3.450   4.427   8.476 -2.0848 -2.0142 -1.2013
 5224SOL    HW227135   3.485   4.365   8.337  2.0817 -0.0452 -0.3172
 5225SOL     OW27136   1.940   1.926   3.937 -0.3731  0.6003  0.2013
 5225SOL    HW127137   1.909   2.014   3.913  2.0624  0.6612 -2.6675
 5225SOL    HW227138   1.868   1.910   3.999 -0.2427 -2.5155 -0.4514
 5226SOL     OW27139   3.404   2.178   6.252 -0.2631  0.1313  0.4230
 5226SOL    HW127140   3.427   2.107   6.193  1.9052  1.0230  0.1891
 5226SOL    HW227141   3.430   2.137   6.335  2.1331  0.9187  0.0681
 5227SOL     OW27142   1.990   1.571   5.619 -0.4273  0.3487 -0.1699
 5227SOL    HW127143   2.046   1.637   5.578 -0.6775 -0.5417 -1.9180
 5227SOL    HW227144   2.048   1.533   5.685 -0.9609  1.0743  0.7223
 5228SOL     OW27145   3.377   1.260   7.688 -0.5156  0.1051 -0.1674
 5228SOL    HW127146   3.291   1.283   7.723 -0.0259 -1.0576  1.7700
 5228SOL    HW227147   3.402   1.350   7.666 -1.7140  0.2838 -0.8264
 5229SOL     OW27148   2.734   2.416  12.414  0.0895 -0.3032 -0.0498
 5229SOL    HW127149   2.779   2.339  12.378  0.7175  1.4799 -3.0229
 5229SOL    HW227150   2.740   2.468  12.334 -1.1119 -0.8223 -0.4791
 5230SOL     OW27151   3.877   2.823  15.279  0.7237 -0.4299  0.1880
 5230SOL    HW127152   3.861   2.878  15.355  0.0328 -0.0403 -0.2314
 5230SOL    HW227153   3.956   2.782  15.312  1.9219  2.1719  0.5312
 5231SOL     OW27154   3.268   3.467   6.009 -0.0713 -0.3867 -0.0660
 5231SOL    HW127155   3.261   3.534   6.077 -1.8534  0.5045 -1.1079
 5231SOL    HW227156   3.308   3.402   6.066 -2.2841 -2.2672 -0.6580
 5232SOL     OW27157   1.145   2.515   6.436 -0.4676 -0.1189 -0.0627
 5232SOL    HW127158   1.138   2.468   6.519 -0.4104 -0.8535 -0.4646
 5232SOL    HW227159   1.064   2.566   6.431  0.2949  0.8163 -3.0501
 5233SOL     OW27160   2.419   4.034   8.423  0.1066 -0.9424 -0.0147
 5233SOL    HW127161   2.482   4.043   8.494  0.2912  0.0082 -0.3090
 5233SOL    HW227162   2.441   4.100   8.359 -0.2087  1.3331  2.2083
 5234SOL     OW27163   2.250   2.069   4.870  0.0685  0.2760  0.3134
 5234SOL    HW127164   2.219   1.992   4.824  0.6182 -1.1245  2.2831
 5234SOL    HW227165   2.340   2.039   4.883 -0.2397 -0.8181 -0.0899
 5235SOL     OW27166   4.408   2.100   2.074  1.0200 -0.7875 -0.7860
 5235SOL    HW127167   4.404   2.083   1.980 -0.6908  3.3231 -1.4188
 5235SOL    HW227168   4.440   2.012   2.096 -0.8677 -0.8156  1.8649
 5236SOL     OW27169   1.248   4.415   7.637  0.3569  0.8322  0.8261
 5236SOL    HW127170   1.206   4.466   7.568 -0.2549 -1.5024 -0.5274
 5236SOL    HW227171   1.322   4.476   7.643  0.4868  0.5065  2.6268
 5237SOL     OW27172   0.611   1.790   2.694  0.2686  0.1735 -0.4360
 5237SOL    HW127173   0.688   1.801   2.749 -1.1160 -0.8769  1.7343
 5237SOL    HW227174   0.606   1.695   2.698  3.4343  0.0174 -0.5002
 5238SOL     OW27175   1.333   1.774   6.674  0.1213 -0.3520 -0.0986
 5238SOL    HW127176   1.334   1.711   6.601 -0.3909 -1.0740  0.5110
 5238SOL    HW227177   1.283   1.847   6.637  0.4753 -0.1298 -0.1354
 5239SOL     OW27178   0.435   4.061   1.920  0.8869 -0.4129  0.6741
 5239SOL    HW127179   0.434   4.122   1.995  0.8842  0.1988  0.1758
 5239SOL    HW227180   0.349   4.020   1.930 -0.4100  1.7572 -1.3822
 5240SOL     OW27181   3.626   3.584  15.959 -0.1480  0.1595 -0.2633
 5240SOL    HW127182   3.672   3.630  16.030 -0.4027 -0.6611  0.4408
 5240SOL    HW227183   3.614   3.655  15.896  0.5603  0.5766  0.0725
 5241SOL     OW27184   1.792   3.084  16.829  0.2598  0.0946 -0.0890
 5241SOL    HW127185   1.741   3.120  16.757  1.0208  1.0257 -0.1678
 5241SOL    HW227186   1.778   3.154  16.894  1.8226  0.2623  0.0564
 5242SOL     OW27187   4.704   3.838  12.769  0.0928 -0.2663  0.5878
 5242SOL    HW127188   4.716   3.895  12.845 -1.6720  1.5317 -0.4882
 5242SOL    HW227189   0.073   3.797  12.771  1.2506  2.2464  1.3167
 5243SOL     OW27190   3.279   0.533  15.115 -0.5335 -0.0209  0.0320
 5243SOL    HW127191   3.233   0.576  15.043 -0.8678 -2.7764 -1.3889
 5243SOL    HW227192   3.212   0.543  15.182  0.2620 -2.3519  1.1828
 5244SOL     OW27193   3.825   0.464   3.256 -0.1936 -0.4033 -0.1835
 5244SOL    HW127194   3.740   0.473   3.213 -0.0725 -3.7848 -1.1608
 5244SOL    HW227195   3.887   0.459   3.184  0.9039  1.2842  0.6595
 5245SOL     OW27196   2.177   1.978   3.511 -0.4964 -0.5975  0.5657
 5245SOL    HW127197   2.265   2.009   3.489 -0.6489  0.5490  1.5759
 5245SOL    HW227198   2.148   2.063   3.544  2.0820  0.8563 -0.8868
 5246SOL     OW27199   1.409   0.873   6.400 -0.4509  0.1624  0.4213
 5246SOL    HW127200   1.398   0.963   6.431 -1.0529  0.0937  0.3949
 5246SOL    HW227201   1.366   0.878   6.314 -0.2585  0.7612  0.3549
 5247SOL     OW27202   4.032   0.592  14.369  0.3068 -0.0810  0.2286
 5247SOL    HW127203   4.109   0.598  14.426  0.2782 -0.1094  0.2700
 5247SOL    HW227204   4.013   0.499  14.357  1.4262 -0.1256 -1.1954
 5248SOL     OW27205   4.010   4.327   9.161  0.5944 -0.7361  0.2666
 5248SOL    HW127206   4.088   4.365   9.121 -2.5836  2.0654 -3.2848
 5248SOL    HW227207   4.036   4.236   9.147  2.2662  0.0284 -1.5809
 5249SOL     OW27208   2.289   3.732   7.077 -0.9184 -0.4669  0.3244
 5249SOL    HW127209   2.304   3.645   7.039 -2.2092 -0.9369  0.8859
 5249SOL    HW227210   2.338   3.720   7.158  1.8102 -0.7135 -1.3756
 5250SOL     OW27211   0.314   1.876   9.251 -0.2993  0.1836  0.0014
 5250SOL    HW127212   0.235   1.822   9.262 -2.9060  4.3215  1.6335
 5250SOL    HW227213   0.350   1.879   9.340  0.6058  0.2991 -0.3785
 5251SOL     OW27214   1.636   2.589   8.717  0.2488 -0.1424  0.4295
 5251SOL    HW127215   1.602   2.662   8.665 -0.5243 -1.6323 -1.1574
 5251SOL    HW227216   1.681   2.641   8.784  1.1008  1.2994 -1.2559
 5252SOL     OW27217   1.798   2.137   7.252  0.1885 -0.6427 -0.3577
 5252SOL    HW127218   1.705   2.149   7.234  0.1457  0.5661  0.6982
 5252SOL    HW227219   1.788   2.141   7.347 -0.3770 -1.4541 -0.3785
 5253SOL     OW27220   1.790   3.383   3.849 -0.3423 -0.2023  0.1930
 5253SOL    HW127221   1.783   3.287   3.845  1.9946 -0.4381  1.7093
 5253SOL    HW227222   1.786   3.396   3.754 -1.9587 -0.3828  0.2371
 5254SOL     OW27223   2.527   0.416   4.113 -0.2546 -0.1157 -0.1667
 5254SOL    HW127224   2.522   0.499   4.066 -0.6553  0.7309  1.3884
 5254SOL    HW227225   2.550   0.355   4.042 -0.9743 -3.1360  2.1920
 5255SOL     OW27226   3.422   3.287   3.792 -0.4057  0.0177 -0.0109
 5255SOL    HW127227   3.392   3.282   3.702  4.1819  1.8329 -1.6286
 5255SOL    HW227228   3.371   3.214   3.827 -0.0992 -1.1467 -2.0102
 5256SOL     OW27229   3.639   0.377  12.973 -0.0061  0.2008 -0.6732
 5256SOL    HW127230   3.630   0.446  12.908  0.6440  0.9749  0.0534
 5256SOL    HW227231   3.706   0.318  12.940  0.9635  0.1835  1.3220
 5257SOL     OW27232   1.714   4.207   0.299  0.2255 -0.4564 -0.1725
 5257SOL    HW127233   1.631   4.190   0.343  1.3267  0.5224  2.2476
 5257SOL    HW227234   1.758   4.123   0.312  1.2940 -0.1370 -1.6767
 5258SOL     OW27235   0.540   2.290  11.500  0.9307 -0.1355  0.1176
 5258SOL    HW127236   0.624   2.247  11.517  0.4427 -0.4043  1.8909
 5258SOL    HW227237   0.559   2.346  11.425  0.2419  1.3404  1.0438
 5259SOL     OW27238   0.818   2.147   2.177 -0.0356 -0.5751  0.1422
 5259SOL    HW127239   0.743   2.087   2.177 -1.2486  0.9141 -0.5817
 5259SOL    HW227240   0.830   2.152   2.082  0.5175  2.2579  0.3718
 5260SOL     OW27241   0.749   3.791  13.671  0.0925 -0.0592  0.2489
 5260SOL    HW127242   0.843   3.804  13.661  0.2617 -2.2385 -0.9272
 5260SOL    HW227243   0.737   3.704  13.633 -0.9149  0.5345 -0.7795
 5261SOL     OW27244   4.501   2.577   3.434  0.4842 -0.0095 -0.1802
 5261SOL    HW127245   4.512   2.625   3.351  2.8384 -1.5460 -0.7449
 5261SOL    HW227246   4.419   2.532   3.417  0.5793 -0.1957 -0.1398
 5262SOL     OW27247   2.126   3.170   9.065  0.0518  0.2134  0.4886
 5262SOL    HW127248   2.065   3.215   9.123  0.7452 -0.2730  1.6120
 5262SOL    HW227249   2.103   3.214   8.984  0.7846 -0.7507 -0.2397
 5263SOL     OW27250   2.628   1.242   5.495  0.0501 -0.1595  0.2387
 5263SOL    HW127251   2.683   1.295   5.439  1.7271 -0.6089  1.4461
 5263SOL    HW227252   2.680   1.243   5.576  1.6459  0.1772 -0.7920
 5264SOL     OW27253   3.510   2.268   5.335  0.9886  0.0533  0.0126
 5264SOL    HW127254   3.440   2.318   5.378 -1.0128 -1.4379 -1.5136
 5264SOL    HW227255   3.545   2.331   5.272  0.7231  0.7333  0.5431
 5265SOL     OW27256   1.988   2.532   4.790  0.0952 -0.3596  0.0282
 5265SOL    HW127257   2.012   2.457   4.844 -0.3228 -1.2129 -0.9782
 5265SOL    HW227258   2.075   2.571   4.781 -0.0437 -0.1582 -0.4131
 5266SOL     OW27259   2.949   3.354   4.727 -0.3028 -0.1899  0.3986
 5266SOL    HW127260   2.855   3.340   4.743 -0.0142 -0.5291  1.7568
 5266SOL    HW227261   2.980   3.267   4.752 -1.1319 -0.4353  0.5822
 5267SOL     OW27262   3.916   4.127  15.048 -0.2090  0.4159 -0.6281
 5267SOL    HW127263   4.000   4.125  15.094  0.2571  0.0585 -1.5192
 5267SOL    HW227264   3.871   4.054  15.091 -1.0966  0.6637 -1.1483
 5268SOL     OW27265   2.248   0.272  15.738  0.3780 -0.3977 -0.2349
 5268SOL    HW127266   2.214   0.355  15.703  0.8936 -0.3730 -0.6885
 5268SOL    HW227267   2.329   0.301  15.781 -1.5800  1.5438  2.1400
 5269SOL     OW27268   3.590   3.071   5.006  0.4016 -0.9145 -0.8070
 5269SOL    HW127269   3.589   3.166   4.994  1.4112 -0.8647 -0.4796
 5269SOL    HW227270   3.650   3.051   4.934  0.1423 -0.6806 -1.0876
 5270SOL     OW27271   2.890   4.666   8.508 -0.1660  0.0185  0.5487
 5270SOL    HW127272   2.942   0.025   8.532 -2.2126  1.3201  0.8538
 5270SOL    HW227273   2.813   4.690   8.560 -0.1021  0.6539  0.3588
 5271SOL     OW27274   1.340   1.181   5.171 -0.1318 -0.4018  0.7970
 5271SOL    HW127275   1.266   1.199   5.112 -0.2227  4.1493  2.2981
 5271SOL    HW227276   1.413   1.238   5.144 -1.3694  0.5888 -0.5257
 5272SOL     OW27277   2.210   2.244   2.125  0.2663  0.1908 -0.1612
 5272SOL    HW127278   2.179   2.278   2.041  1.7396  3.0646  0.4610
 5272SOL    HW227279   2.275   2.311   2.145  2.1094 -2.1742  1.7571
 5273SOL     OW27280   3.513   3.830   5.956 -0.1681  0.0586 -0.4233
 5273SOL    HW127281   3.420   3.817   5.941 -0.7752  3.6025  0.1922
 5273SOL    HW227282   3.527   3.773   6.032 -0.6892 -1.7911 -1.7250
 5274SOL     OW27283   0.211   3.827  10.049 -0.3536 -0.0351  0.8233
 5274SOL    HW127284   0.233   3.831  10.142 -0.7504  1.9887  0.8257
 5274SOL    HW227285   0.279   3.878  10.005 -0.1671 -0.8077  0.2045
 5275SOL     OW27286   0.820   0.182   5.809  0.5940 -0.3793  0.5388
 5275SOL    HW127287   0.912   0.161   5.826  1.2701  2.0104 -0.2116
 5275SOL    HW227288   0.819   0.238   5.732 -1.0446 -1.4988 -0.2532
 5276SOL     OW27289   1.705   2.853   0.905  0.6243  0.5330  0.0221
 5276SOL    HW127290   1.722   2.886   0.817  0.2556 -1.7072 -0.8874
 5276SOL    HW227291   1.674   2.935   0.943  1.1603  1.2659 -1.1144
 5277SOL     OW27292   3.330   3.612   1.805 -0.2203  0.0606  0.3843
 5277SOL    HW127293   3.261   3.678   1.793 -0.4515  0.1983  2.4284
 5277SOL    HW227294   3.407   3.652   1.765  0.1436  0.5778  1.6004
 5278SOL     OW27295   4.152   1.754   9.513  0.1450  0.7995 -0.2421
 5278SOL    HW127296   4.206   1.785   9.441 -2.6456  1.8889 -1.8903
 5278SOL    HW227297   4.066   1.792   9.494 -1.1625 -1.5371  0.9943
 5279SOL     OW27298   0.686   1.983  16.172  0.0742 -0.4035  0.2063
 5279SOL    HW127299   0.673   1.920  16.102  2.7430 -0.7754  0.0557
 5279SOL    HW227300   0.733   1.924  16.230  0.5522  0.2024  0.4369
 5280SOL     OW27301   1.974   0.017   9.042 -0.1575  0.2287 -0.6163
 5280SOL    HW127302   1.962   0.002   8.948 -0.8965  0.1681 -0.5102
 5280SOL    HW227303   2.042   0.085   9.030 -0.8724  1.1964  0.8916
 5281SOL     OW27304   3.337   4.004   7.059 -0.0579  0.2832 -0.2239
 5281SOL    HW127305   3.325   4.018   7.153 -0.0025 -2.2591  0.1522
 5281SOL    HW227306   3.262   3.945   7.053 -0.0731  0.2993 -0.1888
 5282SOL     OW27307   2.002   1.704   4.205 -0.1526 -0.0020  0.2883
 5282SOL    HW127308   2.061   1.737   4.137  0.0019  1.7081  1.2628
 5282SOL    HW227309   2.063   1.708   4.278  1.4265  0.0529 -1.0199
 5283SOL     OW27310   4.443   2.464   7.638  0.6959 -0.4275 -0.3775
 5283SOL    HW127311   4.510   2.436   7.700  0.1744 -1.4717 -0.2860
 5283SOL    HW227312   4.423   2.390   7.580  0.0363 -1.2215  0.8838
 5284SOL     OW27313   4.148   3.694   1.471  0.6493  0.1645  0.1675
 5284SOL    HW127314   4.084   3.728   1.407 -0.3066  0.9174  1.5323
 5284SOL    HW227315   4.182   3.626   1.413 -2.9745 -1.2879 -0.2909
 5285SOL     OW27316   0.749   4.309   4.951 -0.2360 -0.1205  0.3224
 5285SOL    HW127317   0.774   4.401   4.949 -1.3268  0.1541 -0.4704
 5285SOL    HW227318   0.661   4.319   4.915 -0.1374  2.3907  0.8363
 5286SOL     OW27319   0.501   1.731   5.674  0.3937 -0.2838 -0.1136
 5286SOL    HW127320   0.571   1.671   5.701  0.0333 -0.3715  0.6430
 5286SOL    HW227321   0.434   1.717   5.741  0.2103 -0.4467 -0.3303
 5287SOL     OW27322   2.388   3.698   6.608 -0.2467  0.1772  0.1204
 5287SOL    HW127323   2.395   3.745   6.691 -0.6047 -0.8931  0.7514
 5287SOL    HW227324   2.303   3.724   6.574  0.0974 -1.0853 -1.7557
 5288SOL     OW27325   4.601   3.362   2.756  0.1428 -0.1875  0.4178
 5288SOL    HW127326   4.665   3.316   2.701 -0.3278 -0.5846  0.2042
 5288SOL    HW227327   4.551   3.406   2.688  0.0204 -0.1798  0.5120
 5289SOL     OW27328   4.124   0.328   8.381  0.8111 -0.4132  0.0863
 5289SOL    HW127329   4.132   0.239   8.415 -0.8722  0.4000  2.5902
 5289SOL    HW227330   4.041   0.348   8.423 -0.2082  1.8062 -2.9623
 5290SOL     OW27331   3.090   1.286   9.400 -0.2352 -0.3436  0.4469
 5290SOL    HW127332   3.040   1.357   9.359 -0.2821  0.2815  1.5938
 5290SOL    HW227333   3.141   1.251   9.327  0.7903 -0.4657  1.2276
 5291SOL     OW27334   2.509   2.988   4.173  0.3173 -0.0346 -0.2516
 5291SOL    HW127335   2.481   3.071   4.212 -0.4633 -0.1448 -0.5693
 5291SOL    HW227336   2.505   2.925   4.245 -0.7178  0.0689 -0.2161
 5292SOL     OW27337   0.005   2.084  14.327 -0.2620  0.9101  0.2077
 5292SOL    HW127338   0.059   2.019  14.281 -0.3270  0.4432  0.7864
 5292SOL    HW227339   0.003   2.060  14.420 -1.8009  0.9053  0.1800
 5293SOL     OW27340   4.635   4.559   4.338  0.7362  0.2255 -0.4721
 5293SOL    HW127341   4.683   4.640   4.323  0.2825  0.1460 -2.2568
 5293SOL    HW227342   4.600   4.543   4.251  1.5593 -0.4561 -0.6703
 5294SOL     OW27343   1.981   4.482  13.975  0.1645  0.7562  0.0660
 5294SOL    HW127344   1.964   4.536  13.897  0.4936  1.7439  0.6854
 5294SOL    HW227345   2.025   4.405  13.939 -3.5872 -0.7502 -1.3442
 5295SOL     OW27346   0.970   3.206  15.562 -0.7396  0.1030 -0.7918
 5295SOL    HW127347   0.941   3.250  15.643 -0.7837  2.4621 -2.0945
 5295SOL    HW227348   1.003   3.123  15.596  0.3752  0.0563 -1.9949
 5296SOL     OW27349   0.508   4.443   6.731 -0.3540 -0.3693 -0.5392
 5296SOL    HW127350   0.430   4.462   6.680  0.2659  1.2129 -0.9022
 5296SOL    HW227351   0.574   4.464   6.664  0.2442  0.5119  0.3268
 5297SOL     OW27352   4.189   4.073   2.063  0.4172  0.2587 -0.4005
 5297SOL    HW127353   4.104   4.029   2.067  0.2427  0.5612 -0.8420
 5297SOL    HW227354   4.187   4.141   2.130  0.9212  0.4466 -0.5727
 5298SOL     OW27355   3.593   0.178   0.409 -0.6010 -0.0120 -0.5058
 5298SOL    HW127356   3.573   0.223   0.491 -0.5243  2.2819 -1.7347
 5298SOL    HW227357   3.521   0.115   0.405  0.6936 -1.6805  2.5008
 5299SOL     OW27358   3.554   1.531  13.278  0.4632  0.1271  0.1485
 5299SOL    HW127359   3.563   1.497  13.367 -1.7654 -1.6690 -0.3218
 5299SOL    HW227360   3.499   1.460  13.245  0.3425  0.7828 -1.0555
 5300SOL     OW27361   2.894   1.869   1.946 -0.4684 -0.7757 -0.2780
 5300SOL    HW127362   2.825   1.872   2.012  0.8606 -1.2243  1.1477
 5300SOL    HW227363   2.967   1.885   2.006 -0.0533 -2.5836 -0.3121
 5301SOL     OW27364   3.811   0.958  14.073 -0.2965 -0.4079 -0.0671
 5301SOL    HW127365   3.791   0.899  14.000 -0.0567 -2.2418  1.3687
 5301SOL    HW227366   3.809   0.898  14.147  1.0492  0.3201  0.5648
 5302SOL     OW27367   1.708   1.878  12.821  0.1345  0.1255 -0.3133
 5302SOL    HW127368   1.709   1.840  12.734 -0.4062 -0.1452 -0.2019
 5302SOL    HW227369   1.799   1.897  12.845 -0.4193  1.9185  0.3549
 5303SOL     OW27370   3.172   0.686   2.002  0.3590 -0.0314 -0.2374
 5303SOL    HW127371   3.119   0.705   2.080 -0.9583  2.2480 -1.6868
 5303SOL    HW227372   3.116   0.713   1.930  2.0666  0.9263 -1.2066
 5304SOL     OW27373   1.387   4.136  17.352 -0.6576 -0.3212 -0.0507
 5304SOL    HW127374   1.443   4.144  17.275 -1.3491  0.1377 -0.4991
 5304SOL    HW227375   1.364   4.228  17.364 -0.0128 -0.1137 -0.3954
 5305SOL     OW27376   2.785   1.007   4.714  0.5375  0.3223 -0.2588
 5305SOL    HW127377   2.785   0.984   4.806 -0.2995  0.1855 -0.2899
 5305SOL    HW227378   2.698   1.041   4.691 -0.4855 -2.4593 -0.5183
 5306SOL     OW27379   1.226   3.898  15.869 -0.0753 -0.1819 -0.2659
 5306SOL    HW127380   1.163   3.853  15.925  0.5028 -1.8171 -0.9379
 5306SOL    HW227381   1.168   3.955  15.819  0.8502  0.4773 -0.5754
 5307SOL     OW27382   1.040   0.499   7.796  0.3657 -0.4055  0.1201
 5307SOL    HW127383   1.100   0.468   7.864  0.2931  1.0612  0.8559
 5307SOL    HW227384   0.981   0.424   7.803 -2.1121  1.3679 -1.9104
 5308SOL     OW27385   4.593   3.086  14.984  0.6358 -0.9258  0.1329
 5308SOL    HW127386   4.594   3.047  15.071 -0.4925 -1.9753 -0.3217
 5308SOL    HW227387   4.524   3.152  14.992  0.4016 -1.1145 -0.3309
 5309SOL     OW27388   1.399   2.442  11.272 -0.0648  0.1941 -0.5616
 5309SOL    HW127389   1.486   2.420  11.238 -0.1135  0.0818 -0.6136
 5309SOL    HW227390   1.374   2.515  11.216  0.0250  0.8295  0.2371
 5310SOL     OW27391   2.800   2.318   0.888 -0.3792 -0.1346  0.5476
 5310SOL    HW127392   2.714   2.312   0.845 -0.2611 -1.5753  0.4907
 5310SOL    HW227393   2.803   2.405   0.927 -0.1184  1.0451 -2.0910
 5311SOL     OW27394   4.037   0.047   6.376  0.2707 -0.2645  0.7100
 5311SOL    HW127395   4.046   4.671   6.390  1.6546 -0.0978  1.0042
 5311SOL    HW227396   4.075   0.069   6.291 -1.4388 -0.8239 -0.1868
 5312SOL     OW27397   2.202   1.098   8.061 -0.5589  0.0263  0.2577
 5312SOL    HW127398   2.185   1.028   7.999 -2.1800 -0.7731  1.6126
 5312SOL    HW227399   2.269   1.063   8.120 -0.0452  0.2673 -0.1881
 5313SOL     OW27400   3.143   4.150   6.299 -0.6614  0.1402  0.3997
 5313SOL    HW127401   3.175   4.141   6.210 -2.5055 -2.5643 -0.0169
 5313SOL    HW227402   3.130   4.244   6.302  0.7973  0.3761 -0.9825
 5314SOL     OW27403   3.531   2.193   4.975  0.3107 -0.1096  0.1047
 5314SOL    HW127404   3.551   2.278   5.015  1.9806  0.5004 -2.0277
 5314SOL    HW227405   3.529   2.206   4.881  1.4031 -3.7147 -0.4088
 5315SOL     OW27406   2.134   2.053  12.486  0.8127  0.3919 -0.1048
 5315SOL    HW127407   2.085   2.096  12.417  1.8470 -0.4399 -1.3724
 5315SOL    HW227408   2.222   2.062  12.449  0.6859  0.3103 -0.4228
 5316SOL     OW27409   4.038   0.868   3.378 -0.2448  0.2180  0.1176
 5316SOL    HW127410   4.064   0.823   3.298 -1.5752  0.7071 -0.5776
 5316SOL    HW227411   3.954   0.904   3.352 -1.5693 -1.7633  1.6165
 5317SOL     OW27412   3.483   3.462   4.494 -0.9444  0.7151  0.4278
 5317SOL    HW127413   3.461   3.532   4.432  1.8202  2.6402  1.6732
 5317SOL    HW227414   3.418   3.396   4.468  0.4338 -0.4793 -0.0297
 5318SOL     OW27415   4.350   3.662   8.419 -0.1401  0.1711  0.7947
 5318SOL    HW127416   4.391   3.606   8.484 -0.7982  0.5460  1.5321
 5318SOL    HW227417   4.418   3.658   8.352 -0.6761  2.6339  0.0833
 5319SOL     OW27418   4.193   2.256  16.097  0.2677  0.1001 -0.3229
 5319SOL    HW127419   4.154   2.342  16.115  1.4247  0.6015 -0.1927
 5319SOL    HW227420   4.170   2.200  16.172  1.1890 -2.5306 -2.0012
 5320SOL     OW27421   2.559   1.207  15.930  0.0781  0.1695 -0.7209
 5320SOL    HW127422   2.563   1.261  16.009 -0.4638 -0.1906 -0.4529
 5320SOL    HW227423   2.607   1.264  15.869 -0.0134 -0.9103 -1.8030
 5321SOL     OW27424   2.571   0.246   1.477  0.2807  0.4316 -0.0094
 5321SOL    HW127425   2.573   0.234   1.382  3.6475 -0.6613  0.2197
 5321SOL    HW227426   2.621   0.327   1.490 -1.7436  1.7116 -0.2128
 5322SOL     OW27427   0.962   4.675   2.069  0.4268 -0.4509 -0.1233
 5322SOL    HW127428   0.987   4.675   1.976 -0.2377 -0.8854 -0.3041
 5322SOL    HW227429   0.903   0.033   2.071 -0.5422 -1.1878 -0.3129
 5323SOL     OW27430   3.954   3.931   2.117 -0.0034  0.0224 -0.0800
 5323SOL    HW127431   3.905   3.906   2.039  0.0211  0.8493 -0.3550
 5323SOL    HW227432   3.953   3.845   2.159 -0.0007 -0.4136 -0.9741
 5324SOL     OW27433   0.276   0.680   3.653 -0.4649 -0.4285 -0.2102
 5324SOL    HW127434   0.334   0.736   3.601 -0.3739 -1.4785 -1.2543
 5324SOL    HW227435   0.192   0.680   3.607 -0.1223  2.5677 -0.8426
 5325SOL     OW27436   1.579   2.107   2.434  0.0427  0.1258  0.4691
 5325SOL    HW127437   1.613   2.183   2.386 -2.3015  0.8284 -0.0871
 5325SOL    HW227438   1.542   2.056   2.363  1.0816 -0.7644  0.5690
 5326SOL     OW27439   1.307   4.190   5.015  0.5067  0.1720 -0.4288
 5326SOL    HW127440   1.377   4.223   5.072 -1.8448  1.9240  1.4566
 5326SOL    HW227441   1.335   4.099   5.006  1.3938  0.3533  0.4312
 5327SOL     OW27442   4.214   0.086  11.501 -0.0382  0.0920 -0.1316
 5327SOL    HW127443   4.235   0.054  11.589  4.1303  1.8129 -0.4911
 5327SOL    HW227444   4.163   0.160  11.534 -0.1198  1.3851 -3.1471
 5328SOL     OW27445   2.339   0.060   5.109 -0.2724  0.6010  0.4693
 5328SOL    HW127446   2.379   4.710   5.163 -1.6006 -0.7967 -0.3048
 5328SOL    HW227447   2.378   0.136   5.151 -0.7032  0.2715  1.4592
 5329SOL     OW27448   2.885   4.513   2.524  0.5024  0.3871 -0.2461
 5329SOL    HW127449   2.902   4.467   2.442  0.9385 -0.3607  0.2585
 5329SOL    HW227450   2.972   4.552   2.526  1.9935 -2.9035 -0.8612
 5330SOL     OW27451   1.082   3.616   3.297 -0.2783  0.1006  0.2236
 5330SOL    HW127452   1.023   3.555   3.342 -0.2200  0.3341  0.6212
 5330SOL    HW227453   1.165   3.570   3.311 -1.1531 -1.1596  1.2761
 5331SOL     OW27454   2.781   1.815   5.622  0.1183  0.6051 -0.0200
 5331SOL    HW127455   2.731   1.761   5.560 -0.4531  0.9323  0.1608
 5331SOL    HW227456   2.870   1.782   5.610  0.6247  1.3052  1.8928
 5332SOL     OW27457   0.682   4.237   3.430 -0.4530 -0.5830 -0.1787
 5332SOL    HW127458   0.650   4.297   3.362 -2.5018  1.0243  2.1678
 5332SOL    HW227459   0.600   4.188   3.438 -1.7790  1.8988  1.5651
 5333SOL     OW27460   1.417   0.429   7.486  0.0181  0.0009  0.1585
 5333SOL    HW127461   1.336   0.388   7.457  0.8170 -1.6121  0.1510
 5333SOL    HW227462   1.422   0.390   7.574  2.5553 -1.4896 -0.6321
 5334SOL     OW27463   0.826   1.719   2.850  0.1945 -0.2272  0.1243
 5334SOL    HW127464   0.861   1.751   2.768 -2.0670 -1.6437 -1.4077
 5334SOL    HW227465   0.880   1.655   2.896 -0.0674 -0.4171  0.1691
 5335SOL     OW27466   3.387   4.504   2.720 -0.0029 -0.1209  0.1818
 5335SOL    HW127467   3.351   4.443   2.785 -0.5473 -1.2907 -1.2218
 5335SOL    HW227468   3.403   4.582   2.773  0.8138 -0.3053  0.1954
 5336SOL     OW27469   3.530   2.160   6.515 -0.4743  0.1406 -0.2209
 5336SOL    HW127470   3.474   2.237   6.522  0.6958  0.9911 -0.1893
 5336SOL    HW227471   3.539   2.118   6.601 -1.1163  2.3466  0.9259
 5337SOL     OW27472   1.454   1.958   3.098 -0.0182  0.0803 -0.4682
 5337SOL    HW127473   1.535   1.908   3.110  1.0262  1.5056 -1.5403
 5337SOL    HW227474   1.431   1.950   3.006 -2.7318  1.0471  0.1290
 5338SOL     OW27475   1.267   0.114  12.629 -0.1220  0.3253  0.4079
 5338SOL    HW127476   1.302   0.150  12.547 -0.7939 -2.2486 -0.9964
 5338SOL    HW227477   1.324   0.038  12.637  0.8701  0.9737 -0.4875
 5339SOL     OW27478   2.540   4.367   8.436 -0.0527  0.5778 -0.2961
 5339SOL    HW127479   2.541   4.345   8.529  0.3874 -1.7219 -0.8610
 5339SOL    HW227480   2.472   4.435   8.435  1.4704  2.1267  2.7965
 5340SOL     OW27481   2.943   4.687   2.177 -0.7572 -0.4256 -0.0344
 5340SOL    HW127482   2.906   4.602   2.203  0.2216 -0.6565  0.6200
 5340SOL    HW227483   2.872   0.024   2.208 -0.9439  1.3385 -3.6079
 5341SOL     OW27484   4.525   3.441   8.532  0.2986 -0.0952 -0.1108
 5341SOL    HW127485   4.499   3.356   8.568 -0.9984  1.1692  1.9200
 5341SOL    HW227486   4.499   3.433   8.440 -1.6908 -0.3542  0.4709
 5342SOL     OW27487   0.473   4.418   6.420  0.3620 -0.4043 -0.0484
 5342SOL    HW127488   0.390   4.399   6.377 -1.0102  2.2642  1.4308
 5342SOL    HW227489   0.535   4.361   6.375  2.3449  0.1034  2.0641
 5343SOL     OW27490   0.896   3.722  12.499 -0.8847  0.3723 -0.1302
 5343SOL    HW127491   0.957   3.795  12.493  1.6107 -1.8294 -1.6687
 5343SOL    HW227492   0.836   3.748  12.429 -0.0704 -1.1649 -1.4128
 5344SOL     OW27493   4.490   3.176  10.626  0.4714 -0.5587  0.0708
 5344SOL    HW127494   4.456   3.098  10.668 -1.0803  0.1846  0.1826
 5344SOL    HW227495   4.542   3.206  10.701  1.0453 -2.0410  0.2532
 5345SOL     OW27496   1.238   0.173   0.766  0.4711 -0.3174 -0.4875
 5345SOL    HW127497   1.151   0.196   0.735  1.2736  2.3190 -0.7377
 5345SOL    HW227498   1.269   0.254   0.806  0.6476 -1.4235  1.5841
 5346SOL     OW27499   4.065   4.137  13.099  0.0825 -0.1372 -0.3115
 5346SOL    HW127500   3.971   4.152  13.089  0.2039 -0.4907 -1.9318
 5346SOL    HW227501   4.083   4.055  13.053  1.3528 -0.5043  0.8158
 5347SOL     OW27502   0.824   1.188  10.908  0.3549 -0.1212  0.1321
 5347SOL    HW127503   0.841   1.097  10.930 -0.2247 -0.1599  0.4166
 5347SOL    HW227504   0.736   1.189  10.869  0.4712  1.8292 -0.1128
 5348SOL     OW27505   4.299   4.616  11.990  0.1152  0.5207 -0.1252
 5348SOL    HW127506   4.315   4.695  11.938  0.5770  0.5225  0.0153
 5348SOL    HW227507   4.336   4.617  12.078 -1.0609 -2.8113  0.4083
 5349SOL     OW27508   3.390   4.263   3.247 -0.5379  0.2935 -0.2734
 5349SOL    HW127509   3.439   4.306   3.176  0.8651  0.3591  0.7332
 5349SOL    HW227510   3.359   4.339   3.295  0.1611 -0.3320  1.1585
 5350SOL     OW27511   0.883   0.616   4.515  0.1537  0.4093 -0.1012
 5350SOL    HW127512   0.861   0.687   4.455 -1.3201 -0.3445 -0.4596
 5350SOL    HW227513   0.794   0.588   4.537 -0.8522  3.7772  0.2014
 5351SOL     OW27514   0.705   4.153  13.369  0.6056  0.4013  0.3785
 5351SOL    HW127515   0.711   4.065  13.333 -0.4967  0.8415 -0.8802
 5351SOL    HW227516   0.798   4.171  13.383  0.8634 -0.4658 -0.2117
 5352SOL     OW27517   0.940   1.930   6.730  0.2199 -0.1697  0.2057
 5352SOL    HW127518   0.954   1.844   6.690 -0.5216  0.0225 -0.4654
 5352SOL    HW227519   1.020   1.939   6.782  0.2858  0.2017  0.0378
 5353SOL     OW27520   2.414   1.404   7.320 -0.2679  0.1531  0.0221
 5353SOL    HW127521   2.422   1.495   7.350  0.1073  0.0717  0.1602
 5353SOL    HW227522   2.331   1.368   7.351  0.1764 -0.6201  0.2998
 5354SOL     OW27523   1.639   2.133   5.418  0.3860 -0.5976 -0.4425
 5354SOL    HW127524   1.667   2.151   5.328  0.1956  1.8451 -0.0264
 5354SOL    HW227525   1.560   2.084   5.397 -0.8019  0.8973  0.6236
 5355SOL     OW27526   3.320   2.199  11.106  0.0058  0.1573 -0.3673
 5355SOL    HW127527   3.247   2.145  11.136  0.4452  0.6608  1.5902
 5355SOL    HW227528   3.351   2.143  11.035 -2.3535 -2.1109  0.3959
 5356SOL     OW27529   0.669   2.556   8.071 -0.4909  0.2414 -0.6749
 5356SOL    HW127530   0.636   2.591   7.988  3.8179  1.9113 -1.6975
 5356SOL    HW227531   0.589   2.542   8.121 -0.1843  0.2477 -0.1838
 5357SOL     OW27532   0.875   2.711   1.612  0.1167 -0.3604 -0.1727
 5357SOL    HW127533   0.914   2.623   1.605  2.8432  0.8628 -0.5481
 5357SOL    HW227534   0.947   2.770   1.593  0.1768 -0.3864 -0.0307
 5358SOL     OW27535   0.907   2.243  16.390  0.0939  0.1494 -0.2795
 5358SOL    HW127536   0.956   2.161  16.399 -2.2097 -1.1014  0.8786
 5358SOL    HW227537   0.952   2.298  16.454 -0.0852 -0.8485  0.7020
 5359SOL     OW27538   3.415   3.810   8.151 -0.6656 -0.1257 -0.0183
 5359SOL    HW127539   3.437   3.875   8.217 -0.3657  0.4954 -0.7370
 5359SOL    HW227540   3.505   3.787   8.127  0.1475  0.4193  2.4409
 5360SOL     OW27541   3.399   0.711  14.160  0.6062  0.2188 -0.5841
 5360SOL    HW127542   3.442   0.771  14.221 -1.4893  0.0421  1.0607
 5360SOL    HW227543   3.459   0.637  14.163 -0.0256 -0.4269 -3.3562
 5361SOL     OW27544   0.257   4.662  15.794 -0.9345 -0.6428 -0.4613
 5361SOL    HW127545   0.173   4.617  15.786 -0.6939 -1.1986  0.1499
 5361SOL    HW227546   0.229   0.032  15.818  2.3432  0.6229 -1.3311
 5362SOL     OW27547   0.787   1.413   6.788 -0.0863  0.7272 -0.2603
 5362SOL    HW127548   0.755   1.395   6.876  1.4611 -1.8318 -0.2384
 5362SOL    HW227549   0.765   1.334   6.740  0.8280 -0.8898  1.9988
 5363SOL     OW27550   1.342   3.535  14.198 -0.1466  0.4901  0.4182
 5363SOL    HW127551   1.426   3.572  14.227  0.8614 -0.3004 -1.5120
 5363SOL    HW227552   1.290   3.555  14.276  1.3827  0.8978  1.3553
 5364SOL     OW27553   0.014   0.350   7.084  0.3363  0.4767 -0.7482
 5364SOL    HW127554   4.637   0.345   7.077  0.4466 -0.4802 -1.5827
 5364SOL    HW227555   0.039   0.257   7.085  2.0829  0.9811  2.2421
 5365SOL     OW27556   3.365   4.621  15.162  0.5968  0.4288 -0.8366
 5365SOL    HW127557   3.325   4.677  15.095  0.0614 -0.4580 -1.2506
 5365SOL    HW227558   3.316   4.654  15.238  0.6938 -1.9846  0.2591
 5366SOL     OW27559   1.880   3.428   5.970 -0.1400 -0.2098  0.5810
 5366SOL    HW127560   1.963   3.452   6.011  0.1094 -0.3396  0.1476
 5366SOL    HW227561   1.899   3.396   5.882 -0.3211 -0.0576  0.4870
 5367SOL     OW27562   4.566   1.471  12.631  0.5195  0.0002 -0.0112
 5367SOL    HW127563   4.641   1.463  12.571  0.8576 -0.1573  0.4305
 5367SOL    HW227564   4.513   1.533  12.582  0.1618  0.4611  0.9586
 5368SOL     OW27565   0.403   3.279   8.600 -1.3236 -0.2212  0.1213
 5368SOL    HW127566   0.389   3.189   8.570  0.1483 -0.2505 -0.4706
 5368SOL    HW227567   0.477   3.302   8.544 -2.2877 -0.5959 -1.3141
 5369SOL     OW27568   1.454   1.460   1.279  0.6670 -0.4200 -0.2823
 5369SOL    HW127569   1.538   1.505   1.281 -0.0716  0.9142  0.9647
 5369SOL    HW227570   1.425   1.482   1.367 -0.0486  1.4660 -0.9908
 5370SOL     OW27571   2.252   3.934  15.870  0.3386  0.0310 -0.5519
 5370SOL    HW127572   2.347   3.930  15.858  0.8891  1.3114  3.1487
 5370SOL    HW227573   2.246   4.023  15.907  2.3063 -0.2218  0.3982
 5371SOL     OW27574   4.302   1.219  10.189 -0.3395  0.3655 -0.0419
 5371SOL    HW127575   4.306   1.216  10.093  0.7696 -0.1015  0.0265
 5371SOL    HW227576   4.332   1.130  10.208  1.8496  0.7116 -1.8579
 5372SOL     OW27577   3.053   0.788   5.528 -0.3877  0.2336  0.0244
 5372SOL    HW127578   2.977   0.734   5.548  1.2905 -2.3374 -0.5537
 5372SOL    HW227579   3.020   0.841   5.456 -0.7800  0.1980  0.1815
 5373SOL     OW27580   3.784   1.796   7.490  0.0396  0.6441  0.4155
 5373SOL    HW127581   3.725   1.870   7.509  1.5657  1.7758  0.7901
 5373SOL    HW227582   3.768   1.741   7.567  1.0856 -1.5104 -0.9343
 5374SOL     OW27583   1.614   0.375   5.694 -0.1864  0.0838 -0.1035
 5374SOL    HW127584   1.665   0.394   5.615  0.1954  2.6066  0.7764
 5374SOL    HW227585   1.683   0.349   5.755 -0.6159 -1.2060 -0.1592
 5375SOL     OW27586   2.804   1.169   9.067 -0.7497  0.1512  0.3524
 5375SOL    HW127587   2.869   1.149   9.000  0.3255  0.3373  1.3492
 5375SOL    HW227588   2.807   1.264   9.060 -1.9145  0.1549 -0.1480
 5376SOL     OW27589   2.264   3.536   0.108 -0.2522 -0.0075  0.6605
 5376SOL    HW127590   2.196   3.561   0.045 -2.9220 -2.0906  2.6804
 5376SOL    HW227591   2.220   3.464   0.154  0.2063  0.0110  1.1293
 5377SOL     OW27592   4.067   2.287   5.109  0.1320 -0.2865 -0.1355
 5377SOL    HW127593   4.136   2.259   5.049  0.3226 -1.2261  0.5280
 5377SOL    HW227594   4.015   2.208   5.121 -0.8757  0.5991  1.3398
 5378SOL     OW27595   1.854   0.369  15.056  0.2337  0.0297  0.0908
 5378SOL    HW127596   1.890   0.318  15.129  1.2433 -0.4380 -0.7294
 5378SOL    HW227597   1.920   0.435  15.037 -0.2031  0.6708  0.8365
 5379SOL     OW27598   3.088   1.902   9.144 -0.6817 -0.4273 -0.1251
 5379SOL    HW127599   3.103   1.995   9.126  1.7452 -0.9825 -1.0374
 5379SOL    HW227600   3.102   1.906   9.238  0.3645  0.3951 -0.3041
 5380SOL     OW27601   1.366   1.394   2.674 -0.5120  0.3429  0.2475
 5380SOL    HW127602   1.427   1.368   2.605 -1.7648  1.2331 -1.1903
 5380SOL    HW227603   1.314   1.314   2.680  0.2679 -0.2729 -1.1938
 5381SOL     OW27604   1.783   0.528   3.303 -0.2611 -0.5950 -0.0550
 5381SOL    HW127605   1.837   0.487   3.235  2.1192  2.3156  0.0873
 5381SOL    HW227606   1.851   0.580   3.347  0.7422 -0.3692 -1.8755
 5382SOL     OW27607   1.748   2.795  12.106  0.8793 -0.3882  0.3959
 5382SOL    HW127608   1.789   2.809  12.192 -0.1999 -0.2255  0.8913
 5382SOL    HW227609   1.664   2.761  12.137  0.6738 -0.1335  0.1252
 5383SOL     OW27610   0.271   2.466  11.210 -0.1319 -0.2061  0.0341
 5383SOL    HW127611   0.256   2.477  11.304 -2.7145  1.7625 -0.6211
 5383SOL    HW227612   0.187   2.459  11.165  0.6363  0.8369 -1.5174
 5384SOL     OW27613   0.018   3.216   6.275  0.2751 -0.3162 -0.2072
 5384SOL    HW127614   4.708   3.132   6.238 -2.4150  0.3545  0.2842
 5384SOL    HW227615   0.104   3.200   6.312  1.8563  0.7866 -3.3601
 5385SOL     OW27616   0.663   2.386   2.956 -0.0137  0.2873 -0.0183
 5385SOL    HW127617   0.621   2.465   2.990  1.8958  1.0589  0.5459
 5385SOL    HW227618   0.735   2.413   2.900  1.5732 -4.1263 -0.1051
 5386SOL     OW27619   3.130   4.310  10.382 -0.0264 -0.0370  0.2365
 5386SOL    HW127620   3.103   4.402  10.376 -0.0235  0.0128  0.9604
 5386SOL    HW227621   3.225   4.315  10.390  0.2332  0.2847 -2.9697
 5387SOL     OW27622   4.445   2.816   0.647 -0.0236  0.4070  0.1083
 5387SOL    HW127623   4.514   2.750   0.638  0.4272  0.7825  0.7565
 5387SOL    HW227624   4.487   2.888   0.599  1.6647 -1.3999 -1.0901
 5388SOL     OW27625   0.463   1.839  14.902 -0.3581  0.2838 -0.5266
 5388SOL    HW127626   0.471   1.787  14.981 -0.5326  1.5303  0.3128
 5388SOL    HW227627   0.393   1.898  14.931 -1.0265 -0.3001 -0.9593
 5389SOL     OW27628   1.278   4.070  15.539  0.0417 -0.0942 -0.3025
 5389SOL    HW127629   1.336   4.099  15.610 -0.3269  1.7376 -0.7510
 5389SOL    HW227630   1.203   4.039  15.590  1.3755 -1.4866  0.8381
 5390SOL     OW27631   0.189   2.593   9.487 -0.7761 -0.7349 -0.1113
 5390SOL    HW127632   0.118   2.543   9.447 -0.8384  0.7547 -1.8458
 5390SOL    HW227633   0.153   2.596   9.576 -0.0047  1.4717  0.1221
 5391SOL     OW27634   0.596   0.883   0.305  0.3016  0.0885  1.0101
 5391SOL    HW127635   0.587   0.806   0.361  1.6052  0.7863  2.1855
 5391SOL    HW227636   0.513   0.893   0.259  1.2802 -1.0083 -1.0107
 5392SOL     OW27637   2.676   4.075   6.023  0.1698  0.5044  0.1651
 5392SOL    HW127638   2.709   3.987   6.041  2.2828  1.0444 -1.0383
 5392SOL    HW227639   2.625   4.084   6.103  1.1273 -0.8145  0.9278
 5393SOL     OW27640   0.484   3.088   6.775 -0.4524  0.3091  0.5659
 5393SOL    HW127641   0.533   3.151   6.827  0.2333  0.1145  0.1513
 5393SOL    HW227642   0.536   3.009   6.793 -1.3504 -0.3716  0.1811
 5394SOL     OW27643   3.169   0.665   9.803  0.4544 -0.1782  1.0032
 5394SOL    HW127644   3.219   0.744   9.780 -0.3886 -1.0997 -4.1554
 5394SOL    HW227645   3.089   0.708   9.832  0.8933  0.6088  1.0573
 5395SOL     OW27646   4.072   0.962   6.657  0.4342  0.1636  0.3172
 5395SOL    HW127647   4.018   1.039   6.675 -2.2966 -1.2505 -1.7963
 5395SOL    HW227648   4.005   0.900   6.628 -0.9386  0.8293  2.0880
 5396SOL     OW27649   1.412   2.229   7.470 -0.0063  0.0332  0.0248
 5396SOL    HW127650   1.349   2.293   7.435 -0.7035 -0.1711  0.8941
 5396SOL    HW227651   1.484   2.277   7.510  1.8969 -0.8404 -2.3520
 5397SOL     OW27652   1.340   3.842   2.464 -0.6015  0.0131 -0.0502
 5397SOL    HW127653   1.291   3.778   2.413  1.7600 -1.2819 -0.7359
 5397SOL    HW227654   1.311   3.924   2.424 -2.6222  0.1538  1.7110
 5398SOL     OW27655   1.597   1.810   0.886 -0.3582 -0.2032 -0.0300
 5398SOL    HW127656   1.689   1.806   0.861  0.1379  1.3542  1.4957
 5398SOL    HW227657   1.562   1.838   0.801 -2.2521 -1.6458  0.2697
 5399SOL     OW27658   1.557   4.366   6.459  0.5910 -0.0697 -0.3061
 5399SOL    HW127659   1.479   4.381   6.514  2.7913 -1.2507  3.1657
 5399SOL    HW227660   1.623   4.427   6.493  0.8689 -0.6325  0.1756
 5400SOL     OW27661   3.692   3.485  10.018  0.0673 -0.0282 -0.5071
 5400SOL    HW127662   3.666   3.577  10.015 -2.0132 -0.5670  0.5690
 5400SOL    HW227663   3.685   3.478  10.113 -1.5386 -1.2671 -0.6989
 5401SOL     OW27664   2.053   2.424   1.633 -0.4407 -0.1695  0.9634
 5401SOL    HW127665   1.959   2.425   1.650 -0.3788  3.7211  0.8672
 5401SOL    HW227666   2.059   2.449   1.540 -1.7192  0.1137  0.9606
 5402SOL     OW27667   2.897   2.326   6.739  0.1267  0.1393  0.2634
 5402SOL    HW127668   2.926   2.417   6.748 -0.7097  0.5212 -0.9558
 5402SOL    HW227669   2.808   2.338   6.707 -0.2445  1.3763  1.7687
 5403SOL     OW27670   3.687   2.696   3.481 -0.1083  0.2411  0.2427
 5403SOL    HW127671   3.693   2.610   3.523  0.0156  0.5699  0.9035
 5403SOL    HW227672   3.600   2.706   3.442 -0.8482  1.1092  2.0735
 5404SOL     OW27673   1.512   2.010   5.072 -0.4905  0.0766 -0.0201
 5404SOL    HW127674   1.584   2.071   5.089 -1.3630  0.9769  0.4327
 5404SOL    HW227675   1.436   2.052   5.112  1.2350  0.8669  2.4176
 5405SOL     OW27676   3.796   1.681  14.957 -0.4059  0.5183 -0.6972
 5405SOL    HW127677   3.747   1.615  14.908  1.2894 -1.0774 -0.2615
 5405SOL    HW227678   3.796   1.756  14.897  1.0064  0.5415 -0.6663
 5406SOL     OW27679   3.540   3.867   0.963 -0.1919  0.0808  0.0125
 5406SOL    HW127680   3.499   3.791   1.004  0.4177 -0.4530 -0.3571
 5406SOL    HW227681   3.573   3.900   1.047  0.0235  0.9452 -0.4103
 5407SOL     OW27682   3.267   2.571   2.112 -0.1016  0.5744  0.0709
 5407SOL    HW127683   3.193   2.592   2.055 -0.8010 -2.5893 -0.1840
 5407SOL    HW227684   3.316   2.648   2.084 -2.3124  1.0370 -2.5620
 5408SOL     OW27685   1.965   2.695   4.527  0.4127  0.1220  0.4717
 5408SOL    HW127686   1.908   2.707   4.451  1.0539  0.3623  0.0318
 5408SOL    HW227687   1.937   2.608   4.557  0.7202  0.0842  0.6427
 5409SOL     OW27688   1.207   4.327   9.638 -0.3484  0.3539 -0.0615
 5409SOL    HW127689   1.288   4.286   9.669  0.5836  0.6776 -2.0475
 5409SOL    HW227690   1.217   4.335   9.543  0.5814 -2.9661 -0.2422
 5410SOL     OW27691   4.213   1.120   4.251  0.0045  0.0619 -0.2886
 5410SOL    HW127692   4.178   1.207   4.232  0.2966 -0.0973 -1.5708
 5410SOL    HW227693   4.292   1.152   4.294 -0.6888  0.5213  0.6233
 5411SOL     OW27694   2.371   0.481   7.685 -0.6776 -0.8396 -0.0816
 5411SOL    HW127695   2.324   0.524   7.756 -0.0675  0.2091 -0.3187
 5411SOL    HW227696   2.331   0.396   7.703 -1.8205 -0.1074  0.8935
 5412SOL     OW27697   2.658   0.768   6.056  0.3453 -1.1102  0.0258
 5412SOL    HW127698   2.567   0.750   6.031 -0.3173  0.0230  1.6508
 5412SOL    HW227699   2.695   0.739   5.972  2.5082  1.1547  0.1872
 5413SOL     OW27700   4.483   3.254   1.113  0.3104 -0.2611 -0.4337
 5413SOL    HW127701   4.442   3.251   1.199 -1.6531  0.8812 -1.3327
 5413SOL    HW227702   4.548   3.323   1.120  0.6413 -0.8970  2.8908
 5414SOL     OW27703   0.962   3.869  11.630 -1.0527 -0.1597 -0.6678
 5414SOL    HW127704   0.992   3.952  11.594 -0.5352 -0.2670 -0.4944
 5414SOL    HW227705   1.024   3.812  11.584 -0.8348 -1.3542  1.0690
 5415SOL     OW27706   4.588   1.695  16.110  0.4385  0.1034 -0.0268
 5415SOL    HW127707   4.525   1.755  16.070  0.6009 -0.5129 -1.1807
 5415SOL    HW227708   4.541   1.634  16.167 -1.6619  1.6341 -0.1166
 5416SOL     OW27709   2.237   0.139   6.002  0.0739  0.3006 -0.2221
 5416SOL    HW127710   2.312   0.080   6.012 -0.7922 -0.3389  2.4821
 5416SOL    HW227711   2.182   0.092   6.065  0.2341 -0.2816 -0.5121
 5417SOL     OW27712   2.578   0.083   6.440 -0.4764 -0.1224 -0.1596
 5417SOL    HW127713   2.518   0.017   6.476  0.7368 -0.6794  0.8483
 5417SOL    HW227714   2.575   0.147   6.510 -0.5680  1.1945 -1.3683
 5418SOL     OW27715   1.463   4.434   0.703  0.1292  0.0133 -0.2352
 5418SOL    HW127716   1.459   4.526   0.731  1.4508 -0.2188  0.7182
 5418SOL    HW227717   1.398   4.392   0.759  1.4112 -0.6242  0.7818
 5419SOL     OW27718   3.893   2.430   5.725  1.0437 -0.5250  0.2455
 5419SOL    HW127719   3.900   2.505   5.783  0.4800 -1.4948  1.5814
 5419SOL    HW227720   3.867   2.357   5.782  1.3860 -0.9887 -0.1916
 5420SOL     OW27721   1.786   3.040   4.567  0.0212  0.2435 -0.1931
 5420SOL    HW127722   1.799   3.018   4.475  0.4145 -1.8715  0.3662
 5420SOL    HW227723   1.874   3.014   4.593 -0.4542 -1.5564 -0.4070
 5421SOL     OW27724   1.188   1.999  13.830 -1.0195 -0.2176  0.0955
 5421SOL    HW127725   1.107   2.048  13.846 -0.8761  0.6535 -1.7324
 5421SOL    HW227726   1.218   1.966  13.914 -0.3471 -0.3813 -0.2046
 5422SOL     OW27727   1.871   0.990   4.889 -0.2175  0.4770  0.1000
 5422SOL    HW127728   1.780   1.010   4.912 -0.8376 -0.8143 -1.2276
 5422SOL    HW227729   1.912   1.075   4.906  0.6907  0.1746 -0.5467
 5423SOL     OW27730   3.027   0.129   8.078  0.1793  0.4144 -0.0720
 5423SOL    HW127731   3.019   0.069   8.152 -0.0085 -0.3480 -0.7213
 5423SOL    HW227732   2.973   0.081   8.016  0.3510  2.2454 -1.6408
 5424SOL     OW27733   3.541   0.671  17.133 -0.2726 -0.5697 -0.4857
 5424SOL    HW127734   3.537   0.672  17.038 -1.5691  0.3434 -0.4158
 5424SOL    HW227735   3.618   0.726  17.145  0.4738 -1.8216  0.5444
 5425SOL     OW27736   4.306   3.057   6.922  0.4573 -0.1583  0.0726
 5425SOL    HW127737   4.282   3.079   6.832  0.7251  0.3955  0.1412
 5425SOL    HW227738   4.318   3.139   6.970  3.4726  0.4673 -1.7765
 5426SOL     OW27739   4.611   3.595   1.543  0.1342  0.4301  0.1442
 5426SOL    HW127740   4.692   3.552   1.568  0.7629 -0.4515 -3.3876
 5426SOL    HW227741   4.644   3.631   1.460 -2.0665  2.4709  0.1300
 5427SOL     OW27742   2.050   2.870   6.302 -0.4557  0.1740 -0.6452
 5427SOL    HW127743   1.996   2.949   6.304 -2.9390 -1.5980  2.4587
 5427SOL    HW227744   1.998   2.806   6.254 -2.8307  1.1871  0.5529
 5428SOL     OW27745   4.672   3.179   0.809  0.3957  0.3047  0.0394
 5428SOL    HW127746   0.049   3.174   0.823  0.5348  2.3886 -0.0593
 5428SOL    HW227747   4.663   3.274   0.806  1.1118  0.3221 -2.2179
 5429SOL     OW27748   1.374   4.346   3.317  0.0161  0.0651  0.3520
 5429SOL    HW127749   1.292   4.307   3.289  0.8407 -0.6005 -1.1743
 5429SOL    HW227750   1.411   4.385   3.237 -1.2162 -1.6211 -1.0482
 5430SOL     OW27751   1.575   0.759  14.388 -0.6168  0.1876  0.4391
 5430SOL    HW127752   1.554   0.785  14.299  0.1904  2.1106  0.8082
 5430SOL    HW227753   1.521   0.681  14.396 -0.3680 -0.2129 -1.9839
 5431SOL     OW27754   2.228   0.855   5.833  0.2002 -0.0712  0.2403
 5431SOL    HW127755   2.179   0.773   5.831 -3.2466  1.9752 -0.6275
 5431SOL    HW227756   2.311   0.832   5.792 -0.9107 -4.6507  0.6384
 5432SOL     OW27757   2.643   3.372   7.712 -0.5085 -0.2236 -0.0253
 5432SOL    HW127758   2.730   3.408   7.733 -0.6150 -0.3036  0.5668
 5432SOL    HW227759   2.641   3.375   7.617 -0.2406 -0.8481 -0.0517
 5433SOL     OW27760   3.065   1.946  15.493  0.3881  0.3883 -0.1764
 5433SOL    HW127761   3.102   1.859  15.509 -0.6815 -0.3402 -1.6591
 5433SOL    HW227762   3.138   2.006  15.480  0.4739 -0.0616 -1.7399
 5434SOL     OW27763   2.846   2.076   0.624  0.1381 -0.1133 -0.2917
 5434SOL    HW127764   2.809   2.112   0.543 -1.3669  1.5803  1.1484
 5434SOL    HW227765   2.901   2.150   0.650  0.0367  0.3518 -1.4097
 5435SOL     OW27766   1.638   3.537   5.438 -0.1272 -0.6049  0.1280
 5435SOL    HW127767   1.588   3.456   5.446  0.6467 -1.0055  0.9534
 5435SOL    HW227768   1.634   3.533   5.343 -1.1890 -0.5858  0.1784
 5436SOL     OW27769   0.916   3.675   1.748  0.0747  0.0696  0.2211
 5436SOL    HW127770   0.967   3.600   1.777  0.9416  1.2399  1.6936
 5436SOL    HW227771   0.862   3.644   1.675 -0.0130  1.4699 -0.3261
 5437SOL     OW27772   2.534   2.922   2.250 -0.6307 -0.4130 -0.2514
 5437SOL    HW127773   2.446   2.957   2.263 -0.6162 -0.4279 -0.1203
 5437SOL    HW227774   2.559   2.905   2.341  1.1574 -0.4048 -0.7452
 5438SOL     OW27775   3.767   4.475   5.600 -0.2272  0.1717 -0.3519
 5438SOL    HW127776   3.757   4.499   5.508  1.6504  1.8457 -0.1182
 5438SOL    HW227777   3.720   4.392   5.595  0.0236  0.2168 -3.0193
 5439SOL     OW27778   3.913   1.281   6.493 -0.1530  0.3237  0.5817
 5439SOL    HW127779   3.936   1.247   6.579  1.3095 -0.5743 -0.1581
 5439SOL    HW227780   3.973   1.231   6.437  0.5425  0.4806  1.1888
 5440SOL     OW27781   0.711   1.065   8.191 -0.5929  0.0776 -0.1655
 5440SOL    HW127782   0.744   1.021   8.112 -0.3486 -0.0719  0.0215
 5440SOL    HW227783   0.649   1.006   8.232 -0.6687  1.6435  1.9871
 5441SOL     OW27784   4.660   4.539   6.789 -0.2620  1.0348 -0.8498
 5441SOL    HW127785   4.671   4.603   6.719 -0.9670  1.4836 -0.5452
 5441SOL    HW227786   0.013   4.571   6.846  0.4283 -1.3379 -0.3597
 5442SOL     OW27787   3.405   4.103   5.233 -0.4159  0.2636 -0.3195
 5442SOL    HW127788   3.318   4.134   5.256 -0.9376 -1.7604  0.4419
 5442SOL    HW227789   3.389   4.094   5.140  2.6254 -1.2146 -0.7120
 5443SOL     OW27790   1.873   1.790  16.637 -0.7150  0.2419  0.0234
 5443SOL    HW127791   1.875   1.746  16.722 -2.5972 -0.5011 -0.3184
 5443SOL    HW227792   1.791   1.839  16.640  1.7917  4.5144 -0.7094
 5444SOL     OW27793   4.365   2.653   6.275  0.0202 -0.1026  0.1912
 5444SOL    HW127794   4.281   2.696   6.294  0.2567  0.7084 -0.6054
 5444SOL    HW227795   4.412   2.720   6.226  0.9713 -0.7157  0.2730
 5445SOL     OW27796   1.388   4.190  13.768  0.0647  0.0960  0.0139
 5445SOL    HW127797   1.332   4.256  13.727  1.7255  0.2971 -1.9520
 5445SOL    HW227798   1.356   4.203  13.857 -0.0482 -0.3515  0.0418
 5446SOL     OW27799   4.598   4.018   3.821  0.0266  0.3249  0.0433
 5446SOL    HW127800   4.640   3.933   3.806  1.6356  0.9985  0.6429
 5446SOL    HW227801   4.661   4.070   3.770  0.1981 -0.2889 -0.3773
 5447SOL     OW27802   2.317   4.201   6.923 -0.1505 -0.1273 -0.3633
 5447SOL    HW127803   2.302   4.142   6.850 -0.7439 -0.2140 -0.1723
 5447SOL    HW227804   2.235   4.250   6.924 -0.3167 -0.4241  0.4460
 5448SOL     OW27805   4.404   0.462   8.665  0.0459 -0.0254  0.4300
 5448SOL    HW127806   4.438   0.408   8.736 -0.5704  0.9562  1.4766
 5448SOL    HW227807   4.447   0.547   8.671  1.0760 -0.6248  1.6214
 5449SOL     OW27808   1.607   1.649   4.661 -0.5444 -0.2362 -0.4306
 5449SOL    HW127809   1.666   1.575   4.677 -0.9838 -0.5058 -0.0711
 5449SOL    HW227810   1.609   1.694   4.746 -2.0562 -1.0352  0.0180
 5450SOL     OW27811   0.651   4.067   8.130 -0.7961  0.2291  0.2871
 5450SOL    HW127812   0.683   4.085   8.042  1.0190  3.5100  1.6089
 5450SOL    HW227813   0.711   4.121   8.182 -1.6015 -0.8427  2.3499
 5451SOL     OW27814   2.464   0.589   3.395  0.3663 -0.2557 -1.0233
 5451SOL    HW127815   2.400   0.546   3.338 -1.2415  1.2361 -0.3584
 5451SOL    HW227816   2.500   0.652   3.334  0.7605 -1.1998 -1.7654
 5452SOL     OW27817   1.727   2.408  13.100 -0.3888  0.3462 -0.2802
 5452SOL    HW127818   1.811   2.428  13.141  0.0277  1.8172 -1.8441
 5452SOL    HW227819   1.691   2.487  13.141 -0.4685  0.6157 -0.8643
 5453SOL     OW27820   3.722   2.550   8.335 -0.1309 -0.1734  0.4065
 5453SOL    HW127821   3.696   2.641   8.349 -0.8617  0.0682 -2.6239
 5453SOL    HW227822   3.645   2.509   8.298  1.7754  0.2026 -3.9683
 5454SOL     OW27823   3.626   4.652   3.008 -0.4588  0.0078 -0.2558
 5454SOL    HW127824   3.589   4.666   2.921 -0.3130 -1.1862 -0.5145
 5454SOL    HW227825   3.621   4.557   3.023 -1.0586  0.0061 -0.4774
 5455SOL     OW27826   4.640   3.282   7.837  0.6434 -0.4571 -0.7453
 5455SOL    HW127827   4.684   3.224   7.775  3.0067 -0.0226  0.5401
 5455SOL    HW227828   4.706   3.350   7.849  0.7039 -1.0816  2.5054
 5456SOL     OW27829   3.708   3.316  16.826 -0.0383 -0.4306  0.1821
 5456SOL    HW127830   3.701   3.328  16.921 -2.0383  1.4354 -0.1882
 5456SOL    HW227831   3.753   3.232  16.822 -0.4225 -0.5521 -1.5706
 5457SOL     OW27832   3.181   2.107   8.497  0.4686 -0.2980  0.2257
 5457SOL    HW127833   3.173   2.196   8.531  0.4879  0.0076 -0.5668
 5457SOL    HW227834   3.260   2.075   8.541  0.5913  0.6213  0.6644
 5458SOL     OW27835   2.656   1.035   7.858  0.3536  0.4282 -0.0454
 5458SOL    HW127836   2.597   0.986   7.914  1.2816  0.4273  0.9381
 5458SOL    HW227837   2.660   0.986   7.776 -0.0555 -1.5399  1.1072
 5459SOL     OW27838   4.538   0.536   4.305  0.1978 -0.2702  0.2337
 5459SOL    HW127839   4.563   0.615   4.257 -2.0397  0.7177  0.6839
 5459SOL    HW227840   4.582   0.552   4.389  1.5428  0.2792 -0.5806
 5460SOL     OW27841   2.263   3.376  13.916  0.1963  0.0705  0.9133
 5460SOL    HW127842   2.324   3.445  13.942  0.6242  0.7045 -1.7921
 5460SOL    HW227843   2.284   3.313  13.986 -1.7841 -1.3964  0.1695
 5461SOL     OW27844   4.375   1.547  16.210 -0.1989  0.5745  0.2113
 5461SOL    HW127845   4.303   1.487  16.225  0.2182 -0.5087 -2.1477
 5461SOL    HW227846   4.372   1.611  16.281 -0.7918 -0.2069  0.8781
 5462SOL     OW27847   4.085   1.096   4.594  0.8814  0.2866  0.0932
 5462SOL    HW127848   4.018   1.055   4.649  1.5502 -0.0058  0.6945
 5462SOL    HW227849   4.052   1.186   4.600 -2.1903 -0.9495  2.0331
 5463SOL     OW27850   2.638   1.114  17.603  0.7788  0.2744 -0.7157
 5463SOL    HW127851   2.603   1.154   0.007  0.4118 -1.4518 -0.0213
 5463SOL    HW227852   2.634   1.025  17.636 -1.6188  0.9635  0.9014
 5464SOL     OW27853   0.380   1.919  16.617 -0.3368 -0.4228 -0.0675
 5464SOL    HW127854   0.449   1.970  16.574  1.0636 -1.9126  0.3911
 5464SOL    HW227855   0.423   1.895  16.699  0.6607  0.7026 -0.2587
 5465SOL     OW27856   2.715   2.829   5.787 -0.5686  0.2902  0.2057
 5465SOL    HW127857   2.798   2.877   5.790 -0.1637 -0.4065  0.2723
 5465SOL    HW227858   2.748   2.745   5.820 -0.0102  0.9552  1.3280
 5466SOL     OW27859   1.806   2.472  12.268  0.0630 -0.8934 -0.2612
 5466SOL    HW127860   1.737   2.534  12.291 -0.0444 -1.3849  0.7082
 5466SOL    HW227861   1.882   2.506  12.315 -0.6861 -1.9920  1.7396
 5467SOL     OW27862   0.550   2.414   7.319 -0.3935 -0.2623 -0.0162
 5467SOL    HW127863   0.469   2.404   7.269 -0.0022 -0.3985 -0.6249
 5467SOL    HW227864   0.587   2.326   7.310  2.4281  0.5775  2.9776
 5468SOL     OW27865   3.934   0.843   0.682 -0.6956 -0.4145 -0.2272
 5468SOL    HW127866   3.971   0.871   0.766 -1.3510  1.8663 -0.7179
 5468SOL    HW227867   3.972   0.896   0.611  2.3160 -0.0328  1.6625
 5469SOL     OW27868   1.112   3.219   8.135 -0.4926  0.5632 -0.5224
 5469SOL    HW127869   1.022   3.207   8.165 -0.2353 -2.0010 -0.8282
 5469SOL    HW227870   1.102   3.272   8.056 -2.4174 -0.4910 -0.9686
 5470SOL     OW27871   3.219   0.551  12.378 -0.0979  0.5573 -0.4238
 5470SOL    HW127872   3.221   0.465  12.418 -0.0520  2.1609  2.9815
 5470SOL    HW227873   3.279   0.599  12.435  1.1124 -1.8008  0.2795
 5471SOL     OW27874   0.807   0.547   1.547 -0.1725 -0.3424  0.3290
 5471SOL    HW127875   0.818   0.563   1.453 -1.9100 -0.9941  0.0040
 5471SOL    HW227876   0.894   0.512   1.568 -0.5086 -0.7381  1.0597
 5472SOL     OW27877   4.715   0.467  12.565 -0.2180  0.3467  0.0872
 5472SOL    HW127878   0.053   0.527  12.613  1.0815 -0.5523 -0.3145
 5472SOL    HW227879   4.662   0.539  12.530 -2.0165 -0.8709  0.2916
 5473SOL     OW27880   0.244   2.107   4.661  0.3698  0.2730 -0.1717
 5473SOL    HW127881   0.185   2.044   4.701  2.1872 -2.2526 -1.4431
 5473SOL    HW227882   0.293   2.065   4.591  0.9480 -0.9128  0.9383
 5474SOL     OW27883   1.324   1.343   6.875  0.3358 -0.0473  0.0950
 5474SOL    HW127884   1.250   1.404   6.872  0.3461 -0.1366 -1.9086
 5474SOL    HW227885   1.381   1.373   6.804  0.1518  0.7079  0.2701
 5475SOL     OW27886   4.595   3.395  14.989  0.1190 -0.2551 -0.4049
 5475SOL    HW127887   4.515   3.368  14.945 -0.3253  0.4022 -0.0104
 5475SOL    HW227888   4.569   3.471  15.042  1.3700 -0.0288 -0.1192
 5476SOL     OW27889   4.047   2.153   2.259 -0.1480 -0.1399 -0.0842
 5476SOL    HW127890   4.060   2.152   2.164 -1.9280  0.9974 -0.3336
 5476SOL    HW227891   4.119   2.095   2.281  1.7396  1.7091 -1.3796
 5477SOL     OW27892   3.840   1.178   2.342  0.0582 -0.5599 -0.4597
 5477SOL    HW127893   3.869   1.257   2.298  1.7726 -0.9089  0.0453
 5477SOL    HW227894   3.919   1.126   2.357 -0.1677 -0.1651  2.1572
 5478SOL     OW27895   0.051   3.917   0.892  0.0958 -0.0576 -0.3976
 5478SOL    HW127896   0.144   3.933   0.910 -0.6363  0.0107  3.4079
 5478SOL    HW227897   0.003   3.981   0.945 -0.1889 -0.8409  0.2925
 5479SOL     OW27898   2.270   2.837   2.695  0.6505 -0.8722 -0.1359
 5479SOL    HW127899   2.313   2.768   2.746  1.3968 -0.3899 -0.1100
 5479SOL    HW227900   2.246   2.801   2.610  1.1940 -1.2170 -0.1431
 5480SOL     OW27901   0.324   4.022  16.736  0.3098 -0.2585  0.0339
 5480SOL    HW127902   0.258   3.997  16.671 -0.2764 -0.9558  0.9070
 5480SOL    HW227903   0.353   3.934  16.759  2.8068  0.7485  0.7559
 5481SOL     OW27904   2.602   3.005   0.013 -0.2116 -0.0473 -0.0017
 5481SOL    HW127905   2.658   2.994  17.612  1.5156 -0.7592  1.3531
 5481SOL    HW227906   2.596   2.912   0.034 -1.8191  0.1823  0.5038
 5482SOL     OW27907   0.394   3.662   4.935  0.9443  0.4523  0.7614
 5482SOL    HW127908   0.299   3.670   4.931  0.8371  0.2345  2.6424
 5482SOL    HW227909   0.417   3.740   4.885 -1.9470  0.4271 -0.5975
 5483SOL     OW27910   3.582   3.113  15.403  0.2172  0.0279  0.2667
 5483SOL    HW127911   3.548   3.141  15.317 -1.2067  3.6874  1.9899
 5483SOL    HW227912   3.521   3.042  15.424  0.3263  0.8456  3.3547
 5484SOL     OW27913   3.010   4.162   2.777 -0.2643  0.4019  0.0920
 5484SOL    HW127914   2.930   4.210   2.800  0.1002  0.5032  1.1576
 5484SOL    HW227915   2.997   4.088   2.837 -1.1859  0.2155 -0.3356
 5485SOL     OW27916   2.133   1.623   7.422  0.2760  0.3592  0.0449
 5485SOL    HW127917   2.114   1.625   7.516  0.2596 -1.8429  0.0901
 5485SOL    HW227918   2.113   1.531   7.405  0.0723  0.4238 -0.0650
 5486SOL     OW27919   0.889   4.518  16.265  0.0599 -0.2008  0.3537
 5486SOL    HW127920   0.829   4.497  16.194  1.4363  2.3814 -1.5790
 5486SOL    HW227921   0.836   4.585  16.308 -1.4685 -0.4002 -1.2441
 5487SOL     OW27922   1.463   3.120   7.756 -0.1386  0.2007  0.2327
 5487SOL    HW127923   1.540   3.120   7.813 -1.0307  0.0007  1.4321
 5487SOL    HW227924   1.490   3.040   7.711  0.4141  2.5733 -3.6380
 5488SOL     OW27925   1.623   0.874  13.389 -0.0061 -0.0631  0.2211
 5488SOL    HW127926   1.670   0.950  13.354 -0.6166 -0.0789 -0.6469
 5488SOL    HW227927   1.663   0.798  13.345  1.7557  1.2287 -0.4052
 5489SOL     OW27928   0.078   1.440   1.345  0.2375 -0.2444 -0.1904
 5489SOL    HW127929   0.090   1.399   1.430 -1.6302  1.3876  0.8391
 5489SOL    HW227930   0.087   1.359   1.295  0.4325  0.0445 -0.6321
 5490SOL     OW27931   2.260   1.682  12.749  0.1816  0.0279 -0.7089
 5490SOL    HW127932   2.211   1.607  12.715  0.6435 -0.3808 -0.4600
 5490SOL    HW227933   2.344   1.680  12.704  0.8141  2.4274  0.3417
 5491SOL     OW27934   4.227   4.226   3.296  0.7162 -0.2131 -0.7444
 5491SOL    HW127935   4.278   4.285   3.241 -0.7718 -0.1235 -2.0238
 5491SOL    HW227936   4.139   4.261   3.308  1.2607  0.4906  1.2747
 5492SOL     OW27937   0.518   3.974  11.956  0.2143 -0.3648  0.2581
 5492SOL    HW127938   0.490   4.037  11.889  1.1157  0.2523  0.4632
 5492SOL    HW227939   0.460   3.904  11.925 -0.1788 -0.1800  0.5938
 5493SOL     OW27940   2.569   4.590   9.604 -0.0275 -0.3943 -0.2597
 5493SOL    HW127941   2.637   4.524   9.591 -0.3231 -0.5231 -1.1263
 5493SOL    HW227942   2.605   4.662   9.656  1.9332 -2.4203  1.1650
 5494SOL     OW27943   0.701   4.409  12.366  0.3036  0.2077  0.1347
 5494SOL    HW127944   0.703   4.316  12.345 -0.7588  0.2446 -0.1324
 5494SOL    HW227945   0.640   4.419  12.440 -0.6307 -0.8918 -0.4937
 5495SOL     OW27946   1.086   1.336   5.690 -0.5493  0.0561  0.2965
 5495SOL    HW127947   1.083   1.416   5.637  2.1230 -0.4989 -0.6643
 5495SOL    HW227948   0.997   1.317   5.718 -0.2095 -3.1013 -0.8223
 5496SOL     OW27949   1.120   2.755   8.962  0.0357 -0.3868 -0.1861
 5496SOL    HW127950   1.152   2.722   9.046  0.5522 -0.4892 -0.4277
 5496SOL    HW227951   1.201   2.757   8.911  1.7890 -1.0659  2.5916
 5497SOL     OW27952   1.443   1.552   9.437  0.6332  0.3362  0.7967
 5497SOL    HW127953   1.406   1.477   9.391  2.3224  0.1750 -0.2662
 5497SOL    HW227954   1.368   1.577   9.492  0.2184  0.7850  0.0321
 5498SOL     OW27955   1.775   4.231   4.807 -0.1498  0.0602 -0.0328
 5498SOL    HW127956   1.832   4.260   4.736 -0.9810  1.3901 -0.1726
 5498SOL    HW227957   1.716   4.178   4.753 -0.8535  0.2975  0.4925
 5499SOL     OW27958   1.208   3.386   4.730  0.2650  0.2288  0.1544
 5499SOL    HW127959   1.287   3.432   4.759 -0.1207  0.5133  0.7707
 5499SOL    HW227960   1.249   3.307   4.696 -1.4200 -0.1077 -1.0870
 5500SOL     OW27961   0.579   1.633   0.953  0.2834  0.1097 -0.1891
 5500SOL    HW127962   0.500   1.668   0.913 -0.6449 -1.6307  0.1501
 5500SOL    HW227963   0.524   1.599   1.024  1.7458  1.0582  1.4166
 5501SOL     OW27964   4.065   3.275  16.435 -0.6028 -0.1144  0.6640
 5501SOL    HW127965   4.090   3.342  16.371 -1.5243 -0.5140 -0.1227
 5501SOL    HW227966   4.062   3.326  16.516  0.3612 -0.6366  1.0324
 5502SOL     OW27967   4.477   3.685   5.745  0.2036  0.2143  0.3058
 5502SOL    HW127968   4.476   3.781   5.740 -0.2886  0.2655  1.2177
 5502SOL    HW227969   4.514   3.651   5.664 -0.3141 -1.5035  0.7867
 5503SOL     OW27970   2.236   4.203   5.115 -0.2527 -0.0587  0.1257
 5503SOL    HW127971   2.282   4.129   5.075  0.5957  0.1036  0.8013
 5503SOL    HW227972   2.228   4.265   5.042 -2.0886 -0.8741 -0.3542
 5504SOL     OW27973   2.341   1.968   7.569  0.5651 -0.2071  0.1046
 5504SOL    HW127974   2.416   1.983   7.626 -1.4976 -0.9107  3.0395
 5504SOL    HW227975   2.302   1.891   7.612 -0.0629  0.2055  0.2759
 5505SOL     OW27976   0.311   0.667  12.389 -0.0398  0.0972 -0.1182
 5505SOL    HW127977   0.239   0.692  12.448  0.3274  0.1851  0.2908
 5505SOL    HW227978   0.307   0.731  12.318  2.5161  1.3766  0.8995
 5506SOL     OW27979   2.114   0.684   5.237  0.1927 -0.3348  0.7977
 5506SOL    HW127980   2.036   0.720   5.281  0.2290 -1.3890  1.7285
 5506SOL    HW227981   2.077   0.598   5.214 -0.4379  0.3382 -0.6896
 5507SOL     OW27982   2.167   3.783  12.462  0.4885  0.5434  0.0552
 5507SOL    HW127983   2.072   3.787  12.448  0.3770  0.5362  0.8253
 5507SOL    HW227984   2.173   3.828  12.546  0.4111 -0.3898  0.5647
 5508SOL     OW27985   4.704   1.140   7.646 -0.5398 -0.2018  0.0482
 5508SOL    HW127986   0.033   1.200   7.704 -3.3121  0.5374  1.5635
 5508SOL    HW227987   4.682   1.061   7.696  1.4084 -1.2038 -0.6754
 5509SOL     OW27988   3.379   1.324  16.681  0.2544  0.0239  0.7188
 5509SOL    HW127989   3.302   1.341  16.627  0.2516 -0.0008  0.7152
 5509SOL    HW227990   3.443   1.312  16.611 -1.3178  0.8282 -0.8461
 5510SOL     OW27991   3.845   0.984   7.106  0.4626  0.1079  0.5811
 5510SOL    HW127992   3.871   0.954   7.193  0.5020 -0.8262  0.2456
 5510SOL    HW227993   3.847   1.080   7.116  0.7135  0.3116 -1.3670
 5511SOL     OW27994   2.662   1.730   3.169 -0.0844 -0.0943  0.4258
 5511SOL    HW127995   2.717   1.732   3.091 -1.6434 -0.3257 -0.6848
 5511SOL    HW227996   2.718   1.767   3.237  1.9045  0.2030 -1.3809
 5512SOL     OW27997   2.877   1.805   7.072 -0.4670  0.2241 -0.4269
 5512SOL    HW127998   2.852   1.864   7.001 -2.8421 -1.5511 -1.0728
 5512SOL    HW227999   2.972   1.818   7.082  0.4320 -4.3102 -3.1601
 5513SOL     OW28000   2.331   3.906   7.651 -0.0573 -0.2526  0.0208
 5513SOL    HW128001   2.359   3.933   7.564 -1.1706 -1.2513 -0.6449
 5513SOL    HW228002   2.348   3.812   7.649 -2.9927 -0.7455 -1.2316
 5514SOL     OW28003   2.255   0.489  12.422 -0.2135 -0.5122  0.0082
 5514SOL    HW128004   2.236   0.424  12.354  1.3410 -0.4601 -0.4652
 5514SOL    HW228005   2.295   0.564  12.377  0.8089 -1.0789 -0.0233
 5515SOL     OW28006   2.909   4.318  11.905  0.0562  0.0456  0.0326
 5515SOL    HW128007   2.961   4.312  11.985 -1.1970 -1.2084  0.7426
 5515SOL    HW228008   2.822   4.336  11.940 -0.0623  1.6193 -1.0401
 5516SOL     OW28009   2.863   0.267  10.206  0.3709 -0.0316 -0.8196
 5516SOL    HW128010   2.885   0.304  10.292 -0.5159 -2.6634  0.5172
 5516SOL    HW228011   2.869   0.346  10.152 -0.3028  0.1163 -0.6816
 5517SOL     OW28012   2.523   1.671  11.774  0.1730 -0.8948 -0.5253
 5517SOL    HW128013   2.604   1.644  11.731  0.3939  0.7373 -1.1252
 5517SOL    HW228014   2.541   1.638  11.862  2.0296 -2.6189 -1.5527
 5518SOL     OW28015   2.215   1.403   8.584  0.7701 -0.5057 -0.0877
 5518SOL    HW128016   2.295   1.452   8.570  1.1662 -0.4931  2.1743
 5518SOL    HW228017   2.216   1.350   8.505 -4.6039  1.6296 -1.6132
 5519SOL     OW28018   0.169   2.018   8.670 -0.3844 -0.6911  0.0199
 5519SOL    HW128019   0.207   1.993   8.586  0.0356  0.8332 -0.2456
 5519SOL    HW228020   0.225   1.964   8.727 -0.4909  0.7987  1.5280
 5520SOL     OW28021   1.651   4.380   4.480  0.3139 -0.0645 -0.1131
 5520SOL    HW128022   1.729   4.426   4.511 -0.0515 -0.4095  1.3247
 5520SOL    HW228023   1.684   4.322   4.412 -2.1964 -2.3735  0.6443
 5521SOL     OW28024   3.977   3.915   8.372 -0.0737 -0.6279 -0.1508
 5521SOL    HW128025   4.007   3.935   8.283  1.1299 -2.5013 -0.1606
 5521SOL    HW228026   3.992   3.821   8.372  3.8204 -0.0016  3.2699
 5522SOL     OW28027   0.571   2.116   6.345 -0.3221  1.0452  0.1379
 5522SOL    HW128028   0.584   2.090   6.254  0.6940  0.0104  0.5707
 5522SOL    HW228029   0.528   2.036   6.378  2.7235 -0.8250 -0.4189
 5523SOL     OW28030   2.470   3.718   0.121 -0.3429 -0.5153 -0.1774
 5523SOL    HW128031   2.535   3.661   0.161  0.2606  1.2777  1.3773
 5523SOL    HW228032   2.395   3.658   0.120 -2.6837  2.3746 -0.0357
 5524SOL     OW28033   0.698   4.391  13.167  0.3513  0.3931  0.2654
 5524SOL    HW128034   0.720   4.328  13.236  2.3105 -0.9589 -1.5874
 5524SOL    HW228035   0.778   4.441  13.153  1.7043 -1.2394  2.0699
 5525SOL     OW28036   0.455   3.589  13.689 -0.0463  0.0158 -0.1464
 5525SOL    HW128037   0.489   3.634  13.612 -0.1285 -0.4498 -0.4526
 5525SOL    HW228038   0.406   3.518  13.649  1.8522  0.1316 -2.6589
 5526SOL     OW28039   2.735   2.519   5.775 -0.2800  0.2977  0.6403
 5526SOL    HW128040   2.777   2.483   5.853 -2.5083  0.2042  1.7735
 5526SOL    HW228041   2.801   2.509   5.705  0.4922  1.0275  1.2613
 5527SOL     OW28042   3.525   3.955   2.585 -0.4658 -0.3154  0.0184
 5527SOL    HW128043   3.434   3.962   2.611 -0.3290 -1.5347  0.8408
 5527SOL    HW228044   3.532   4.048   2.564  0.1985 -0.4271 -0.2420
 5528SOL     OW28045   1.028   2.703   4.045  0.1573 -0.4521  0.3878
 5528SOL    HW128046   1.003   2.726   4.134  0.9016 -0.6238  0.6389
 5528SOL    HW228047   0.947   2.654   4.027 -1.1316  0.6716  3.1345
 5529SOL     OW28048   2.900   1.220   5.955  0.1111 -0.5027 -0.2878
 5529SOL    HW128049   2.867   1.221   5.866 -0.4417 -1.6434 -0.0927
 5529SOL    HW228050   2.976   1.163   5.939  1.1277  0.9696 -0.7061
 5530SOL     OW28051   1.903   2.910  12.603  0.2965 -0.4171  0.0948
 5530SOL    HW128052   1.834   2.974  12.625 -0.1351 -0.3420 -1.4885
 5530SOL    HW228053   1.972   2.974  12.585 -0.5242  0.8998  1.5152
 5531SOL     OW28054   2.473   1.167   2.945 -0.1286  0.2793 -0.3080
 5531SOL    HW128055   2.450   1.256   2.919  1.9131  1.0609  0.5369
 5531SOL    HW228056   2.545   1.154   2.883 -1.1029 -0.6402 -1.2410
 5532SOL     OW28057   3.779   1.265  15.912  0.0201 -0.3200 -0.1001
 5532SOL    HW128058   3.839   1.304  15.850  0.0868 -1.4898 -0.7754
 5532SOL    HW228059   3.759   1.181  15.871  0.0929 -0.8009  0.8438
 5533SOL     OW28060   3.869   3.221  17.305 -0.5056 -0.3608 -0.0820
 5533SOL    HW128061   3.946   3.203  17.252 -0.3177 -0.2988  0.1733
 5533SOL    HW228062   3.912   3.270  17.375  1.2814 -0.0334 -1.4050
 5534SOL     OW28063   1.008   2.521   2.247  0.5392 -0.1664 -0.4628
 5534SOL    HW128064   0.984   2.595   2.303 -1.4376 -0.3539 -1.0654
 5534SOL    HW228065   1.011   2.453   2.315 -0.1117 -0.6568 -0.9280
 5535SOL     OW28066   3.638   1.251   7.528 -0.5655 -1.1802  0.1551
 5535SOL    HW128067   3.559   1.298   7.504 -0.9015 -0.6410  2.3583
 5535SOL    HW228068   3.644   1.280   7.618  1.9561  1.6566 -0.9406
 5536SOL     OW28069   2.577   3.350  12.999  0.3959  0.3450 -0.6925
 5536SOL    HW128070   2.545   3.438  12.977  0.8354  0.8707  0.8081
 5536SOL    HW228071   2.667   3.372  13.024  0.7179 -2.5391  0.6781
 5537SOL     OW28072   4.447   1.708  13.689 -0.1478  0.1262  0.1344
 5537SOL    HW128073   4.382   1.638  13.678 -1.8768  1.7040  0.4452
 5537SOL    HW228074   4.457   1.741  13.599 -0.3997 -1.2627 -0.4030
 5538SOL     OW28075   3.828   0.057   0.357 -0.1656 -0.2524 -0.2292
 5538SOL    HW128076   3.737   0.085   0.362 -0.3293 -0.8332 -0.0446
 5538SOL    HW228077   3.823   4.711   0.427 -0.4562  2.0272  1.8280
 5539SOL     OW28078   4.182   2.188   2.530 -0.3650  0.1965  0.3984
 5539SOL    HW128079   4.251   2.123   2.520 -0.0333  1.1348 -3.3422
 5539SOL    HW228080   4.144   2.167   2.615  1.3847  1.1410  1.3912
 5540SOL     OW28081   3.436   3.012   9.094 -0.5354 -0.8147  0.6079
 5540SOL    HW128082   3.359   2.992   9.148  0.8464 -0.1485  2.8536
 5540SOL    HW228083   3.458   2.924   9.064 -2.0195 -1.7822  2.3490
 5541SOL     OW28084   3.548   3.156  10.291  0.4283  0.1422  0.6343
 5541SOL    HW128085   3.538   3.110  10.208  1.9337  0.5633  0.2142
 5541SOL    HW228086   3.639   3.145  10.318  0.7091 -2.1675 -1.3293
 5542SOL     OW28087   1.846   1.008   9.013 -0.0633 -0.1297  0.2265
 5542SOL    HW128088   1.892   1.074   9.064  0.4431 -1.4259  1.4423
 5542SOL    HW228089   1.782   0.975   9.076 -0.3099  0.6888  0.4086
 5543SOL     OW28090   4.335   4.410   9.477 -0.2949  0.5727  0.0940
 5543SOL    HW128091   4.268   4.478   9.484 -0.8853 -0.2274  1.8966
 5543SOL    HW228092   4.304   4.346   9.540 -0.0338  1.0087  0.6679
 5544SOL     OW28093   3.005   0.636   6.228  0.3399  0.5250 -0.3928
 5544SOL    HW128094   3.012   0.605   6.319  1.1790 -1.6051 -1.1747
 5544SOL    HW228095   2.955   0.717   6.237 -0.5024  0.0066 -0.4374
 5545SOL     OW28096   3.433   1.802   5.339  0.4559 -0.1954  0.6010
 5545SOL    HW128097   3.513   1.749   5.343  2.1603  2.1545 -2.3963
 5545SOL    HW228098   3.366   1.753   5.386  1.6038  0.1327  2.5674
 5546SOL     OW28099   0.291   3.747   2.068 -0.5577  0.1981 -0.0123
 5546SOL    HW128100   0.250   3.810   2.008 -0.2725 -2.3025 -2.7989
 5546SOL    HW228101   0.314   3.811   2.135  1.3071 -1.1634  0.6124
 5547SOL     OW28102   2.249   0.639   4.928 -0.0901 -0.1760 -1.3208
 5547SOL    HW128103   2.221   0.729   4.945 -3.2710 -1.0703 -1.9560
 5547SOL    HW228104   2.162   0.609   4.903 -0.7201 -0.9521  1.8382
 5548SOL     OW28105   4.424   0.057  11.319 -0.3128 -0.1052 -0.1498
 5548SOL    HW128106   4.455   0.029  11.405 -0.5889  0.9967  0.3093
 5548SOL    HW228107   4.332   0.060  11.344 -0.4163  0.4166 -0.5909
 5549SOL     OW28108   1.065   4.528   4.785 -0.2295  0.3171  0.1896
 5549SOL    HW128109   0.989   4.558   4.836 -0.3491 -2.1167  1.4507
 5549SOL    HW228110   1.024   4.456   4.738  1.3265 -2.1818  2.6674
 5550SOL     OW28111   3.312   0.793  10.646  0.2673  0.2435 -0.0016
 5550SOL    HW128112   3.324   0.859  10.578 -1.6061  0.0361 -0.5263
 5550SOL    HW228113   3.321   0.845  10.726 -1.5200  1.7699 -0.8214
 5551SOL     OW28114   0.167   0.462   7.858  0.0166  0.0805 -0.4020
 5551SOL    HW128115   0.108   0.393   7.886  0.7777 -0.3490  0.1473
 5551SOL    HW228116   0.177   0.436   7.766  1.2210 -1.4025  0.1566
 5552SOL     OW28117   2.140   3.985  10.865 -0.3381  0.1097 -0.4175
 5552SOL    HW128118   2.077   3.935  10.917 -0.1197 -0.1852 -0.4354
 5552SOL    HW228119   2.220   3.961  10.911  0.2088 -1.4495 -2.1794
 5553SOL     OW28120   3.329   0.688  17.288 -0.2108 -0.5381  0.0537
 5553SOL    HW128121   3.387   0.690  17.212  1.4436 -1.0016  1.3055
 5553SOL    HW228122   3.380   0.740  17.349  1.8819  1.6296 -3.5460
 5554SOL     OW28123   0.509   2.002   5.307  0.0352  0.0925 -0.6466
 5554SOL    HW128124   0.560   2.020   5.228 -0.2657  0.9267 -0.6507
 5554SOL    HW228125   0.532   1.914   5.334 -0.7392 -0.3156 -1.2999
 5555SOL     OW28126   4.700   1.192  14.313 -0.7083 -0.2060 -0.2116
 5555SOL    HW128127   4.642   1.218  14.385  0.7977  0.7125  0.6848
 5555SOL    HW228128   0.038   1.128  14.356  0.6330  0.5654 -0.8082
 5556SOL     OW28129   3.016   0.396   6.100  0.4922 -0.2262 -0.3490
 5556SOL    HW128130   2.995   0.474   6.151  0.3009  0.1277 -0.9708
 5556SOL    HW228131   2.960   0.408   6.024 -1.0839  1.8519  1.1297
 5557SOL     OW28132   1.528   2.720   7.723 -0.0376  0.0822  0.0321
 5557SOL    HW128133   1.488   2.728   7.809  1.4348  0.4306  0.6787
 5557SOL    HW228134   1.495   2.638   7.685 -0.9156  0.4295  0.0473
 5558SOL     OW28135   3.330   4.071  13.682  0.6670 -0.2616 -0.0594
 5558SOL    HW128136   3.297   4.031  13.601  0.4568 -2.4419  1.1028
 5558SOL    HW228137   3.422   4.048  13.675  0.2459 -2.4403  1.6652
 5559SOL     OW28138   3.494   0.579   4.565 -0.0502 -0.6303  0.1216
 5559SOL    HW128139   3.483   0.603   4.473  0.8183  1.4776  0.5544
 5559SOL    HW228140   3.513   0.486   4.558  1.2929 -0.2560 -1.1728
 5560SOL     OW28141   2.653   1.936   2.095 -0.0308  0.6768 -0.3249
 5560SOL    HW128142   2.577   1.906   2.044  1.7705 -1.0861 -1.9843
 5560SOL    HW228143   2.634   2.028   2.110  0.7730  0.9769 -1.1845
 5561SOL     OW28144   2.292   0.156  11.758 -0.2908  1.0364 -0.4622
 5561SOL    HW128145   2.303   0.191  11.846 -0.7727 -1.4609  0.5821
 5561SOL    HW228146   2.202   0.126  11.771 -0.3354 -0.0621 -3.2322
 5562SOL     OW28147   4.552   2.017  10.612 -0.1286  0.0183 -0.0828
 5562SOL    HW128148   4.560   2.052  10.700  1.1360  2.6457 -1.2475
 5562SOL    HW228149   4.633   2.047  10.572 -0.3720 -1.3990 -1.6372
 5563SOL     OW28150   3.728   3.227   6.114 -0.3521 -0.1112 -0.3160
 5563SOL    HW128151   3.800   3.190   6.166 -0.9604  0.9286  1.2360
 5563SOL    HW228152   3.774   3.237   6.030 -1.7208  0.2834 -1.0275
 5564SOL     OW28153   4.658   4.673   0.909  0.4361 -0.6289  0.1248
 5564SOL    HW128154   4.712   0.023   0.948  1.0930  0.3344 -2.5046
 5564SOL    HW228155   0.010   4.616   0.877  1.1326  1.2775 -1.7035
 5565SOL     OW28156   0.547   2.087   5.766  0.3288 -0.6204  0.5900
 5565SOL    HW128157   0.478   2.045   5.818  0.2308 -0.2554  0.7490
 5565SOL    HW228158   0.503   2.168   5.743 -0.5348 -1.7908 -1.8317
 5566SOL     OW28159   3.207   0.110  16.242 -0.9724  0.1765  0.4645
 5566SOL    HW128160   3.294   0.150  16.241 -2.1476  2.6698 -1.2126
 5566SOL    HW228161   3.203   0.087  16.335 -0.7633 -3.6252 -0.4595
 5567SOL     OW28162   0.720   2.394   3.658  0.0185 -0.3374  0.5515
 5567SOL    HW128163   0.684   2.474   3.621 -0.2559 -0.2804  0.9467
 5567SOL    HW228164   0.784   2.428   3.721  2.1462 -0.2120 -1.6792
 5568SOL     OW28165   2.035   0.299   5.444 -0.1697  0.7316 -0.5304
 5568SOL    HW128166   2.097   0.342   5.386  2.5891 -0.1703  1.7668
 5568SOL    HW228167   2.033   0.209   5.414  1.0787  0.1321  1.1840
 5569SOL     OW28168   3.371   3.352   2.442 -0.5831  0.4856  0.5476
 5569SOL    HW128169   3.436   3.285   2.465 -1.4445 -0.6192 -0.2536
 5569SOL    HW228170   3.423   3.425   2.478 -0.2129 -0.0224  1.0525
 5570SOL     OW28171   0.200   0.929   3.401  0.0952  0.1521  0.0033
 5570SOL    HW128172   0.186   0.937   3.495  2.2418 -0.6228  0.3980
 5570SOL    HW228173   0.172   1.012   3.362 -0.4873  0.2515  0.6342
 5571SOL     OW28174   1.446   2.204   1.284  0.1152 -0.5499  1.0216
 5571SOL    HW128175   1.400   2.199   1.200  0.7361 -1.8514  0.7662
 5571SOL    HW228176   1.528   2.158   1.266 -1.0593 -2.0361 -0.5267
 5572SOL     OW28177   3.315   2.715   2.689 -0.0137  0.6800  0.9818
 5572SOL    HW128178   3.394   2.746   2.646  0.2473  0.1324  1.0730
 5572SOL    HW228179   3.295   2.797   2.735  1.3983  2.3131 -1.3220
 5573SOL     OW28180   4.528   1.619   8.028 -0.6127  0.2300  0.0831
 5573SOL    HW128181   4.454   1.559   8.025 -0.7302  0.3993 -0.3421
 5573SOL    HW228182   4.496   1.674   8.100  0.3855 -0.3081  0.9532
 5574SOL     OW28183   4.707   3.563   3.119  0.0126  0.5102  0.0520
 5574SOL    HW128184   0.024   3.651   3.111 -2.2728  1.4087 -0.0752
 5574SOL    HW228185   4.637   3.570   3.054 -1.1492  0.6061  1.3313
 5575SOL     OW28186   1.626   1.709   7.284 -0.6809  0.0956 -0.4087
 5575SOL    HW128187   1.654   1.715   7.193  3.9753  0.7554  1.0296
 5575SOL    HW228188   1.713   1.694   7.321 -1.8141 -1.7050  1.5013
 5576SOL     OW28189   2.923   2.661   7.740  0.3255  0.7228 -0.2483
 5576SOL    HW128190   2.898   2.709   7.819 -0.6174 -1.2840  0.6615
 5576SOL    HW228191   2.870   2.581   7.750  2.1836 -0.7842 -2.5135
 5577SOL     OW28192   1.174   2.177  16.765  0.0330 -0.2166 -0.0418
 5577SOL    HW128193   1.198   2.098  16.812 -1.3214 -1.2482 -1.1025
 5577SOL    HW228194   1.099   2.199  16.821 -0.7504 -3.4212  0.1653
 5578SOL     OW28195   3.797   3.139   1.551 -0.0618  0.4459 -0.6210
 5578SOL    HW128196   3.876   3.192   1.550  0.9354 -1.0722 -2.6395
 5578SOL    HW228197   3.744   3.168   1.477  0.2899 -0.8685 -1.3945
 5579SOL     OW28198   2.641   3.245  11.744  0.6581  0.3327 -0.1783
 5579SOL    HW128199   2.658   3.213  11.655  1.7711  0.2386  0.0622
 5579SOL    HW228200   2.730   3.274  11.764  1.7533 -2.7397 -0.5734
 5580SOL     OW28201   2.695   3.356   8.170 -0.5031 -0.3692  0.1345
 5580SOL    HW128202   2.692   3.273   8.218  0.9662 -1.5431 -1.7999
 5580SOL    HW228203   2.654   3.335   8.086 -0.3759 -2.0424  0.4804
 5581SOL     OW28204   1.277   2.555   4.124  0.0694 -0.2508 -0.1621
 5581SOL    HW128205   1.235   2.638   4.103 -1.8218 -1.2042 -0.1533
 5581SOL    HW228206   1.229   2.523   4.201 -0.4113 -2.3060 -1.3165
 5582SOL     OW28207   4.123   4.252   7.756  0.0408 -0.3152 -0.7830
 5582SOL    HW128208   4.168   4.248   7.840  1.7565  0.7649 -1.6499
 5582SOL    HW228209   4.042   4.299   7.777  0.4525 -0.4412  1.0205
 5583SOL     OW28210   0.908   2.573   3.763 -0.5049 -0.2663  0.0618
 5583SOL    HW128211   0.915   2.649   3.705  0.2958 -0.7675 -0.5135
 5583SOL    HW228212   0.880   2.621   3.840  2.7178 -0.0992  1.1364
 5584SOL     OW28213   2.396   0.694   2.582  0.0921 -0.2165  0.4553
 5584SOL    HW128214   2.473   0.642   2.558 -0.2118  1.1028 -3.3732
 5584SOL    HW228215   2.392   0.690   2.677 -0.3340  0.3239  0.4582
 5585SOL     OW28216   4.576   4.196   4.770  0.1803 -0.0730 -0.2542
 5585SOL    HW128217   4.555   4.289   4.782 -1.0567 -0.1922 -1.4803
 5585SOL    HW228218   4.611   4.173   4.856 -2.3123  0.9472  1.0324
 5586SOL     OW28219   2.627   3.347   5.373 -0.7788 -0.3449  0.3395
 5586SOL    HW128220   2.682   3.425   5.383 -2.2388  0.6032  1.0978
 5586SOL    HW228221   2.696   3.284   5.354  1.1695  1.5505  1.1685
 5587SOL     OW28222   2.767   4.609   9.103  0.2309 -0.9054 -0.9177
 5587SOL    HW128223   2.693   4.558   9.136 -0.3932 -0.4503 -1.6017
 5587SOL    HW228224   2.820   4.625   9.181 -0.2640  1.9865 -1.1536
 5588SOL     OW28225   2.158   3.604  16.133  1.0116  0.9587  0.1783
 5588SOL    HW128226   2.201   3.622  16.049  0.4634 -0.9748 -0.5016
 5588SOL    HW228227   2.143   3.695  16.160 -1.0328  0.4466  0.7178
 5589SOL     OW28228   3.686   3.321  15.518 -0.1331 -0.3179 -0.4700
 5589SOL    HW128229   3.770   3.328  15.472  1.0849  3.9536  2.3676
 5589SOL    HW228230   3.638   3.252  15.472  1.7608 -2.5547  0.8989
 5590SOL     OW28231   3.070   3.820  14.942 -0.6098  0.3221  0.8194
 5590SOL    HW128232   3.154   3.773  14.946 -1.6359 -1.6155 -0.7578
 5590SOL    HW228233   3.104   3.910  14.941  0.6341 -0.1445  0.1125
 5591SOL     OW28234   3.465   4.350   1.819 -0.0064  0.5401 -0.6605
 5591SOL    HW128235   3.491   4.441   1.809  0.3160  0.2718 -2.2509
 5591SOL    HW228236   3.545   4.300   1.839  0.3464  0.5169 -2.1262
 5592SOL     OW28237   4.627   1.700   7.167  0.5842 -0.2773  0.5202
 5592SOL    HW128238   4.675   1.738   7.240  1.1748 -2.4811  1.2939
 5592SOL    HW228239   4.598   1.777   7.118  1.5177 -0.4028 -0.2251
 5593SOL     OW28240   0.143   1.496   4.043  0.0800  0.1139 -0.0452
 5593SOL    HW128241   0.184   1.421   4.086 -0.7862 -0.8717 -0.9445
 5593SOL    HW228242   0.079   1.518   4.111 -0.9140  1.4355 -1.3903
 5594SOL     OW28243   3.505   3.300   9.160  0.4170 -0.2233 -0.3675
 5594SOL    HW128244   3.524   3.309   9.254 -2.1797  1.8408 -0.0596
 5594SOL    HW228245   3.495   3.206   9.146 -2.7018  0.1036 -0.1639
 5595SOL     OW28246   3.678   3.881   8.054 -0.4839 -0.1070 -0.2386
 5595SOL    HW128247   3.711   3.959   8.098  1.8141 -0.7644 -0.8304
 5595SOL    HW228248   3.745   3.814   8.069 -1.0263 -0.5897  0.0234
 5596SOL     OW28249   3.132   3.634  14.282 -0.1244 -0.1121 -0.5743
 5596SOL    HW128250   3.221   3.604  14.263  0.0266  0.4911 -0.8395
 5596SOL    HW228251   3.071   3.601  14.217  1.1975  0.4994 -2.1274
 5597SOL     OW28252   2.480   1.845   9.128  0.2177  0.3165  0.1017
 5597SOL    HW128253   2.410   1.910   9.123  0.9477  1.1172  0.2760
 5597SOL    HW228254   2.437   1.787   9.190  1.7196 -0.1880  0.6780
 5598SOL     OW28255   0.403   3.063   2.097  0.2000 -0.3256 -0.0808
 5598SOL    HW128256   0.332   3.009   2.060 -0.5278  1.0586 -0.6994
 5598SOL    HW228257   0.461   2.989   2.113 -1.0814 -0.8113  2.2932
 5599SOL     OW28258   3.785   4.336   8.788  0.0082 -0.1254 -0.0294
 5599SOL    HW128259   3.879   4.319   8.783 -0.0270 -0.2748 -0.1996
 5599SOL    HW228260   3.759   4.317   8.878  0.3645  2.9931  0.7302
 5600SOL     OW28261   0.361   3.764   8.770 -0.7118  0.4106  0.4013
 5600SOL    HW128262   0.325   3.824   8.704 -1.3356  0.6019  0.9175
 5600SOL    HW228263   0.336   3.674   8.749  2.0339 -0.3883  0.5337
 5601SOL     OW28264   4.064   3.907  13.759 -0.1504  0.6292 -0.1083
 5601SOL    HW128265   4.125   3.931  13.828  0.7527  0.8167 -0.9643
 5601SOL    HW228266   4.105   3.971  13.701 -1.3627 -0.5545 -2.2892
 5602SOL     OW28267   4.406   3.600  15.501 -0.2902 -0.7949 -0.2947
 5602SOL    HW128268   4.314   3.597  15.477 -0.8981 -4.2551  2.5519
 5602SOL    HW228269   4.413   3.688  15.539 -0.1098 -1.8723  2.1814
 5603SOL     OW28270   4.545   0.230   3.448 -0.3418  0.0050  0.1616
 5603SOL    HW128271   4.511   0.141   3.436  0.9538 -0.3909 -0.5497
 5603SOL    HW228272   4.538   0.232   3.544  2.0538 -2.8760  0.4077
 5604SOL     OW28273   4.588   2.649   7.412  0.0191 -0.4183 -0.2575
 5604SOL    HW128274   4.585   2.558   7.441  0.0978 -0.9738 -1.9870
 5604SOL    HW228275   4.643   2.683   7.483 -0.2379 -1.6916  0.5556
 5605SOL     OW28276   3.631   4.504   9.040  0.2617  0.1196  0.3153
 5605SOL    HW128277   3.647   4.599   9.047  0.0458  0.2993 -1.6772
 5605SOL    HW228278   3.538   4.491   9.027  0.2571 -0.0757  0.5585
 5606SOL     OW28279   3.582   1.595  16.085  0.1561  0.7151  0.2399
 5606SOL    HW128280   3.519   1.525  16.067  2.9284 -1.2273 -1.9802
 5606SOL    HW228281   3.526   1.669  16.062 -1.6230 -0.1513  1.7824
 5607SOL     OW28282   1.095   3.883   1.723  0.7190  0.6154 -0.2780
 5607SOL    HW128283   1.025   3.819   1.710 -1.3643  1.7079  5.5910
 5607SOL    HW228284   1.083   3.934   1.643  0.0424  0.8981  0.0091
 5608SOL     OW28285   4.588   2.434  12.883 -0.7820  0.6030  0.4122
 5608SOL    HW128286   4.533   2.391  12.949  1.5353 -2.5815  0.2634
 5608SOL    HW228287   4.527   2.457  12.814 -0.4938 -0.3092 -0.1452
 5609SOL     OW28288   3.357   3.309  10.044 -0.8893 -0.0814 -0.5689
 5609SOL    HW128289   3.272   3.272  10.021 -0.3923 -2.1883  0.9999
 5609SOL    HW228290   3.334   3.350  10.128 -1.9339  2.5155 -2.1210
 5610SOL     OW28291   1.324   2.387   5.460 -0.3202  0.6348  0.1158
 5610SOL    HW128292   1.365   2.338   5.531  1.0922  0.1923 -0.9972
 5610SOL    HW228293   1.389   2.395   5.390 -1.0832  2.2378 -0.3990
 5611SOL     OW28294   0.799   0.681  10.942 -0.2660  0.4930 -0.4096
 5611SOL    HW128295   0.717   0.645  10.908 -1.3954  2.8711 -0.2269
 5611SOL    HW228296   0.781   0.695  11.035 -0.0526  0.1053 -0.3109
 5612SOL     OW28297   1.520   4.694  10.056 -0.0548 -0.0337 -0.0401
 5612SOL    HW128298   1.611   0.004  10.044 -0.4900  0.9471 -1.0768
 5612SOL    HW228299   1.490   4.685   9.965 -2.6479 -1.7678  1.0084
 5613SOL     OW28300   0.071   1.000   0.865 -0.3262 -0.3717 -0.2188
 5613SOL    HW128301   0.037   0.969   0.949 -2.1221 -0.0745 -0.8358
 5613SOL    HW228302   0.030   1.087   0.870  0.2341 -0.1379  0.3177
 5614SOL     OW28303   0.338   1.179   0.362 -0.0464 -0.1727  0.3777
 5614SOL    HW128304   0.370   1.097   0.401 -0.2389  0.1199  1.1549
 5614SOL    HW228305   0.361   1.171   0.270 -2.9110  2.3147 -0.5381
 5615SOL     OW28306   1.310   1.909   7.565 -0.2832 -0.4620 -0.7160
 5615SOL    HW128307   1.240   1.966   7.532  0.9303  2.1756  1.1987
 5615SOL    HW228308   1.265   1.826   7.580  1.5921 -0.9225  2.3008
 5616SOL     OW28309   2.839   3.784   5.117  0.6180  0.1250  0.1570
 5616SOL    HW128310   2.927   3.809   5.144  0.1531  1.0907  0.7817
 5616SOL    HW228311   2.852   3.760   5.025 -0.5100 -1.6969  0.4842
 5617SOL     OW28312   3.838   4.448   6.107 -0.7442 -0.0974  0.0016
 5617SOL    HW128313   3.757   4.495   6.089 -0.5620  0.9871  2.0456
 5617SOL    HW228314   3.810   4.391   6.178  1.4411 -0.9985  0.1597
 5618SOL     OW28315   3.887   2.376  11.210 -0.1031 -0.1032  0.2706
 5618SOL    HW128316   3.837   2.424  11.143 -0.3984 -0.7995 -0.0070
 5618SOL    HW228317   3.944   2.320  11.157  1.3954  0.1918  1.5899
 5619SOL     OW28318   0.610   3.774   7.493  0.0893 -0.2120 -0.6520
 5619SOL    HW128319   0.701   3.754   7.516 -0.1212 -1.2546 -0.6948
 5619SOL    HW228320   0.628   3.842   7.429 -0.2372 -0.0666 -0.5874
 5620SOL     OW28321   2.521   0.038   8.398  0.1698  0.5656 -0.2319
 5620SOL    HW128322   2.573   0.042   8.479  1.2779  1.5598 -1.0045
 5620SOL    HW228323   2.532   4.661   8.397 -0.2536  0.4727  2.2102
 5621SOL     OW28324   0.360   3.515   1.732 -0.5537  0.2039  0.2875
 5621SOL    HW128325   0.305   3.488   1.659  1.3797  1.9312 -1.8208
 5621SOL    HW228326   0.354   3.437   1.787  1.7688 -0.6836 -0.7398
 5622SOL     OW28327   0.927   2.642  17.606 -0.7555 -0.0901 -0.5575
 5622SOL    HW128328   0.962   2.596   0.006 -0.2444 -0.1612 -0.8317
 5622SOL    HW228329   0.925   2.562  17.554  1.0688 -0.4354 -0.1199
 5623SOL     OW28330   4.526   3.364   8.274 -0.0392  0.8660 -0.1405
 5623SOL    HW128331   4.615   3.346   8.245  0.2970  1.4443  0.5169
 5623SOL    HW228332   4.473   3.291   8.243  1.8884  0.4020 -2.3852
 5624SOL     OW28333   4.211   1.641   5.673 -0.2393  0.0421 -0.4708
 5624SOL    HW128334   4.170   1.555   5.676 -0.4066  0.1761  0.9725
 5624SOL    HW228335   4.239   1.654   5.764 -1.3890 -0.1485 -0.0952
 5625SOL     OW28336   1.270   0.335  13.428  0.2175  0.1342  0.0532
 5625SOL    HW128337   1.185   0.296  13.406  0.9536 -0.4105 -1.8928
 5625SOL    HW228338   1.317   0.355  13.347  1.2731 -0.7599  0.4515
 5626SOL     OW28339   3.049   0.613   2.464  0.0529 -0.3099  0.4607
 5626SOL    HW128340   2.956   0.590   2.472  0.3773 -2.1004 -0.8882
 5626SOL    HW228341   3.082   0.525   2.478 -1.1617 -0.7537  0.5930
 5627SOL     OW28342   1.109   0.034   5.428  0.5400 -0.0806 -0.1082
 5627SOL    HW128343   1.114   4.666   5.469 -3.2627  0.2421  1.0577
 5627SOL    HW228344   1.014   0.046   5.437  0.3593 -0.2541 -1.7497
 5628SOL     OW28345   0.785   2.908   4.178  0.1498 -0.6303 -0.0162
 5628SOL    HW128346   0.783   3.000   4.152  0.9723 -0.7164 -0.3810
 5628SOL    HW228347   0.798   2.866   4.093 -2.8307 -0.4131 -0.6002
 5629SOL     OW28348   0.276   1.663   5.895  0.1607 -0.1144 -0.7869
 5629SOL    HW128349   0.228   1.627   5.821  2.4975  0.3496 -2.5118
 5629SOL    HW228350   0.284   1.584   5.948 -0.9148  0.7019  0.6180
 5630SOL     OW28351   3.128   1.788   4.907  0.2228 -0.3221  0.0434
 5630SOL    HW128352   3.190   1.793   4.980  1.4949  0.0842 -1.0610
 5630SOL    HW228353   3.075   1.714   4.937  2.9844 -2.8471 -1.3002
 5631SOL     OW28354   1.867   3.787   8.184  0.1708  0.2063 -0.7486
 5631SOL    HW128355   1.896   3.773   8.274  0.5484  0.6165 -0.8059
 5631SOL    HW228356   1.842   3.698   8.160  2.2817 -0.6022  0.0676
 5632SOL     OW28357   0.345   4.061   4.266 -0.2982  0.1405 -1.0781
 5632SOL    HW128358   0.265   4.018   4.238 -0.0061 -1.6518  0.8689
 5632SOL    HW228359   0.398   3.995   4.310 -3.7018 -2.3305 -0.7169
 5633SOL     OW28360   3.739   1.700   6.968 -0.3816 -0.3555  0.9173
 5633SOL    HW128361   3.766   1.614   7.001 -0.4538 -0.9195 -0.5224
 5633SOL    HW228362   3.718   1.747   7.049 -0.3694 -0.8184  1.1836
 5634SOL     OW28363   3.135   0.689   7.643 -0.6173  0.2094 -0.5017
 5634SOL    HW128364   3.065   0.631   7.671  1.5703 -3.2283 -2.2118
 5634SOL    HW228365   3.148   0.671   7.550  0.6399  1.1555 -0.5223
 5635SOL     OW28366   1.070   3.812   9.695  0.0577  0.3048  0.0172
 5635SOL    HW128367   1.124   3.797   9.773 -2.2044 -1.5852  1.2043
 5635SOL    HW228368   0.985   3.779   9.726 -0.1235 -0.3811 -1.2307
 5636SOL     OW28369   4.467   3.967  17.357 -0.0348  0.0770  0.0850
 5636SOL    HW128370   4.517   3.952  17.437 -0.0969  0.7069  0.2464
 5636SOL    HW228371   4.534   4.002  17.298  1.3493 -1.1142  0.9659
 5637SOL     OW28372   1.354   4.100   9.351 -0.3274 -0.5380  0.6514
 5637SOL    HW128373   1.350   4.149   9.269 -2.5554 -0.4519  0.8048
 5637SOL    HW228374   1.277   4.044   9.354 -1.0426  0.2993 -1.7118
 5638SOL     OW28375   1.191   3.518   1.838 -0.7020  0.2659  0.2805
 5638SOL    HW128376   1.235   3.433   1.829 -2.6208 -0.8553  1.4578
 5638SOL    HW228377   1.249   3.543   1.766 -0.5612  1.1193  0.7015
 5639SOL     OW28378   0.287   2.172  15.447  0.2852 -0.2991  0.0129
 5639SOL    HW128379   0.202   2.126  15.445  0.4171 -0.5097 -0.6697
 5639SOL    HW228380   0.284   2.216  15.363 -0.8861  0.1909  0.3110
 5640SOL     OW28381   0.450   4.693   2.344  0.2636 -0.6783 -0.2583
 5640SOL    HW128382   0.498   4.706   2.426  1.0013 -0.6836 -0.6857
 5640SOL    HW228383   0.514   4.691   2.272  1.2043 -1.8673  0.6256
 5641SOL     OW28384   4.275   1.272   9.139 -0.0992 -0.4984 -0.2110
 5641SOL    HW128385   4.223   1.345   9.173 -1.7025 -1.7230  0.0092
 5641SOL    HW228386   4.352   1.318   9.105  2.2830 -1.8372  3.3901
 5642SOL     OW28387   0.957   3.395   7.016  0.0990 -0.1653 -0.1178
 5642SOL    HW128388   1.016   3.333   6.975 -0.1719 -1.6288  1.7030
 5642SOL    HW228389   0.904   3.335   7.069  1.1585 -1.1018 -0.1319
 5643SOL     OW28390   3.810   4.289   4.570  0.3256 -0.1412 -0.4402
 5643SOL    HW128391   3.725   4.332   4.579 -0.1084 -1.0681 -0.1400
 5643SOL    HW228392   3.769   4.204   4.557  2.8456 -1.5457  0.9975
 5644SOL     OW28393   1.868   4.301  15.978 -0.4121  0.5034 -0.3553
 5644SOL    HW128394   1.792   4.353  15.952 -1.5770 -0.7301  0.5804
 5644SOL    HW228395   1.903   4.287  15.890 -0.1739  0.1862 -0.2106
 5645SOL     OW28396   3.115   2.454   3.834 -0.5066  0.0411 -0.3009
 5645SOL    HW128397   3.081   2.401   3.762  0.5717  1.5124 -1.8934
 5645SOL    HW228398   3.179   2.516   3.798  0.7656 -0.7059  0.6572
 5646SOL     OW28399   4.219   2.252  15.025 -0.1411 -0.9756 -0.3014
 5646SOL    HW128400   4.295   2.203  15.056  0.8640  0.1015 -1.0243
 5646SOL    HW228401   4.217   2.322  15.090 -1.2872  0.7256 -2.1570
 5647SOL     OW28402   0.157   4.415   7.830  0.1258  0.2966 -0.0729
 5647SOL    HW128403   0.157   4.464   7.912  0.3210 -1.4936  0.9978
 5647SOL    HW228404   0.232   4.458   7.789  0.7806 -1.1336 -0.3712
 5648SOL     OW28405   4.615   3.552  12.660 -0.5901 -0.0870  0.2539
 5648SOL    HW128406   4.691   3.494  12.652 -0.4585  0.4614 -2.4519
 5648SOL    HW228407   4.575   3.523  12.742 -0.9855  3.1413  1.1879
 5649SOL     OW28408   4.494   0.000   2.171 -0.9787 -0.2049 -0.0951
 5649SOL    HW128409   4.424   0.053   2.132  0.8866  0.9762 -1.8634
 5649SOL    HW228410   4.477   4.627   2.150  0.5545 -0.6549  0.6756
 5650SOL     OW28411   2.898   2.741   8.726  0.1114  0.6651  0.8868
 5650SOL    HW128412   2.828   2.785   8.677  1.0511  0.6624 -0.4740
 5650SOL    HW228413   2.905   2.789   8.808 -1.7780  3.7259 -0.7154
 5651SOL     OW28414   3.208   1.489   1.412 -0.3735  0.5068 -0.1980
 5651SOL    HW128415   3.114   1.481   1.393 -0.5782  4.5328 -0.7562
 5651SOL    HW228416   3.217   1.411   1.467  2.7214 -1.1246 -3.0309
 5652SOL     OW28417   3.430   3.232   6.107 -0.0563 -0.3735  0.1637
 5652SOL    HW128418   3.511   3.204   6.148 -1.0392 -2.2372  0.8492
 5652SOL    HW228419   3.379   3.213   6.185  0.8417  1.7190  1.2457
 5653SOL     OW28420   1.654   0.689   9.293  0.3106  0.0333  0.5903
 5653SOL    HW128421   1.635   0.681   9.386 -1.8863 -1.2373  0.0244
 5653SOL    HW228422   1.747   0.667   9.294  0.2332 -0.3823 -0.6608
 5654SOL     OW28423   1.872   0.231  16.775 -0.1050 -0.0072 -0.1567
 5654SOL    HW128424   1.886   0.180  16.695  0.4207 -0.0311 -0.0532
 5654SOL    HW228425   1.865   0.157  16.835 -1.7680  1.9536  2.0305
 5655SOL     OW28426   3.418   0.696   3.317  0.4798 -0.3982  0.2850
 5655SOL    HW128427   3.450   0.615   3.356  0.3390 -0.8431 -0.5102
 5655SOL    HW228428   3.416   0.677   3.223 -0.8873  0.0658  0.2252
 5656SOL     OW28429   2.127   1.745   0.634  0.1411  0.5967  0.0849
 5656SOL    HW128430   2.044   1.732   0.680 -0.8789 -1.6198 -2.3857
 5656SOL    HW228431   2.188   1.701   0.693 -0.9612 -2.0752 -0.7769
 5657SOL     OW28432   2.403   1.440   3.169  0.6391 -0.3596  0.6137
 5657SOL    HW128433   2.388   1.526   3.129  0.3502  0.3021  2.1283
 5657SOL    HW228434   2.497   1.453   3.186  1.1026 -1.0830 -1.4709
 5658SOL     OW28435   2.530   3.902  15.879 -0.1004  0.5508 -0.1792
 5658SOL    HW128436   2.601   3.966  15.874 -0.5566  1.1731  1.0823
 5658SOL    HW228437   2.563   3.833  15.937 -0.6336 -0.7916 -1.4685
 5659SOL     OW28438   2.294   4.629   9.652 -0.2262  0.2508  0.2370
 5659SOL    HW128439   2.374   4.630   9.600  0.1249 -2.2093  0.7434
 5659SOL    HW228440   2.286   0.003   9.676  0.9430 -0.1043  1.9541
 5660SOL     OW28441   2.925   2.691   3.449 -0.0739  0.3765  1.1062
 5660SOL    HW128442   3.004   2.660   3.493  0.2355 -1.1134 -0.5136
 5660SOL    HW228443   2.871   2.615   3.470 -1.5347  0.8617 -0.9124
 5661SOL     OW28444   1.364   0.298   2.715 -0.9759  0.2515  0.2739
 5661SOL    HW128445   1.432   0.353   2.675 -0.2698 -0.0762  1.0303
 5661SOL    HW228446   1.305   0.372   2.731 -0.2208  1.1537 -1.0674
 5662SOL     OW28447   3.942   2.110  14.959  0.7480 -0.3484 -0.3268
 5662SOL    HW128448   3.989   2.050  14.901  3.2870 -0.4389  1.8464
 5662SOL    HW228449   4.009   2.153  15.011  0.1836 -0.2622  0.3335
 5663SOL     OW28450   2.445   2.127  13.042  0.3513 -0.2129  0.1171
 5663SOL    HW128451   2.468   2.180  12.966 -1.1409  0.2447 -0.0140
 5663SOL    HW228452   2.412   2.052  12.991  1.4217 -0.8799  0.4051
 5664SOL     OW28453   3.726   3.975   8.395  0.5500 -0.1421 -0.0404
 5664SOL    HW128454   3.723   4.068   8.419  2.9652  0.0158 -0.3134
 5664SOL    HW228455   3.821   3.962   8.397  1.0000  3.0489  0.4754
 5665SOL     OW28456   0.115   3.670   4.947 -0.3993  0.2517 -0.1931
 5665SOL    HW128457   0.079   3.591   4.908  1.1657 -1.9595  2.8537
 5665SOL    HW228458   0.091   3.650   5.037  2.3495 -1.6364  0.1177
 5666SOL     OW28459   2.076   2.318   3.366  0.1193  0.7262  0.5178
 5666SOL    HW128460   2.090   2.365   3.448 -1.0670 -0.8472  1.6193
 5666SOL    HW228461   2.147   2.339   3.305  0.0816  1.3100  0.6705
 5667SOL     OW28462   4.387   2.356   2.170  1.2121  0.3948  0.1402
 5667SOL    HW128463   4.296   2.346   2.142  1.8090  0.3506 -1.7421
 5667SOL    HW228464   4.418   2.272   2.137  1.1513  0.4141  0.0340
 5668SOL     OW28465   1.379   0.387  13.171  0.2273  0.1875  0.1762
 5668SOL    HW128466   1.397   0.323  13.102  0.8098  1.8007 -1.1961
 5668SOL    HW228467   1.348   0.460  13.116 -4.1710 -2.2874 -0.6340
 5669SOL     OW28468   3.861   1.558   3.397  0.1524  0.4994  0.2298
 5669SOL    HW128469   3.956   1.550   3.401  0.0727  0.1013  1.4509
 5669SOL    HW228470   3.839   1.526   3.484 -1.2598 -0.6723 -0.5718
 5670SOL     OW28471   3.686   1.644   2.663  0.1226  0.2513 -0.3804
 5670SOL    HW128472   3.675   1.712   2.730 -3.0227  0.4119 -1.0807
 5670SOL    HW228473   3.722   1.576   2.720 -2.1042 -0.4166  0.2114
 5671SOL     OW28474   3.520   3.418   4.014  0.5079  0.6797 -0.0580
 5671SOL    HW128475   3.442   3.413   4.070  0.6413 -2.7202 -0.1926
 5671SOL    HW228476   3.484   3.387   3.931 -0.3067 -0.7186  0.8213
 5672SOL     OW28477   2.826   2.376  10.911 -0.4461 -0.0757  0.7611
 5672SOL    HW128478   2.809   2.371  11.005 -0.0327  0.7662  0.8848
 5672SOL    HW228479   2.870   2.292  10.895 -2.1260 -0.7916 -0.0456
 5673SOL     OW28480   4.092   1.725   7.890  0.0657  0.2191  0.2749
 5673SOL    HW128481   4.008   1.771   7.886  0.2842  0.7057  1.2525
 5673SOL    HW228482   4.142   1.776   7.954 -1.3158  0.7017  0.9686
 5674SOL     OW28483   0.407   1.968   4.505 -0.2172  0.2110 -0.2847
 5674SOL    HW128484   0.431   2.046   4.455  1.7522  0.1235  0.5156
 5674SOL    HW228485   0.466   1.897   4.478 -0.1749 -0.0712  0.5373
 5675SOL     OW28486   2.699   4.079   5.522  0.2733  0.4525  0.6120
 5675SOL    HW128487   2.668   4.075   5.431 -2.1982  0.6816  1.4624
 5675SOL    HW228488   2.637   4.038   5.582 -0.4044  0.9075  0.2163
 5676SOL     OW28489   2.742   1.261   3.974 -0.2455 -0.3021 -0.0186
 5676SOL    HW128490   2.650   1.288   3.980  0.6784  2.6291  1.3821
 5676SOL    HW228491   2.772   1.313   4.049  1.3945  2.8726 -2.8380
 5677SOL     OW28492   0.954   0.249   4.609 -0.5447 -0.0104  0.3790
 5677SOL    HW128493   0.918   0.165   4.580  0.0080  0.2444 -1.0523
 5677SOL    HW228494   0.931   0.298   4.530 -0.4498 -0.3363  0.1467
 5678SOL     OW28495   0.347   3.328   3.219  0.7002  0.9053 -0.4681
 5678SOL    HW128496   0.425   3.346   3.167  1.7872 -1.7177  0.2888
 5678SOL    HW228497   0.289   3.363   3.152 -0.7696 -0.8166 -0.1041
 5679SOL     OW28498   1.492   4.588   7.037  0.3536 -0.3160 -0.2939
 5679SOL    HW128499   1.530   4.502   7.018  1.7603  0.5140 -1.1745
 5679SOL    HW228500   1.464   4.566   7.126  0.9185  0.8641  0.1751
 5680SOL     OW28501   2.957   1.764   7.877  0.8509  0.2413  0.0979
 5680SOL    HW128502   2.995   1.846   7.844  1.9617 -0.9556 -1.6236
 5680SOL    HW228503   2.998   1.712   7.807 -0.3534 -1.6569  0.8134
 5681SOL     OW28504   0.301   3.375   4.189 -0.5730 -0.4341  0.1529
 5681SOL    HW128505   0.226   3.365   4.248  1.1115 -0.6144  2.2811
 5681SOL    HW228506   0.280   3.454   4.140  2.6111  0.0738 -0.3809
 5682SOL     OW28507   1.673   2.086   7.509  0.3714 -0.4938  0.1515
 5682SOL    HW128508   1.642   2.126   7.589  1.3469 -0.2586  0.4059
 5682SOL    HW228509   1.599   2.066   7.451  0.6493 -1.4294  0.1088
 5683SOL     OW28510   3.312   0.408   3.209 -0.1150 -0.0993  0.0380
 5683SOL    HW128511   3.254   0.445   3.142  1.1414  0.5946 -0.6572
 5683SOL    HW228512   3.269   0.440   3.289  0.2353 -0.5271  0.3970
 5684SOL     OW28513   3.597   2.088   5.557 -0.3021  0.3134 -0.5361
 5684SOL    HW128514   3.665   2.037   5.515  2.1234  2.2926  0.9549
 5684SOL    HW228515   3.599   2.170   5.507 -2.3090  0.3353 -0.5942
 5685SOL     OW28516   2.655   4.001   4.806 -0.0054 -0.5080  0.0811
 5685SOL    HW128517   2.658   4.054   4.727 -0.5524 -0.0421  0.3690
 5685SOL    HW228518   2.630   3.919   4.762  0.7054 -0.6498 -0.0658
 5686SOL     OW28519   3.809   4.451   3.635 -0.7237  0.2747  0.1653
 5686SOL    HW128520   3.888   4.491   3.673 -0.6758  0.4051 -0.0677
 5686SOL    HW228521   3.788   4.525   3.578 -0.4532  1.8844  2.1593
 5687SOL     OW28522   1.704   2.389   1.366 -0.0255 -0.4816 -0.1366
 5687SOL    HW128523   1.641   2.318   1.354 -0.7331  0.1570 -0.2504
 5687SOL    HW228524   1.755   2.385   1.285 -1.2935  1.1702 -1.0470
 5688SOL     OW28525   3.104   2.737  13.855  0.3508  0.9696 -0.4565
 5688SOL    HW128526   3.143   2.792  13.923  0.3194  0.7812 -0.2860
 5688SOL    HW228527   3.013   2.766  13.857  0.0929  0.0269  1.7823
 5689SOL     OW28528   0.657   3.985   9.178 -0.2653 -0.1901  0.4474
 5689SOL    HW128529   0.677   3.993   9.271 -2.9066 -3.4029  1.2825
 5689SOL    HW228530   0.600   4.062   9.174  1.1028  0.8056 -0.0746
 5690SOL     OW28531   3.498   1.930  11.209 -0.1999 -0.1742 -0.2027
 5690SOL    HW128532   3.477   1.987  11.283  0.2173  1.3222 -1.2208
 5690SOL    HW228533   3.588   1.905  11.230 -0.0673  0.1406 -0.3859
 5691SOL     OW28534   1.659   2.437   0.791 -0.3008  0.0414  0.7294
 5691SOL    HW128535   1.653   2.424   0.696  0.4779  0.1437  0.6659
 5691SOL    HW228536   1.668   2.345   0.815 -2.2968 -0.6048 -1.0123
 5692SOL     OW28537   4.077   1.049  12.028 -0.2217  0.3156 -0.1698
 5692SOL    HW128538   4.162   1.006  12.037  0.3890  1.0278 -2.4622
 5692SOL    HW228539   4.064   1.081  12.117 -0.6441  1.1326 -0.5281
 5693SOL     OW28540   3.643   3.383  13.283  0.2329  0.1180  0.2475
 5693SOL    HW128541   3.598   3.328  13.219 -0.8074  0.1165  0.9839
 5693SOL    HW228542   3.655   3.318  13.352 -1.0277 -0.2457  0.1351
 5694SOL     OW28543   1.888   3.539   5.563  0.4374 -0.0688  0.0847
 5694SOL    HW128544   1.890   3.614   5.623  1.0315 -0.5890  0.7249
 5694SOL    HW228545   1.806   3.559   5.519 -1.4501 -2.2776  2.6638
 5695SOL     OW28546   0.010   2.957   6.198  0.1662  0.3021 -0.0602
 5695SOL    HW128547   0.052   2.919   6.121  1.8739  2.7086 -0.2843
 5695SOL    HW228548   0.033   2.898   6.270 -0.8474 -0.3597 -0.2652
 5696SOL     OW28549   2.285   1.690   9.236 -0.0343  0.5923 -0.4281
 5696SOL    HW128550   2.250   1.610   9.275  1.3886 -0.1343 -0.6596
 5696SOL    HW228551   2.224   1.700   9.163 -1.1658 -1.7073  0.2023
 5697SOL     OW28552   1.867   2.156   3.365  0.1111  0.4002 -0.0283
 5697SOL    HW128553   1.852   2.166   3.459 -1.0201 -3.2978  0.1854
 5697SOL    HW228554   1.947   2.210   3.364 -0.1414  0.7745 -0.1881
 5698SOL     OW28555   1.071   1.193   4.240 -0.4565  0.7735 -0.4885
 5698SOL    HW128556   1.077   1.173   4.147  2.2875 -0.9540  0.0646
 5698SOL    HW228557   1.160   1.181   4.272 -0.6756  2.2674  0.7110
 5699SOL     OW28558   1.638   1.809  11.708  0.2635 -0.5434  0.0975
 5699SOL    HW128559   1.680   1.856  11.780 -0.1847  0.3324 -0.2131
 5699SOL    HW228560   1.694   1.848  11.641 -3.6747  0.6278 -2.5154
 5700SOL     OW28561   2.141   4.435  12.667 -0.5331  0.2403  0.1427
 5700SOL    HW128562   2.104   4.503  12.723  1.8940  1.6081  0.0805
 5700SOL    HW228563   2.222   4.416  12.715 -1.4204  2.0727  2.3687
 5701SOL     OW28564   0.706   1.769   8.351 -0.0538  0.2925 -0.2711
 5701SOL    HW128565   0.731   1.781   8.259  0.8908 -1.6267 -0.2718
 5701SOL    HW228566   0.616   1.736   8.347 -0.6401  1.6926  1.5870
 5702SOL     OW28567   2.963   3.199   9.594  0.0572  0.3136 -0.0299
 5702SOL    HW128568   3.003   3.127   9.546 -3.2209 -0.4106 -1.6821
 5702SOL    HW228569   3.045   3.240   9.621  0.7118 -2.7536  2.4849
 5703SOL     OW28570   1.309   3.667   0.250  0.5272 -0.5156 -0.0346
 5703SOL    HW128571   1.393   3.632   0.218  1.8435  0.2733  2.5949
 5703SOL    HW228572   1.258   3.658   0.170  0.2092 -2.2888  0.3680
 5704SOL     OW28573   0.051   2.949   3.379  0.1188  0.5091  0.9540
 5704SOL    HW128574   0.111   2.995   3.437  3.6353 -1.5410 -1.0964
 5704SOL    HW228575   4.689   3.001   3.389  1.7035  2.7653  2.0151
 5705SOL     OW28576   0.130   3.336   7.555  0.6367 -0.5126 -0.6411
 5705SOL    HW128577   0.117   3.290   7.472 -0.7377  0.1361 -0.7794
 5705SOL    HW228578   0.156   3.263   7.611  0.0673  0.0249  0.3221
 5706SOL     OW28579   3.195   4.056  10.625  0.0672 -0.0852 -0.0410
 5706SOL    HW128580   3.176   3.982  10.568  0.3208  2.6035 -3.6190
 5706SOL    HW228581   3.125   4.116  10.601  2.3092  0.6185 -4.7255
 5707SOL     OW28582   1.181   0.894   5.707  0.3213 -0.2345 -0.6513
 5707SOL    HW128583   1.196   0.802   5.682 -0.9804 -1.0851  1.6419
 5707SOL    HW228584   1.263   0.894   5.757  1.4932  0.9051 -2.5998
 5708SOL     OW28585   3.317   2.683   3.813  0.0438  0.3051  0.1995
 5708SOL    HW128586   3.410   2.683   3.793  0.2091  2.5992  1.0037
 5708SOL    HW228587   3.319   2.713   3.903  0.5071  1.2121 -0.1134
 5709SOL     OW28588   3.303   2.855   8.671 -0.2877  0.4756  0.3629
 5709SOL    HW128589   3.373   2.829   8.731  1.2284  0.9652 -1.2017
 5709SOL    HW228590   3.341   2.934   8.633  0.3796  1.2402  2.5834
 5710SOL     OW28591   1.165   3.602   4.282 -0.7011 -0.0818  0.4308
 5710SOL    HW128592   1.157   3.691   4.317 -2.3298 -0.4601  1.0139
 5710SOL    HW228593   1.092   3.560   4.328  0.7386 -0.5526  2.2781
 5711SOL     OW28594   0.935   4.505   9.328 -0.2799  0.0737 -0.6568
 5711SOL    HW128595   1.029   4.503   9.308 -0.0434 -1.3314  0.6001
 5711SOL    HW228596   0.890   4.459   9.256  1.8851 -0.1444 -1.8892
 5712SOL     OW28597   1.682   4.118   4.271  0.0909 -0.2359 -0.0144
 5712SOL    HW128598   1.697   4.061   4.196  0.4373  1.2394 -1.0789
 5712SOL    HW228599   1.767   4.125   4.316 -0.0218 -1.3819  0.3875
 5713SOL     OW28600   3.526   1.320  10.894 -0.4851 -0.0316 -0.1918
 5713SOL    HW128601   3.600   1.373  10.922  1.7742 -3.4353  0.3204
 5713SOL    HW228602   3.459   1.367  10.943  0.0338  1.3463 -0.7920
 5714SOL     OW28603   2.988   2.116   0.842 -0.1599 -0.5160 -0.2598
 5714SOL    HW128604   2.922   2.064   0.797 -1.1589  0.1208  0.4626
 5714SOL    HW228605   2.938   2.191   0.874  2.2974  1.1970 -0.4272
 5715SOL     OW28606   4.545   4.340  14.061 -0.0065  0.2984 -0.1096
 5715SOL    HW128607   4.545   4.286  13.982 -1.5706  0.9195 -0.5294
 5715SOL    HW228608   4.629   4.386  14.057 -0.3268  0.8829 -0.2401
 5716SOL     OW28609   2.617   2.487   4.369  0.0230 -0.1336  0.4454
 5716SOL    HW128610   2.596   2.550   4.437 -1.9901  0.7573 -0.9939
 5716SOL    HW228611   2.541   2.428   4.368  0.0902 -0.2028 -0.9813
 5717SOL     OW28612   3.752   1.593   5.093 -0.5660  0.1421 -0.0683
 5717SOL    HW128613   3.729   1.653   5.022  1.3359  1.2237  0.2193
 5717SOL    HW228614   3.836   1.557   5.066  0.0804  0.9649  0.8401
 5718SOL     OW28615   4.256   4.303  16.892 -0.5400  1.0620 -0.9222
 5718SOL    HW128616   4.334   4.257  16.924 -0.1847  1.7950 -0.7527
 5718SOL    HW228617   4.260   4.287  16.797 -0.4615 -0.3281 -0.6872
 5719SOL     OW28618   1.082   1.406   4.648  0.4017 -0.2139  0.1272
 5719SOL    HW128619   1.041   1.330   4.607  2.6847 -0.6613 -1.3584
 5719SOL    HW228620   1.074   1.463   4.572 -0.2477  1.6897  1.6259
 5720SOL     OW28621   4.666   4.093  12.607 -0.1211 -0.0467 -0.3204
 5720SOL    HW128622   4.677   4.029  12.678 -0.3867  1.3215  0.9494
 5720SOL    HW228623   4.625   4.037  12.541 -1.8991 -0.3731  1.0396
 5721SOL     OW28624   4.442   1.650   6.176 -0.0204 -0.3678  0.0927
 5721SOL    HW128625   4.515   1.594   6.149  1.7028  1.5939  0.5757
 5721SOL    HW228626   4.396   1.588   6.232 -0.1241  1.5040  2.0696
 5722SOL     OW28627   0.874   2.632   8.441 -0.6680  0.6606  0.3391
 5722SOL    HW128628   0.928   2.649   8.518  1.6392 -0.1749 -1.0599
 5722SOL    HW228629   0.853   2.540   8.459 -0.6841  0.4953 -0.4989
 5723SOL     OW28630   3.288   1.556  13.858 -0.0737  0.1643  0.1161
 5723SOL    HW128631   3.362   1.567  13.798  1.2070 -0.7687  1.5295
 5723SOL    HW228632   3.288   1.637  13.908  0.1176  0.0413  0.3131
 5724SOL     OW28633   2.516   0.038   3.781 -0.4642 -0.2854  0.1565
 5724SOL    HW128634   2.425   0.061   3.803 -0.7106 -1.3707  0.2951
 5724SOL    HW228635   2.520   4.661   3.772  0.5284 -0.4248  2.1137
 5725SOL     OW28636   1.304   3.881  17.213 -0.3428 -0.5789 -0.5464
 5725SOL    HW128637   1.318   3.816  17.282 -1.6175 -1.6371 -1.3112
 5725SOL    HW228638   1.337   3.956  17.263 -1.1532 -0.1523 -0.6561
 5726SOL     OW28639   4.492   2.893  14.614 -0.0178 -0.0935 -0.2981
 5726SOL    HW128640   4.442   2.821  14.577  0.4581 -0.4095 -0.3354
 5726SOL    HW228641   4.448   2.918  14.695 -1.1866 -1.3144 -0.5536
 5727SOL     OW28642   2.910   1.306  13.341 -0.0663  0.6733 -0.1016
 5727SOL    HW128643   2.896   1.221  13.299 -0.5696 -0.4100  2.2455
 5727SOL    HW228644   3.000   1.329  13.318 -0.2415  1.3837 -0.0738
 5728SOL     OW28645   0.597   3.885  12.919  0.4326 -0.3921  0.4561
 5728SOL    HW128646   0.532   3.956  12.917 -0.3383 -1.0806  0.9984
 5728SOL    HW228647   0.546   3.805  12.928  0.8389 -0.3661  3.0059
 5729SOL     OW28648   0.788   0.181   0.893 -0.2316 -0.2405 -0.4964
 5729SOL    HW128649   0.835   0.145   0.968  0.9441 -0.1457 -1.1927
 5729SOL    HW228650   0.703   0.191   0.936  1.5231 -0.8938  3.1714
 5730SOL     OW28651   2.073   0.948   6.054 -0.4197  0.1343 -0.6839
 5730SOL    HW128652   2.133   0.923   6.124 -1.0312  0.5389 -0.0223
 5730SOL    HW228653   2.116   0.914   5.975  0.0119  1.6643 -1.0999
 5731SOL     OW28654   3.594   3.998   6.729 -0.0980  0.2918  0.2570
 5731SOL    HW128655   3.665   4.060   6.716 -1.7955  2.0753 -0.4906
 5731SOL    HW228656   3.522   4.034   6.678  1.4165  0.0555 -2.0509
 5732SOL     OW28657   0.851   3.605  16.207 -0.0536  0.5088  0.2926
 5732SOL    HW128658   0.819   3.636  16.292  0.4110 -2.6349  1.6130
 5732SOL    HW228659   0.775   3.556  16.175  0.4666  1.5843 -2.5760
 5733SOL     OW28660   4.600   4.552   5.661 -0.1376 -0.0930 -0.6403
 5733SOL    HW128661   4.672   4.511   5.612  0.2056  0.5104 -0.6375
 5733SOL    HW228662   4.524   4.538   5.605 -1.2907 -0.3633  0.9816
 5734SOL     OW28663   1.656   0.606   7.880 -0.1229  0.4235  0.0724
 5734SOL    HW128664   1.740   0.650   7.874 -0.3142  0.6669 -0.8017
 5734SOL    HW228665   1.612   0.672   7.933  0.2573  1.1786 -0.5565
 5735SOL     OW28666   4.176   1.620  16.011  0.2242 -0.6040 -0.5855
 5735SOL    HW128667   4.255   1.599  16.061 -1.2039 -4.3330  0.1775
 5735SOL    HW228668   4.146   1.697  16.058 -0.1058  0.2540 -2.2110
 5736SOL     OW28669   2.331   0.972   3.105  0.2998 -0.4376  0.2355
 5736SOL    HW128670   2.369   1.015   3.028 -0.6283 -1.8811 -1.0063
 5736SOL    HW228671   2.339   1.042   3.170 -2.0812 -1.5873  1.7406
 5737SOL     OW28672   2.709   4.148  15.658  0.1649  0.4396 -0.2368
 5737SOL    HW128673   2.622   4.177  15.685 -0.6342 -1.5103 -0.7129
 5737SOL    HW228674   2.735   4.106  15.740 -0.3189  0.1132 -0.2503
 5738SOL     OW28675   3.911   0.105   8.943 -0.2155  0.5715  0.1207
 5738SOL    HW128676   3.981   0.138   9.000  0.6250 -0.7983 -0.1219
 5738SOL    HW228677   3.841   0.170   8.944 -0.2895  0.4880  0.3792
 5739SOL     OW28678   4.519   3.632   2.936 -0.2980  0.2579  0.0946
 5739SOL    HW128679   4.447   3.569   2.931 -0.8661  0.7990  1.3737
 5739SOL    HW228680   4.477   3.706   2.980  0.0251  0.4307  0.1118
 5740SOL     OW28681   4.716   1.128   8.324  0.3601  0.4621 -0.3058
 5740SOL    HW128682   4.653   1.084   8.266  0.1250 -1.7794  1.6628
 5740SOL    HW228683   4.657   1.149   8.397 -2.1261  1.1982 -2.5176
 5741SOL     OW28684   1.483   3.383  16.506  0.1357 -0.3569 -0.0554
 5741SOL    HW128685   1.539   3.459  16.490 -0.1425 -0.2882 -0.7364
 5741SOL    HW228686   1.400   3.429  16.521  0.7361  0.8263 -0.3687
 5742SOL     OW28687   1.515   0.347   0.776  0.6209 -0.4377 -0.3801
 5742SOL    HW128688   1.504   0.418   0.713  0.0290  0.0374  0.2658
 5742SOL    HW228689   1.516   0.266   0.724  1.3910 -0.2171 -0.7093
 5743SOL     OW28690   0.031   3.875   5.476  0.0120 -0.1959  0.5039
 5743SOL    HW128691   0.104   3.849   5.419 -0.4830 -2.7237  1.0106
 5743SOL    HW228692   0.074   3.919   5.549 -0.3251  1.2897 -0.1866
 5744SOL     OW28693   2.896   1.383   6.499  0.5332 -0.3462  0.2950
 5744SOL    HW128694   2.899   1.293   6.533 -0.4951 -0.4070  0.2440
 5744SOL    HW228695   2.972   1.430   6.531 -1.1212  2.6741 -0.2295
 5745SOL     OW28696   3.580   3.628   6.787 -0.1476 -0.1669  0.4139
 5745SOL    HW128697   3.606   3.607   6.697 -2.3977  0.3456 -0.3776
 5745SOL    HW228698   3.634   3.705   6.800 -0.6107  0.1675  0.3766
 5746SOL     OW28699   0.257   4.078   1.189  0.2837  0.0565 -0.2296
 5746SOL    HW128700   0.225   3.992   1.217 -1.8029  1.1717  0.8271
 5746SOL    HW228701   0.348   4.055   1.175  0.1359 -0.7380  0.0899
 5747SOL     OW28702   2.885   0.568   0.390  0.0026  0.2166 -0.4021
 5747SOL    HW128703   2.841   0.486   0.412  1.4887 -0.1848  1.0645
 5747SOL    HW228704   2.946   0.544   0.320 -0.7154 -1.4731 -0.4443
 5748SOL     OW28705   3.393   4.521   1.543 -0.0505  0.0391  0.6889
 5748SOL    HW128706   3.364   4.583   1.477  1.5179  0.8621  0.7725
 5748SOL    HW228707   3.455   4.563   1.601  0.3572 -1.9910  1.7327
 5749SOL     OW28708   4.503   3.776   3.589 -0.3342 -0.2120 -0.0390
 5749SOL    HW128709   4.466   3.853   3.546 -1.1793 -0.9386 -0.6139
 5749SOL    HW228710   4.447   3.706   3.556  0.8725 -0.6192 -1.2144
 5750SOL     OW28711   0.145   0.434   3.210  0.0620 -0.2072 -0.2911
 5750SOL    HW128712   0.227   0.477   3.186 -0.9810  0.9541 -1.8142
 5750SOL    HW228713   0.081   0.491   3.167 -0.6230 -0.5234  0.3110
 5751SOL     OW28714   3.380   1.904   6.905 -0.1282 -0.4881  0.1186
 5751SOL    HW128715   3.419   1.819   6.888  2.9919  0.7411  1.0430
 5751SOL    HW228716   3.437   1.933   6.977  0.8592 -1.4478 -0.2744
 5752SOL     OW28717   0.198   1.631  10.901 -0.2479 -0.1117 -0.3160
 5752SOL    HW128718   0.176   1.710  10.851 -0.8271  2.0727  3.3475
 5752SOL    HW228719   0.247   1.585  10.833  1.2248  0.4077  0.3733
 5753SOL     OW28720   4.114   2.844   3.831 -0.1644  0.2148  0.6734
 5753SOL    HW128721   4.135   2.904   3.903  0.6125  0.3578  0.3200
 5753SOL    HW228722   4.198   2.815   3.797 -1.8748 -2.9009 -0.9084
 5754SOL     OW28723   4.255   3.457  13.873  0.8520  0.3868  0.1839
 5754SOL    HW128724   4.184   3.506  13.914 -0.8654 -1.7634 -0.2390
 5754SOL    HW228725   4.237   3.364  13.888  2.2549 -0.0213 -0.6500
 5755SOL     OW28726   4.440   4.604   6.342 -0.0739  0.3470 -0.0794
 5755SOL    HW128727   4.451   4.635   6.252 -0.4710 -1.4168 -0.7354
 5755SOL    HW228728   4.525   4.562   6.356 -1.1773 -1.0676  2.3517
 5756SOL     OW28729   2.620   1.006   5.801 -0.5936  0.1313  0.3055
 5756SOL    HW128730   2.594   0.914   5.804 -0.1200 -0.0323 -0.3762
 5756SOL    HW228731   2.657   1.013   5.713 -1.3171 -0.8593 -0.0720
 5757SOL     OW28732   1.753   3.273  14.918  0.0459 -0.3094 -0.1979
 5757SOL    HW128733   1.817   3.219  14.871 -0.2099 -0.7351 -0.0621
 5757SOL    HW228734   1.730   3.330  14.845 -3.8181  0.2564  1.5020
 5758SOL     OW28735   1.386   0.588   8.626  0.3430  0.3477  0.4832
 5758SOL    HW128736   1.361   0.505   8.585 -2.8318  0.5624  1.9501
 5758SOL    HW228737   1.419   0.544   8.704 -0.5695 -0.7201  0.2650
 5759SOL     OW28738   2.116   3.059   7.211  0.3658  0.4798 -0.5021
 5759SOL    HW128739   2.098   2.972   7.246  1.9280  0.1509 -0.5525
 5759SOL    HW228740   2.042   3.094   7.262 -0.9338  0.7452 -2.5730
 5760SOL     OW28741   1.431   1.631   6.418 -0.0536 -0.6028  0.1598
 5760SOL    HW128742   1.405   1.708   6.368  0.6794  0.3900  1.2992
 5760SOL    HW228743   1.430   1.565   6.349 -0.9547 -1.4143  0.9579
 5761SOL     OW28744   2.347   0.274   6.958 -0.2258  0.1464  0.1823
 5761SOL    HW128745   2.422   0.302   6.906  1.7981 -4.6149  0.4932
 5761SOL    HW228746   2.279   0.323   6.911 -1.4182 -0.5668  1.1539
 5762SOL     OW28747   0.949   3.569   4.020 -0.0963 -0.3991  0.5223
 5762SOL    HW128748   0.931   3.658   4.049 -1.6072  0.1590 -2.1358
 5762SOL    HW228749   0.928   3.531   4.106  0.3273  0.8408  1.1747
 5763SOL     OW28750   0.680   0.816   2.407  0.0735  0.3956 -0.2881
 5763SOL    HW128751   0.643   0.743   2.359  1.6406  0.5562 -1.7633
 5763SOL    HW228752   0.642   0.877   2.344 -1.8554  0.2913  0.7868
 5764SOL     OW28753   3.643   3.558   8.086  0.2133  0.1016  0.2773
 5764SOL    HW128754   3.731   3.536   8.055  0.5819  1.9705 -0.0402
 5764SOL    HW228755   3.634   3.509   8.167 -0.8448  1.0014  0.7110
 5765SOL     OW28756   2.505   3.814   3.516 -0.7601 -0.6657 -0.2192
 5765SOL    HW128757   2.469   3.856   3.595 -1.7264 -1.1437 -0.4087
 5765SOL    HW228758   2.575   3.875   3.495  0.7843 -2.3767  0.0432
 5766SOL     OW28759   2.654   2.861   8.000 -0.3882 -0.2095  0.2997
 5766SOL    HW128760   2.560   2.866   8.019 -0.0612  2.2433  1.2216
 5766SOL    HW228761   2.682   2.932   7.941  0.2451  1.2650  2.3793
 5767SOL     OW28762   3.152   3.070   1.618 -0.1112 -0.2109 -0.2602
 5767SOL    HW128763   3.151   3.153   1.666 -2.8197  0.2313 -1.1222
 5767SOL    HW228764   3.061   3.041   1.613  0.0679 -0.9705  1.0352
 5768SOL     OW28765   0.809   3.579   7.301  0.3021 -0.2763 -0.1136
 5768SOL    HW128766   0.892   3.579   7.253  0.7708 -2.3356  0.6720
 5768SOL    HW228767   0.816   3.661   7.349  0.5110  0.3409 -1.2169
 5769SOL     OW28768   1.981   0.971   4.433 -0.1227  0.0857  0.5987
 5769SOL    HW128769   1.973   0.930   4.347  1.5729  1.8962 -0.4241
 5769SOL    HW228770   1.916   1.041   4.430 -0.4783 -0.2552  0.3255
 5770SOL     OW28771   0.662   3.288  12.009 -0.4883 -0.1522 -0.1527
 5770SOL    HW128772   0.694   3.201  12.031  1.1747  0.1947 -1.1556
 5770SOL    HW228773   0.643   3.332  12.092 -0.7530 -1.8645  0.6830
 5771SOL     OW28774   3.949   3.011  15.005  0.4427 -0.0062 -0.2564
 5771SOL    HW128775   3.960   2.917  14.986  2.6593  0.1404  0.3485
 5771SOL    HW228776   3.857   3.018  14.980  0.1406  1.7142  1.3994
 5772SOL     OW28777   3.704   4.208   1.911  0.1888  0.3089  0.0687
 5772SOL    HW128778   3.796   4.198   1.889  0.0548 -1.0485  0.1607
 5772SOL    HW228779   3.674   4.119   1.927  0.5303  0.0943 -0.5062
 5773SOL     OW28780   2.185   3.248   0.767  0.5510  0.1214  0.2465
 5773SOL    HW128781   2.136   3.227   0.847  0.2663 -2.3905 -0.6054
 5773SOL    HW228782   2.264   3.294   0.795 -0.0749  3.0232 -2.7938
 5774SOL     OW28783   3.067   0.644  14.097 -0.1878 -0.1794 -0.2141
 5774SOL    HW128784   3.085   0.669  14.007 -1.1045  1.2615  0.0053
 5774SOL    HW228785   2.973   0.627  14.096 -0.1952  0.2120 -4.9000
 5775SOL     OW28786   1.508   0.603   6.372 -0.2334 -0.2090 -0.0969
 5775SOL    HW128787   1.474   0.549   6.442  0.0959 -1.0828 -0.6174
 5775SOL    HW228788   1.468   0.687   6.398  0.0865  0.1482 -0.7582
 5776SOL     OW28789   4.042   0.998   5.061  0.3294 -0.1657 -0.1493
 5776SOL    HW128790   4.008   0.948   5.135  0.2581 -1.0849 -0.7948
 5776SOL    HW228791   4.122   0.956   5.031  1.3857  0.8702  1.2508
 5777SOL     OW28792   2.010   2.391   0.294  0.1383  0.0875 -0.4433
 5777SOL    HW128793   2.004   2.303   0.255  1.7059 -0.7656  1.2601
 5777SOL    HW228794   2.073   2.422   0.230  0.1136 -1.3869 -1.1963
 5778SOL     OW28795   0.323   0.929  13.505  0.7145  0.1014 -0.3886
 5778SOL    HW128796   0.318   0.879  13.423 -0.2467 -1.5054  0.6535
 5778SOL    HW228797   0.261   0.867  13.544 -0.4038  1.1219 -0.5189
 5779SOL     OW28798   3.316   4.698   4.155  0.2098 -0.2327 -0.4507
 5779SOL    HW128799   3.310   4.709   4.250 -1.1764 -2.1849 -0.3071
 5779SOL    HW228800   3.347   4.608   4.164 -0.7477 -0.5504 -0.3998
 5780SOL     OW28801   3.064   3.128   4.825  0.9144 -0.2283 -0.1108
 5780SOL    HW128802   3.090   3.061   4.888  0.1840 -0.3107  0.1055
 5780SOL    HW228803   3.123   3.198   4.853 -1.7863  1.8541  0.3696
 5781SOL     OW28804   2.310   4.521   8.500  0.1178 -0.1048 -0.2183
 5781SOL    HW128805   2.227   4.504   8.455 -0.9881  0.6796  1.5093
 5781SOL    HW228806   2.280   4.548   8.587 -1.1770  2.5000 -1.4755
 5782SOL     OW28807   3.557   4.303   5.541  0.0270  0.1985 -0.0145
 5782SOL    HW128808   3.532   4.333   5.454 -0.2870 -2.6152 -0.9014
 5782SOL    HW228809   3.477   4.326   5.589  0.5122  1.9513 -0.0428
 5783SOL     OW28810   0.564   1.311   6.012  0.2681 -0.2490 -0.0448
 5783SOL    HW128811   0.527   1.382   6.064  2.1671 -0.1725  1.2041
 5783SOL    HW228812   0.596   1.360   5.937  2.2533 -1.7243 -0.1859
 5784SOL     OW28813   0.072   4.618   2.612 -0.3668  0.4747 -0.1617
 5784SOL    HW128814   0.108   4.538   2.573  0.1161  0.3602  0.5324
 5784SOL    HW228815   0.033   4.660   2.535 -2.1226  1.3143  1.2044
 5785SOL     OW28816   2.590   0.023  16.514 -0.5935  0.2098  0.1266
 5785SOL    HW128817   2.639   0.016  16.432  1.8578 -1.2268  1.7041
 5785SOL    HW228818   2.500   0.024  16.482 -1.3256  0.0246  2.1604
 5786SOL     OW28819   3.119   0.602  16.599  0.1195 -0.0317  0.3780
 5786SOL    HW128820   3.083   0.551  16.671 -1.4364 -3.0832 -2.5750
 5786SOL    HW228821   3.199   0.640  16.635 -0.0680  2.2118 -1.5925
 5787SOL     OW28822   3.647   1.878  12.881 -0.1890  0.0859  0.5753
 5787SOL    HW128823   3.602   1.910  12.802 -0.3113 -2.3617 -0.3357
 5787SOL    HW228824   3.579   1.825  12.923 -1.7142  1.4899 -0.1011
 5788SOL     OW28825   4.669   2.017   8.237  0.3475 -0.2646 -0.0096
 5788SOL    HW128826   0.020   2.055   8.184  0.6960  1.5453  1.7415
 5788SOL    HW228827   4.688   1.923   8.231  0.2860 -0.4037  1.8061
 5789SOL     OW28828   4.306   0.965   3.461  0.0668 -0.5915  0.7030
 5789SOL    HW128829   4.312   0.932   3.550 -2.3340 -0.4329  0.9178
 5789SOL    HW228830   4.212   0.951   3.448 -0.0892  2.3891 -1.5195
 5790SOL     OW28831   0.898   2.356   4.086  0.0032 -0.0731  0.2319
 5790SOL    HW128832   0.811   2.321   4.065  0.1619 -1.2111  1.4753
 5790SOL    HW228833   0.886   2.369   4.180  1.0817  1.1582  0.1932
 5791SOL     OW28834   0.737   0.676   9.065 -0.3050  0.4285  0.1276
 5791SOL    HW128835   0.672   0.714   9.124  0.0710  0.6033  0.4281
 5791SOL    HW228836   0.715   0.706   8.977  1.0269  0.4496 -0.1984
 5792SOL     OW28837   1.136   1.601  15.744  0.0565 -0.2079  0.2475
 5792SOL    HW128838   1.068   1.553  15.791  1.6464  0.6044  3.4127
 5792SOL    HW228839   1.124   1.568  15.655  3.1194 -2.1379  0.5370
 5793SOL     OW28840   4.418   2.808   1.188 -0.0803 -0.2839 -0.5103
 5793SOL    HW128841   4.445   2.843   1.104 -2.0580  0.3039 -0.9110
 5793SOL    HW228842   4.382   2.725   1.155 -2.0605  1.1581 -1.9903
 5794SOL     OW28843   0.976   1.882   5.476  0.1974 -0.1227 -0.1153
 5794SOL    HW128844   1.017   1.899   5.561  0.7310  0.3894 -0.4714
 5794SOL    HW228845   0.889   1.914   5.499 -1.1979 -2.6013 -1.9536
 5795SOL     OW28846   0.996   4.433  14.628  0.5161 -0.1365 -0.2835
 5795SOL    HW128847   0.972   4.396  14.544  2.1765  3.2781 -2.2582
 5795SOL    HW228848   0.918   4.444  14.682  0.1128  3.1399 -1.5767
 5796SOL     OW28849   3.881   1.191   2.926  0.5578  0.1341 -0.3437
 5796SOL    HW128850   3.879   1.243   3.006  0.5637 -0.5759  0.1149
 5796SOL    HW228851   3.975   1.201   2.911  0.2285  2.3900 -0.8759
 5797SOL     OW28852   1.084   0.010   1.288  0.3969 -0.0257 -0.3140
 5797SOL    HW128853   1.084   4.644   1.243 -1.0025 -0.7918  1.1100
 5797SOL    HW228854   1.124   0.069   1.224 -0.1590 -0.4498 -1.0459
 5798SOL     OW28855   4.183   2.437  13.947 -0.3988  0.0293  0.7744
 5798SOL    HW128856   4.271   2.464  13.921  0.1498 -0.7722  1.8095
 5798SOL    HW228857   4.127   2.488  13.889  1.6146  0.3422 -0.9158
 5799SOL     OW28858   3.834   1.653  11.165  0.4370  0.5064  0.1634
 5799SOL    HW128859   3.767   1.663  11.234  0.2404  1.5517 -0.1801
 5799SOL    HW228860   3.834   1.732  11.111 -3.8253  0.5584  0.1968
 5800SOL     OW28861   0.318   2.835   7.286 -0.2840  0.0545  0.1255
 5800SOL    HW128862   0.231   2.798   7.297  0.0760 -0.2293  2.1649
 5800SOL    HW228863   0.307   2.883   7.205 -0.5289  0.4506  0.3970
 5801SOL     OW28864   0.942   0.407  14.188  0.0699  0.4072 -0.3157
 5801SOL    HW128865   1.030   0.445  14.193  0.5638 -1.0535  2.2101
 5801SOL    HW228866   0.942   0.384  14.095  0.6880 -1.2895  0.0991
 5802SOL     OW28867   3.106   3.376   2.416  0.4184  0.6329 -0.4127
 5802SOL    HW128868   3.067   3.355   2.331  2.2790  2.1532 -1.6269
 5802SOL    HW228869   3.198   3.351   2.405  0.4631  1.7174 -2.3902
 5803SOL     OW28870   3.857   1.204  16.710 -0.2390 -0.0404  0.2412
 5803SOL    HW128871   3.952   1.206  16.725  0.1787 -1.2936 -2.1662
 5803SOL    HW228872   3.850   1.109  16.716 -0.8606 -0.0246 -0.2394
 5804SOL     OW28873   1.005   0.734   6.132 -0.2498 -0.5301 -0.3413
 5804SOL    HW128874   1.032   0.659   6.078  1.3180 -0.5856  0.5128
 5804SOL    HW228875   0.994   0.697   6.219 -1.0617 -0.6018 -0.4788
 5805SOL     OW28876   4.643   0.633  13.258 -0.5718 -0.1635  0.6812
 5805SOL    HW128877   4.643   0.656  13.351  1.4315  0.1171  0.6117
 5805SOL    HW228878   4.641   0.537  13.258 -0.3451 -0.1817 -1.1934
 5806SOL     OW28879   0.955   1.126   6.673 -0.1958  0.0643 -0.1298
 5806SOL    HW128880   1.036   1.140   6.625  1.2552 -1.2296  1.9335
 5806SOL    HW228881   0.971   1.047   6.725 -2.7883 -0.9609 -0.8651
 5807SOL     OW28882   0.143   3.347   9.442  0.6375 -0.0059  0.0019
 5807SOL    HW128883   0.060   3.344   9.489  0.4376 -1.0887 -0.4284
 5807SOL    HW228884   0.166   3.439   9.457 -1.0576  0.1224  1.8320
 5808SOL     OW28885   2.389   2.959   0.405 -0.0271  0.0874 -0.0942
 5808SOL    HW128886   2.314   2.903   0.387 -0.3846  0.2941  0.7619
 5808SOL    HW228887   2.358   3.033   0.458 -0.8535  0.0791 -0.5758
 5809SOL     OW28888   0.830   1.327  11.783 -0.8700  0.8813  0.6898
 5809SOL    HW128889   0.757   1.354  11.727 -0.2070 -0.3668 -0.7701
 5809SOL    HW228890   0.794   1.346  11.869  1.4235  0.1926  1.7838
 5810SOL     OW28891   4.136   2.476  14.564 -0.6945 -0.5597 -0.1352
 5810SOL    HW128892   4.062   2.517  14.609 -0.5395  1.1238 -1.3900
 5810SOL    HW228893   4.152   2.397  14.615  1.9890  0.7728  1.0937
 5811SOL     OW28894   3.423   1.062  14.485 -0.2374  1.1898  0.1925
 5811SOL    HW128895   3.489   1.121  14.520  0.9094 -0.7784  1.4084
 5811SOL    HW228896   3.452   1.054  14.395  0.9946 -2.5853  0.9056
 5812SOL     OW28897   3.443   1.781   4.723  0.2012  0.1605 -0.1650
 5812SOL    HW128898   3.350   1.803   4.724  0.4398  1.2115 -3.9733
 5812SOL    HW228899   3.478   1.870   4.731  2.0271 -0.4010 -2.1765
 5813SOL     OW28900   0.984   4.417   5.411  0.2919 -0.0657 -0.6950
 5813SOL    HW128901   1.056   4.433   5.349  0.3952 -1.1302 -0.8547
 5813SOL    HW228902   0.914   4.426   5.347 -1.2426 -1.4230  0.8163
 5814SOL     OW28903   1.090   4.175   8.225  0.5047  0.1483  0.1166
 5814SOL    HW128904   1.027   4.152   8.294 -0.8569 -1.2276 -1.5952
 5814SOL    HW228905   1.167   4.207   8.272 -0.5605  1.3243  1.0679
 5815SOL     OW28906   3.566   1.978  12.636  0.2049 -0.1267  0.7834
 5815SOL    HW128907   3.551   2.024  12.553  0.3001 -1.1971  0.1747
 5815SOL    HW228908   3.594   2.060  12.675 -0.9741  0.4373  0.4435
 5816SOL     OW28909   2.455   1.732   0.367  0.3063  0.1836  0.3992
 5816SOL    HW128910   2.527   1.774   0.320  0.3091  0.6692  0.8372
 5816SOL    HW228911   2.455   1.765   0.457  0.1143 -0.2866  0.5701
 5817SOL     OW28912   4.190   3.717   5.812 -0.3379 -0.4770  0.1791
 5817SOL    HW128913   4.202   3.777   5.739  1.7373 -1.2472 -0.0933
 5817SOL    HW228914   4.160   3.636   5.771 -1.1672  0.4409 -1.0585
 5818SOL     OW28915   4.124   3.852   6.607  0.6042  0.4725 -0.1082
 5818SOL    HW128916   4.188   3.821   6.672 -1.1079 -0.0062  1.3589
 5818SOL    HW228917   4.181   3.889   6.540  0.9420  1.3371  0.6638
 5819SOL     OW28918   3.846   1.918   3.636  0.0528 -0.5468 -0.0464
 5819SOL    HW128919   3.760   1.903   3.674  0.2191  1.7766  1.2822
 5819SOL    HW228920   3.903   1.890   3.708 -0.6817 -1.0265  0.3364
 5820SOL     OW28921   0.199   2.526  11.473  0.4411 -0.0576 -0.9613
 5820SOL    HW128922   0.165   2.615  11.484 -0.9090 -0.8037  0.8752
 5820SOL    HW228923   0.266   2.524  11.541 -0.5168  1.8109  0.0354
 5821SOL     OW28924   3.604   0.339   6.069 -0.9148  1.0104  0.5821
 5821SOL    HW128925   3.689   0.347   6.111 -0.1976 -1.5504 -0.3564
 5821SOL    HW228926   3.565   0.424   6.049  0.3168  1.3842 -0.1781
 5822SOL     OW28927   4.230   3.380   7.295  0.1289  0.3297 -0.1837
 5822SOL    HW128928   4.203   3.378   7.386 -0.6380  0.1633 -0.4173
 5822SOL    HW228929   4.280   3.462   7.293 -2.4297  1.7996 -3.4238
 5823SOL     OW28930   0.306   2.034   7.287 -0.1550  0.3025  0.0436
 5823SOL    HW128931   0.327   2.055   7.196  1.0738 -1.7724 -0.1565
 5823SOL    HW228932   0.310   2.125   7.317  1.4554 -0.1397  1.1812
 5824SOL     OW28933   0.862   2.121   6.086 -0.2224  0.9215 -0.1376
 5824SOL    HW128934   0.797   2.053   6.107 -0.3863  1.0591 -0.2044
 5824SOL    HW228935   0.843   2.131   5.993 -0.4026  1.5097 -0.0333
 5825SOL     OW28936   3.161   4.018  12.678 -0.1557 -0.3433 -0.3442
 5825SOL    HW128937   3.191   3.933  12.708 -0.4693 -0.6908 -1.0076
 5825SOL    HW228938   3.235   4.078  12.689  0.0094 -0.6437  0.1581
 5826SOL     OW28939   0.877   0.809   9.753  0.6748  0.1154 -0.1214
 5826SOL    HW128940   0.964   0.791   9.718  1.3934  2.7180  0.3148
 5826SOL    HW228941   0.907   0.863   9.826  1.5067 -0.4769 -0.0219
 5827SOL     OW28942   4.546   4.401   8.529  0.8344  0.7866  0.3825
 5827SOL    HW128943   4.562   4.316   8.488 -0.1138  1.5045 -1.4626
 5827SOL    HW228944   4.631   4.430   8.561  1.2720  0.4468 -0.4634
 5828SOL     OW28945   3.140   2.378   9.016 -0.5033 -0.4787 -0.5661
 5828SOL    HW128946   3.132   2.312   8.947 -1.6723 -2.1797  1.2210
 5828SOL    HW228947   3.121   2.326   9.094 -0.4162 -1.5953 -1.2916
 5829SOL     OW28948   3.101   3.011   0.615  0.6562  0.0961  0.1438
 5829SOL    HW128949   3.039   3.044   0.550  1.0254  1.5949  0.5552
 5829SOL    HW228950   3.062   3.046   0.695 -1.7166 -0.0800 -0.9537
 5830SOL     OW28951   2.067   2.289   5.936 -0.0684 -0.2691  0.0630
 5830SOL    HW128952   2.151   2.287   5.890 -0.8049  0.0085 -1.3034
 5830SOL    HW228953   2.097   2.317   6.023 -0.2352  0.5950 -0.1558
 5831SOL     OW28954   0.231   4.579  16.886  0.1504 -0.0183 -0.0750
 5831SOL    HW128955   0.201   4.593  16.976  1.6674 -1.2247  0.6261
 5831SOL    HW228956   0.307   4.524  16.907  0.5542  0.7890  0.6141
 5832SOL     OW28957   2.820   3.848   2.035  0.1719  0.2273 -0.2492
 5832SOL    HW128958   2.874   3.770   2.017 -2.8777 -1.5626 -1.6059
 5832SOL    HW228959   2.737   3.806   2.058  0.3426 -0.7491 -1.3731
 5833SOL     OW28960   4.528   3.797  13.141 -0.1265 -0.2197  0.2198
 5833SOL    HW128961   4.531   3.703  13.124 -1.7269 -0.3915  0.9115
 5833SOL    HW228962   4.565   3.798  13.230  0.2126 -0.3515  0.0832
 5834SOL     OW28963   4.345   1.325   5.450  0.1645  0.4261 -0.1321
 5834SOL    HW128964   4.286   1.273   5.396  2.0568 -2.5758  0.7066
 5834SOL    HW228965   4.330   1.286   5.536 -0.2710  1.6355  0.3412
 5835SOL     OW28966   0.466   0.915   7.283  0.6509 -0.3123  0.2286
 5835SOL    HW128967   0.465   0.852   7.211 -3.0730 -0.8037  0.7275
 5835SOL    HW228968   0.383   0.913   7.330 -0.4726 -4.4033 -1.9383
 5836SOL     OW28969   2.046   2.371   6.855 -0.0449  0.2712 -0.3209
 5836SOL    HW128970   2.088   2.290   6.882 -0.2051  0.5431  0.7696
 5836SOL    HW228971   2.109   2.424   6.904 -0.0607 -0.5101  0.5467
 5837SOL     OW28972   4.381   3.270  14.590 -0.4345 -0.3649 -0.0927
 5837SOL    HW128973   4.287   3.256  14.581 -0.9891  0.6862  4.0524
 5837SOL    HW228974   4.379   3.333  14.662  0.1117  1.3816 -1.6096
 5838SOL     OW28975   3.940   1.838   6.832 -0.5719  0.0507 -0.3454
 5838SOL    HW128976   3.850   1.843   6.862 -0.8187 -2.7272 -0.6256
 5838SOL    HW228977   3.938   1.863   6.740  0.0399  1.1428 -0.0630
 5839SOL     OW28978   4.378   1.743   5.078 -0.1756 -0.5422 -0.3951
 5839SOL    HW128979   4.403   1.719   5.167  3.8109  0.9876 -1.0647
 5839SOL    HW228980   4.283   1.735   5.080 -0.0487 -1.2242  2.7967
 5840SOL     OW28981   0.633   4.193   0.034  0.3006  0.0926  0.3727
 5840SOL    HW128982   0.661   4.255   0.100 -0.6697 -0.2736  1.1303
 5840SOL    HW228983   0.545   4.186   0.072  0.6525 -2.3268  0.7502
 5841SOL     OW28984   0.127   4.638   4.075  0.5457 -0.6132  0.0046
 5841SOL    HW128985   0.042   4.594   4.072  1.3251 -2.2346  1.5950
 5841SOL    HW228986   0.104   4.706   4.138  0.3016 -0.1719 -0.5584
 5842SOL     OW28987   3.122   0.778   8.557  0.3057 -0.1858 -0.5507
 5842SOL    HW128988   3.168   0.809   8.635 -1.1913  2.7773 -0.8644
 5842SOL    HW228989   3.052   0.842   8.549  0.1305 -0.3167 -0.0466
 5843SOL     OW28990   4.020   3.218  12.749  0.0756  0.0465  0.6430
 5843SOL    HW128991   3.972   3.282  12.696  1.8105 -0.1097 -1.1029
 5843SOL    HW228992   4.059   3.280  12.810  0.5954  1.5357 -1.1914
 5844SOL     OW28993   3.763   4.626   8.766 -0.2947 -0.4092  0.5206
 5844SOL    HW128994   3.792   4.535   8.772 -1.0026 -0.6074  0.8232
 5844SOL    HW228995   3.822   4.681   8.817 -1.3613  2.0594 -0.9203
 5845SOL     OW28996   1.815   4.040   8.266  0.1463 -0.4783  0.2580
 5845SOL    HW128997   1.816   3.950   8.232  0.0879 -1.1326  1.9880
 5845SOL    HW228998   1.813   4.040   8.362 -1.9273 -1.7474  0.2215
 5846SOL     OW28999   2.861   0.586   0.791  0.1443  0.5088 -0.3217
 5846SOL    HW129000   2.921   0.562   0.863  0.7666 -0.1925 -1.0653
 5846SOL    HW229001   2.931   0.629   0.742 -1.1714  0.6309 -2.0743
 5847SOL     OW29002   3.636   2.042   0.269  0.1306  0.1198  0.0561
 5847SOL    HW129003   3.577   2.110   0.238 -0.9499 -0.4474  0.8870
 5847SOL    HW229004   3.674   2.077   0.351  1.7084  0.7790 -0.9453
 5848SOL     OW29005   3.448   0.124   3.978 -0.5392 -0.2309  0.0966
 5848SOL    HW129006   3.408   0.117   3.891  1.8673 -0.9993 -0.9468
 5848SOL    HW229007   3.401   0.059   4.030 -0.4996 -0.3388 -0.0021
 5849SOL     OW29008   2.865   1.271  16.505 -0.3450  0.1894  0.0240
 5849SOL    HW129009   2.929   1.212  16.466 -1.0122 -1.4012  1.3636
 5849SOL    HW229010   2.835   1.317  16.427  0.1769  0.6315  0.0848
 5850SOL     OW29011   3.840   4.100   6.658  0.0159  0.4903  0.2588
 5850SOL    HW129012   3.882   4.186   6.665  1.4249 -0.0390 -1.9199
 5850SOL    HW229013   3.906   4.042   6.695  0.7696  2.0925  1.4165
 5851SOL     OW29014   1.434   0.813   5.488  0.6693  0.7706 -0.8485
 5851SOL    HW129015   1.414   0.721   5.471 -0.1188  0.2746  2.7347
 5851SOL    HW229016   1.404   0.852   5.406  1.0087 -1.9267 -2.2311
 5852SOL     OW29017   4.715   1.906   7.590 -0.0958  0.0998  0.1619
 5852SOL    HW129018   4.683   1.966   7.658 -2.2198 -0.0272 -0.7270
 5852SOL    HW229019   4.642   1.845   7.588 -0.1265  0.0560  2.1746
 5853SOL     OW29020   4.283   3.555  13.176  0.4302  0.3266  0.1070
 5853SOL    HW129021   4.376   3.541  13.160  0.0191 -2.8753  0.5256
 5853SOL    HW229022   4.262   3.483  13.236  1.2586  0.3211  0.3911
 5854SOL     OW29023   4.644   0.464  16.625  0.5254  0.2643  0.5439
 5854SOL    HW129024   4.566   0.518  16.637  0.2438 -0.6133  2.7608
 5854SOL    HW229025   4.619   0.376  16.653  1.0977 -0.0467  0.0656
 5855SOL     OW29026   2.457   2.779   1.977  0.4649 -0.0001 -0.3950
 5855SOL    HW129027   2.469   2.817   2.063  0.2717 -0.0081 -0.3638
 5855SOL    HW229028   2.369   2.745   1.995 -0.0711  1.3884 -0.4500
 5856SOL     OW29029   2.564   4.330   4.924  0.5894 -0.7548  0.0052
 5856SOL    HW129030   2.592   4.419   4.946 -1.1958 -0.1440 -0.2407
 5856SOL    HW229031   2.643   4.283   4.952  0.9720 -0.9202 -1.3273
 5857SOL     OW29032   3.649   1.660  12.074  0.3531  0.3744  0.2344
 5857SOL    HW129033   3.736   1.637  12.042 -0.1680 -0.6429 -0.4376
 5857SOL    HW229034   3.676   1.691  12.161 -2.1259 -1.3793  1.6252
 5858SOL     OW29035   3.382   2.429   1.801  0.0487 -0.0510 -0.1567
 5858SOL    HW129036   3.287   2.414   1.797  0.1723 -0.9669  0.1855
 5858SOL    HW229037   3.418   2.383   1.877 -0.4224  0.3395  0.3012
 5859SOL     OW29038   2.237   4.471   6.309 -0.5333  0.0807 -0.3050
 5859SOL    HW129039   2.205   4.381   6.321  0.0327  0.0376  0.9824
 5859SOL    HW229040   2.330   4.448   6.318 -1.4176 -3.0433  1.0196
 5860SOL     OW29041   1.867   4.465   0.661 -0.5523 -0.1005  0.4624
 5860SOL    HW129042   1.928   4.422   0.720 -0.6142 -0.6541  0.1248
 5860SOL    HW229043   1.812   4.389   0.642 -2.7512  1.8143 -0.8783
 5861SOL     OW29044   3.866   2.262  13.820 -0.1604 -0.3976  0.4667
 5861SOL    HW129045   3.918   2.191  13.858 -1.0576 -0.8129  0.9242
 5861SOL    HW229046   3.785   2.210  13.823 -0.3498 -0.0827  0.8837
 5862SOL     OW29047   1.843   2.698   4.231  0.4721  0.3505  0.3230
 5862SOL    HW129048   1.767   2.660   4.188 -0.4274 -0.6483  2.8208
 5862SOL    HW229049   1.910   2.687   4.163 -0.1407  0.6673 -0.3257
 5863SOL     OW29050   2.416   0.274  11.988  0.1070 -0.1669  0.6812
 5863SOL    HW129051   2.478   0.253  11.918 -1.5482 -0.2303 -0.7661
 5863SOL    HW229052   2.461   0.224  12.056 -0.0300 -1.6629 -0.3214
 5864SOL     OW29053   2.952   1.938   1.321 -0.8037 -0.1118  0.0290
 5864SOL    HW129054   2.926   1.888   1.399  0.4217  0.6686  0.9385
 5864SOL    HW229055   2.871   1.921   1.272  0.5021 -0.6965 -1.9110
 5865SOL     OW29056   0.902   3.920   8.683  0.3201 -0.3390  0.1553
 5865SOL    HW129057   0.917   4.000   8.734 -1.7610  0.8720 -1.0717
 5865SOL    HW229058   0.812   3.909   8.716 -0.1842 -0.3605 -1.2190
 5866SOL     OW29059   1.931   2.185   4.421  0.2201  0.1264 -0.0018
 5866SOL    HW129060   1.849   2.152   4.382  1.0643  0.5725 -2.1695
 5866SOL    HW229061   1.898   2.221   4.503 -0.8033  2.9515 -1.6504
 5867SOL     OW29062   4.372   2.454   8.483  0.3034 -0.0897  0.0547
 5867SOL    HW129063   4.426   2.376   8.497  0.9900  0.5966  1.2033
 5867SOL    HW229064   4.378   2.482   8.574 -1.1135  0.3996 -0.0044
 5868SOL     OW29065   4.380   3.548   3.434 -0.8246  0.1053 -0.5363
 5868SOL    HW129066   4.464   3.531   3.391  1.2102  0.9359  3.1897
 5868SOL    HW229067   4.385   3.488   3.508 -1.6875  0.7705  0.0566
 5869SOL     OW29068   0.515   4.354   1.890 -0.0349 -0.1946 -0.3811
 5869SOL    HW129069   0.522   4.446   1.866  0.3953 -0.3976 -1.0327
 5869SOL    HW229070   0.420   4.347   1.875 -0.1110 -1.0004  0.4471
 5870SOL     OW29071   2.733   0.529   5.147  0.0662  0.3088  0.3999
 5870SOL    HW129072   2.700   0.612   5.180 -2.2980  0.5470 -2.5788
 5870SOL    HW229073   2.686   0.524   5.064 -1.1901 -1.7445  1.2230
 5871SOL     OW29074   4.409   0.621  16.534  0.0163  0.3968 -0.1507
 5871SOL    HW129075   4.362   0.686  16.482 -3.6014 -2.0900 -0.0195
 5871SOL    HW229076   4.445   0.679  16.601  1.2193 -0.9501  0.3635
 5872SOL     OW29077   1.106   0.724   5.380  0.1806 -0.5148  0.4111
 5872SOL    HW129078   1.087   0.708   5.472 -0.4944  2.5795  0.8106
 5872SOL    HW229079   1.188   0.676   5.372 -1.4465 -2.6212 -3.4954
 5873SOL     OW29080   3.062   2.385  11.143 -0.0376  0.3425 -0.2167
 5873SOL    HW129081   3.091   2.321  11.079  0.9658 -0.5640  1.1422
 5873SOL    HW229082   2.966   2.379  11.146  0.0661 -1.0773  0.0284
 5874SOL     OW29083   3.543   3.134  12.708 -0.0498  0.3761 -0.2161
 5874SOL    HW129084   3.595   3.212  12.728 -1.0075  1.3344 -1.4426
 5874SOL    HW229085   3.603   3.092  12.647 -0.4895 -0.6148  0.0315
 5875SOL     OW29086   0.745   1.202   9.787 -0.1843 -0.1433 -0.1888
 5875SOL    HW129087   0.684   1.245   9.848  1.1015  2.8214 -1.0110
 5875SOL    HW229088   0.778   1.134   9.846  0.7137  0.5208  0.0738
 5876SOL     OW29089   4.056   3.439   5.766 -0.5847 -0.0506 -0.0915
 5876SOL    HW129090   4.110   3.362   5.777  1.8971  1.8887  1.3736
 5876SOL    HW229091   3.967   3.409   5.784 -0.9312  0.0504 -1.6602
 5877SOL     OW29092   4.493   1.965   9.504  0.8951 -0.5075 -0.1330
 5877SOL    HW129093   4.485   1.882   9.550  0.8182  0.2434  1.1827
 5877SOL    HW229094   4.403   1.987   9.480  1.3885  1.5798 -0.0313
 5878SOL     OW29095   3.188   3.422   0.840 -0.2424  0.0558  0.1960
 5878SOL    HW129096   3.176   3.437   0.747  2.7431  1.8707  0.0944
 5878SOL    HW229097   3.228   3.504   0.870 -1.1990  1.1418 -1.5578
 5879SOL     OW29098   3.044   0.470   3.115 -0.6331 -0.2986  0.0827
 5879SOL    HW129099   3.060   0.468   3.020 -0.5784 -0.3396  0.0933
 5879SOL    HW229100   2.960   0.517   3.118 -0.9853 -1.0555  1.5687
 5880SOL     OW29101   0.850   1.619  10.603  0.1297 -0.7515 -0.1892
 5880SOL    HW129102   0.882   1.532  10.580 -0.1340 -1.1949  1.1709
 5880SOL    HW229103   0.788   1.597  10.672 -0.5319  0.4530 -0.3946
 5881SOL     OW29104   2.775   2.997  15.016 -0.4284  0.1035  0.4764
 5881SOL    HW129105   2.704   2.999  15.080 -2.0019 -0.9619 -1.2265
 5881SOL    HW229106   2.751   2.914  14.974  0.7096  0.5359 -1.0494
 5882SOL     OW29107   2.112   1.237   5.526 -0.3368 -0.2708  0.4315
 5882SOL    HW129108   2.181   1.298   5.501 -1.3915  0.6796 -0.2353
 5882SOL    HW229109   2.089   1.274   5.611 -1.0143  0.0227  0.1227
 5883SOL     OW29110   3.948   4.610  12.146  0.6125  0.4067  0.1214
 5883SOL    HW129111   3.906   4.533  12.183 -1.0735  1.3229  0.1554
 5883SOL    HW229112   4.003   4.578  12.075  0.4090  1.5687 -0.5748
 5884SOL     OW29113   4.439   3.377   7.635  0.6391 -0.0841 -0.7181
 5884SOL    HW129114   4.510   3.421   7.588  0.2930 -1.6033 -2.6416
 5884SOL    HW229115   4.488   3.338   7.706 -1.3807  1.1953  1.3783
 5885SOL     OW29116   4.142   0.374   4.226 -0.3900  0.0411 -0.2046
 5885SOL    HW129117   4.092   0.403   4.150 -0.0098  1.5407  0.1095
 5885SOL    HW229118   4.130   0.281   4.207  0.5903  0.3109 -2.1626
 5886SOL     OW29119   2.454   1.331  16.914  0.2070  0.6991  0.0596
 5886SOL    HW129120   2.449   1.267  16.842 -1.8813  1.8761 -0.8401
 5886SOL    HW229121   2.456   1.285  16.998 -1.1991 -0.1924 -0.3841
 5887SOL     OW29122   2.819   3.919  17.240 -0.0364 -0.3668  0.3947
 5887SOL    HW129123   2.858   3.883  17.320  0.5098  2.2486  1.2972
 5887SOL    HW229124   2.896   3.940  17.188 -1.6843 -1.0398 -2.3396
 5888SOL     OW29125   1.575   3.156   5.373 -0.0542 -0.0717  0.0154
 5888SOL    HW129126   1.502   3.095   5.376  0.8344 -1.1207  0.1097
 5888SOL    HW229127   1.633   3.115   5.437  0.0176 -0.3826 -0.2474
 5889SOL     OW29128   4.490   2.983  11.749 -0.0894  0.5686  0.4597
 5889SOL    HW129129   4.408   3.019  11.715  0.1542  0.1658 -0.5386
 5889SOL    HW229130   4.534   2.956  11.669  1.2878  1.3201  0.9633
 5890SOL     OW29131   4.616   2.137   2.840  0.3227  0.0917 -0.4621
 5890SOL    HW129132   4.695   2.124   2.893  0.0621 -0.2058 -0.1444
 5890SOL    HW229133   4.659   2.131   2.755  1.3257 -0.8497  0.1060
 5891SOL     OW29134   2.864   4.249   8.573 -0.5112 -0.3053  0.0887
 5891SOL    HW129135   2.860   4.159   8.542  1.7082  0.4406 -2.3187
 5891SOL    HW229136   2.776   4.279   8.596 -0.3958 -0.5033  0.7965
 5892SOL     OW29137   2.133   0.176   0.242 -0.1460 -0.0813 -0.1704
 5892SOL    HW129138   2.192   0.224   0.183  0.7648  0.8810  1.5297
 5892SOL    HW229139   2.063   0.136   0.190 -0.0521 -1.2575  0.6213
 5893SOL     OW29140   3.406   1.048   6.770  0.2441 -0.2815  0.0034
 5893SOL    HW129141   3.356   0.966   6.775  2.5798 -1.6584  0.4881
 5893SOL    HW229142   3.333   1.105   6.793  0.6162  0.2140 -0.0514
 5894SOL     OW29143   2.681   0.591   7.685 -0.1732 -0.2421 -0.2655
 5894SOL    HW129144   2.675   0.682   7.658  0.7063  0.5653  2.2805
 5894SOL    HW229145   2.656   0.607   7.776  0.2315  1.6391 -0.4913
 5895SOL     OW29146   3.707   1.932   5.797 -0.3228  0.2404 -0.2374
 5895SOL    HW129147   3.753   1.979   5.867 -1.1222 -1.8299  1.6626
 5895SOL    HW229148   3.757   1.852   5.780  2.9015  2.1313  0.3344
 5896SOL     OW29149   2.170   0.684   6.945  0.0383 -0.7246 -0.1533
 5896SOL    HW129150   2.213   0.743   6.883 -3.3898  1.1333 -0.7522
 5896SOL    HW229151   2.077   0.694   6.930  0.0520 -2.3005 -1.2388
 5897SOL     OW29152   0.922   1.844   2.620 -0.1184  0.7274 -0.2905
 5897SOL    HW129153   1.014   1.864   2.607  0.3539 -0.4318  1.2113
 5897SOL    HW229154   0.885   1.880   2.539 -0.4684 -0.3974 -0.6327
 5898SOL     OW29155   0.786   2.294   6.424  0.3280 -0.2137 -0.2425
 5898SOL    HW129156   0.739   2.212   6.414  1.8885 -1.0910 -0.2893
 5898SOL    HW229157   0.843   2.278   6.499  3.1919  2.2641 -1.8555
 5899SOL     OW29158   4.012   4.158   8.580 -0.1396 -0.0011  0.3258
 5899SOL    HW129159   3.975   4.200   8.503  2.7445  2.8138  0.4955
 5899SOL    HW229160   3.963   4.076   8.578  0.5904 -0.3929 -2.2728
 5900SOL     OW29161   0.065   1.230   6.453  0.1991  0.0701  0.3604
 5900SOL    HW129162   0.095   1.163   6.392  0.2955 -1.3619  1.9813
 5900SOL    HW229163   0.106   1.203   6.535 -0.8338 -0.3838  0.7304
 5901SOL     OW29164   0.581   0.684   0.492  0.1746 -0.3822  0.5338
 5901SOL    HW129165   0.495   0.682   0.534 -0.1010  3.0652  0.1514
 5901SOL    HW229166   0.592   0.591   0.508  0.9773 -0.1981  1.0228
 5902SOL     OW29167   3.235   4.643   5.656  0.4199 -0.3064  0.0502
 5902SOL    HW129168   3.180   4.679   5.726 -0.2517  0.0421 -0.6570
 5902SOL    HW229169   3.313   4.678   5.699  1.6611 -2.2988 -0.5665
 5903SOL     OW29170   1.048   3.522   5.281  0.1184 -0.6552 -0.5364
 5903SOL    HW129171   0.988   3.568   5.339  0.8718  1.1531 -1.1659
 5903SOL    HW229172   1.086   3.466   5.348 -1.3205  0.1433  0.9410
 5904SOL     OW29173   1.017   1.113   7.646 -0.7307 -0.2674  0.3734
 5904SOL    HW129174   1.019   1.197   7.690  1.1544 -0.2385  0.2185
 5904SOL    HW229175   1.016   1.050   7.718 -2.2570  0.1986  0.7649
 5905SOL     OW29176   3.504   2.720   8.260  0.2925  0.5729 -0.1907
 5905SOL    HW129177   3.411   2.720   8.280  0.0757 -0.2338 -1.2526
 5905SOL    HW229178   3.505   2.674   8.177  0.4847 -1.8800  1.1814
 5906SOL     OW29179   3.945   3.657   5.936  0.6998  0.1192 -0.0571
 5906SOL    HW129180   3.966   3.575   5.892 -1.3299 -0.7336  0.5567
 5906SOL    HW229181   4.004   3.717   5.890 -0.5624  0.5674 -1.1025
 5907SOL     OW29182   2.216   0.521   9.574 -0.4961  0.0845  0.1768
 5907SOL    HW129183   2.249   0.587   9.635 -0.8347  0.2496  0.1815
 5907SOL    HW229184   2.284   0.453   9.566 -1.4679 -1.0690  1.9589
 5908SOL     OW29185   2.720   0.747   0.488  0.1202 -0.5637  0.3232
 5908SOL    HW129186   2.794   0.696   0.456  1.6142  0.4059  2.2399
 5908SOL    HW229187   2.714   0.710   0.576  1.4598 -0.8774  0.2689
 5909SOL     OW29188   1.068   2.715  14.708  0.4895  0.0076  0.1601
 5909SOL    HW129189   1.127   2.786  14.735 -1.2976  1.7165 -0.4132
 5909SOL    HW229190   1.014   2.725  14.787 -0.1912 -0.4236 -0.2519
 5910SOL     OW29191   2.120   4.323   4.905  0.4794  0.2848 -0.5725
 5910SOL    HW129192   2.065   4.309   4.982  0.3832 -0.1554 -0.7264
 5910SOL    HW229193   2.049   4.358   4.850  1.6147  1.3790 -1.3568
 5911SOL     OW29194   3.072   1.293   5.268  0.0167 -0.4882 -0.3774
 5911SOL    HW129195   3.150   1.348   5.258 -0.1615 -0.2838 -0.6433
 5911SOL    HW229196   3.090   1.227   5.201 -0.3163 -1.9948  1.0189
 5912SOL     OW29197   3.609   3.232   9.930  0.0990  0.5331 -0.7028
 5912SOL    HW129198   3.652   3.313   9.957 -2.6274  1.2651  1.4754
 5912SOL    HW229199   3.519   3.261   9.950 -0.2360 -0.8785 -0.1729
 5913SOL     OW29200   4.612   2.271   7.251 -1.0039 -0.0209 -0.1212
 5913SOL    HW129201   4.646   2.273   7.341 -1.1029 -1.3363 -0.0538
 5913SOL    HW229202   4.549   2.342   7.249  0.2976  1.1832  1.7864
 5914SOL     OW29203   0.865   4.023   9.877 -0.3536 -0.0039  0.4444
 5914SOL    HW129204   0.869   3.934   9.843  0.6265  0.2264 -0.0480
 5914SOL    HW229205   0.897   4.010   9.966  0.8168 -0.3845 -0.0409
 5915SOL     OW29206   3.984   4.334   2.767  0.3194 -1.0324 -0.7487
 5915SOL    HW129207   4.066   4.352   2.813  0.8693 -0.4068 -1.9743
 5915SOL    HW229208   4.011   4.249   2.732  2.9485  0.4964 -2.4067
 5916SOL     OW29209   0.597   0.468   8.013 -0.6823 -0.0460  0.0817
 5916SOL    HW129210   0.568   0.382   7.981  0.4867  0.1047 -1.3913
 5916SOL    HW229211   0.692   0.453   8.016 -0.9218 -1.5363  0.4583
 5917SOL     OW29212   3.434   0.637   4.285  0.2906 -0.6195 -0.4440
 5917SOL    HW129213   3.387   0.616   4.204  0.1864  0.4150 -0.6611
 5917SOL    HW229214   3.400   0.727   4.292 -0.6021 -0.9487 -0.5715
 5918SOL     OW29215   4.669   1.548  13.400 -0.0170 -0.1754  0.0834
 5918SOL    HW129216   4.693   1.640  13.415  0.7645 -0.3193 -0.3010
 5918SOL    HW229217   4.688   1.535  13.307  2.4871 -0.2563  0.6011
 5919SOL     OW29218   0.089   2.213   5.277  0.1119  0.2516  0.3640
 5919SOL    HW129219   0.151   2.155   5.233  1.3857  0.9820  1.1932
 5919SOL    HW229220   0.143   2.292   5.275  0.6510 -0.1620 -1.3094
 5920SOL     OW29221   3.134   1.791   3.828  0.0781 -0.1295  0.0412
 5920SOL    HW129222   3.177   1.876   3.825 -0.0564 -0.0536  0.2602
 5920SOL    HW229223   3.101   1.780   3.739 -1.3585 -0.6873  0.6364
 5921SOL     OW29224   2.218   0.346   5.224 -0.3956 -0.3341  0.1354
 5921SOL    HW129225   2.278   0.402   5.175  2.1940 -1.9688  1.4082
 5921SOL    HW229226   2.282   0.286   5.263  1.1149  0.1105 -1.6504
 5922SOL     OW29227   4.655   3.508   7.516  0.6540  0.0727  0.0108
 5922SOL    HW129228   4.672   3.575   7.451  1.3458 -0.5855 -0.4918
 5922SOL    HW229229   0.016   3.454   7.527 -0.2963 -1.3597 -0.1610
 5923SOL     OW29230   3.694   3.079   6.370 -0.2860  0.2744  0.5421
 5923SOL    HW129231   3.670   3.007   6.312 -0.5060 -0.3578  1.4146
 5923SOL    HW229232   3.677   3.159   6.320  2.9632  1.2063  0.9010
 5924SOL     OW29233   0.516   1.893   7.990  0.0423  0.5268 -0.1675
 5924SOL    HW129234   0.434   1.883   7.942  1.5551  1.7872 -3.0158
 5924SOL    HW229235   0.485   1.964   8.046  0.1615 -0.4543  1.1591
 5925SOL     OW29236   0.508   0.835   3.176 -0.5711  0.0971  0.0561
 5925SOL    HW129237   0.498   0.918   3.128  1.7938  0.6092  0.4451
 5925SOL    HW229238   0.541   0.788   3.100  0.0374  0.5937  0.0127
 5926SOL     OW29239   3.559   0.037   4.530 -0.3967 -0.5052 -0.1656
 5926SOL    HW129240   3.596   4.715   4.609  0.3609  1.0745  0.2910
 5926SOL    HW229241   3.575   4.691   4.461  0.7252 -2.4218  1.8935
 5927SOL     OW29242   0.232   1.102   2.992  0.6548 -0.6663  0.1795
 5927SOL    HW129243   0.158   1.056   2.953 -1.3422  1.6058  1.2739
 5927SOL    HW229244   0.188   1.138   3.069  0.2930  0.5228 -0.5755
 5928SOL     OW29245   0.921   1.141  13.474  0.0120 -0.6484  0.5820
 5928SOL    HW129246   0.885   1.053  13.484 -0.7589 -0.4136 -0.0840
 5928SOL    HW229247   0.855   1.198  13.515 -0.9048 -0.7988 -0.6716
 5929SOL     OW29248   0.589   0.211   8.239  0.4208  0.0908  0.0906
 5929SOL    HW129249   0.636   0.243   8.316  0.8662  1.6907 -0.8377
 5929SOL    HW229250   0.509   0.264   8.230  0.9583  0.4793 -2.5111
 5930SOL     OW29251   4.302   2.241   8.274 -0.5473  0.0866  0.4445
 5930SOL    HW129252   4.212   2.225   8.245 -1.4565  2.6028  1.8176
 5930SOL    HW229253   4.293   2.328   8.313  1.6737  0.2853  0.4709
 5931SOL     OW29254   0.899   1.247   8.955 -0.6525 -0.0562  0.9228
 5931SOL    HW129255   0.976   1.237   9.009  0.0769  2.8060  0.4242
 5931SOL    HW229256   0.865   1.157   8.957  0.2907 -0.4646 -1.1850
 5932SOL     OW29257   2.977   4.187   1.489 -0.2513 -0.0911 -0.6484
 5932SOL    HW129258   2.994   4.103   1.532 -2.2468  0.0114  0.3394
 5932SOL    HW229259   2.933   4.160   1.409 -1.0523 -0.8481  0.0440
 5933SOL     OW29260   3.183   3.651  16.546 -0.0952 -0.5935 -0.4960
 5933SOL    HW129261   3.201   3.566  16.507  0.4964 -1.1325  0.9636
 5933SOL    HW229262   3.263   3.701  16.531  0.2967 -0.8959  0.5539
 5934SOL     OW29263   2.236   2.733   0.129  0.1610  0.5667  0.1362
 5934SOL    HW129264   2.220   2.827   0.115  0.0507  0.8316  1.9882
 5934SOL    HW229265   2.231   2.726   0.225  0.3951  0.9405  0.1754
 5935SOL     OW29266   1.132   0.895   4.124  0.1278  0.6559  0.3371
 5935SOL    HW129267   1.194   0.849   4.068 -1.6587 -2.3682  0.8213
 5935SOL    HW229268   1.102   0.968   4.070  1.9279  0.1599 -1.3007
 5936SOL     OW29269   1.973   3.003   7.891  0.0922  0.4932 -0.3516
 5936SOL    HW129270   1.973   2.995   7.987  2.1188 -0.5699 -0.4332
 5936SOL    HW229271   2.065   3.027   7.876  0.2057 -0.8420 -1.7444
 5937SOL     OW29272   0.230   1.401   5.961 -0.0664  0.7709  0.1317
 5937SOL    HW129273   0.181   1.344   6.020  0.8133  1.1219  1.2166
 5937SOL    HW229274   0.242   1.343   5.886 -0.9050 -0.1863  0.7327
 5938SOL     OW29275   1.363   0.870   3.944  0.0600  1.6249  0.9153
 5938SOL    HW129276   1.330   0.880   3.855 -2.3900 -0.8467  1.5615
 5938SOL    HW229277   1.451   0.907   3.954 -0.6806  3.3859  1.1003
 5939SOL     OW29278   2.378   1.896   7.281 -0.9458 -0.2721 -0.0763
 5939SOL    HW129279   2.379   1.897   7.376 -1.2993 -0.1119 -0.0755
 5939SOL    HW229280   2.472   1.883   7.265 -1.1089 -0.0321 -1.2856
 5940SOL     OW29281   2.014   3.318   7.884  0.0035  0.4630  0.1899
 5940SOL    HW129282   2.049   3.365   7.809  0.5691  0.6792  0.5873
 5940SOL    HW229283   2.092   3.272   7.915 -0.3362 -1.4402 -1.7526
 5941SOL     OW29284   0.893   2.659   5.499  0.2382  0.0739 -0.0892
 5941SOL    HW129285   0.905   2.735   5.556 -1.4134 -1.0875  1.8093
 5941SOL    HW229286   0.957   2.598   5.536  0.4855  0.8266  0.7219
 5942SOL     OW29287   3.259   1.274   3.395  0.3315 -0.3043 -0.2798
 5942SOL    HW129288   3.309   1.328   3.457  0.6282 -3.2598  2.0940
 5942SOL    HW229289   3.197   1.336   3.358 -0.1308 -0.4287  0.2901
 5943SOL     OW29290   3.447   4.323   7.273  0.1427  0.5972  0.0731
 5943SOL    HW129291   3.512   4.382   7.234 -0.6904  0.8251 -0.9654
 5943SOL    HW229292   3.504   4.266   7.325  0.3653 -0.6760 -1.5614
 5944SOL     OW29293   4.006   4.434   7.453 -0.5196  0.2761  0.6726
 5944SOL    HW129294   3.982   4.441   7.545  0.9012 -1.8691  1.2016
 5944SOL    HW229295   4.101   4.420   7.456 -0.6141 -1.0017 -2.2328
 5945SOL     OW29296   1.407   1.877   5.917  0.1333  0.6426  0.2268
 5945SOL    HW129297   1.501   1.892   5.924 -0.5734  4.9211  0.6790
 5945SOL    HW229298   1.377   1.951   5.864 -0.2387  0.1888 -0.2025
 5946SOL     OW29299   2.251   0.844   6.680 -0.3736 -0.1752 -0.3764
 5946SOL    HW129300   2.201   0.918   6.714 -0.8852 -0.5330 -0.3631
 5946SOL    HW229301   2.290   0.874   6.598 -2.0464 -0.0875 -1.1296
 5947SOL     OW29302   0.390   3.641   7.291 -0.3493 -0.0888 -0.5160
 5947SOL    HW129303   0.413   3.576   7.357  0.5725 -0.1312 -0.8749
 5947SOL    HW229304   0.359   3.710   7.350 -1.4822 -1.0158 -0.0241
 5948SOL     OW29305   1.340   3.528   8.454  0.4516 -0.3856  0.1292
 5948SOL    HW129306   1.303   3.591   8.516  1.7900 -0.3506  0.9050
 5948SOL    HW229307   1.279   3.454   8.446  0.5752 -0.6256  1.3859
 5949SOL     OW29308   1.635   3.461   6.678  0.0954  0.4353  0.1742
 5949SOL    HW129309   1.635   3.365   6.684  1.2910  0.5239  1.3746
 5949SOL    HW229310   1.660   3.480   6.768  1.7266  1.9801 -0.6274
 5950SOL     OW29311   3.203   4.661   5.337  0.5266 -0.0205  0.5299
 5950SOL    HW129312   3.204   4.708   5.420  1.3440 -0.2907  0.6748
 5950SOL    HW229313   3.164   4.576   5.360  1.2656 -0.3482  0.5758
 5951SOL     OW29314   0.577   2.640   7.827  0.4678  0.2492 -0.1069
 5951SOL    HW129315   0.584   2.736   7.823 -1.1875  0.3188 -1.1157
 5951SOL    HW229316   0.555   2.622   7.736 -1.2818 -0.2207  0.4229
 5952SOL     OW29317   2.854   0.768   6.932  0.2134  0.1341 -0.2739
 5952SOL    HW129318   2.844   0.753   6.838  2.5566  2.0986 -0.8374
 5952SOL    HW229319   2.942   0.737   6.954 -0.7663 -0.4895  2.8465
 5953SOL     OW29320   3.942   1.343  11.845  0.5246  0.1031 -0.4105
 5953SOL    HW129321   3.910   1.263  11.887 -1.7134  2.2198  1.8855
 5953SOL    HW229322   4.028   1.312  11.815  0.3763 -2.1171  1.3735
 5954SOL     OW29323   0.366   3.996  13.021  0.0364  0.0274 -0.1772
 5954SOL    HW129324   0.295   3.961  13.075 -1.1603  1.2649 -0.9596
 5954SOL    HW229325   0.375   4.085  13.057  0.4553 -0.3317  0.6086
 5955SOL     OW29326   1.845   2.085   8.543 -0.2109  0.7533 -1.0774
 5955SOL    HW129327   1.895   2.006   8.522 -0.4347  0.8513 -1.9689
 5955SOL    HW229328   1.908   2.133   8.598  0.9355 -1.0689 -0.8055
 5956SOL     OW29329   3.783   1.133  12.738  0.0693  0.7883  0.4743
 5956SOL    HW129330   3.783   1.173  12.651 -2.4005  1.3676  0.7293
 5956SOL    HW229331   3.804   1.211  12.790 -2.4786  0.7338  1.5921
 5957SOL     OW29332   0.756   1.760   6.230  0.3046 -0.1339 -0.0600
 5957SOL    HW129333   0.741   1.835   6.288  0.9178 -0.6523  0.7788
 5957SOL    HW229334   0.696   1.697   6.271  1.9472  0.5608  3.4698
 5958SOL     OW29335   4.700   1.416   0.498  0.6307 -0.0986 -0.1403
 5958SOL    HW129336   0.059   1.427   0.443 -0.5624  1.8044 -1.4428
 5958SOL    HW229337   4.636   1.426   0.428  2.3610  0.7141 -1.5980
 5959SOL     OW29338   4.707   3.640   0.089 -0.1669  0.4458  0.6216
 5959SOL    HW129339   0.026   3.720   0.051 -4.7737  0.0805 -4.6922
 5959SOL    HW229340   0.065   3.590   0.117 -0.0227 -0.2055 -0.9330
 5960SOL     OW29341   4.377   1.815   2.803 -0.0380 -0.2201 -0.4573
 5960SOL    HW129342   4.421   1.811   2.888  0.0275  0.0349 -0.4786
 5960SOL    HW229343   4.301   1.757   2.808  0.4446 -0.6932  1.5346
 5961SOL     OW29344   2.493   4.418   2.972 -0.5403  0.4122 -0.1527
 5961SOL    HW129345   2.528   4.500   3.006 -1.1734  0.8232 -0.4965
 5961SOL    HW229346   2.428   4.387   3.035  1.1057  3.2571  2.9454
 5962SOL     OW29347   0.937   3.961  13.072 -0.1498  0.5184  0.2412
 5962SOL    HW129348   0.962   3.979  13.162 -1.1596 -1.3464  0.8976
 5962SOL    HW229349   0.887   3.881  13.092  1.3579 -0.8417 -1.4541
 5963SOL     OW29350   3.465   4.347   7.947  0.0710 -0.2000 -0.4326
 5963SOL    HW129351   3.423   4.427   7.979  0.4640  0.3181 -1.2146
 5963SOL    HW229352   3.417   4.282   7.998  0.5178  1.2909  1.8643
 5964SOL     OW29353   2.801   1.743   4.268  0.2566 -0.0023  0.1095
 5964SOL    HW129354   2.892   1.715   4.284  0.9021  0.1946 -3.0889
 5964SOL    HW229355   2.823   1.815   4.208 -0.7501  0.3247  0.1379
 5965SOL     OW29356   4.264   1.511   8.038  0.1715  0.1326 -0.2464
 5965SOL    HW129357   4.229   1.462   8.112  0.0279  0.9938  0.2527
 5965SOL    HW229358   4.188   1.556   8.001 -1.2096 -0.6140  1.6559
 5966SOL     OW29359   2.400   3.486   2.862  0.3666  0.4680  0.1704
 5966SOL    HW129360   2.481   3.482   2.812  0.1807  2.6108 -0.3088
 5966SOL    HW229361   2.382   3.398   2.897  0.4845  0.1106 -0.6811
 5967SOL     OW29362   3.543   4.251  17.335 -0.0200 -0.1860 -0.5046
 5967SOL    HW129363   3.637   4.261  17.323 -0.0015 -0.8640 -0.9378
 5967SOL    HW229364   3.535   4.167  17.379 -1.0003  0.7518  1.0903
 5968SOL     OW29365   4.140   3.468  12.451 -0.6426 -0.0406 -0.4775
 5968SOL    HW129366   4.144   3.382  12.409  0.2067 -0.1828 -0.1112
 5968SOL    HW229367   4.151   3.525  12.376  1.9693  0.6292  0.4003
 5969SOL     OW29368   1.100   1.471   8.682  0.2899 -0.3054  0.8422
 5969SOL    HW129369   1.075   1.559   8.657  1.5248 -0.1995  0.0065
 5969SOL    HW229370   1.019   1.422   8.692 -0.3390  0.6805  0.5134
 5970SOL     OW29371   4.247   1.218   8.466 -0.4574  0.0880 -0.2992
 5970SOL    HW129372   4.161   1.201   8.428 -2.6124  0.8196  4.1734
 5970SOL    HW229373   4.293   1.233   8.384  1.4039 -0.0611  0.7274
 5971SOL     OW29374   2.922   4.231   7.026  0.4546 -0.2327  0.6276
 5971SOL    HW129375   2.864   4.285   6.972  0.6275  1.1744  1.8573
 5971SOL    HW229376   3.006   4.247   6.984  0.2330  1.0047  0.6510
 5972SOL     OW29377   3.239   1.630   9.413 -0.7925 -0.4474  0.0268
 5972SOL    HW129378   3.275   1.718   9.406  2.8742 -2.0618 -1.5797
 5972SOL    HW229379   3.310   1.582   9.456  0.1178  1.2775  0.4482
 5973SOL     OW29380   1.508   3.116   1.433  0.2736 -0.0287  0.6958
 5973SOL    HW129381   1.589   3.090   1.477  0.5151 -1.9343 -0.8563
 5973SOL    HW229382   1.447   3.057   1.477  1.1820 -2.1242 -0.8465
 5974SOL     OW29383   0.350   1.532   3.263  0.0850 -0.1862 -0.0012
 5974SOL    HW129384   0.332   1.617   3.304  2.3368 -0.5656  1.7383
 5974SOL    HW229385   0.324   1.550   3.173  0.6067 -2.4964 -0.6025
 5975SOL     OW29386   1.862   2.951   7.656 -0.1399  0.2070  0.0674
 5975SOL    HW129387   1.904   2.974   7.739 -1.8642 -0.0812  1.0274
 5975SOL    HW229388   1.873   2.856   7.660 -1.7109  0.1302  3.1072
 5976SOL     OW29389   4.715   0.800  16.689 -0.1808  0.1724  0.4019
 5976SOL    HW129390   0.027   0.886  16.717  1.2143 -0.7368  1.7916
 5976SOL    HW229391   4.627   0.786  16.724  0.0239 -0.7786  0.5387
 5977SOL     OW29392   1.685   0.264   6.161  0.4211 -1.0040 -0.0812
 5977SOL    HW129393   1.600   0.244   6.199  0.0012 -0.5929 -0.8148
 5977SOL    HW229394   1.707   0.350   6.196  1.5389 -0.9788 -0.8469
 5978SOL     OW29395   0.024   1.506   4.671  0.1962 -0.1909 -0.5191
 5978SOL    HW129396   0.045   1.568   4.741 -0.6254 -0.7569  0.2346
 5978SOL    HW229397   4.710   1.427   4.715  0.1671 -0.5703 -1.2292
 5979SOL     OW29398   2.504   4.268   2.368 -0.2146  0.1910  0.6432
 5979SOL    HW129399   2.493   4.178   2.337 -0.1275 -0.4632  2.4693
 5979SOL    HW229400   2.552   4.258   2.451  2.7006  1.2342 -0.9141
 5980SOL     OW29401   3.006   2.439   1.092 -0.8673  0.4026 -0.0130
 5980SOL    HW129402   3.055   2.365   1.127  1.3723  1.5313 -0.7558
 5980SOL    HW229403   2.915   2.421   1.115 -0.9826 -0.2289 -0.9824
 5981SOL     OW29404   1.392   2.940   4.258 -0.4004 -0.0755 -0.3309
 5981SOL    HW129405   1.389   2.914   4.166  0.9948  0.6030 -0.5621
 5981SOL    HW229406   1.299   2.957   4.274 -0.8800 -1.0390 -2.0852
 5982SOL     OW29407   3.156   0.795  15.191 -0.5683 -0.3683  0.0099
 5982SOL    HW129408   3.204   0.860  15.242  0.6463 -1.2091 -0.0479
 5982SOL    HW229409   3.131   0.855  15.121  0.8544 -1.5012 -1.4823
 5983SOL     OW29410   0.531   1.301   7.957  0.4427 -0.3290 -0.2006
 5983SOL    HW129411   0.546   1.214   7.920 -0.9191 -0.3356 -0.7120
 5983SOL    HW229412   0.491   1.281   8.042 -0.7759 -0.1901 -0.7505
 5984SOL     OW29413   2.239   0.014   0.959 -0.0432 -0.0288 -0.9402
 5984SOL    HW129414   2.302   4.679   0.910 -2.2242 -2.3786 -1.1835
 5984SOL    HW229415   2.272   0.103   0.948  1.4373 -0.1453  2.7436
 5985SOL     OW29416   1.485   3.734   1.510 -0.3604 -0.3725  0.1401
 5985SOL    HW129417   1.446   3.811   1.553  1.6054  1.5934 -1.5954
 5985SOL    HW229418   1.493   3.689   1.594  1.9778  0.4346  0.3480
 5986SOL     OW29419   2.325   2.501  15.624 -0.0530  0.2334  0.0378
 5986SOL    HW129420   2.292   2.591  15.620  0.4210  0.3518 -1.1186
 5986SOL    HW229421   2.318   2.474  15.532  1.8747 -0.9755  0.2510
 5987SOL     OW29422   2.215   2.403   1.879  0.4777  0.9583  0.5167
 5987SOL    HW129423   2.160   2.427   1.804  2.1475 -2.2125 -1.7375
 5987SOL    HW229424   2.220   2.491   1.917 -0.4358  0.3088  2.1086
 5988SOL     OW29425   2.737   4.272   3.850  0.3536 -0.0100 -0.3796
 5988SOL    HW129426   2.807   4.336   3.863  0.3075 -0.3795  1.5975
 5988SOL    HW229427   2.749   4.239   3.939 -2.1496 -1.5002 -0.6149
 5989SOL     OW29428   3.880   1.870  13.834 -0.0228 -0.1186  0.1565
 5989SOL    HW129429   3.917   1.955  13.860 -0.7342  0.6166 -1.1977
 5989SOL    HW229430   3.891   1.822  13.916 -0.0093  3.1199  2.0657
 5990SOL     OW29431   2.595   0.071   7.340  0.4474 -0.1156 -0.1619
 5990SOL    HW129432   2.611   0.024   7.258  0.6048 -0.0178 -0.1891
 5990SOL    HW229433   2.500   0.083   7.348  0.6146  1.0163  0.1843
 5991SOL     OW29434   0.785   1.945  12.805 -0.4592 -0.0993  0.6048
 5991SOL    HW129435   0.722   1.988  12.864 -1.2837 -0.9087  0.3023
 5991SOL    HW229436   0.855   2.009  12.822 -1.0147  0.6693  0.0000
 5992SOL     OW29437   0.981   2.120   8.672  0.2852  0.1667  0.2749
 5992SOL    HW129438   0.899   2.167   8.655  0.7412  0.4916 -0.9722
 5992SOL    HW229439   0.992   2.073   8.590  1.6776  1.2775 -0.1621
 5993SOL     OW29440   1.885   3.601   6.834  1.2978 -0.4066 -0.5794
 5993SOL    HW129441   1.856   3.510   6.849  0.4460  0.6178  4.2522
 5993SOL    HW229442   1.820   3.631   6.771  0.2761 -1.3197  0.0165
 5994SOL     OW29443   3.798   2.910  10.151  0.1566  0.0125 -0.3630
 5994SOL    HW129444   3.749   2.837  10.115 -0.1898  0.7112 -1.3107
 5994SOL    HW229445   3.805   2.981  10.087  2.0773  1.5188  1.5076
 5995SOL     OW29446   0.437   2.760  10.581  0.3007 -0.1188  0.1163
 5995SOL    HW129447   0.367   2.767  10.646  1.0261 -0.7774  0.9714
 5995SOL    HW229448   0.393   2.708  10.514 -1.0743  2.0032 -0.6510
 5996SOL     OW29449   2.560   0.356   3.578 -0.0111 -0.2501  0.6641
 5996SOL    HW129450   2.549   0.451   3.569 -1.1285 -0.6597 -2.2188
 5996SOL    HW229451   2.477   0.316   3.552  0.9640  0.5042 -3.5427
 5997SOL     OW29452   0.678   2.854  10.518  0.0877  0.0679  0.7072
 5997SOL    HW129453   0.611   2.791  10.543 -0.3284 -0.3102 -1.3056
 5997SOL    HW229454   0.747   2.794  10.490 -0.4029  0.4191 -1.2682
 5998SOL     OW29455   3.763   3.466   8.669 -0.0827 -0.6082 -0.3908
 5998SOL    HW129456   3.809   3.490   8.749 -0.5306  0.4116 -0.4430
 5998SOL    HW229457   3.672   3.492   8.685 -0.4244 -1.2631 -1.2398
 5999SOL     OW29458   4.258   2.800  16.027  0.0369  0.4447 -0.4446
 5999SOL    HW129459   4.262   2.857  15.950 -3.1394  0.3371 -0.6803
 5999SOL    HW229460   4.242   2.863  16.097 -0.4671  0.3999 -0.5217
 6000SOL     OW29461   1.085   2.512   9.237  0.2964 -0.0134  0.2872
 6000SOL    HW129462   1.009   2.551   9.280 -0.0200 -0.8582  0.4950
 6000SOL    HW229463   1.037   2.453   9.180 -0.2421  0.2350  0.4844
 6001SOL     OW29464   0.089   3.610   6.523 -0.3123  0.4567  0.9245
 6001SOL    HW129465   0.107   3.519   6.548  2.2834 -0.0498 -2.8521
 6001SOL    HW229466   0.173   3.651   6.545 -0.5106  0.5392  1.5366
 6002SOL     OW29467   2.881   3.034   5.655 -0.3628 -0.6371 -0.2685
 6002SOL    HW129468   2.852   3.121   5.682 -0.9082 -0.9053  0.0088
 6002SOL    HW229469   2.972   3.043   5.685 -0.2767  1.0729 -1.0821
 6003SOL     OW29470   2.655   1.011  13.483 -0.5010 -0.6368  0.3514
 6003SOL    HW129471   2.589   1.056  13.535 -0.7415  1.7822 -2.0620
 6003SOL    HW229472   2.708   0.974  13.554 -2.6239 -1.1040  1.6808
 6004SOL     OW29473   1.016   4.256  16.287  0.2141 -0.5981 -0.2193
 6004SOL    HW129474   1.017   4.278  16.381 -2.7202  1.2507 -0.6235
 6004SOL    HW229475   0.966   4.330  16.252  0.7727 -1.4614 -2.8303
 6005SOL     OW29476   0.186   4.240   8.392 -0.0718 -0.2597 -0.3409
 6005SOL    HW129477   0.231   4.219   8.474 -1.0727  0.2815  0.3427
 6005SOL    HW229478   0.222   4.323   8.360  1.7917 -1.7288 -2.0611
 6006SOL     OW29479   1.227   3.997  10.695  0.5090 -0.3938 -0.6609
 6006SOL    HW129480   1.239   4.092  10.701  3.9357 -0.6950 -3.0541
 6006SOL    HW229481   1.318   3.969  10.701  1.2114  2.3911  2.1788
 6007SOL     OW29482   2.922   3.917  10.805  0.1356 -0.9854 -0.1902
 6007SOL    HW129483   2.903   3.946  10.715  2.2595  0.0531 -0.3261
 6007SOL    HW229484   2.846   3.870  10.837 -0.7638 -0.5635 -1.6773
 6008SOL     OW29485   3.885   2.220   6.416 -0.0703  0.4564  0.2749
 6008SOL    HW129486   3.822   2.172   6.362 -1.3474  1.2433  1.0546
 6008SOL    HW229487   3.967   2.222   6.368 -1.7826 -1.3104 -2.7400
 6009SOL     OW29488   1.241   2.170   6.531  0.4026  0.2000  0.0941
 6009SOL    HW129489   1.224   2.085   6.492 -0.0594  0.8193 -1.0558
 6009SOL    HW229490   1.294   2.213   6.464  0.7210  0.2016  0.3471
 6010SOL     OW29491   4.331   0.041  13.481 -0.0163 -0.3932  0.0718
 6010SOL    HW129492   4.352   4.690  13.419  0.3166  0.3179 -0.6182
 6010SOL    HW229493   4.237   0.045  13.468 -0.1437  0.4999  1.1943
 6011SOL     OW29494   2.248   1.770   8.656 -0.0298 -0.1149  0.7449
 6011SOL    HW129495   2.310   1.713   8.611  0.5658  1.9620 -1.0341
 6011SOL    HW229496   2.166   1.725   8.636 -0.3645  0.9050 -0.1398
 6012SOL     OW29497   2.046   2.876  13.036 -0.5338 -0.0459  0.0410
 6012SOL    HW129498   2.066   2.807  12.972 -0.6397  0.3624 -0.4324
 6012SOL    HW229499   1.961   2.847  13.068 -1.0429  0.2304 -1.0834
 6013SOL     OW29500   3.093   3.233   5.195 -0.4976  0.2980  0.1101
 6013SOL    HW129501   3.138   3.317   5.195  1.6461 -0.8007  3.1479
 6013SOL    HW229502   3.129   3.188   5.119  0.4207 -1.5425  1.6106
 6014SOL     OW29503   1.496   2.405   4.029  0.0359  0.1562  0.6336
 6014SOL    HW129504   1.448   2.365   3.957 -1.4803 -0.5137  2.0291
 6014SOL    HW229505   1.425   2.443   4.080 -1.3457  0.4413 -1.5545
 6015SOL     OW29506   0.952   4.232   3.465  0.4632  0.0146 -0.2222
 6015SOL    HW129507   0.868   4.224   3.420  0.6529  0.6693 -0.6782
 6015SOL    HW229508   1.004   4.237   3.385  1.3113 -1.5453  0.2086
 6016SOL     OW29509   0.035   0.408   5.109  0.4590 -0.5890  0.0107
 6016SOL    HW129510   0.055   0.345   5.040  1.8881  0.9714 -0.9741
 6016SOL    HW229511   4.692   0.354   5.159 -0.1150 -0.5650 -0.6808
 6017SOL     OW29512   3.050   4.279  11.550  0.3565 -0.2058 -0.4123
 6017SOL    HW129513   3.128   4.263  11.603 -0.3228  0.4200  0.7776
 6017SOL    HW229514   3.065   4.370  11.524  0.4961 -0.0203  0.3314
 6018SOL     OW29515   3.590   3.723   3.439 -0.7146 -0.5150 -0.1309
 6018SOL    HW129516   3.514   3.759   3.394  1.1830  2.6306 -0.8512
 6018SOL    HW229517   3.650   3.717   3.365 -0.0589  2.4416  0.1571
 6019SOL     OW29518   0.805   1.254  17.675  0.2196  0.4608  0.3751
 6019SOL    HW129519   0.811   1.158  17.667  1.2049  0.3615  2.2480
 6019SOL    HW229520   0.750   1.269  17.598  0.7837  0.6820  0.0157
 6020SOL     OW29521   4.180   2.941   8.508  0.1830 -0.4639 -0.5160
 6020SOL    HW129522   4.178   2.876   8.578  0.6225  0.1810  0.0983
 6020SOL    HW229523   4.090   2.972   8.506  0.2555 -0.1827  0.7768
 6021SOL     OW29524   0.361   0.805   6.556  0.1488  0.5228  0.0501
 6021SOL    HW129525   0.432   0.855   6.595 -1.6476  2.2967  0.9934
 6021SOL    HW229526   0.392   0.718   6.582  0.8306  0.4711 -0.8967
 6022SOL     OW29527   2.566   2.574   3.290  0.4746  0.5276  0.4768
 6022SOL    HW129528   2.524   2.659   3.307  0.8412  0.9900 -0.9149
 6022SOL    HW229529   2.560   2.566   3.195  0.3733  0.4767  0.4882
 6023SOL     OW29530   1.224   3.183   7.587  0.4093  0.4243  0.1105
 6023SOL    HW129531   1.208   3.270   7.551 -0.3662 -0.1190 -0.8663
 6023SOL    HW229532   1.310   3.186   7.628  1.0962  1.2626 -1.3882
 6024SOL     OW29533   2.142   3.324   2.433 -0.1660 -0.0541 -0.0295
 6024SOL    HW129534   2.169   3.238   2.465  0.7287  0.1850 -0.1409
 6024SOL    HW229535   2.087   3.359   2.503 -0.2904 -1.1037  0.3974
 6025SOL     OW29536   1.230   3.019  17.428 -0.0075 -0.2419  0.1491
 6025SOL    HW129537   1.305   3.015  17.487  1.4440  2.9211 -1.4676
 6025SOL    HW229538   1.195   3.108  17.427  1.8920  0.5075  0.1646
 6026SOL     OW29539   0.369   2.939   9.663 -0.5232 -0.0525  0.2796
 6026SOL    HW129540   0.331   3.001   9.600 -0.8083 -1.9518 -1.4374
 6026SOL    HW229541   0.463   2.943   9.648 -0.2644 -2.3617  1.3145
 6027SOL     OW29542   1.759   1.767   8.021  0.5354 -0.3878 -0.5331
 6027SOL    HW129543   1.706   1.845   8.004  3.6434  2.1149  1.1705
 6027SOL    HW229544   1.696   1.716   8.072 -0.2693  0.3815 -0.7513
 6028SOL     OW29545   1.529   4.340   9.917  0.5447 -0.2341  0.6512
 6028SOL    HW129546   1.541   4.384   9.833  0.7824  0.3144  0.9695
 6028SOL    HW229547   1.617   4.352   9.953  0.7787 -1.9713  0.7001
 6029SOL     OW29548   1.141   4.330   1.932 -0.1877 -0.2555  0.0207
 6029SOL    HW129549   1.127   4.381   2.012  2.2687  1.2742 -0.5265
 6029SOL    HW229550   1.205   4.279   1.981 -0.1515  0.7954  1.0864
 6030SOL     OW29551   3.555   0.654   3.960  0.1768  0.8319  0.1112
 6030SOL    HW129552   3.481   0.604   3.994  0.4824  1.2055  1.3174
 6030SOL    HW229553   3.525   0.648   3.869 -0.7062  1.7442  0.3415
 6031SOL     OW29554   3.213   1.815   2.080  0.4582 -0.9980  0.1672
 6031SOL    HW129555   3.169   1.758   2.017 -0.0382 -0.3069 -0.1200
 6031SOL    HW229556   3.225   1.894   2.026  0.6820  0.1134  1.8581
 6032SOL     OW29557   2.528   3.036   5.865  0.1744  1.2103  0.4048
 6032SOL    HW129558   2.458   3.054   5.802 -0.4393 -2.5655  0.0531
 6032SOL    HW229559   2.587   2.971   5.826  0.2294  1.3960  0.1749
 6033SOL     OW29560   1.135   1.677   7.841  0.3627  0.9430  0.1813
 6033SOL    HW129561   1.216   1.663   7.889 -0.9678 -2.3841  1.5112
 6033SOL    HW229562   1.173   1.683   7.753 -3.5445  3.6295 -1.3404
 6034SOL     OW29563   2.103   0.982   7.105 -0.3688  0.3040 -0.1077
 6034SOL    HW129564   2.073   0.992   7.014  0.6000 -1.9566 -0.6942
 6034SOL    HW229565   2.196   0.981   7.083  0.1925 -1.4509  2.3625
 6035SOL     OW29566   1.316   2.787   7.942 -0.1245  0.7024 -0.8611
 6035SOL    HW129567   1.396   2.787   7.994  0.0561 -0.0863 -1.1317
 6035SOL    HW229568   1.272   2.869   7.967  4.8889  2.9271  0.6695
 6036SOL     OW29569   3.802   0.387   5.064 -0.2863  0.4097  0.2573
 6036SOL    HW129570   3.828   0.381   5.156  1.9180  1.8000 -0.2721
 6036SOL    HW229571   3.881   0.351   5.023 -0.6038 -0.9604  0.8246
 6037SOL     OW29572   3.528   2.068   4.191  0.8218 -0.2167 -0.3470
 6037SOL    HW129573   3.459   2.134   4.201  0.8711 -0.5096  2.0115
 6037SOL    HW229574   3.577   2.117   4.125  0.9237 -0.1092 -0.1944
 6038SOL     OW29575   1.155   2.463   5.221  0.5178  0.1861 -0.7372
 6038SOL    HW129576   1.186   2.420   5.300 -0.4275 -1.7304 -1.4046
 6038SOL    HW229577   1.079   2.408   5.204 -1.1335  1.9888  0.6920
 6039SOL     OW29578   0.097   0.270  12.426 -0.5350  0.3694 -0.0733
 6039SOL    HW129579   0.051   0.196  12.466  2.1920 -1.6219 -0.6065
 6039SOL    HW229580   0.063   0.344  12.477 -1.3344  1.1608 -1.7473
 6040SOL     OW29581   3.759   2.697  13.478 -0.3132 -0.0084 -0.0729
 6040SOL    HW129582   3.753   2.639  13.554 -1.7470 -0.7154 -0.7382
 6040SOL    HW229583   3.800   2.637  13.415  1.3817  1.4746 -0.3807
 6041SOL     OW29584   0.196   2.529   8.339  0.4551  0.1464 -0.2600
 6041SOL    HW129585   0.126   2.476   8.301 -0.3272  1.2341 -0.3420
 6041SOL    HW229586   0.168   2.621   8.338  0.1502  0.0573  0.4218
 6042SOL     OW29587   4.590   0.709   4.100  0.1368 -1.1488  0.6379
 6042SOL    HW129588   4.523   0.775   4.080  0.8737 -0.8466 -0.8816
 6042SOL    HW229589   4.589   0.672   4.012 -0.0267  0.5614 -0.0831
 6043SOL     OW29590   2.850   1.798  12.298  0.6882  0.8816  0.0557
 6043SOL    HW129591   2.763   1.789  12.260  0.8891  3.0166 -0.9479
 6043SOL    HW229592   2.904   1.837  12.229 -1.8483 -2.2474 -3.7173
 6044SOL     OW29593   2.438   3.232   3.009 -0.1677  0.0937  0.3235
 6044SOL    HW129594   2.419   3.160   2.948 -3.3349 -0.6810  2.2603
 6044SOL    HW229595   2.532   3.246   3.004 -0.1627 -1.0126 -2.8213
 6045SOL     OW29596   2.778   1.200   3.433  0.0991 -0.4772  0.2337
 6045SOL    HW129597   2.853   1.143   3.451 -0.9238 -2.3245 -1.2902
 6045SOL    HW229598   2.754   1.171   3.344 -2.7250 -0.6292  1.0434
 6046SOL     OW29599   2.195   4.467   7.630 -0.1593 -0.0564  0.7485
 6046SOL    HW129600   2.145   4.403   7.579 -0.6013 -0.7673  2.0670
 6046SOL    HW229601   2.168   4.553   7.597  2.7263  0.7564  0.5548
 6047SOL     OW29602   1.674   1.805   3.072 -0.7969 -0.1368 -0.5070
 6047SOL    HW129603   1.748   1.845   3.117  1.3536 -1.5776 -2.8135
 6047SOL    HW229604   1.706   1.775   2.987 -1.2581 -0.2833 -0.6327
 6048SOL     OW29605   1.323   2.925   7.503  0.6781 -0.4500 -0.1958
 6048SOL    HW129606   1.411   2.952   7.529  0.7450 -1.0654  0.2283
 6048SOL    HW229607   1.272   3.004   7.520  1.4446 -0.6696  3.1084
 6049SOL     OW29608   4.083   4.157   4.157  0.1462  0.8003 -0.4419
 6049SOL    HW129609   4.093   4.062   4.166  0.5430  0.8945  0.1358
 6049SOL    HW229610   4.079   4.167   4.062 -2.3268  0.8436 -0.3181
 6050SOL     OW29611   0.608   1.203   4.435  0.0615 -0.3536 -0.2480
 6050SOL    HW129612   0.694   1.160   4.429  0.1099 -0.1283 -1.2659
 6050SOL    HW229613   0.612   1.245   4.521 -2.6150 -1.0041  0.1937
 6051SOL     OW29614   0.631   4.205   1.369  0.0669  0.1883 -0.2465
 6051SOL    HW129615   0.626   4.117   1.406 -1.1979 -0.6520 -2.4762
 6051SOL    HW229616   0.721   4.202   1.337  0.2494  1.0519  0.1697
 6052SOL     OW29617   0.014   1.010   4.732  0.0533 -0.0025  0.5798
 6052SOL    HW129618   0.070   0.949   4.782  0.0410 -0.8826 -0.4765
 6052SOL    HW229619   0.085   1.058   4.689 -0.5448 -0.7390 -1.1996
 6053SOL     OW29620   4.705   3.081   5.072 -0.2031  1.4863  0.6369
 6053SOL    HW129621   4.680   3.101   4.981 -2.0566  0.2406  0.8861
 6053SOL    HW229622   0.060   3.143   5.083  1.5111 -0.3274 -0.5046
 6054SOL     OW29623   3.686   1.120   3.647 -0.2752 -0.2765 -0.3376
 6054SOL    HW129624   3.711   1.038   3.689  1.6576  1.5212  2.0710
 6054SOL    HW229625   3.607   1.088   3.603 -0.5963  3.8995 -2.8167
 6055SOL     OW29626   3.730   1.884  11.341  0.7983 -0.1266  0.1071
 6055SOL    HW129627   3.683   1.948  11.395  0.5982 -1.1890  1.1648
 6055SOL    HW229628   3.756   1.826  11.412  0.9330  0.9553  0.9392
 6056SOL     OW29629   4.456   3.770  12.754  0.0687 -0.1584  0.3963
 6056SOL    HW129630   4.550   3.783  12.750 -0.3437  2.2626 -0.9445
 6056SOL    HW229631   4.456   3.682  12.793  1.5242  0.0258  0.8153
 6057SOL     OW29632   2.597   1.897   5.352  0.7746  0.2223 -0.0836
 6057SOL    HW129633   2.620   1.989   5.339  0.4313  0.4223  0.7483
 6057SOL    HW229634   2.675   1.851   5.323 -1.1469 -1.8334 -2.0085
 6058SOL     OW29635   1.647   2.510   9.072  0.1522  0.4455 -0.1904
 6058SOL    HW129636   1.552   2.502   9.065  0.2368  0.9489 -1.8982
 6058SOL    HW229637   1.665   2.604   9.061 -1.3872  0.5899 -1.5079
 6059SOL     OW29638   0.857   4.372   6.023 -0.0443 -0.1937  0.4060
 6059SOL    HW129639   0.844   4.467   6.019  1.7584 -0.0053 -0.7553
 6059SOL    HW229640   0.875   4.360   5.930 -1.5272  0.6900 -0.0002
 6060SOL     OW29641   0.525   3.683   1.903  0.1332  0.5315 -0.4492
 6060SOL    HW129642   0.459   3.678   1.972  0.1869 -0.9070 -0.5017
 6060SOL    HW229643   0.503   3.607   1.849 -2.0568  0.5823  0.3739
 6061SOL     OW29644   1.499   0.825   2.654  0.0394  0.3764  0.2522
 6061SOL    HW129645   1.542   0.750   2.695  1.5941  0.2115 -1.7045
 6061SOL    HW229646   1.462   0.784   2.577  1.6706  0.5122 -0.6039
 6062SOL     OW29647   3.211   2.894  12.715  0.3313 -0.2693 -0.1408
 6062SOL    HW129648   3.287   2.879  12.771  0.5463  1.4011  0.0330
 6062SOL    HW229649   3.207   2.990  12.721  0.6724 -0.1506 -2.0567
 6063SOL     OW29650   0.208   3.209   1.094 -0.5304 -0.1187  0.3076
 6063SOL    HW129651   0.163   3.130   1.125  1.0326 -1.3467 -0.5465
 6063SOL    HW229652   0.293   3.194   1.136 -0.8618 -2.6629  0.0797
 6064SOL     OW29653   0.548   3.443   8.396  0.2029  0.2743  0.4059
 6064SOL    HW129654   0.570   3.412   8.309 -0.1040  0.6469  0.1959
 6064SOL    HW229655   0.560   3.537   8.388 -1.3190  0.3292 -1.3663
 6065SOL     OW29656   0.074   0.784  14.382  0.0466 -0.6031 -0.0092
 6065SOL    HW129657   0.099   0.877  14.377 -0.4885 -0.4671 -0.0792
 6065SOL    HW229658   0.162   0.746  14.389 -0.0376 -0.9777 -0.9869
 6066SOL     OW29659   2.596   2.168   6.167  0.1419  0.2235 -0.3663
 6066SOL    HW129660   2.526   2.103   6.166  0.0469  0.3280 -0.4998
 6066SOL    HW229661   2.629   2.146   6.254 -2.4183  2.0020  1.0394
 6067SOL     OW29662   2.034   3.582  10.714  0.0514 -0.4006 -0.6067
 6067SOL    HW129663   2.106   3.528  10.682  1.5570  1.6349 -0.6617
 6067SOL    HW229664   1.961   3.520  10.719 -1.4539  1.4462  0.2976
 6068SOL     OW29665   0.929   0.483   3.161  0.1734 -0.1464 -0.4654
 6068SOL    HW129666   0.838   0.513   3.162  0.4403  0.6941 -1.0204
 6068SOL    HW229667   0.973   0.567   3.151 -2.6196  1.1862 -1.6437
 6069SOL     OW29668   0.323   2.610  10.364  0.1459 -0.2367 -0.3897
 6069SOL    HW129669   0.292   2.547  10.428 -0.0563 -0.6137 -0.8633
 6069SOL    HW229670   0.247   2.625  10.308  1.2246  0.9692 -1.5334
 6070SOL     OW29671   0.431   2.853   4.219  0.4590 -0.3360  0.0196
 6070SOL    HW129672   0.477   2.842   4.135  0.2644 -1.1414  0.0170
 6070SOL    HW229673   0.406   2.944   4.209 -2.4622 -0.8961  2.3807
 6071SOL     OW29674   0.766   1.987  10.311  0.1066 -0.3104 -0.0787
 6071SOL    HW129675   0.827   1.976  10.237  0.1622  1.2164 -0.2524
 6071SOL    HW229676   0.694   2.029  10.264  0.6088  2.4077  1.6170
 6072SOL     OW29677   1.694   3.094   7.892  0.0699  0.1784 -0.2482
 6072SOL    HW129678   1.785   3.066   7.883  0.8273  2.8592 -0.9174
 6072SOL    HW229679   1.682   3.120   7.983 -1.5345 -0.4921 -0.2810
 6073SOL     OW29680   2.453   3.615   7.641  0.3477 -0.0051 -0.3140
 6073SOL    HW129681   2.529   3.559   7.624  1.7636  1.5879  0.8500
 6073SOL    HW229682   2.441   3.614   7.736  1.8407 -0.0950 -0.1229
 6074SOL     OW29683   3.737   2.468   7.948 -0.2263 -0.5550 -0.1307
 6074SOL    HW129684   3.644   2.475   7.968 -0.6094 -1.2890 -1.6842
 6074SOL    HW229685   3.763   2.559   7.935  0.9383 -0.8135  0.3251
 6075SOL     OW29686   0.223   3.051   6.619 -0.2424  0.0041 -0.2832
 6075SOL    HW129687   0.306   3.086   6.652 -0.0337 -0.8273  0.0757
 6075SOL    HW229688   0.246   3.001   6.541  0.7427 -0.2097  0.1350
 6076SOL     OW29689   0.450   2.004   3.763  0.2847  0.3399 -0.4066
 6076SOL    HW129690   0.398   2.026   3.686  0.8460 -0.9571 -1.1472
 6076SOL    HW229691   0.534   2.048   3.751  0.5362  0.2194  0.9324
 6077SOL     OW29692   3.075   3.180   8.218 -0.8349  0.4534 -0.7390
 6077SOL    HW129693   3.135   3.124   8.267  0.3631  1.8327 -0.6008
 6077SOL    HW229694   3.010   3.186   8.288 -0.0782 -0.1634  0.0021
 6078SOL     OW29695   0.214   2.888  14.531  0.0290  0.1032 -0.3423
 6078SOL    HW129696   0.185   2.934  14.609 -0.9328 -0.9660 -0.0658
 6078SOL    HW229697   0.139   2.832  14.512  1.0627 -0.3955 -2.9944
 6079SOL     OW29698   4.589   0.662   3.600 -0.3694  0.4699  0.3336
 6079SOL    HW129699   4.512   0.610   3.579 -0.1281  0.0231  0.5571
 6079SOL    HW229700   4.641   0.643   3.522 -0.1824 -1.2360  0.8854
 6080SOL     OW29701   2.780   3.684   7.936  0.1915  0.2750  0.3687
 6080SOL    HW129702   2.856   3.680   7.994 -0.0926  1.2519  0.8090
 6080SOL    HW229703   2.808   3.613   7.879  2.1445  0.3154  1.2953
 6081SOL     OW29704   1.919   0.205   4.581  0.0525 -0.4097  0.2523
 6081SOL    HW129705   1.986   0.271   4.560  0.0637 -0.3336  0.5268
 6081SOL    HW229706   1.845   0.241   4.532  0.9112 -1.1850 -1.5925
 6082SOL     OW29707   4.477   2.843   6.122  0.3677 -0.6477  0.5009
 6082SOL    HW129708   4.545   2.897   6.161  1.5043 -0.1076 -2.2172
 6082SOL    HW229709   4.419   2.913   6.091  2.0218 -0.5367 -2.2833
 6083SOL     OW29710   2.045   2.585  10.546  0.4759  0.4703 -0.2795
 6083SOL    HW129711   2.125   2.616  10.587  0.2274  0.1405  0.4513
 6083SOL    HW229712   2.058   2.609  10.454  2.0459 -1.8086 -0.6594
 6084SOL     OW29713   3.888   0.625   3.801 -0.0976 -0.2899  0.0329
 6084SOL    HW129714   3.843   0.709   3.812  2.1359  0.4174  3.8302
 6084SOL    HW229715   3.955   0.656   3.741  2.2741 -0.4719  2.6057
 6085SOL     OW29716   3.435   4.267  10.248  1.0596  0.0918 -0.0929
 6085SOL    HW129717   3.438   4.362  10.235  0.8196  0.1363  0.1817
 6085SOL    HW229718   3.508   4.258  10.309 -0.5161  0.7482  1.8806
 6086SOL     OW29719   1.699   4.266   0.630  0.2383 -0.2095 -0.1515
 6086SOL    HW129720   1.674   4.184   0.588 -0.0968 -0.7974  1.2073
 6086SOL    HW229721   1.613   4.305   0.643  0.6751  0.5901  0.3368
 6087SOL     OW29722   2.568   0.308   3.854 -0.3591 -0.6545  0.5176
 6087SOL    HW129723   2.558   0.214   3.840  0.2451 -0.8662  1.4946
 6087SOL    HW229724   2.558   0.333   3.762 -0.6231 -1.9128  0.2041
 6088SOL     OW29725   1.666   3.335   4.629 -0.1031  0.0545 -0.5768
 6088SOL    HW129726   1.703   3.282   4.558  2.9870  2.2166 -0.5791
 6088SOL    HW229727   1.614   3.401   4.584 -0.5578  1.0495  1.4385
 6089SOL     OW29728   0.662   0.354   4.838 -0.5717  0.1952  0.3953
 6089SOL    HW129729   0.707   0.427   4.882  1.5816 -0.6129 -0.5046
 6089SOL    HW229730   0.568   0.373   4.842 -0.4116  0.9755  0.5364
 6090SOL     OW29731   1.621   0.022   3.909  0.2057  0.0605  0.5901
 6090SOL    HW129732   1.611   0.020   4.004 -2.3608 -0.9220  0.2809
 6090SOL    HW229733   1.528   0.036   3.891 -0.0931 -2.0938  0.4314
 6091SOL     OW29734   0.700   0.178   7.655  0.2648 -0.5133 -0.2746
 6091SOL    HW129735   0.660   0.252   7.610  0.5128  0.1888  0.6593
 6091SOL    HW229736   0.786   0.214   7.679 -0.5300  0.0620  1.7106
 6092SOL     OW29737   2.893   3.260   1.551 -0.4293  0.8216 -0.6189
 6092SOL    HW129738   2.900   3.240   1.458 -1.4960  0.3972 -0.6103
 6092SOL    HW229739   2.866   3.352   1.552 -2.2125  0.3341 -2.7803
 6093SOL     OW29740   4.151   0.160   5.209  0.5836  0.4088 -0.6859
 6093SOL    HW129741   4.105   0.122   5.284  1.0105 -1.2734 -1.2762
 6093SOL    HW229742   4.237   0.178   5.247  0.3860 -0.8923  0.3854
 6094SOL     OW29743   2.284   1.698   9.662 -0.6732  0.4629 -0.6693
 6094SOL    HW129744   2.345   1.772   9.671  1.8424 -1.5522 -1.1459
 6094SOL    HW229745   2.326   1.633   9.718  0.5291  0.9615 -0.9852
 6095SOL     OW29746   1.461   0.479  17.088 -0.3227 -0.6923  0.3544
 6095SOL    HW129747   1.393   0.422  17.052 -1.2764  0.6377  0.0671
 6095SOL    HW229748   1.456   0.481  17.184  0.8010  0.7810  0.3836
 6096SOL     OW29749   0.488   0.639   5.748  0.2103  0.1716 -0.7538
 6096SOL    HW129750   0.428   0.702   5.708 -1.8554 -2.2211 -1.4262
 6096SOL    HW229751   0.539   0.703   5.797 -0.1681 -0.1567  0.0667
 6097SOL     OW29752   1.361   0.098  14.595  0.0306  0.5001  0.5663
 6097SOL    HW129753   1.311   0.030  14.549 -0.8910  1.0516  0.7523
 6097SOL    HW229754   1.362   0.056  14.680  0.9875 -2.0623 -0.7081
 6098SOL     OW29755   4.446   2.532   8.740  0.0923  0.0944 -0.4354
 6098SOL    HW129756   4.515   2.591   8.769 -0.4258  1.6203 -2.2918
 6098SOL    HW229757   4.466   2.452   8.790 -1.1385 -0.2539 -0.5075
 6099SOL     OW29758   3.193   2.517   9.490 -0.3561 -0.5640  0.0719
 6099SOL    HW129759   3.189   2.610   9.468  0.5808 -0.0591  2.0516
 6099SOL    HW229760   3.204   2.488   9.399 -2.1935  2.5600 -1.1432
 6100SOL     OW29761   1.868   4.654   9.664 -0.2905  0.0834 -0.1150
 6100SOL    HW129762   1.835   4.664   9.575 -0.1726 -0.5349 -0.2333
 6100SOL    HW229763   1.953   4.612   9.651 -0.1663  0.6296 -1.0759
 6101SOL     OW29764   2.588   3.857  14.292  0.2206 -0.5106  0.3188
 6101SOL    HW129765   2.605   3.771  14.254 -2.9229  0.6012 -3.6700
 6101SOL    HW229766   2.504   3.845  14.335  0.2743  0.5791  0.7277
 6102SOL     OW29767   3.971   2.158   6.672  0.2891  0.3473 -0.0441
 6102SOL    HW129768   3.938   2.162   6.582  2.2260 -2.0391 -0.8650
 6102SOL    HW229769   3.987   2.252   6.680 -0.3550  0.4643 -0.1333
 6103SOL     OW29770   2.515   1.899   3.860 -0.3147 -0.1007 -0.0243
 6103SOL    HW129771   2.515   1.992   3.836  2.0984 -0.3246 -0.9635
 6103SOL    HW229772   2.472   1.862   3.782 -1.4523 -0.7802  0.9280
 6104SOL     OW29773   0.827   0.300   5.250 -0.4251 -0.2819  0.3736
 6104SOL    HW129774   0.825   0.392   5.224 -0.2411 -0.4903 -0.3796
 6104SOL    HW229775   0.908   0.272   5.206  1.2468  1.0299  2.6217
 6105SOL     OW29776   2.723   1.018   8.291 -0.0961  0.3795 -0.0242
 6105SOL    HW129777   2.687   1.082   8.230 -2.0651  0.0978  0.8431
 6105SOL    HW229778   2.652   0.955   8.294  0.4116 -0.1733  0.3913
 6106SOL     OW29779   1.882   3.523  16.264 -0.4852 -0.9192  0.3195
 6106SOL    HW129780   1.869   3.584  16.192  1.9947  0.5543  1.1247
 6106SOL    HW229781   1.972   3.506  16.235 -0.0826  1.9329 -0.1111
 6107SOL     OW29782   1.022   3.023  14.943  0.0133 -0.2486  0.2727
 6107SOL    HW129783   0.940   3.004  14.899  0.5210  0.8091 -1.1157
 6107SOL    HW229784   1.019   3.116  14.964  2.8303  0.3550 -2.0013
 6108SOL     OW29785   2.192   1.826   1.027  0.4677  0.1488  0.1755
 6108SOL    HW129786   2.110   1.865   0.997  1.4582  2.1820  0.0751
 6108SOL    HW229787   2.237   1.906   1.055  0.8844 -1.1307  3.1702
 6109SOL     OW29788   2.771   1.885   9.834  0.4681  0.6252 -0.5189
 6109SOL    HW129789   2.711   1.812   9.850  0.6856 -0.4514 -4.5926
 6109SOL    HW229790   2.754   1.910   9.743 -0.0835  0.0334 -0.5772
 6110SOL     OW29791   4.586   2.500   4.046  0.0963  0.3511  0.0820
 6110SOL    HW129792   4.621   2.509   3.958  0.1245 -0.6910 -0.0144
 6110SOL    HW229793   4.582   2.592   4.071 -1.3003  0.3234 -0.0704
 6111SOL     OW29794   2.480   4.493   2.719  0.2057 -0.2859  0.0063
 6111SOL    HW129795   2.489   4.467   2.811 -4.1973  0.4869  0.6250
 6111SOL    HW229796   2.432   4.576   2.724  0.6149 -0.0642  0.2899
 6112SOL     OW29797   3.197   0.389   0.393  0.1295  0.4640 -0.2278
 6112SOL    HW129798   3.202   0.307   0.442  0.9537  0.9664  0.5366
 6112SOL    HW229799   3.197   0.449   0.468  2.2469  1.5068 -1.0604
 6113SOL     OW29800   3.581   3.565  16.396 -0.3293 -0.8036 -0.1254
 6113SOL    HW129801   3.541   3.534  16.315  2.0647 -3.1131 -0.4211
 6113SOL    HW229802   3.675   3.554  16.380  0.2428  0.9669  2.0524
 6114SOL     OW29803   3.810   4.539   2.779 -0.4507  0.4600 -0.1051
 6114SOL    HW129804   3.875   4.474   2.752  0.1395  1.3682 -0.8642
 6114SOL    HW229805   3.783   4.501   2.863  2.2098  4.6950  2.6780
 6115SOL     OW29806   2.818   3.977  10.415  0.5721  1.0131  0.1350
 6115SOL    HW129807   2.856   4.043  10.473  0.9623 -1.2679  2.5154
 6115SOL    HW229808   2.825   4.021  10.330 -0.1003  1.2092  0.1830
 6116SOL     OW29809   0.487   1.049   9.025  0.3595  0.3514 -0.0657
 6116SOL    HW129810   0.412   1.044   8.966  0.4523  2.3744 -0.3635
 6116SOL    HW229811   0.493   0.957   9.051 -0.6601  0.4771  0.6200
 6117SOL     OW29812   0.178   3.533   2.377  0.3735 -0.1402  0.3090
 6117SOL    HW129813   0.127   3.600   2.331  0.7516  0.1941  0.3742
 6117SOL    HW229814   0.247   3.503   2.318 -0.4434 -1.8451  0.2369
 6118SOL     OW29815   1.392   0.218  12.126  0.1184 -0.0742  0.7853
 6118SOL    HW129816   1.433   0.183  12.047 -0.0155 -1.7849  1.4958
 6118SOL    HW229817   1.450   0.287  12.160 -2.0319  1.4425  1.3792
 6119SOL     OW29818   1.018   1.898   3.928  0.5091  0.3715  0.3004
 6119SOL    HW129819   1.060   1.968   3.877 -0.8125  1.1998  0.3308
 6119SOL    HW229820   0.943   1.882   3.870  0.9617 -0.8116  0.0372
 6120SOL     OW29821   1.741   0.355   0.491  0.3565 -0.3627  0.4297
 6120SOL    HW129822   1.710   0.276   0.536 -2.1257  0.3013 -0.1424
 6120SOL    HW229823   1.686   0.354   0.413  2.4245 -0.4403 -1.0443
 6121SOL     OW29824   0.458   4.691   0.865  1.0021 -0.2587 -0.0052
 6121SOL    HW129825   0.454   0.052   0.917  1.9368 -1.3296  1.6911
 6121SOL    HW229826   0.374   4.701   0.821 -0.1224  1.2211  2.5690
 6122SOL     OW29827   4.071   0.363   7.051  0.2346  0.1070  0.2110
 6122SOL    HW129828   4.026   0.440   7.015 -0.2895 -0.1155  0.4043
 6122SOL    HW229829   4.000   0.314   7.092 -1.1556  1.1439 -0.9508
 6123SOL     OW29830   3.519   0.840   1.318  0.4008 -0.0975 -0.0992
 6123SOL    HW129831   3.569   0.758   1.317  1.0880  0.2970  2.1479
 6123SOL    HW229832   3.583   0.910   1.331  0.1023  0.2949 -0.7676
 6124SOL     OW29833   3.253   0.498   5.328  1.0298  0.6202  0.3343
 6124SOL    HW129834   3.165   0.501   5.290  0.9245  3.4216  0.7948
 6124SOL    HW229835   3.302   0.548   5.262 -1.2023  3.2222  0.6557
 6125SOL     OW29836   0.868   3.036  12.843 -0.7443 -0.0126 -0.7043
 6125SOL    HW129837   0.874   3.081  12.759  1.6247 -0.5399 -0.8185
 6125SOL    HW229838   0.955   3.009  12.872 -0.1551  0.1679 -2.3104
 6126SOL     OW29839   0.686   4.156  12.361 -0.5068 -0.0023  0.3683
 6126SOL    HW129840   0.604   4.121  12.325 -1.0646  0.6413  1.0336
 6126SOL    HW229841   0.724   4.087  12.416 -0.7532  0.9437  1.7076
 6127SOL     OW29842   3.108   0.796   4.295 -0.3438 -0.0667  0.1340
 6127SOL    HW129843   3.186   0.811   4.349 -0.9133 -1.0969  1.2309
 6127SOL    HW229844   3.102   0.882   4.254 -0.5200  0.0122  0.3292
 6128SOL     OW29845   3.446   3.723  14.773  0.0027 -0.4881 -0.3965
 6128SOL    HW129846   3.429   3.813  14.746 -1.4012 -0.9906 -1.2053
 6128SOL    HW229847   3.413   3.725  14.863 -0.4451 -0.7233 -0.5552
 6129SOL     OW29848   0.305   3.038   1.586  0.2229 -0.1630 -0.2681
 6129SOL    HW129849   0.245   3.072   1.653 -0.1124  0.6384 -0.9768
 6129SOL    HW229850   0.393   3.052   1.620  0.6872  1.0752 -1.9861
 6130SOL     OW29851   1.100   3.474  16.219  0.0727  0.3859  0.0161
 6130SOL    HW129852   1.115   3.500  16.310  0.4845 -1.2819  0.4305
 6130SOL    HW229853   1.006   3.489  16.211 -0.1155 -0.3702  0.7846
 6131SOL     OW29854   0.240   1.589   8.147 -0.5213 -0.5611 -0.6214
 6131SOL    HW129855   0.236   1.497   8.173 -2.5823 -0.0673  0.8405
 6131SOL    HW229856   0.203   1.580   8.059 -1.1447 -2.7341 -0.1415
 6132SOL     OW29857   2.050   4.093  15.319  0.0465  0.0762  0.1460
 6132SOL    HW129858   2.014   4.157  15.381  0.2825  0.4575 -0.1044
 6132SOL    HW229859   2.143   4.095  15.338 -0.1337 -0.9194  1.0728
 6133SOL     OW29860   4.063   2.645   0.983  0.8564  0.1664 -0.1824
 6133SOL    HW129861   4.033   2.556   1.000 -4.8454  2.5459  2.4231
 6133SOL    HW229862   4.011   2.703   1.039 -2.3694 -2.2907 -0.6726
 6134SOL     OW29863   4.198   4.344   2.160 -0.0017  0.0525  0.3729
 6134SOL    HW129864   4.191   4.379   2.249 -0.2431 -0.2151  0.4608
 6134SOL    HW229865   4.107   4.350   2.131 -0.1412  0.6490  0.9272
 6135SOL     OW29866   1.096   3.730   1.172  0.4951  0.2477  0.2107
 6135SOL    HW129867   1.028   3.747   1.238  0.5426  0.8848  0.0944
 6135SOL    HW229868   1.163   3.688   1.225 -1.2075 -1.2174  1.1869
 6136SOL     OW29869   0.699   2.875   4.855 -0.0072  0.1097  0.0435
 6136SOL    HW129870   0.773   2.923   4.818  1.5633 -1.2493  1.3939
 6136SOL    HW229871   0.743   2.828   4.926 -1.5405 -3.5772 -1.4178
 6137SOL     OW29872   4.618   0.289   4.199 -0.1731 -0.2313  0.4053
 6137SOL    HW129873   4.592   0.368   4.247 -1.5251  0.0390 -0.7530
 6137SOL    HW229874   4.597   0.310   4.107  2.6255  1.0444  0.0657
 6138SOL     OW29875   3.967   2.114  10.443  0.2344  0.0999 -0.3506
 6138SOL    HW129876   4.051   2.147  10.408  0.0006  1.0893  0.0229
 6138SOL    HW229877   3.913   2.192  10.459  0.6437  0.0961  1.0326
 6139SOL     OW29878   1.187   3.620   6.325 -0.2746  0.7070 -0.1669
 6139SOL    HW129879   1.239   3.693   6.289  2.2210 -2.1120 -2.2275
 6139SOL    HW229880   1.215   3.550   6.266 -0.5209  0.7888 -0.3833
 6140SOL     OW29881   0.387   2.689   9.743  0.1099 -0.8404  0.1449
 6140SOL    HW129882   0.346   2.769   9.709 -1.3540 -1.8645 -0.5143
 6140SOL    HW229883   0.476   2.703   9.712  0.1236 -1.5777 -0.1523
 6141SOL     OW29884   2.665   1.106   6.042  0.1088 -0.7280 -0.5462
 6141SOL    HW129885   2.750   1.146   6.025  0.0286 -0.6801 -0.8430
 6141SOL    HW229886   2.646   1.072   5.954  0.5031  0.9702 -1.2851
 6142SOL     OW29887   2.995   0.012  16.137 -0.3474  0.5903 -0.5017
 6142SOL    HW129888   3.003   0.013  16.041 -2.9368  0.4183 -0.7107
 6142SOL    HW229889   3.082   0.027  16.173 -0.3275  1.2958 -0.8249
 6143SOL     OW29890   1.201   0.601   5.620  0.2794  0.5452 -0.0903
 6143SOL    HW129891   1.137   0.532   5.638  0.1426  0.8970  0.7584
 6143SOL    HW229892   1.283   0.564   5.652  0.0041 -0.0466 -0.0572
 6144SOL     OW29893   2.996   3.259   2.157  0.1427  0.9736 -0.3060
 6144SOL    HW129894   2.904   3.235   2.157  0.0726  1.2315  0.3672
 6144SOL    HW229895   3.046   3.180   2.137  0.2808  1.0184 -0.1381
 6145SOL     OW29896   1.469   3.522  12.157  0.3172  0.2771 -0.6434
 6145SOL    HW129897   1.440   3.432  12.169 -0.5055  0.7990  1.2526
 6145SOL    HW229898   1.397   3.559  12.208  2.0000 -0.4631  2.3294
 6146SOL     OW29899   1.911   1.025   2.017 -0.3804 -0.8524  0.6112
 6146SOL    HW129900   1.851   1.061   2.083  0.2252 -0.8929  1.1886
 6146SOL    HW229901   1.849   0.986   1.956 -0.8158 -0.6290  0.9136
 6147SOL     OW29902   0.895   3.895   0.118 -0.1886 -0.7238 -0.0676
 6147SOL    HW129903   0.897   3.841   0.040 -1.3119  0.4243 -0.8891
 6147SOL    HW229904   0.929   3.978   0.085 -1.7051 -0.1171 -0.1078
 6148SOL     OW29905   2.168   4.005   2.513  0.0928 -0.2323  0.9729
 6148SOL    HW129906   2.248   3.959   2.540 -0.5993 -2.9591 -1.6365
 6148SOL    HW229907   2.154   4.051   2.596 -2.2951 -1.8152  1.4780
 6149SOL     OW29908   3.999   0.044  10.656  0.5557 -0.2680 -0.0352
 6149SOL    HW129909   4.075   0.060  10.712  1.6359 -0.8960 -1.3184
 6149SOL    HW229910   3.959   0.130  10.646  0.1335 -0.6629 -1.7582
 6150SOL     OW29911   3.973   2.564   8.893  0.2210  0.4247  0.0587
 6150SOL    HW129912   3.907   2.633   8.885 -0.3186 -0.0447  0.5199
 6150SOL    HW229913   3.996   2.550   8.801 -3.0536  1.4575 -0.8998
 6151SOL     OW29914   2.834   3.211   5.251  0.2680 -0.3548 -0.4214
 6151SOL    HW129915   2.928   3.198   5.237  0.3936  0.2500 -0.1467
 6151SOL    HW229916   2.807   3.124   5.223 -0.7835 -1.1950  3.3091
 6152SOL     OW29917   4.139   1.958  14.875 -0.0092 -0.8341 -0.3245
 6152SOL    HW129918   4.192   1.896  14.825 -1.1854 -2.6659  0.6937
 6152SOL    HW229919   4.204   1.997  14.933 -2.3279 -0.9676  2.3679
 6153SOL     OW29920   0.161   0.048  13.692 -0.7059 -0.2351 -0.2858
 6153SOL    HW129921   0.137   0.079  13.604 -1.5507  0.4782  0.1914
 6153SOL    HW229922   0.074   0.026  13.724 -0.7227 -0.2223 -0.3221
 6154SOL     OW29923   0.662   1.101   5.638  0.8082  0.1377  0.1491
 6154SOL    HW129924   0.581   1.103   5.586  1.0245  0.5138 -0.1779
 6154SOL    HW229925   0.623   1.098   5.725  0.1090  0.0374 -0.1637
 6155SOL     OW29926   2.671   0.937   5.553 -0.1915  0.2898  0.2402
 6155SOL    HW129927   2.676   0.939   5.458  0.2349 -0.2058  0.2509
 6155SOL    HW229928   2.762   0.947   5.580 -0.2177  1.9171 -0.2854
 6156SOL     OW29929   0.655   2.019   3.530  0.0778  0.6056  0.5544
 6156SOL    HW129930   0.610   1.943   3.495  0.0348  0.0572  1.8173
 6156SOL    HW229931   0.667   2.071   3.450  1.3706 -1.0877 -0.3461
 6157SOL     OW29932   0.207   4.315   1.862 -0.4055 -0.3381  0.1679
 6157SOL    HW129933   0.140   4.260   1.822  0.2992 -0.0913 -1.3570
 6157SOL    HW229934   0.152   4.383   1.902 -0.1765 -1.6346  2.6429
 6158SOL     OW29935   4.426   4.223  15.959  0.0739 -0.6543 -0.3603
 6158SOL    HW129936   4.514   4.259  15.946 -0.2343  0.2665  0.0713
 6158SOL    HW229937   4.398   4.280  16.031  0.4031  0.2218 -0.9272
 6159SOL     OW29938   0.309   2.053   3.551  0.6369 -0.0749  0.1097
 6159SOL    HW129939   0.237   2.113   3.533 -0.2935 -1.0876  0.4825
 6159SOL    HW229940   0.262   1.969   3.547  0.5172  0.0107 -0.2900
 6160SOL     OW29941   1.406   3.363   7.155 -0.1509  0.2306  0.6274
 6160SOL    HW129942   1.428   3.408   7.236  1.3214 -1.2796  1.0662
 6160SOL    HW229943   1.422   3.273   7.183  2.4441  0.1849 -0.9390
 6161SOL     OW29944   2.022   1.314   5.795  0.2173 -0.2512 -0.4533
 6161SOL    HW129945   1.931   1.285   5.787  0.0457  0.7578 -2.0157
 6161SOL    HW229946   2.048   1.284   5.883  1.4605  0.7504 -0.4785
 6162SOL     OW29947   2.121   1.515   1.598  0.2817 -0.3518 -0.1442
 6162SOL    HW129948   2.122   1.575   1.673 -0.5757 -2.5566  1.6272
 6162SOL    HW229949   2.160   1.572   1.532  0.3933  0.0672  0.2809
 6163SOL     OW29950   1.990   3.754   1.175 -0.1461 -0.5878 -0.1807
 6163SOL    HW129951   1.912   3.701   1.184 -0.6027  0.1698  0.3501
 6163SOL    HW229952   1.981   3.815   1.248 -0.6338 -2.1893  1.0811
 6164SOL     OW29953   1.659   3.784   3.743 -0.3416 -0.4432  0.3595
 6164SOL    HW129954   1.597   3.789   3.815 -0.4905 -1.3671  0.2983
 6164SOL    HW229955   1.612   3.750   3.666 -1.6401  1.4953  0.2820
 6165SOL     OW29956   0.222   1.352   6.935  0.4280 -0.2809  0.0340
 6165SOL    HW129957   0.200   1.279   6.992  1.5924  0.1803  1.0640
 6165SOL    HW229958   0.214   1.416   7.005  0.0539  1.5658 -1.6849
 6166SOL     OW29959   0.133   3.011   0.569 -0.6405 -0.0990  0.4459
 6166SOL    HW129960   0.218   2.973   0.591  0.0477 -0.4758 -2.8624
 6166SOL    HW229961   0.138   3.075   0.639 -0.0123  3.2778 -2.6874
 6167SOL     OW29962   3.045   4.677   1.922 -0.3836 -0.2450  0.2148
 6167SOL    HW129963   2.994   4.596   1.919 -1.2859  0.3023  0.7256
 6167SOL    HW229964   2.993   0.005   1.988  2.4238  0.3402  2.0048
 6168SOL     OW29965   3.922   0.898   7.383  0.4345  0.1837 -0.2063
 6168SOL    HW129966   3.945   0.825   7.325 -1.6842  0.7807 -1.8164
 6168SOL    HW229967   4.011   0.921   7.409  0.3491 -0.0557  0.2933
 6169SOL     OW29968   1.461   4.618   3.654  0.2814 -0.2374  0.0645
 6169SOL    HW129969   1.446   4.709   3.627  0.4087 -0.7861 -1.8631
 6169SOL    HW229970   1.438   4.628   3.746 -1.8427  2.1317 -0.6988
 6170SOL     OW29971   1.314   4.554   8.966  0.6575 -0.8109  0.2261
 6170SOL    HW129972   1.302   4.648   8.978 -0.0825 -0.7803 -0.6976
 6170SOL    HW229973   1.364   4.528   9.043  0.5051 -1.8403 -0.0088
 6171SOL     OW29974   1.541   0.508   6.855 -0.2155  0.0747 -0.1091
 6171SOL    HW129975   1.602   0.581   6.844 -1.4918  1.0242 -0.9842
 6171SOL    HW229976   1.500   0.533   6.938  0.9187  0.9734  0.1793
 6172SOL     OW29977   1.865   3.602  16.636  0.2366 -0.4285  0.5503
 6172SOL    HW129978   1.792   3.628  16.579  0.2931 -1.8895 -0.1935
 6172SOL    HW229979   1.837   3.513  16.657  0.4532 -1.0563 -1.7874
 6173SOL     OW29980   1.497   1.950   7.349 -0.4318 -0.2222  0.6361
 6173SOL    HW129981   1.547   1.869   7.344 -1.0492 -0.5647  0.0271
 6173SOL    HW229982   1.446   1.933   7.428 -1.5279 -0.2908 -0.0839
 6174SOL     OW29983   4.112   2.892   6.109 -0.4317  0.3601 -0.5773
 6174SOL    HW129984   4.023   2.924   6.102  0.3021  2.7662  0.9627
 6174SOL    HW229985   4.092   2.812   6.158  0.8988  1.3634  1.6199
 6175SOL     OW29986   4.683   2.712   8.805 -0.2316  0.0543 -0.1785
 6175SOL    HW129987   4.685   2.788   8.863 -1.8293  0.2956 -0.4316
 6175SOL    HW229988   4.697   2.746   8.716  1.2533  0.3390  0.1684
 6176SOL     OW29989   0.109   0.993   5.694  0.1774 -0.1410 -0.3009
 6176SOL    HW129990   0.041   1.008   5.629  0.6689  3.8999  0.0918
 6176SOL    HW229991   0.049   1.009   5.767 -1.0127  0.0002 -1.3171
 6177SOL     OW29992   1.971   0.776   9.617  0.4377 -0.5037 -0.0479
 6177SOL    HW129993   2.032   0.726   9.563  2.9278 -0.7230  2.9956
 6177SOL    HW229994   1.954   0.851   9.561  0.7987  0.5011  1.1861
 6178SOL     OW29995   2.996   3.828  12.406 -0.1710  0.0603 -0.4374
 6178SOL    HW129996   2.905   3.845  12.432 -0.2566 -0.2832 -0.5120
 6178SOL    HW229997   3.021   3.913  12.369  0.3865 -1.0062 -2.4613
 6179SOL     OW29998   3.031   2.958   9.525  0.2435  0.2018 -0.6021
 6179SOL    HW129999   3.071   2.935   9.442 -0.7696  1.1768 -1.3731
 6179SOL    HW230000   3.019   2.868   9.554  0.8514  1.0049  2.1230
 6180SOL     OW30001   2.878   0.245   5.187  0.1411 -0.5971 -0.4460
 6180SOL    HW130002   2.828   0.186   5.130 -0.5916 -2.4051  2.0876
 6180SOL    HW230003   2.845   0.324   5.145  1.0322 -0.2095 -0.4267
 6181SOL     OW30004   3.595   0.754   6.540  0.3357 -0.3220 -0.1082
 6181SOL    HW130005   3.666   0.804   6.499  1.1973 -0.4673  1.2138
 6181SOL    HW230006   3.624   0.665   6.523  3.0462  0.4404  0.6341
 6182SOL     OW30007   3.825   2.938   6.086 -0.1933  0.1023 -0.0294
 6182SOL    HW130008   3.755   2.879   6.113  0.5490 -1.6886 -1.9326
 6182SOL    HW230009   3.794   2.971   6.001  0.2678 -0.3756 -0.3896
 6183SOL     OW30010   1.048   1.718   9.914 -0.2052  0.0403  0.3521
 6183SOL    HW130011   1.086   1.798   9.877  0.0518 -0.1482  0.2078
 6183SOL    HW230012   1.094   1.651   9.864  0.7266 -0.1635  1.5018
 6184SOL     OW30013   0.243   0.462   6.508 -0.1460  0.3218 -0.0204
 6184SOL    HW130014   0.193   0.534   6.546  3.0669  1.6962  1.5018
 6184SOL    HW230015   0.196   0.387   6.545 -2.9241  2.3025  0.4378
 6185SOL     OW30016   2.124   2.557   7.234 -0.5381 -0.1101 -0.2946
 6185SOL    HW130017   2.156   2.529   7.148  0.1358  0.5340 -0.2516
 6185SOL    HW230018   2.034   2.524   7.232 -0.0880 -1.2558 -1.2914
 6186SOL     OW30019   3.297   3.498   5.737  0.5779 -0.1437 -0.2969
 6186SOL    HW130020   3.288   3.491   5.832  0.4619 -0.8794 -0.3603
 6186SOL    HW230021   3.208   3.481   5.707 -0.2599  1.9524  1.0086
 6187SOL     OW30022   4.469   3.224   2.521 -0.0752 -0.6842 -0.1976
 6187SOL    HW130023   4.464   3.319   2.536  0.9222 -0.8055  0.9941
 6187SOL    HW230024   4.378   3.198   2.511 -0.1488 -0.6177  0.2968
 6188SOL     OW30025   2.211   1.859   1.570  0.1126  0.1745 -0.6196
 6188SOL    HW130026   2.141   1.861   1.505  0.8587 -1.1814 -1.4449
 6188SOL    HW230027   2.210   1.952   1.593 -2.1689 -0.1938  0.8651
 6189SOL     OW30028   2.992   2.093   3.737  0.5694 -0.1137 -0.3027
 6189SOL    HW130029   2.955   2.149   3.669 -1.2114  1.6734  2.1013
 6189SOL    HW230030   2.922   2.110   3.801 -0.0913 -3.6342 -0.0623
 6190SOL     OW30031   1.884   1.806   1.165  0.1589  0.4480 -0.3378
 6190SOL    HW130032   1.901   1.854   1.084 -2.0348  1.0477 -0.4562
 6190SOL    HW230033   1.969   1.763   1.155  0.9392  1.6901  0.8311
 6191SOL     OW30034   0.186   0.424  13.552 -0.2481 -0.3731 -0.0606
 6191SOL    HW130035   0.145   0.361  13.493  0.5809  0.5399 -1.6051
 6191SOL    HW230036   0.136   0.400  13.630  1.0666 -0.1083  0.8734
 6192SOL     OW30037   2.635   2.456   6.702 -0.1884  0.0221 -0.1778
 6192SOL    HW130038   2.557   2.405   6.684  0.8760 -2.0100  1.0268
 6192SOL    HW230039   2.603   2.543   6.676  0.3125  0.0735 -0.6123
 6193SOL     OW30040   1.033   0.498   4.704  0.6884 -0.5531 -0.3965
 6193SOL    HW130041   0.981   0.548   4.641  0.8177 -0.9653 -0.8309
 6193SOL    HW230042   1.009   0.408   4.680  0.2644 -0.5408 -0.0270
 6194SOL     OW30043   0.631   2.314  16.183  0.0759 -0.1217 -0.2586
 6194SOL    HW130044   0.619   2.224  16.154 -0.5607  0.4179 -1.7181
 6194SOL    HW230045   0.541   2.347  16.184 -0.1432 -0.6818 -1.2308
 6195SOL     OW30046   3.196   4.468  14.308  0.3723  0.6196 -0.3084
 6195SOL    HW130047   3.128   4.406  14.283  1.2263  0.2991 -1.8589
 6195SOL    HW230048   3.175   4.546  14.257  0.9539  1.2884  0.4653
 6196SOL     OW30049   3.446   4.646   3.330  0.2695 -0.4698  0.2756
 6196SOL    HW130050   3.382   4.610   3.268  0.9726  1.5008 -1.5932
 6196SOL    HW230051   3.456   0.022   3.313  0.1707 -0.8131 -1.6539
 6197SOL     OW30052   4.517   1.923   0.546 -0.1358 -0.7384  0.4020
 6197SOL    HW130053   4.599   1.895   0.586  1.4438 -0.0164 -2.3622
 6197SOL    HW230054   4.465   1.846   0.570  0.2822 -0.8243  1.0055
 6198SOL     OW30055   3.471   1.856   7.999 -0.0504  0.4700 -0.6388
 6198SOL    HW130056   3.517   1.820   8.076 -0.3249  2.9443  0.6790
 6198SOL    HW230057   3.510   1.943   7.992 -0.9077  0.8390 -0.8228
 6199SOL     OW30058   0.031   4.229  16.072  0.4422 -0.3835 -0.5353
 6199SOL    HW130059   4.704   4.146  16.090  0.5936 -0.6615 -1.4422
 6199SOL    HW230060   4.685   4.294  16.102  3.9655  3.0075 -0.3659
 6200SOL     OW30061   2.746   2.697   9.123  0.9627  0.5803 -0.0088
 6200SOL    HW130062   2.685   2.666   9.190 -0.2916 -0.0172 -1.4396
 6200SOL    HW230063   2.825   2.658   9.160  1.2611 -0.9216 -2.2537
 6201SOL     OW30064   2.142   3.341   3.269  0.2230 -0.9274  0.5746
 6201SOL    HW130065   2.072   3.302   3.217  0.3469 -0.4338  0.0400
 6201SOL    HW230066   2.113   3.432   3.264  1.6507 -0.4802  0.4830
 6202SOL     OW30067   3.188   2.682   7.768 -0.6558  0.1164 -0.2377
 6202SOL    HW130068   3.098   2.657   7.747 -0.6749 -0.9699  1.1573
 6202SOL    HW230069   3.214   2.699   7.678  0.1228 -1.0874 -0.2371
 6203SOL     OW30070   0.190   0.697  13.564 -0.2341  0.1188 -0.0360
 6203SOL    HW130071   0.225   0.610  13.546 -0.5077  0.4880 -2.3539
 6203SOL    HW230072   0.098   0.672  13.554 -0.1481  1.0749 -2.9464
 6204SOL     OW30073   1.377   4.590   6.077  0.6866 -0.1204  0.2432
 6204SOL    HW130074   1.306   4.562   6.134  0.5696 -0.3907 -0.0362
 6204SOL    HW230075   1.445   4.533   6.110  1.2170 -0.4961 -1.4718
 6205SOL     OW30076   4.395   1.587   6.714 -0.2530  0.1991  0.4194
 6205SOL    HW130077   4.344   1.628   6.784 -2.5394  1.4900 -2.0336
 6205SOL    HW230078   4.391   1.663   6.657 -0.3608 -0.9117 -1.0623
 6206SOL     OW30079   1.648   2.682   2.696  0.0744  0.3221 -0.1414
 6206SOL    HW130080   1.579   2.748   2.708 -1.8630 -1.4703 -1.3811
 6206SOL    HW230081   1.723   2.733   2.665 -0.6517  0.7155 -1.2392
 6207SOL     OW30082   1.102   2.896   5.114  0.2324 -0.0310  0.4424
 6207SOL    HW130083   1.180   2.951   5.105 -0.0406  0.4625  1.1446
 6207SOL    HW230084   1.128   2.830   5.179  1.0588 -0.0785  0.0730
 6208SOL     OW30085   2.044   3.353   5.443  0.3271 -0.0449 -0.3375
 6208SOL    HW130086   2.004   3.366   5.357 -0.6890 -3.6615 -0.3967
 6208SOL    HW230087   1.989   3.407   5.499  1.6234  0.5953  0.3258
 6209SOL     OW30088   3.622   1.036  10.879 -0.3017  0.0722  0.1264
 6209SOL    HW130089   3.574   0.964  10.920 -1.6157 -0.2605 -1.9924
 6209SOL    HW230090   3.576   1.112  10.914 -0.0359  0.5569 -0.5889
 6210SOL     OW30091   1.115   4.541   0.296 -0.5245 -0.7075  0.0845
 6210SOL    HW130092   1.053   4.468   0.298  0.7433 -1.7524  0.8642
 6210SOL    HW230093   1.081   4.602   0.362  1.5677  0.7811 -0.2134
 6211SOL     OW30094   1.008   0.962   0.566  0.5140  0.0312 -0.0663
 6211SOL    HW130095   1.056   1.030   0.612  2.1498 -1.6250  0.6683
 6211SOL    HW230096   1.073   0.894   0.547 -1.2944 -2.0723  1.1638
 6212SOL     OW30097   4.084   3.486  10.676  0.3871  0.7347 -0.0364
 6212SOL    HW130098   4.157   3.504  10.734  0.6182 -1.3210  0.3189
 6212SOL    HW230099   4.096   3.560  10.617 -1.4963 -0.1812 -1.5842
 6213SOL     OW30100   4.071   4.333   5.248 -0.3183 -0.9877  0.0975
 6213SOL    HW130101   4.052   4.370   5.335  0.2165  0.3031 -0.3416
 6213SOL    HW230102   4.050   4.242   5.266 -1.0934 -1.0320 -0.9957
 6214SOL     OW30103   3.308   3.383   6.638 -0.3769  0.5101 -0.1105
 6214SOL    HW130104   3.361   3.461   6.621  1.3344 -0.4110  0.9863
 6214SOL    HW230105   3.321   3.363   6.731  0.2115 -1.3063 -0.5989
 6215SOL     OW30106   2.185   1.414   6.203 -0.3324  0.4648  0.5323
 6215SOL    HW130107   2.146   1.374   6.125 -0.3497 -1.9875  1.7827
 6215SOL    HW230108   2.272   1.374   6.198  0.3224  1.4906  3.6960
 6216SOL     OW30109   2.620   3.112   4.448  0.1406  0.0649 -0.2162
 6216SOL    HW130110   2.675   3.166   4.392 -1.0416  0.9056 -0.5525
 6216SOL    HW230111   2.529   3.132   4.431 -0.0108 -1.0525 -0.7355
 6217SOL     OW30112   0.215   2.676   4.156 -0.3967  0.2705 -0.6115
 6217SOL    HW130113   0.268   2.748   4.190  0.2778 -1.4949  2.0325
 6217SOL    HW230114   0.127   2.688   4.191 -0.4936  0.6975 -0.9982
 6218SOL     OW30115   2.142   3.744   5.654  0.0823  0.0941  0.6208
 6218SOL    HW130116   2.226   3.788   5.643  0.8291 -1.4273  0.1507
 6218SOL    HW230117   2.147   3.660   5.608 -0.4630  0.2344  0.3113
 6219SOL     OW30118   3.322   3.401  16.016 -0.2999 -0.3509 -0.5689
 6219SOL    HW130119   3.334   3.440  15.930 -3.1681  1.5114 -0.1524
 6219SOL    HW230120   3.305   3.308  15.999 -2.1942 -0.2213  0.5415
 6220SOL     OW30121   0.256   1.485  13.434 -0.0050 -0.0779 -0.2766
 6220SOL    HW130122   0.240   1.433  13.355  0.0283 -1.8471  0.8776
 6220SOL    HW230123   0.174   1.483  13.484  0.0705 -0.3910 -0.1676
 6221SOL     OW30124   0.162   1.871  14.164  0.7492  0.2674  0.5102
 6221SOL    HW130125   0.190   1.787  14.201 -1.5457 -1.4136 -1.6345
 6221SOL    HW230126   0.241   1.904  14.121 -0.0219  2.5038  0.7749
 6222SOL     OW30127   3.030   3.506   3.462 -0.2577 -0.1854 -0.0582
 6222SOL    HW130128   3.005   3.445   3.532  0.6692 -0.3458  0.1281
 6222SOL    HW230129   2.969   3.579   3.474 -0.3348 -0.0966 -0.9726
 6223SOL     OW30130   2.021   1.789   2.209  0.0091  0.6688 -0.4388
 6223SOL    HW130131   1.947   1.802   2.151 -0.2456  0.6896 -0.1084
 6223SOL    HW230132   1.971   1.780   2.290  0.9821  1.5181  0.2564
 6224SOL     OW30133   1.050   2.826   6.191 -0.8933 -0.2210  0.0528
 6224SOL    HW130134   1.077   2.750   6.140  1.0212 -0.7774  1.8585
 6224SOL    HW230135   0.969   2.788   6.226 -0.6734  0.6300  1.5183
 6225SOL     OW30136   0.739   4.181   7.511  0.4126  0.5833  0.6708
 6225SOL    HW130137   0.724   4.107   7.453  1.1392  0.0721  1.1363
 6225SOL    HW230138   0.828   4.203   7.486  0.6677 -0.4277  0.7213
 6226SOL     OW30139   3.643   1.794  15.508 -0.2462  0.0579  0.0224
 6226SOL    HW130140   3.553   1.804  15.479 -0.9954  0.6188  2.6036
 6226SOL    HW230141   3.663   1.700  15.502 -1.7978 -0.3115  0.5901
 6227SOL     OW30142   3.762   1.688  16.271  0.2147 -0.4938  1.0453
 6227SOL    HW130143   3.797   1.619  16.328  1.4860  0.3842  1.3425
 6227SOL    HW230144   3.702   1.654  16.205  1.0662  1.5412 -0.7838
 6228SOL     OW30145   4.014   0.444  14.643  0.3364  0.1860  0.1567
 6228SOL    HW130146   4.055   0.470  14.725 -3.1001 -2.3542  2.6916
 6228SOL    HW230147   3.999   0.522  14.590 -0.5047  0.4023  0.7118
 6229SOL     OW30148   2.779   2.055   6.960  0.1975 -0.7833  0.0093
 6229SOL    HW130149   2.771   2.076   6.867 -2.0252 -0.1403  0.3509
 6229SOL    HW230150   2.721   2.122   6.996  2.0103  1.8192 -1.9178
 6230SOL     OW30151   2.293   2.515   2.676 -0.4640  0.4130 -0.2224
 6230SOL    HW130152   2.259   2.433   2.713  0.4643  0.2640  0.2945
 6230SOL    HW230153   2.308   2.561   2.759 -1.6720 -1.3426  0.9914
 6231SOL     OW30154   0.490   3.029   7.498  0.6945  0.3335  0.0391
 6231SOL    HW130155   0.439   3.100   7.461 -0.0400 -1.1296 -1.7481
 6231SOL    HW230156   0.489   3.040   7.593  1.0299  0.2154  0.0576
 6232SOL     OW30157   0.199   1.692   2.754 -0.3530  0.3862  0.5206
 6232SOL    HW130158   0.124   1.738   2.793  0.1941  3.1303 -1.6622
 6232SOL    HW230159   0.176   1.689   2.661 -0.0627  1.4898  0.4126
 6233SOL     OW30160   0.542   0.144   5.744 -0.4436 -0.0978  0.3664
 6233SOL    HW130161   0.621   0.184   5.781  0.6805  0.3075 -2.4682
 6233SOL    HW230162   0.500   0.227   5.722  0.3612 -0.3061 -1.9660
 6234SOL     OW30163   1.273   2.722   9.225 -0.0131 -0.4276 -0.1989
 6234SOL    HW130164   1.280   2.776   9.304 -2.0744  2.5204 -2.0384
 6234SOL    HW230165   1.210   2.654   9.249 -1.0050  0.2050 -1.0560
 6235SOL     OW30166   1.088   4.277   3.964  0.4387  0.0730 -0.3381
 6235SOL    HW130167   1.137   4.277   4.046 -1.3339 -0.8037  0.7374
 6235SOL    HW230168   1.090   4.369   3.938  0.7552  0.9457  2.8525
 6236SOL     OW30169   0.300   0.819   5.641 -0.3927  0.4001  0.4296
 6236SOL    HW130170   0.231   0.879   5.670  0.0997 -0.5981  3.6637
 6236SOL    HW230171   0.282   0.831   5.548 -1.1951  0.1300  0.5466
 6237SOL     OW30172   0.580   1.861   8.776 -0.2125  0.5776 -0.2695
 6237SOL    HW130173   0.552   1.875   8.867 -0.4652 -0.1034 -0.2379
 6237SOL    HW230174   0.518   1.899   8.714 -0.6013 -0.5270 -0.5707
 6238SOL     OW30175   1.641   0.035   4.198  0.1409 -0.8534 -0.6153
 6238SOL    HW130176   1.568   0.018   4.257  0.6861  0.3202  0.3953
 6238SOL    HW230177   1.698   0.091   4.251 -1.3951  0.1368  0.0068
 6239SOL     OW30178   4.214   2.682   5.174 -0.2606 -0.0667 -0.1227
 6239SOL    HW130179   4.288   2.626   5.150 -0.2131  0.2747 -0.7683
 6239SOL    HW230180   4.170   2.681   5.089 -1.9274 -0.0504  0.7323
 6240SOL     OW30181   0.303   0.248  12.627  0.4713  0.3262  0.2724
 6240SOL    HW130182   0.250   0.244  12.548  1.0070 -0.9638 -0.0174
 6240SOL    HW230183   0.368   0.313  12.602 -1.7066  2.9357  1.3482
 6241SOL     OW30184   0.254   0.177   6.842 -0.2115  0.1563  0.5005
 6241SOL    HW130185   0.309   0.253   6.824  0.8373 -1.3741 -2.6983
 6241SOL    HW230186   0.298   0.138   6.918  0.0652 -0.8229 -0.1494
 6242SOL     OW30187   2.221   2.422  17.302 -0.3055 -0.1956  0.2242
 6242SOL    HW130188   2.212   2.391  17.212 -0.1774  0.0904  0.1129
 6242SOL    HW230189   2.296   2.367  17.327 -2.5777 -3.7302 -0.7391
 6243SOL     OW30190   2.110   3.059  13.932 -0.1347  0.2567 -0.3752
 6243SOL    HW130191   2.032   3.112  13.948 -1.1454 -1.6783  0.9881
 6243SOL    HW230192   2.174   3.118  13.973  0.1579 -0.5592  0.3320
 6244SOL     OW30193   4.468   3.930   4.378  0.0381  0.3111 -0.3088
 6244SOL    HW130194   4.525   3.879   4.321  1.0710 -0.3155  1.3053
 6244SOL    HW230195   4.381   3.891   4.374  0.2272 -0.2624  1.2207
 6245SOL     OW30196   4.123   1.521   3.349  0.2340 -0.0167  0.4072
 6245SOL    HW130197   4.176   1.444   3.329 -2.1128 -1.8370  1.1454
 6245SOL    HW230198   4.188   1.576   3.392 -0.1922  0.2300  0.7341
 6246SOL     OW30199   1.341   0.355   4.944 -0.2324  0.3307  0.0596
 6246SOL    HW130200   1.416   0.398   4.903  0.5493 -3.1135 -2.0382
 6246SOL    HW230201   1.361   0.362   5.038 -2.6518  0.5640  0.5808
 6247SOL     OW30202   1.588   2.776   5.568 -0.0356  0.2070 -0.2664
 6247SOL    HW130203   1.562   2.854   5.617 -2.2820 -0.2213 -0.7792
 6247SOL    HW230204   1.618   2.723   5.642 -2.0940  0.9522  1.1122
 6248SOL     OW30205   3.069   2.224  10.917  0.2337 -0.3722  0.0772
 6248SOL    HW130206   3.045   2.146  10.967  0.9898  0.6398  2.0013
 6248SOL    HW230207   3.107   2.188  10.837  1.7902  1.5307 -0.0226
 6249SOL     OW30208   4.229   3.293   2.330  0.1698  0.5821  0.3287
 6249SOL    HW130209   4.194   3.227   2.270 -0.4982  1.8528 -0.6569
 6249SOL    HW230210   4.289   3.341   2.273 -0.0645  1.3197  0.6993
 6250SOL     OW30211   1.472   1.103  10.529  0.3325 -0.1313  0.7496
 6250SOL    HW130212   1.407   1.087  10.460  0.3094  0.6866  0.5862
 6250SOL    HW230213   1.426   1.173  10.575 -2.8956 -0.9531 -1.1538
 6251SOL     OW30214   0.483   2.336   6.501  0.1148 -0.0939  0.2447
 6251SOL    HW130215   0.506   2.246   6.480  0.1654  0.2203 -1.0310
 6251SOL    HW230216   0.528   2.358   6.583 -0.8562  0.9811  0.4986
 6252SOL     OW30217   0.452   4.088   6.929 -0.5272  0.4844  0.3166
 6252SOL    HW130218   0.518   4.028   6.894 -1.5859  0.2953 -1.3500
 6252SOL    HW230219   0.504   4.169   6.924 -1.4313  0.8181 -3.6550
 6253SOL     OW30220   1.888   0.375   4.294  0.1226  0.1966  0.4321
 6253SOL    HW130221   1.817   0.342   4.349  0.4306  0.5810  1.0476
 6253SOL    HW230222   1.857   0.464   4.278 -0.4169 -0.4043 -1.9509
 6254SOL     OW30223   2.497   0.750   0.907  0.1453  0.4497  0.0929
 6254SOL    HW130224   2.432   0.685   0.933  0.5548  0.8772  2.1367
 6254SOL    HW230225   2.464   0.818   0.965  0.3584 -1.8103  2.8844
 6255SOL     OW30226   1.720   1.377  12.749  0.1667  0.3468 -0.2736
 6255SOL    HW130227   1.796   1.435  12.743 -0.4291  1.0398 -1.1918
 6255SOL    HW230228   1.679   1.365  12.663 -2.1524  1.4553  0.6624
 6256SOL     OW30229   3.361   2.804   2.047  0.0538 -0.0241 -0.1911
 6256SOL    HW130230   3.337   2.818   1.955  0.9913  0.6561 -0.3281
 6256SOL    HW230231   3.360   2.896   2.074 -0.2362  0.2020 -0.9537
 6257SOL     OW30232   1.545   1.455   5.652  0.3351 -0.9492 -0.4379
 6257SOL    HW130233   1.469   1.425   5.602 -1.3509  0.6013  1.2080
 6257SOL    HW230234   1.553   1.389   5.721  2.0719  1.4011  1.6253
 6258SOL     OW30235   0.974   4.706   1.798 -0.0856 -0.1643  0.4911
 6258SOL    HW130236   0.990   0.032   1.714  0.8497  0.0228  0.7645
 6258SOL    HW230237   0.965   4.619   1.759 -0.9799  0.1496 -0.0158
 6259SOL     OW30238   0.611   4.600   5.879 -0.1280 -0.1595  0.1546
 6259SOL    HW130239   0.685   4.626   5.934 -1.8757  2.2696  1.3829
 6259SOL    HW230240   0.593   4.679   5.828  1.6037 -0.0011 -0.1952
 6260SOL     OW30241   1.536   4.602  14.492 -0.4257 -0.5928  0.1163
 6260SOL    HW130242   1.612   4.624  14.437 -1.2883  3.3372  0.5213
 6260SOL    HW230243   1.512   4.688  14.526  1.8610 -0.0046  0.2347
 6261SOL     OW30244   3.669   2.423   4.263 -0.8095  0.4928  0.3522
 6261SOL    HW130245   3.601   2.470   4.215 -1.0747  0.3834  0.6226
 6261SOL    HW230246   3.737   2.491   4.262 -1.0583  0.7357  0.2356
 6262SOL     OW30247   4.331   0.939   1.676  0.2458 -0.0897  0.7492
 6262SOL    HW130248   4.408   0.883   1.674  1.2130  1.2459  0.6059
 6262SOL    HW230249   4.338   0.983   1.591  0.2553 -1.1691  0.1888
 6263SOL     OW30250   2.913   0.723   4.104  0.4245 -0.0583 -0.7027
 6263SOL    HW130251   2.950   0.769   4.028  1.2776  1.7824  0.8055
 6263SOL    HW230252   2.981   0.729   4.171  0.1732  2.5052 -0.6784
 6264SOL     OW30253   1.828   1.182   5.478 -0.2838  0.2848 -0.2993
 6264SOL    HW130254   1.834   1.277   5.483 -1.1764  0.3777 -1.0541
 6264SOL    HW230255   1.917   1.157   5.504 -1.1825  0.1306  2.6195
 6265SOL     OW30256   3.796   2.875   3.651  0.1316  0.2493  0.7754
 6265SOL    HW130257   3.730   2.942   3.634  0.8285  1.0632  1.2862
 6265SOL    HW230258   3.784   2.817   3.576 -2.3556 -2.4757  3.2657
 6266SOL     OW30259   0.429   0.767   3.419  0.0759  0.0598  0.5674
 6266SOL    HW130260   0.366   0.838   3.412  0.0588  0.0525  0.6469
 6266SOL    HW230261   0.452   0.766   3.326  2.6834  0.4096  1.1864
 6267SOL     OW30262   2.411   4.643   6.023 -0.4018  0.3780 -0.1160
 6267SOL    HW130263   2.352   4.570   6.045  0.1562  0.0419  0.2550
 6267SOL    HW230264   2.494   4.595   6.012 -0.2272  0.2872  1.6342
 6268SOL     OW30265   2.945   0.091   7.084  0.3113  0.5773 -0.3474
 6268SOL    HW130266   2.921   0.100   7.177  1.7977 -0.7332  0.1508
 6268SOL    HW230267   2.861   0.118   7.045  0.5443 -0.3784 -1.5019
 6269SOL     OW30268   4.543   0.075   8.555 -0.0051  0.4859  0.1500
 6269SOL    HW130269   4.495   0.111   8.481  0.5194  1.0581  0.0945
 6269SOL    HW230270   4.517   4.704   8.534 -2.1537  2.0912 -3.8407
 6270SOL     OW30271   0.268   1.285   3.431 -0.0696  0.8658 -0.1037
 6270SOL    HW130272   0.313   1.273   3.347  1.0923  0.9736  0.5145
 6270SOL    HW230273   0.180   1.291   3.393 -0.0855  0.5922 -0.1119
 6271SOL     OW30274   2.646   4.211   6.653 -0.1555 -0.1710  0.1624
 6271SOL    HW130275   2.553   4.226   6.634  0.8093  1.3247 -3.3180
 6271SOL    HW230276   2.640   4.121   6.685 -0.1457 -0.6091 -1.0804
 6272SOL     OW30277   0.663   3.466  16.060  0.4353 -0.3452 -0.3775
 6272SOL    HW130278   0.570   3.485  16.076  0.7244  1.9909 -1.5318
 6272SOL    HW230279   0.675   3.470  15.965 -0.7440 -1.0716 -0.5579
 6273SOL     OW30280   3.993   3.302   5.164  0.4958 -0.1084  0.2876
 6273SOL    HW130281   3.980   3.208   5.171  1.9976 -0.4441 -1.4793
 6273SOL    HW230282   3.931   3.310   5.091  1.4329  0.9424 -0.3775
 6274SOL     OW30283   3.782   0.103   8.273  0.1522 -0.2764 -0.1024
 6274SOL    HW130284   3.695   0.063   8.275 -0.0685  0.2894  1.1601
 6274SOL    HW230285   3.810   0.107   8.364 -0.1677 -0.9845  0.0243
 6275SOL     OW30286   0.563   0.921   2.009  0.0971  0.0735 -0.1960
 6275SOL    HW130287   0.618   0.844   2.024  0.4340  0.6596  1.5844
 6275SOL    HW230288   0.600   0.973   2.081  1.2006 -0.8235 -0.1078
 6276SOL     OW30289   4.240   1.224   3.616 -0.1926 -0.1698 -0.4937
 6276SOL    HW130290   4.255   1.316   3.592 -0.2920 -0.0381 -0.0567
 6276SOL    HW230291   4.172   1.194   3.556 -0.5836  1.0655 -0.6728
 6277SOL     OW30292   4.070   4.494   4.918  0.1307 -0.0399 -0.0797
 6277SOL    HW130293   4.050   4.519   4.828 -1.6777 -0.3337  0.2286
 6277SOL    HW230294   3.992   4.443   4.942  0.6335 -0.9451 -0.3778
 6278SOL     OW30295   1.479   4.382   7.956  0.0335 -0.9328 -0.9241
 6278SOL    HW130296   1.470   4.477   7.943  2.4644 -0.3363  1.8794
 6278SOL    HW230297   1.391   4.363   7.990  0.0416 -0.4414 -0.6380
 6279SOL     OW30298   4.704   2.201   2.561  0.0699  0.2513  0.1431
 6279SOL    HW130299   4.621   2.217   2.517  0.2447 -0.6076 -0.5019
 6279SOL    HW230300   0.029   2.284   2.541  0.2767 -0.0723 -0.7528
 6280SOL     OW30301   0.370   4.585   7.241  0.0780  0.2562 -0.1559
 6280SOL    HW130302   0.362   4.662   7.297  0.1316  0.5034 -0.4922
 6280SOL    HW230303   0.432   4.528   7.288  0.1697  2.5156  2.4597
 6281SOL     OW30304   2.676   3.562   6.805  0.7615 -0.0001  0.3007
 6281SOL    HW130305   2.627   3.480   6.797 -2.4569  2.3333 -3.8971
 6281SOL    HW230306   2.768   3.536   6.794 -0.2252 -1.7065 -3.9310
 6282SOL     OW30307   2.967   0.971   5.315 -0.3762 -0.0243 -0.6021
 6282SOL    HW130308   3.005   0.937   5.234 -0.6084  0.8399 -1.0695
 6282SOL    HW230309   2.883   1.003   5.283  0.4120 -0.4901 -3.1406
 6283SOL     OW30310   0.608   3.694   8.368 -0.2593 -0.4496  0.4563
 6283SOL    HW130311   0.538   3.757   8.356  0.6150  0.1905 -1.2192
 6283SOL    HW230312   0.673   3.761   8.388 -0.8981 -0.1289  1.4525
 6284SOL     OW30313   1.995   0.664  16.254 -0.0333  0.3717  0.4051
 6284SOL    HW130314   1.941   0.599  16.298  0.2631  0.9346  1.5945
 6284SOL    HW230315   1.941   0.680  16.176 -0.4929 -0.8273  0.4882
 6285SOL     OW30316   3.537   0.460  14.155 -0.4793  0.5244 -0.1554
 6285SOL    HW130317   3.492   0.376  14.156 -0.3702  0.4314 -2.4482
 6285SOL    HW230318   3.628   0.432  14.167  0.0836  2.7701  0.8987
 6286SOL     OW30319   3.266   1.962   1.485  0.6339  0.1356  0.1145
 6286SOL    HW130320   3.204   1.916   1.541  0.1345  0.3344 -0.2751
 6286SOL    HW230321   3.345   1.912   1.503 -0.0702 -0.9024  0.2784
 6287SOL     OW30322   4.126   4.487   4.389  0.7046 -0.8986 -0.6372
 6287SOL    HW130323   4.197   4.501   4.326  1.2343 -0.5570  0.0335
 6287SOL    HW230324   4.153   4.397   4.410  0.3878 -0.5682  1.1426
 6288SOL     OW30325   2.576   4.675   6.773  0.0587 -0.1620  0.0944
 6288SOL    HW130326   2.550   4.657   6.683 -0.4372  0.4355  0.1134
 6288SOL    HW230327   2.661   4.712   6.747 -0.8350  2.4373  0.8205
 6289SOL     OW30328   2.117   0.075   6.534  0.1415  0.2469  0.2953
 6289SOL    HW130329   2.074   0.002   6.579  1.1058  0.5314  1.6624
 6289SOL    HW230330   2.152   0.125   6.608 -1.0160  0.5753  0.6244
 6290SOL     OW30331   0.651   0.635  13.282 -0.0966  0.0227 -0.6050
 6290SOL    HW130332   0.686   0.614  13.368 -0.5640  0.0340 -0.4139
 6290SOL    HW230333   0.644   0.545  13.251 -0.4511  0.2624 -1.2321
 6291SOL     OW30334   0.411   0.438   4.749 -0.1561 -0.2608  0.9055
 6291SOL    HW130335   0.342   0.496   4.721  0.7344  0.0294 -0.6700
 6291SOL    HW230336   0.377   0.350   4.734  0.3375 -0.2460 -0.3126
 6292SOL     OW30337   4.039   4.095  15.380 -0.0096  0.2819  0.6468
 6292SOL    HW130338   3.959   4.122  15.335 -1.0250 -1.7218  1.2559
 6292SOL    HW230339   4.032   4.143  15.462 -1.7468 -0.4132  0.8893
 6293SOL     OW30340   4.227   4.063   2.387  0.5369 -0.3395  0.0849
 6293SOL    HW130341   4.309   4.091   2.428 -0.6512  1.5194  1.1460
 6293SOL    HW230342   4.258   3.984   2.341 -2.3726 -2.5795  1.9907
 6294SOL     OW30343   3.079   4.439   5.021 -0.1115  0.1111  0.3423
 6294SOL    HW130344   3.079   4.535   5.028  0.9839  0.1999 -0.7804
 6294SOL    HW230345   3.168   4.412   5.044 -0.1638  0.3183  0.7952
 6295SOL     OW30346   0.110   3.182   7.327  0.0805 -0.1309  0.3465
 6295SOL    HW130347   0.060   3.110   7.288 -1.2887  0.4209  1.0948
 6295SOL    HW230348   0.188   3.177   7.271 -0.8884  1.7268 -1.1701
 6296SOL     OW30349   1.438   4.032  15.776  0.7959 -0.1092 -0.7314
 6296SOL    HW130350   1.362   3.992  15.819  0.5682  0.7538 -0.3282
 6296SOL    HW230351   1.495   4.034  15.852  0.8398  1.2536 -0.8077
 6297SOL     OW30352   1.480   4.594   7.642  0.0030 -0.6399 -0.2462
 6297SOL    HW130353   1.540   4.529   7.605  2.9332  2.0453 -0.2143
 6297SOL    HW230354   1.535   4.632   7.710 -0.9591  0.9611 -0.3678
 6298SOL     OW30355   4.504   2.530   8.162  0.3101  0.3016 -0.2908
 6298SOL    HW130356   4.442   2.591   8.202 -0.8485  0.7368 -2.7994
 6298SOL    HW230357   4.547   2.598   8.110 -1.0292 -0.5221 -2.4323
 6299SOL     OW30358   1.466   2.404   4.730 -0.2183  0.2149  0.3556
 6299SOL    HW130359   1.438   2.452   4.652  0.9263  1.5767  0.7721
 6299SOL    HW230360   1.408   2.329   4.717 -1.7699  1.3374  0.7476
 6300SOL     OW30361   4.563   4.340   6.959 -0.3550  0.0734 -0.1509
 6300SOL    HW130362   4.488   4.374   7.009 -1.5026  1.1836 -2.6273
 6300SOL    HW230363   4.604   4.415   6.916  2.4530 -0.0117  2.3731
 6301SOL     OW30364   4.324   1.665  11.597  0.2734 -0.1418  0.1298
 6301SOL    HW130365   4.322   1.669  11.501 -3.1890  0.7713  0.2412
 6301SOL    HW230366   4.321   1.570  11.599 -2.1222 -0.0263  1.3430
 6302SOL     OW30367   0.761   2.748   5.117  0.1475  0.0492  0.4731
 6302SOL    HW130368   0.670   2.768   5.141 -0.5674 -2.5268 -0.0596
 6302SOL    HW230369   0.780   2.693   5.194  1.1599  0.2263  0.3460
 6303SOL     OW30370   1.841   2.466  10.293  0.5683  0.3588  0.1131
 6303SOL    HW130371   1.787   2.434  10.366  1.6168 -0.4939  0.5269
 6303SOL    HW230372   1.928   2.432  10.317  0.7551  1.7645  1.4104
 6304SOL     OW30373   4.272   2.498  13.008  0.2607  0.2696 -0.1056
 6304SOL    HW130374   4.274   2.563  13.079  0.1539  0.1979 -0.0354
 6304SOL    HW230375   4.252   2.415  13.051  1.2418 -0.9916 -2.1176
 6305SOL     OW30376   1.506   2.456   5.239 -0.2108  0.3977  0.0664
 6305SOL    HW130377   1.459   2.462   5.156  0.0861 -2.1889 -0.2910
 6305SOL    HW230378   1.569   2.388   5.216 -0.1848  0.0742  1.1124
 6306SOL     OW30379   1.988   1.892  16.899  0.3590 -1.1045 -0.5806
 6306SOL    HW130380   2.080   1.904  16.921  0.2671 -1.2650 -0.1049
 6306SOL    HW230381   1.974   1.945  16.821  1.4812  2.7204  1.8045
 6307SOL     OW30382   3.541   1.241   3.917 -0.5935 -0.2227 -0.5905
 6307SOL    HW130383   3.488   1.310   3.956  2.0301  0.9951  0.8159
 6307SOL    HW230384   3.487   1.227   3.839 -0.8340 -1.8460 -0.1424
 6308SOL     OW30385   1.423   3.295  14.066  0.5850  0.1010  1.0514
 6308SOL    HW130386   1.387   3.235  14.131  1.3498  1.4520  2.7267
 6308SOL    HW230387   1.389   3.370  14.116 -0.7948  0.1439  0.0509
 6309SOL     OW30388   0.388   0.688   8.802 -0.2311  0.2295  0.3690
 6309SOL    HW130389   0.316   0.747   8.822  0.3638  1.0254  0.1592
 6309SOL    HW230390   0.360   0.634   8.728 -0.3564  1.7811 -0.7335
 6310SOL     OW30391   2.937   4.123  12.810  0.3247 -0.3734  0.5881
 6310SOL    HW130392   2.878   4.185  12.766 -0.4341 -2.8451 -1.9267
 6310SOL    HW230393   3.002   4.103  12.743 -1.8422  1.8812 -2.1736
 6311SOL     OW30394   1.673   0.482  14.855  0.3456  0.2325 -0.1566
 6311SOL    HW130395   1.738   0.441  14.912 -0.3423  0.9059  1.1109
 6311SOL    HW230396   1.602   0.418  14.848  0.8137 -0.1152 -1.7565
 6312SOL     OW30397   3.589   3.053   3.635 -0.0336  0.2939 -0.7653
 6312SOL    HW130398   3.495   3.048   3.616  0.0855 -1.9936 -0.8372
 6312SOL    HW230399   3.590   3.117   3.706 -1.4154 -0.9554  0.3810
 6313SOL     OW30400   3.436   1.692  11.691 -0.3099  0.1017 -0.2119
 6313SOL    HW130401   3.382   1.761  11.653  0.5149  0.7096 -0.2989
 6313SOL    HW230402   3.465   1.739  11.770  0.4651 -1.9100  0.7083
 6314SOL     OW30403   0.050   2.533   4.538  0.1769  0.5357 -0.1153
 6314SOL    HW130404   0.025   2.581   4.459 -0.7862  0.6799  0.2779
 6314SOL    HW230405   0.133   2.493   4.511 -1.1222 -1.3117 -1.3899
 6315SOL     OW30406   3.310   0.800   6.488 -0.4184 -0.2445  0.5043
 6315SOL    HW130407   3.385   0.744   6.510 -0.0390 -0.3234 -0.9588
 6315SOL    HW230408   3.351   0.887   6.480 -1.4403  0.1042 -0.8752
 6316SOL     OW30409   4.167   2.549   2.232 -0.0553  0.2612 -0.3166
 6316SOL    HW130410   4.161   2.510   2.320  0.5715 -0.4187 -0.5642
 6316SOL    HW230411   4.078   2.527   2.204 -0.7649 -0.7418  2.7195
 6317SOL     OW30412   4.614   2.940   7.638 -0.1465  0.1075  0.5156
 6317SOL    HW130413   4.532   2.964   7.596 -0.8779 -0.0319  1.8584
 6317SOL    HW230414   4.574   2.862   7.677 -0.9314 -0.5389 -1.5601
 6318SOL     OW30415   1.421   2.105   6.959  0.5846 -0.2318 -0.2866
 6318SOL    HW130416   1.476   2.170   7.003  0.5549 -1.6415  1.7846
 6318SOL    HW230417   1.453   2.026   7.001 -1.5500 -0.6607  0.5328
 6319SOL     OW30418   1.361   1.442   4.655 -0.1473  0.2433 -0.1788
 6319SOL    HW130419   1.370   1.473   4.745 -0.5015  2.6149 -0.9512
 6319SOL    HW230420   1.268   1.420   4.650 -0.2893  0.9809 -0.7098
 6320SOL     OW30421   4.197   3.625   2.566  0.1346 -0.1396  0.3344
 6320SOL    HW130422   4.117   3.676   2.583  0.1463  0.0701 -0.2694
 6320SOL    HW230423   4.208   3.591   2.655  0.0494 -2.3056 -0.4897
 6321SOL     OW30424   1.884   1.128   8.158  0.2671 -0.3006  0.0344
 6321SOL    HW130425   1.812   1.180   8.194 -1.0518  0.2843 -3.4370
 6321SOL    HW230426   1.930   1.111   8.240 -0.4217  1.2445  0.7505
 6322SOL     OW30427   2.852   4.364  12.671 -0.1418 -0.2177  0.0286
 6322SOL    HW130428   2.947   4.366  12.664 -0.2282  1.7359 -0.3747
 6322SOL    HW230429   2.822   4.428  12.608 -0.1466 -1.4367 -1.2090
 6323SOL     OW30430   3.776   4.103   5.129  0.3471 -0.2577 -0.2916
 6323SOL    HW130431   3.706   4.041   5.106  0.4921 -0.4332 -0.2632
 6323SOL    HW230432   3.813   4.059   5.206 -2.4868 -0.5857  0.9097
 6324SOL     OW30433   3.421   2.849  12.461  0.2221 -0.4619  1.1419
 6324SOL    HW130434   3.427   2.777  12.524 -1.6987 -1.2482  0.4244
 6324SOL    HW230435   3.372   2.919  12.505  2.1694  1.1859  0.7139
 6325SOL     OW30436   3.241   2.840  11.586  1.1438  0.3130  0.3812
 6325SOL    HW130437   3.234   2.905  11.517 -1.0124  1.1334  1.3653
 6325SOL    HW230438   3.259   2.763  11.533  1.5187 -0.3128  1.4111
 6326SOL     OW30439   1.929   3.047   3.712 -0.6419 -0.0049 -0.1278
 6326SOL    HW130440   1.961   3.070   3.625  1.8064  1.6087  1.1974
 6326SOL    HW230441   1.961   2.957   3.717 -1.1942 -0.3083 -2.1625
 6327SOL     OW30442   4.491   2.104   6.041 -0.1853  0.3446 -0.2698
 6327SOL    HW130443   4.427   2.077   5.975 -0.5320  0.8012 -0.1165
 6327SOL    HW230444   4.503   2.018   6.083 -2.5523 -0.7660 -1.8803
 6328SOL     OW30445   3.445   1.231   4.894  0.0998 -0.0586  0.2012
 6328SOL    HW130446   3.501   1.297   4.854 -0.0701  0.1342  0.2790
 6328SOL    HW230447   3.468   1.153   4.844 -0.0629 -0.4618  0.7529
 6329SOL     OW30448   1.235   3.665  12.299 -0.0821 -0.0741 -0.3872
 6329SOL    HW130449   1.234   3.579  12.343  0.3054 -1.0776 -2.3382
 6329SOL    HW230450   1.166   3.706  12.351  2.1191  1.5475  1.2483
 6330SOL     OW30451   2.046   0.436  10.783 -0.2326  0.1173  0.2926
 6330SOL    HW130452   1.967   0.473  10.822 -1.3821 -0.0069 -1.8952
 6330SOL    HW230453   2.008   0.361  10.738  4.2893 -1.8277 -0.3451
 6331SOL     OW30454   0.837   3.706   6.753 -0.3109  0.9090  0.0696
 6331SOL    HW130455   0.889   3.786   6.754 -0.1930  0.8406 -0.5768
 6331SOL    HW230456   0.898   3.634   6.743 -1.1242  0.1126  0.7744
 6332SOL     OW30457   0.165   2.800   2.388 -0.2986 -0.2136 -0.6789
 6332SOL    HW130458   0.142   2.888   2.358  3.8953  0.3497 -2.2478
 6332SOL    HW230459   0.217   2.816   2.467 -0.1516 -1.6737 -0.4709
 6333SOL     OW30460   2.141   0.588  16.664  0.2844  0.4713 -0.4336
 6333SOL    HW130461   2.093   0.638  16.729 -1.1141 -0.3941 -0.8014
 6333SOL    HW230462   2.225   0.562  16.702  0.1628 -0.1713 -0.5987
 6334SOL     OW30463   1.389   3.573   6.606  0.6520 -0.1092  0.0997
 6334SOL    HW130464   1.474   3.533   6.622  0.6449 -0.4441 -0.6756
 6334SOL    HW230465   1.346   3.498   6.563  0.3643 -1.0499  2.0437
 6335SOL     OW30466   4.600   1.749   4.847  0.0958 -0.1630 -0.4231
 6335SOL    HW130467   4.514   1.776   4.813  0.0491 -0.0523 -0.2167
 6335SOL    HW230468   4.578   1.673   4.901  0.1673 -0.4877 -0.8499
 6336SOL     OW30469   0.481   3.128   3.878 -0.5247  0.3086 -0.1249
 6336SOL    HW130470   0.484   3.215   3.837 -0.9649  0.3283 -0.1148
 6336SOL    HW230471   0.473   3.151   3.970  1.6251 -2.2337  0.6906
 6337SOL     OW30472   1.476   2.252   3.020 -0.7266  0.4590  0.3229
 6337SOL    HW130473   1.422   2.173   3.027  1.0696 -0.7919 -0.0412
 6337SOL    HW230474   1.538   2.243   3.092  0.9939  3.1280 -0.8293
 6338SOL     OW30475   3.016   0.867   9.545 -0.3445  0.0452  0.4437
 6338SOL    HW130476   2.949   0.808   9.510 -0.9209  0.6742  0.4938
 6338SOL    HW230477   3.100   0.824   9.528  0.0598  0.8456  0.4277
 6339SOL     OW30478   2.100   3.926  14.295 -0.2366 -0.3594 -0.2040
 6339SOL    HW130479   2.006   3.939  14.284 -0.1820 -0.8616 -1.2503
 6339SOL    HW230480   2.114   4.017  14.321  1.4498 -0.0047 -2.3612
 6340SOL     OW30481   1.872   3.217   4.769  0.4547 -0.4007 -0.5741
 6340SOL    HW130482   1.787   3.218   4.725  0.3884 -0.3836 -0.4460
 6340SOL    HW230483   1.869   3.126   4.800 -0.2005 -0.2819 -0.2839
 6341SOL     OW30484   2.702   0.191   4.286  0.5488  0.3239 -0.2634
 6341SOL    HW130485   2.790   0.203   4.249  0.5117  1.5427  0.0400
 6341SOL    HW230486   2.652   0.252   4.232 -1.3503  0.8582  2.1112
 6342SOL     OW30487   4.199   0.073   3.895 -0.1991  0.4129 -0.0797
 6342SOL    HW130488   4.164   0.104   3.979  1.4651 -0.9960  1.1500
 6342SOL    HW230489   4.198   4.696   3.908  3.2955  0.5023  0.9124
 6343SOL     OW30490   3.358   0.505  12.145 -0.1540  1.0197 -0.3810
 6343SOL    HW130491   3.306   0.537  12.219  1.8221  0.7017  1.1729
 6343SOL    HW230492   3.334   0.413  12.148 -0.6510  1.2272  2.5388
 6344SOL     OW30493   0.863   4.115   5.116  0.1182  0.2574 -0.1050
 6344SOL    HW130494   0.940   4.170   5.130  0.2237  1.0619 -4.0408
 6344SOL    HW230495   0.819   4.174   5.055  0.6142 -1.4634 -2.1332
 6345SOL     OW30496   3.178   3.685  15.755  0.7305 -0.4519 -0.1698
 6345SOL    HW130497   3.136   3.755  15.704  1.4748  0.0469 -0.1113
 6345SOL    HW230498   3.123   3.612  15.728 -1.0417  1.3900 -1.5705
 6346SOL     OW30499   3.836   0.026   5.693  0.2846  0.3984  0.2967
 6346SOL    HW130500   3.748   0.060   5.703 -0.0211  0.4756 -2.5847
 6346SOL    HW230501   3.808   4.654   5.677  0.8663  0.1649  0.5639
 6347SOL     OW30502   1.180   0.322  11.794 -0.2828 -0.1386 -0.6464
 6347SOL    HW130503   1.249   0.382  11.823  0.7313 -1.2094 -0.8345
 6347SOL    HW230504   1.118   0.346  11.862  1.7253  1.4631  0.6441
 6348SOL     OW30505   0.234   0.472  14.326 -0.5460  0.0005 -0.5904
 6348SOL    HW130506   0.263   0.526  14.398 -0.0254 -1.1759  0.0780
 6348SOL    HW230507   0.138   0.478  14.331 -0.6792 -1.5151 -1.2542
 6349SOL     OW30508   3.774   3.798   0.821 -0.0937 -0.6710  0.1367
 6349SOL    HW130509   3.687   3.822   0.854  0.5425 -0.5056  1.6861
 6349SOL    HW230510   3.752   3.778   0.730 -1.2466  0.6106  0.1346
 6350SOL     OW30511   3.982   1.497   4.984  0.3796  0.2170 -0.0997
 6350SOL    HW130512   3.981   1.410   5.024  0.9178  0.2868  0.0572
 6350SOL    HW230513   4.043   1.490   4.912  1.6215  0.0772  0.9669
 6351SOL     OW30514   3.764   1.775   4.873  0.2536  0.1031 -0.5708
 6351SOL    HW130515   3.704   1.838   4.832 -0.7316 -0.6906 -0.3168
 6351SOL    HW230516   3.820   1.768   4.795 -1.5992 -1.4575 -1.7540
 6352SOL     OW30517   1.926   4.624   8.791 -0.2154 -0.2021 -1.1722
 6352SOL    HW130518   1.853   4.642   8.732 -1.2285  0.7909  0.3646
 6352SOL    HW230519   1.917   4.529   8.793 -0.8958 -0.1381 -1.2406
 6353SOL     OW30520   1.162   2.853   2.934  0.4534 -0.1777  0.0646
 6353SOL    HW130521   1.195   2.793   3.001  2.3138  1.9500  1.0315
 6353SOL    HW230522   1.138   2.790   2.866  0.8181 -0.8132  0.5171
 6354SOL     OW30523   0.572   4.657   8.892  0.1711 -0.1001 -0.2216
 6354SOL    HW130524   0.508   0.009   8.900  0.3620 -0.0073  0.5634
 6354SOL    HW230525   0.645   4.702   8.850  0.0285  0.3876  0.0481
 6355SOL     OW30526   2.830   4.072  10.170  0.1476 -0.0256 -0.4780
 6355SOL    HW130527   2.925   4.059  10.170 -0.3079 -3.4341 -1.2931
 6355SOL    HW230528   2.804   4.111  10.086 -3.1989  0.6459  0.8675
 6356SOL     OW30529   3.647   2.674  17.139 -0.2948 -0.3076  0.1743
 6356SOL    HW130530   3.677   2.725  17.064  0.7426 -1.3453 -0.1044
 6356SOL    HW230531   3.590   2.737  17.185 -0.7288 -0.2290 -0.4659
 6357SOL     OW30532   3.267   2.816   6.399 -0.4534 -0.2238 -0.2088
 6357SOL    HW130533   3.319   2.747   6.440  0.3235  1.5115  1.7613
 6357SOL    HW230534   3.230   2.748   6.344  1.6612 -1.5149 -0.0186
 6358SOL     OW30535   3.926   1.499  16.351 -0.0861 -0.3541  0.5315
 6358SOL    HW130536   3.901   1.444  16.276  0.5752 -0.7778  0.6186
 6358SOL    HW230537   3.982   1.438  16.399 -1.0411 -2.1051 -0.5651
 6359SOL     OW30538   2.469   2.277   6.606  0.1950 -0.4990 -0.6456
 6359SOL    HW130539   2.384   2.298   6.565 -0.6257  0.7799  1.7353
 6359SOL    HW230540   2.458   2.187   6.637 -0.0693  0.0531  0.8652
 6360SOL     OW30541   1.660   3.137   8.174 -0.4105  0.0911  0.4477
 6360SOL    HW130542   1.683   3.065   8.233 -0.4710  0.2852  0.7111
 6360SOL    HW230543   1.568   3.158   8.193 -1.6997 -3.4486 -1.8793
 6361SOL     OW30544   1.197   0.610   4.993  0.0963  0.0841  0.4826
 6361SOL    HW130545   1.211   0.632   4.901 -2.5458 -3.1809 -0.7314
 6361SOL    HW230546   1.166   0.519   4.992 -2.1627  0.8674 -1.3158
 6362SOL     OW30547   1.908   1.580  12.696 -0.3808 -1.0002  0.3783
 6362SOL    HW130548   1.833   1.624  12.655  0.1015 -2.1360 -1.7579
 6362SOL    HW230549   1.978   1.635  12.660 -0.3285  0.4258  2.7147
 6363SOL     OW30550   3.375   3.032   5.908 -0.2780  0.2872 -0.5261
 6363SOL    HW130551   3.317   2.982   5.965 -1.3853  0.5014 -1.4630
 6363SOL    HW230552   3.405   3.103   5.965  0.5382 -0.8406  0.4445
 6364SOL     OW30553   0.234   2.525   0.971 -0.4162 -0.4307 -0.0700
 6364SOL    HW130554   0.187   2.608   0.970  1.4868  0.6327 -1.7833
 6364SOL    HW230555   0.197   2.469   0.903 -0.5959  0.1478 -0.4464
 6365SOL     OW30556   3.428   1.437   3.545  0.9674  0.3782 -0.4576
 6365SOL    HW130557   3.484   1.493   3.491 -2.2160  1.8947 -2.2347
 6365SOL    HW230558   3.415   1.485   3.627  1.2685  0.4052 -0.4285
 6366SOL     OW30559   4.313   0.348   9.562  0.3250 -0.1488 -0.1410
 6366SOL    HW130560   4.293   0.407   9.635 -0.2640  0.7111 -0.9953
 6366SOL    HW230561   4.317   0.271   9.619 -0.3439 -1.0605 -1.3395
 6367SOL     OW30562   0.016   3.877   5.767  0.3057 -0.0464 -0.3681
 6367SOL    HW130563   4.646   3.913   5.777  0.2228 -0.7098  1.4480
 6367SOL    HW230564   0.005   3.807   5.831 -4.4362  1.0144 -0.0071
 6368SOL     OW30565   4.707   1.974   4.217 -0.1019 -0.1188  0.2807
 6368SOL    HW130566   0.077   2.010   4.220 -0.3578  0.7727 -2.8820
 6368SOL    HW230567   4.665   2.027   4.150 -0.7058 -1.2766 -0.2514
 6369SOL     OW30568   3.092   3.838   7.108  0.8953  0.7525  0.5854
 6369SOL    HW130569   3.056   3.908   7.162 -1.9962  1.1952 -1.8946
 6369SOL    HW230570   3.021   3.823   7.045  2.8379 -1.2426 -1.1265
 6370SOL     OW30571   1.043   1.288  13.280  0.2607 -0.4029 -0.0795
 6370SOL    HW130572   1.016   1.235  13.355 -0.1211  0.4933  0.4106
 6370SOL    HW230573   0.987   1.366  13.281 -0.4574 -0.9140  0.1197
 6371SOL     OW30574   0.273   4.209  16.918  0.8591 -0.1989 -0.0879
 6371SOL    HW130575   0.358   4.252  16.931  0.0952  0.9790  1.0472
 6371SOL    HW230576   0.297   4.152  16.845 -0.2410 -0.9062  0.1191
 6372SOL     OW30577   2.029   2.280  15.286  0.1829 -0.4014 -0.3515
 6372SOL    HW130578   2.061   2.203  15.239  0.3232  0.4693 -1.7159
 6372SOL    HW230579   2.065   2.278  15.374  2.5616 -0.4612 -1.3269
 6373SOL     OW30580   1.486   4.318   1.414 -0.6992 -0.1809  0.2891
 6373SOL    HW130581   1.403   4.361   1.436 -0.7209 -1.1809  2.1719
 6373SOL    HW230582   1.528   4.341   1.496  3.5375 -0.9905 -1.6667
 6374SOL     OW30583   3.560   2.929   3.229 -0.0456 -0.3230  0.2290
 6374SOL    HW130584   3.515   2.890   3.304 -0.5959 -0.3676 -0.1256
 6374SOL    HW230585   3.476   2.945   3.186 -0.5876 -0.2210  1.3218
 6375SOL     OW30586   2.696   4.550   5.994 -0.0791  0.5070  0.3752
 6375SOL    HW130587   2.765   4.617   5.998 -1.2966  1.6136  3.0114
 6375SOL    HW230588   2.723   4.486   6.060 -0.4085  1.0685  1.0644
 6376SOL     OW30589   0.843   2.615   9.324  0.3116 -0.0031  0.0308
 6376SOL    HW130590   0.778   2.634   9.257  1.7996  1.6067 -0.9507
 6376SOL    HW230591   0.796   2.570   9.395  0.1433 -0.1100 -0.1482
 6377SOL     OW30592   0.454   4.067  12.213 -0.4725 -0.1788  0.6179
 6377SOL    HW130593   0.390   3.996  12.204  0.7459 -1.1313 -0.6180
 6377SOL    HW230594   0.494   4.053  12.127  0.0246  2.3460  0.4220
 6378SOL     OW30595   0.197   1.556   5.085 -0.0600  0.0613 -1.1600
 6378SOL    HW130596   0.113   1.547   5.130  0.6273  0.2816  0.1499
 6378SOL    HW230597   0.209   1.465   5.056 -0.5692 -0.4779  0.3063
 6379SOL     OW30598   2.588   1.442   7.062 -0.3396  0.0720 -0.1477
 6379SOL    HW130599   2.496   1.461   7.043 -0.1927  0.9452  0.0351
 6379SOL    HW230600   2.575   1.362   7.010 -0.0730  0.0572 -0.1930
 6380SOL     OW30601   4.036   4.467  10.329  0.2635 -0.0810  0.0487
 6380SOL    HW130602   4.054   4.398  10.265  0.1808  1.5986 -1.7998
 6380SOL    HW230603   3.949   4.500  10.309  0.8165  0.2619 -1.8086
 6381SOL     OW30604   3.039   3.108   3.825  0.1621  0.6007 -0.2659
 6381SOL    HW130605   3.011   3.022   3.794  0.7996  0.3416 -0.1175
 6381SOL    HW230606   3.128   3.086   3.853 -0.2522  0.6420  1.0605
 6382SOL     OW30607   4.689   3.050   8.728 -0.0626  0.2596  0.0761
 6382SOL    HW130608   4.698   2.996   8.807 -0.8175  3.9173  2.6783
 6382SOL    HW230609   4.629   3.122   8.748  0.7657  0.4754  1.8226
 6383SOL     OW30610   0.580   0.670  14.775 -0.6669 -0.4250  0.3886
 6383SOL    HW130611   0.568   0.686  14.682  0.0554  1.4218  0.6099
 6383SOL    HW230612   0.572   0.756  14.817 -0.5140 -0.8569  1.3235
 6384SOL     OW30613   2.670   0.006  14.760  0.1236 -0.4668 -0.0730
 6384SOL    HW130614   2.628   4.647  14.722  0.2172  0.1415 -1.4392
 6384SOL    HW230615   2.756   4.712  14.721 -0.0498  1.2194 -1.0149
 6385SOL     OW30616   0.839   2.763   7.107  0.6017  0.3591  1.0708
 6385SOL    HW130617   0.891   2.689   7.138  2.3191  0.8025 -0.7443
 6385SOL    HW230618   0.754   2.748   7.150 -0.0130 -0.8745 -0.5516
 6386SOL     OW30619   1.248   0.690   4.700  0.1429  0.1646 -0.1017
 6386SOL    HW130620   1.191   0.764   4.680 -1.2917 -0.9823 -0.3047
 6386SOL    HW230621   1.188   0.616   4.685 -1.6623  1.3296  1.4008
 6387SOL     OW30622   0.145   3.434   7.857  0.2326 -0.1836 -0.0291
 6387SOL    HW130623   0.230   3.435   7.899 -1.3169 -2.8166  3.1524
 6387SOL    HW230624   0.166   3.502   7.793 -3.1098  0.9348  0.0443
 6388SOL     OW30625   2.871   0.847   2.933  0.0011 -0.0300  0.2164
 6388SOL    HW130626   2.907   0.925   2.889 -1.3396 -0.4053 -1.5608
 6388SOL    HW230627   2.814   0.813   2.864  1.0293  0.8271 -1.0607
 6389SOL     OW30628   2.147   4.111   3.376 -0.3266  0.3113 -0.7914
 6389SOL    HW130629   2.126   4.204   3.384  0.8703  0.5786 -0.7368
 6389SOL    HW230630   2.088   4.082   3.307 -1.0835 -0.7579  0.3280
 6390SOL     OW30631   4.049   3.844   3.638 -0.2293 -0.2923  0.3911
 6390SOL    HW130632   4.071   3.808   3.552  0.6996 -0.5608  0.7438
 6390SOL    HW230633   4.102   3.790   3.697  0.9410  1.4900  0.9677
 6391SOL     OW30634   1.349   3.674  17.440 -0.6521  0.3138 -0.4150
 6391SOL    HW130635   1.416   3.715  17.495 -1.2209  0.8365 -0.1132
 6391SOL    HW230636   1.290   3.647  17.510  0.1610 -2.6696 -0.9095
 6392SOL     OW30637   4.624   4.557   8.937  0.3339  0.3591 -0.1656
 6392SOL    HW130638   4.651   4.478   8.890 -2.9508 -1.6051  1.2805
 6392SOL    HW230639   4.661   4.536   9.023 -1.4891 -0.2726  0.4600
 6393SOL     OW30640   3.832   3.072   2.416  0.1150 -0.6447 -0.0351
 6393SOL    HW130641   3.869   2.987   2.394  1.4970  0.1516 -0.8400
 6393SOL    HW230642   3.832   3.075   2.512  1.3859  1.4878 -0.0999
 6394SOL     OW30643   3.959   1.310   7.726 -0.1189  0.3621  0.0090
 6394SOL    HW130644   4.037   1.254   7.732 -1.0663 -0.9438  0.0741
 6394SOL    HW230645   3.886   1.268   7.770  0.4100 -0.3792  0.1820
 6395SOL     OW30646   0.384   3.577   3.566  0.2785 -0.3528  0.5169
 6395SOL    HW130647   0.448   3.629   3.517 -0.2899  1.5504  1.7995
 6395SOL    HW230648   0.302   3.604   3.526  1.5498  2.0869 -0.4696
 6396SOL     OW30649   2.646   2.004  14.546 -0.6756 -0.4493  0.1891
 6396SOL    HW130650   2.722   2.057  14.570 -1.6036  0.9378  0.0833
 6396SOL    HW230651   2.645   1.929  14.606  1.2558 -1.0243 -0.5265
 6397SOL     OW30652   4.494   0.794   6.741 -0.3690 -0.3167  0.4473
 6397SOL    HW130653   4.476   0.784   6.648 -3.2247  0.4000  0.9271
 6397SOL    HW230654   4.413   0.822   6.784 -2.1618 -2.0700 -1.7876
 6398SOL     OW30655   1.777   2.503  11.976 -0.2669 -0.5186  0.6406
 6398SOL    HW130656   1.792   2.497  12.071 -0.0191  1.5854  0.7256
 6398SOL    HW230657   1.821   2.422  11.949 -3.2201 -1.5767 -0.9692
 6399SOL     OW30658   4.495   1.518   3.208  0.1435  0.9159  0.5844
 6399SOL    HW130659   4.409   1.475   3.205  0.9755 -0.8419  2.1883
 6399SOL    HW230660   4.473   1.610   3.194  0.3616  1.0821  1.3326
 6400SOL     OW30661   4.034   0.266  11.562 -0.0294  0.1459  0.4805
 6400SOL    HW130662   3.996   0.248  11.648 -0.7525 -3.2590 -0.5322
 6400SOL    HW230663   3.950   0.261  11.516  0.6296 -1.0805 -0.5873
 6401SOL     OW30664   0.893   4.176   8.421  0.2759  0.5641  0.2757
 6401SOL    HW130665   0.818   4.204   8.368  0.7631  1.5972  0.1487
 6401SOL    HW230666   0.885   4.242   8.489 -0.4543  0.6940  0.0705
 6402SOL     OW30667   0.944   3.312   8.481 -0.4366 -0.3988 -0.5327
 6402SOL    HW130668   0.921   3.290   8.571 -1.8955  1.7025 -0.3966
 6402SOL    HW230669   0.912   3.402   8.473 -0.9548 -0.6171 -0.9262
 6403SOL     OW30670   2.958   3.309   3.648  0.0879 -0.3557  0.4136
 6403SOL    HW130671   2.975   3.243   3.715 -3.6140 -1.8427 -0.1028
 6403SOL    HW230672   2.866   3.316   3.671  0.1539 -0.5325  0.7348
 6404SOL     OW30673   1.813   4.506  15.688  0.2885  0.4695 -0.5016
 6404SOL    HW130674   1.864   4.432  15.719 -0.7729  0.3833  1.0190
 6404SOL    HW230675   1.724   4.473  15.680  1.0558 -1.7479  0.1153
 6405SOL     OW30676   3.517   3.042   8.607  0.5948  0.5351 -0.3639
 6405SOL    HW130677   3.602   3.046   8.652  0.5844  0.5016 -0.3412
 6405SOL    HW230678   3.489   3.133   8.600  1.0170  0.7867  1.3222
 6406SOL     OW30679   0.559   4.363   3.967  0.5699 -0.0666  0.5664
 6406SOL    HW130680   0.525   4.276   3.950 -0.1642  0.3199  0.0515
 6406SOL    HW230681   0.477   4.410   3.984  0.7902  0.3595  0.4414
 6407SOL     OW30682   0.652   1.520   6.324  0.0305  0.4698  0.0157
 6407SOL    HW130683   0.641   1.426   6.315 -2.1924  0.7145  0.2509
 6407SOL    HW230684   0.628   1.543   6.414  2.0571 -0.6175  0.8338
 6408SOL     OW30685   2.097   0.512  15.681  0.2732 -0.2196  0.3503
 6408SOL    HW130686   2.159   0.573  15.723 -2.0384  1.0785  1.9220
 6408SOL    HW230687   2.015   0.562  15.684 -0.1777 -1.0533  2.1846
 6409SOL     OW30688   2.444   4.190   9.186 -0.8677 -0.5862  0.0432
 6409SOL    HW130689   2.528   4.149   9.206 -1.0852 -1.7294 -1.4755
 6409SOL    HW230690   2.416   4.229   9.269  2.4473  0.0884  0.8477
 6410SOL     OW30691   0.097   4.011   6.099  0.8217  0.1528  0.2565
 6410SOL    HW130692   0.070   3.964   6.021  0.0661  0.1160  0.5402
 6410SOL    HW230693   0.023   4.071   6.098  0.5115 -0.2355  0.1464
 6411SOL     OW30694   2.911   1.044  11.570  0.5688 -0.0473 -0.2831
 6411SOL    HW130695   2.821   1.077  11.573  1.6250  2.7329  1.1689
 6411SOL    HW230696   2.958   1.064  11.489 -0.8962  2.3997 -0.5179
 6412SOL     OW30697   1.831   1.884  11.511 -0.6449  0.1611  0.6380
 6412SOL    HW130698   1.813   1.852  11.422 -0.1861  1.9353 -0.0840
 6412SOL    HW230699   1.886   1.813  11.547  0.9492 -0.6902 -3.4198
 6413SOL     OW30700   3.457   2.789  13.234  0.3621  0.0501 -0.4462
 6413SOL    HW130701   3.366   2.771  13.210  0.5728 -1.8723  0.1273
 6413SOL    HW230702   3.482   2.697  13.225 -1.4616 -0.4074 -0.8861
 6414SOL     OW30703   2.157   4.230   2.970 -0.7806  0.4228 -0.3322
 6414SOL    HW130704   2.080   4.197   3.017  0.9103  0.3914  2.4326
 6414SOL    HW230705   2.186   4.308   3.017  1.1120  1.0724 -2.6107
 6415SOL     OW30706   2.102   0.342   6.860 -0.2834 -0.1632 -0.3381
 6415SOL    HW130707   2.055   0.388   6.929  0.1942 -0.2440  0.0394
 6415SOL    HW230708   2.056   0.371   6.781 -0.8981 -1.2393 -0.3769
 6416SOL     OW30709   2.176   0.506  11.024  0.2982  0.2770 -0.0968
 6416SOL    HW130710   2.180   0.449  10.947  1.9503 -0.8300  0.8093
 6416SOL    HW230711   2.240   0.575  11.011 -0.6145  1.0199 -0.6415
 6417SOL     OW30712   0.376   4.622   4.845 -0.2893 -0.1464  0.5470
 6417SOL    HW130713   0.417   4.536   4.859  0.6242 -0.1095 -1.9177
 6417SOL    HW230714   0.337   4.648   4.928  0.3258 -2.0466  1.4253
 6418SOL     OW30715   0.130   4.703  11.936 -0.1956  0.6371 -0.1914
 6418SOL    HW130716   0.125   0.001  12.030  1.1347  0.5921 -0.1047
 6418SOL    HW230717   0.198   4.635  11.936 -0.1436  0.6896  1.1663
 6419SOL     OW30718   4.456   2.116   4.057  0.1595 -0.5370 -0.1064
 6419SOL    HW130719   4.502   2.140   3.977 -0.4447  0.7759 -0.0562
 6419SOL    HW230720   4.448   2.022   4.040 -0.7312 -0.1837 -1.6751
 6420SOL     OW30721   0.725   2.231   8.596 -0.2592  0.0732 -0.2854
 6420SOL    HW130722   0.736   2.136   8.590 -3.4902 -0.2035 -1.6106
 6420SOL    HW230723   0.680   2.253   8.514 -1.4778  3.0832  1.1961
 6421SOL     OW30724   1.856   3.244  16.021 -0.1249  0.3550 -0.1388
 6421SOL    HW130725   1.852   3.219  15.929 -1.3343 -2.8984  0.7813
 6421SOL    HW230726   1.904   3.325  16.006 -0.3366  0.0833 -2.2701
 6422SOL     OW30727   3.106   2.339   1.800  0.6510  0.7299  0.1987
 6422SOL    HW130728   3.147   2.298   1.725 -0.6230 -0.2039  0.0058
 6422SOL    HW230729   3.059   2.269   1.846 -0.7731  1.1180 -0.6433
 6423SOL     OW30730   0.534   4.197   5.529 -0.6579  0.2282  0.0499
 6423SOL    HW130731   0.582   4.276   5.508  0.7591 -0.5965  0.2142
 6423SOL    HW230732   0.454   4.231   5.569 -2.2813 -0.9348 -2.2012
 6424SOL     OW30733   4.282   3.987   8.418 -0.1043 -0.7053 -0.1497
 6424SOL    HW130734   4.332   3.977   8.336 -1.3732  0.7501 -1.1232
 6424SOL    HW230735   4.190   3.968   8.401  0.1076 -1.8343  0.0118
 6425SOL     OW30736   1.456   4.162   0.408  0.0881 -0.4184 -0.2537
 6425SOL    HW130737   1.404   4.081   0.408  0.0391 -0.3757  1.9675
 6425SOL    HW230738   1.405   4.212   0.345  1.0112 -2.5901 -2.7397
 6426SOL     OW30739   1.301   0.415  16.330  0.2305  0.2000  0.2070
 6426SOL    HW130740   1.225   0.380  16.376  0.0308 -0.6848 -0.8053
 6426SOL    HW230741   1.351   0.461  16.398  0.4474 -1.2816  1.0722
 6427SOL     OW30742   3.266   1.328   4.642 -0.4573  0.5970 -0.4978
 6427SOL    HW130743   3.333   1.317   4.710 -0.1351  1.5596 -0.6580
 6427SOL    HW230744   3.216   1.404   4.672 -0.4006  0.6541 -0.5474
 6428SOL     OW30745   4.414   2.539  12.718  0.1627 -0.3307  0.3515
 6428SOL    HW130746   4.405   2.616  12.662  2.4757 -0.6857 -0.5447
 6428SOL    HW230747   4.350   2.484  12.674  0.5128  0.8452 -1.6277
 6429SOL     OW30748   4.376   4.084   4.589  0.1001 -0.6444 -0.1762
 6429SOL    HW130749   4.436   4.056   4.519  0.5843  2.9144 -1.1451
 6429SOL    HW230750   4.443   4.114   4.651  1.0602 -2.2152 -0.4206
 6430SOL     OW30751   4.284   1.670   7.710  0.2765 -0.5107 -0.0173
 6430SOL    HW130752   4.218   1.657   7.643 -0.4089 -0.4901  0.6614
 6430SOL    HW230753   4.228   1.689   7.785 -0.6934  1.1076 -1.1673
 6431SOL     OW30754   4.168   4.518  11.769 -0.2386  0.0537 -0.2376
 6431SOL    HW130755   4.236   4.584  11.760  0.2859 -0.3678  0.6315
 6431SOL    HW230756   4.227   4.444  11.757 -2.3248 -1.5181 -0.8644
 6432SOL     OW30757   2.240   0.747   7.346  0.2282  0.0146  0.1629
 6432SOL    HW130758   2.255   0.697   7.426 -1.3027 -0.1205  0.3624
 6432SOL    HW230759   2.303   0.707   7.286  1.9791  1.0970  1.2859
 6433SOL     OW30760   1.727   3.469   1.004 -0.1833  0.6923 -0.5793
 6433SOL    HW130761   1.775   3.449   0.924 -0.2898 -1.2581 -0.1571
 6433SOL    HW230762   1.786   3.426   1.066 -1.6316 -0.5448 -0.0864
 6434SOL     OW30763   4.606   0.420   3.952 -0.3648 -0.5777  0.0835
 6434SOL    HW130764   4.655   0.500   3.934 -1.6217  0.1029 -0.3395
 6434SOL    HW230765   4.523   0.460   3.978  0.4584  1.0871  0.1287
 6435SOL     OW30766   1.477   0.226   6.857 -0.3977  0.5432 -0.4161
 6435SOL    HW130767   1.406   0.245   6.919  0.9280  1.8665  0.7162
 6435SOL    HW230768   1.536   0.295   6.889 -0.3889 -0.1452  1.0567
 6436SOL     OW30769   1.649   1.637  15.709  0.2393 -0.2143  0.4715
 6436SOL    HW130770   1.690   1.721  15.732 -0.8188  0.9099 -1.6814
 6436SOL    HW230771   1.562   1.650  15.748 -0.5147  0.3722 -1.4111
 6437SOL     OW30772   4.607   2.637   8.477 -0.0804 -0.5828  0.1197
 6437SOL    HW130773   4.539   2.592   8.426  1.8494 -1.0234 -2.0330
 6437SOL    HW230774   4.556   2.709   8.514  3.0398  1.5053  0.3628
 6438SOL     OW30775   1.525   3.281   1.175  0.6286 -0.5499 -0.1629
 6438SOL    HW130776   1.565   3.352   1.226 -0.3643  0.5016 -0.8592
 6438SOL    HW230777   1.520   3.219   1.248  1.0673  0.1055  0.4210
 6439SOL     OW30778   1.705   0.027   9.444 -0.2090  0.5823  0.7909
 6439SOL    HW130779   1.668   0.085   9.510  0.6545  1.2746  0.6675
 6439SOL    HW230780   1.636   0.032   9.378  0.3594  2.3203  0.3303
 6440SOL     OW30781   2.614   1.287  16.604  0.2993 -0.3951  0.1639
 6440SOL    HW130782   2.705   1.258  16.592 -0.4384 -2.1055 -1.4959
 6440SOL    HW230783   2.566   1.224  16.550  1.2747 -0.6297 -0.4302
 6441SOL     OW30784   2.247   3.688   5.134 -0.4075 -0.2229  0.2395
 6441SOL    HW130785   2.323   3.646   5.094 -0.5591 -1.9376  1.7587
 6441SOL    HW230786   2.251   3.644   5.219  1.2834 -0.4273  0.0488
 6442SOL     OW30787   4.358   1.358  15.893  0.2950  0.3868 -0.2457
 6442SOL    HW130788   4.311   1.275  15.891  0.1156  0.4946 -0.5310
 6442SOL    HW230789   4.448   1.332  15.914  0.3098  1.0104  0.4238
 6443SOL     OW30790   3.591   2.235   1.862  0.5577  0.2515 -0.1119
 6443SOL    HW130791   3.577   2.286   1.942 -1.1172 -0.0422 -0.2196
 6443SOL    HW230792   3.674   2.192   1.880 -0.5706 -1.4005  1.1679
 6444SOL     OW30793   2.714   2.964   0.769  0.1648 -0.5137  0.1637
 6444SOL    HW130794   2.678   2.915   0.695  0.6201 -1.7407  0.7559
 6444SOL    HW230795   2.664   2.939   0.847 -0.8493 -0.4818 -0.4708
 6445SOL     OW30796   2.833   0.874   4.954 -0.5992 -0.1397  0.6310
 6445SOL    HW130797   2.871   0.809   4.894  0.6405 -0.2365  1.5103
 6445SOL    HW230798   2.744   0.852   4.981 -0.0937  1.7013  3.7469
 6446SOL     OW30799   1.079   1.741   3.640 -0.1161 -0.1476 -0.7405
 6446SOL    HW130800   0.991   1.769   3.666 -0.0992  0.4176 -1.3024
 6446SOL    HW230801   1.106   1.809   3.579 -0.4687 -1.9659 -2.9338
 6447SOL     OW30802   1.110   1.970   5.689 -0.4538 -0.2965 -0.0326
 6447SOL    HW130803   1.177   2.011   5.742 -0.3296 -1.5419  0.7683
 6447SOL    HW230804   1.074   1.917   5.760  1.3171 -1.6533 -0.1754
 6448SOL     OW30805   2.535   1.130   4.639 -0.0039  0.5130  0.0551
 6448SOL    HW130806   2.461   1.087   4.680  0.8105 -0.9856 -0.0481
 6448SOL    HW230807   2.501   1.139   4.550 -1.0342 -0.3535  0.3713
 6449SOL     OW30808   2.987   4.141   2.510 -0.0814  0.0012  0.3513
 6449SOL    HW130809   2.993   4.051   2.478  0.1614  0.1596 -0.0467
 6449SOL    HW230810   2.979   4.136   2.605 -0.0992 -2.3750  0.2374
 6450SOL     OW30811   1.375   1.464   4.336 -0.0598 -0.8368  0.8500
 6450SOL    HW130812   1.383   1.464   4.241 -2.3830 -0.1266  0.6449
 6450SOL    HW230813   1.324   1.384   4.349 -0.2953 -0.3043  3.3403
 6451SOL     OW30814   0.273   0.279   3.903  0.2761  0.5882 -0.6468
 6451SOL    HW130815   0.215   0.264   3.828 -1.0405 -0.7317  0.6402
 6451SOL    HW230816   0.290   0.189   3.931  0.9952  1.4651  1.7349
 6452SOL     OW30817   1.045   3.445   4.494 -0.5877  0.0429 -0.3598
 6452SOL    HW130818   1.038   3.349   4.496 -0.5454  0.0001 -1.7968
 6452SOL    HW230819   1.117   3.453   4.556  0.3122 -1.5973 -1.1758
 6453SOL     OW30820   3.444   3.396   7.426  0.2667 -0.9272  0.3063
 6453SOL    HW130821   3.391   3.392   7.346  0.1943 -0.8083  0.3469
 6453SOL    HW230822   3.518   3.443   7.387  0.0866 -1.2416 -0.4156
 6454SOL     OW30823   0.966   0.553   5.223  0.2638 -0.5299 -0.4157
 6454SOL    HW130824   1.044   0.508   5.256  0.3344 -0.1684 -0.0952
 6454SOL    HW230825   0.977   0.638   5.266  2.4874 -1.6695  1.3143
 6455SOL     OW30826   4.075   2.001   2.892 -0.5264  0.1443  0.2522
 6455SOL    HW130827   4.167   2.027   2.887 -0.3302  0.0595  3.5446
 6455SOL    HW230828   4.055   2.021   2.984 -0.1532 -1.2812  0.6329
 6456SOL     OW30829   0.595   3.751   9.630 -0.0468 -0.3932 -0.8431
 6456SOL    HW130830   0.519   3.786   9.676 -0.2755  0.5703 -1.9498
 6456SOL    HW230831   0.556   3.668   9.604 -1.7331  0.2421 -0.3530
 6457SOL     OW30832   1.831   2.687   7.200 -0.6197 -0.1275  0.9611
 6457SOL    HW130833   1.820   2.641   7.117 -0.1605  1.7011 -0.1229
 6457SOL    HW230834   1.751   2.676   7.251 -0.6936 -3.0695  0.1699
 6458SOL     OW30835   4.055   0.845  13.676  0.2300 -0.0510  0.4770
 6458SOL    HW130836   4.113   0.917  13.698  1.8625 -0.9327 -0.9648
 6458SOL    HW230837   4.002   0.900  13.619 -0.8439 -0.5720  0.9639
 6459SOL     OW30838   3.436   2.569   4.127 -0.3479 -0.0268  0.1324
 6459SOL    HW130839   3.420   2.508   4.055 -0.3514  3.0510 -2.5039
 6459SOL    HW230840   3.362   2.628   4.112 -0.3021 -0.2558 -1.0285
 6460SOL     OW30841   2.467   4.293   5.414 -0.1573  0.3784  0.1251
 6460SOL    HW130842   2.557   4.298   5.448 -0.1114 -1.2024  0.2680
 6460SOL    HW230843   2.468   4.218   5.355 -0.5616  0.1629  0.3895
 6461SOL     OW30844   1.159   1.490   9.797 -0.1042  0.6349  0.3343
 6461SOL    HW130845   1.142   1.523   9.708  0.3007 -0.0192  0.0198
 6461SOL    HW230846   1.244   1.450   9.781 -0.5811 -0.5833  0.9349
 6462SOL     OW30847   2.431   2.390   3.707 -0.4775 -0.0063  0.6227
 6462SOL    HW130848   2.477   2.399   3.624 -1.3285 -0.8897  0.0538
 6462SOL    HW230849   2.426   2.478   3.743 -0.1527  0.4999 -0.6013
 6463SOL     OW30850   3.502   1.964   9.653 -0.6820 -0.0887  0.4148
 6463SOL    HW130851   3.511   1.887   9.709 -1.1573  0.5296  1.3228
 6463SOL    HW230852   3.407   1.964   9.646 -0.4687  2.2812 -2.7649
 6464SOL     OW30853   1.207   1.968   6.855  0.5328  0.7028  0.1030
 6464SOL    HW130854   1.220   1.873   6.849  0.2413  0.5980  1.0724
 6464SOL    HW230855   1.281   1.985   6.913 -0.4191  0.9089  1.2430
 6465SOL     OW30856   1.934   4.615   0.179 -0.0857  0.1956 -0.4831
 6465SOL    HW130857   1.853   4.568   0.200 -1.4859  3.6799  1.8580
 6465SOL    HW230858   1.982   4.630   0.260  0.0239  0.7738 -0.6552
 6466SOL     OW30859   0.768   0.312   9.218 -0.3338  0.5983 -0.3627
 6466SOL    HW130860   0.863   0.300   9.220 -0.3052  0.7854 -0.5130
 6466SOL    HW230861   0.756   0.359   9.135  0.3053  0.2236 -0.6707
 6467SOL     OW30862   2.561   0.954   3.449 -0.1917 -0.6259  0.5472
 6467SOL    HW130863   2.525   1.032   3.406  2.8012  0.1039 -0.5834
 6467SOL    HW230864   2.649   0.953   3.412 -1.2060 -2.0776 -1.8609
 6468SOL     OW30865   2.625   0.267  13.963  0.2916 -0.1340  0.1124
 6468SOL    HW130866   2.600   0.289  13.874  0.8488 -3.5639 -0.9172
 6468SOL    HW230867   2.617   0.346  14.017  0.8710 -0.4378  0.6600
 6469SOL     OW30868   3.287   0.464   5.826 -0.3651  0.8091 -0.4551
 6469SOL    HW130869   3.245   0.499   5.748 -1.8233  1.5272  0.6624
 6469SOL    HW230870   3.261   0.513   5.904 -1.4023  0.8953 -0.8644
 6470SOL     OW30871   3.587   0.767   6.846  0.2627 -0.1445 -0.3665
 6470SOL    HW130872   3.570   0.786   6.753  2.8482 -0.5251 -0.9214
 6470SOL    HW230873   3.682   0.776   6.852 -0.2083  2.2242  3.0616
 6471SOL     OW30874   1.971   2.635   8.516 -0.1316  0.4137  0.4866
 6471SOL    HW130875   1.976   2.573   8.588  0.3167  0.4205  0.4587
 6471SOL    HW230876   2.045   2.601   8.464  2.1096  4.1875  1.2603
 6472SOL     OW30877   3.372   1.564   8.266 -0.6514  0.1835 -0.0392
 6472SOL    HW130878   3.362   1.536   8.175  2.7313 -1.8259  0.2018
 6472SOL    HW230879   3.281   1.583   8.288 -0.3146  0.9603  0.7366
 6473SOL     OW30880   3.844   3.093   6.986 -0.0396  0.6231 -0.4700
 6473SOL    HW130881   3.782   3.128   6.922  0.1554 -0.3985 -1.2204
 6473SOL    HW230882   3.891   3.174   7.002  2.6747 -0.9902 -0.3030
 6474SOL     OW30883   0.993   3.391   0.008 -0.4767  0.6542 -0.2120
 6474SOL    HW130884   0.962   3.407   0.097 -0.4890  1.2046 -0.3144
 6474SOL    HW230885   0.929   3.325  17.656 -0.5889  0.7385 -0.1487
 6475SOL     OW30886   0.726   2.125   2.580 -0.7704 -0.2214 -0.1150
 6475SOL    HW130887   0.759   2.182   2.511 -1.7819  2.1286  1.3313
 6475SOL    HW230888   0.633   2.121   2.558 -0.7198 -2.6739  0.0317
 6476SOL     OW30889   1.793   1.776  12.380 -0.0839  0.1773 -0.2481
 6476SOL    HW130890   1.863   1.765  12.316  2.0702 -2.1917  2.4894
 6476SOL    HW230891   1.795   1.870  12.395  1.0211  0.0743  0.2658
 6477SOL     OW30892   1.475   0.886   4.691  0.8565  0.2376  0.5281
 6477SOL    HW130893   1.423   0.806   4.705 -0.2037  0.6664 -0.9537
 6477SOL    HW230894   1.511   0.879   4.603  0.2251  1.5267  0.1702
 6478SOL     OW30895   4.112   0.733  12.826 -0.0704 -0.2669 -0.2670
 6478SOL    HW130896   4.110   0.829  12.821  0.5427 -0.3137 -1.2984
 6478SOL    HW230897   4.204   0.710  12.815 -0.0058  0.4381 -1.2125
 6479SOL     OW30898   1.490   0.276   3.909  0.3907 -0.2930  0.4576
 6479SOL    HW130899   1.398   0.290   3.885 -0.4105  1.5939  4.6219
 6479SOL    HW230900   1.529   0.251   3.826 -1.1368 -0.9715 -0.0546
 6480SOL     OW30901   4.027   1.968   5.584 -0.3463 -0.3011  0.2757
 6480SOL    HW130902   3.969   1.893   5.582  1.1961 -1.4805  0.0685
 6480SOL    HW230903   3.992   2.021   5.513  3.8165  2.2376  0.0952
 6481SOL     OW30904   3.048   0.590   4.610  0.4226  0.6041  0.0092
 6481SOL    HW130905   3.029   0.679   4.582  0.6027 -0.0191 -2.1135
 6481SOL    HW230906   3.064   0.552   4.523  1.3723 -0.7848  0.7898
 6482SOL     OW30907   3.739   2.792  17.396 -0.0237 -0.1874  0.2157
 6482SOL    HW130908   3.704   2.863  17.342 -2.2670 -2.6205 -1.5788
 6482SOL    HW230909   3.754   2.730  17.324  0.6556 -0.5401  0.6637
 6483SOL     OW30910   3.544   3.076  17.456  0.0433 -0.0261  0.1737
 6483SOL    HW130911   3.547   3.171  17.449 -0.1135 -0.1509 -1.5081
 6483SOL    HW230912   3.556   3.067  17.551 -0.4734  1.6158  0.3863
 6484SOL     OW30913   1.273   1.724   4.516  0.2441  0.6216  0.4095
 6484SOL    HW130914   1.266   1.743   4.609 -1.1556 -1.8808  0.8011
 6484SOL    HW230915   1.190   1.681   4.496  0.7907 -0.5817  0.6920
 6485SOL     OW30916   3.210   4.693   4.788 -0.3314 -0.0699 -0.6031
 6485SOL    HW130917   3.256   0.023   4.857 -2.6990 -1.0444  1.6595
 6485SOL    HW230918   3.157   0.041   4.745 -0.7206 -0.0056 -0.0159
 6486SOL     OW30919   0.421   2.658  14.873  0.5488  0.2446  0.2864
 6486SOL    HW130920   0.353   2.684  14.936  0.0240 -1.9967  0.6235
 6486SOL    HW230921   0.399   2.717  14.801 -1.0193  0.0969  0.6545
 6487SOL     OW30922   4.412   0.999  12.899 -0.1723  0.0831  0.0363
 6487SOL    HW130923   4.389   1.076  12.952  0.4440 -0.7936  1.5813
 6487SOL    HW230924   4.507   1.012  12.888 -0.6479  2.3768 -1.4266
 6488SOL     OW30925   3.482   0.394  11.577  0.0507  0.3711 -0.0396
 6488SOL    HW130926   3.422   0.324  11.554  0.8407 -0.5997  0.8419
 6488SOL    HW230927   3.466   0.458  11.508 -1.2458  0.7668  0.6147
 6489SOL     OW30928   1.914   0.620   9.309  0.2789 -0.3655  0.3049
 6489SOL    HW130929   1.976   0.693   9.303 -1.8222  1.2386 -2.0071
 6489SOL    HW230930   1.970   0.545   9.288 -0.2092 -1.1549  1.8358
 6490SOL     OW30931   4.664   2.123   5.511  0.3037 -0.7564  0.3772
 6490SOL    HW130932   4.695   2.168   5.433 -3.3912 -0.7163 -1.0870
 6490SOL    HW230933   4.577   2.103   5.475 -0.6516  1.3575  1.4686
 6491SOL     OW30934   1.229   1.127  13.128  0.1477  0.5283  0.3278
 6491SOL    HW130935   1.254   1.070  13.200  0.0766 -1.1353 -0.9495
 6491SOL    HW230936   1.149   1.166  13.164 -0.6670  0.3618 -1.2650
 6492SOL     OW30937   4.425   2.400  15.199  0.3187 -0.2379 -0.4488
 6492SOL    HW130938   4.474   2.318  15.194  1.5881  0.5818 -1.3252
 6492SOL    HW230939   4.487   2.468  15.172 -0.4793  2.4057  4.2903
 6493SOL     OW30940   1.791   0.236   4.013  0.0270  0.1553  0.0946
 6493SOL    HW130941   1.846   0.165   3.982 -1.2261 -0.8130  0.0957
 6493SOL    HW230942   1.707   0.212   3.974 -0.8590  0.4654  1.8351
 6494SOL     OW30943   0.352   0.453  13.077 -0.1860 -0.3755  0.4994
 6494SOL    HW130944   0.390   0.537  13.054  0.0263 -0.8750 -0.9485
 6494SOL    HW230945   0.388   0.435  13.164  0.2129  0.4950  0.5145
 6495SOL     OW30946   4.357   1.671   0.310  0.1143 -0.6522 -0.6717
 6495SOL    HW130947   4.419   1.743   0.316 -0.2504 -0.2281 -2.0181
 6495SOL    HW230948   4.305   1.700   0.235  0.7917  0.4484 -0.7080
 6496SOL     OW30949   0.055   3.279   2.558  0.1760  0.8856  0.2041
 6496SOL    HW130950   0.028   3.317   2.474 -0.8668  0.7804  0.4982
 6496SOL    HW230951   0.073   3.188   2.531  1.7735  1.1887  0.2665
 6497SOL     OW30952   1.107   4.125   6.162 -0.0583  0.5670 -0.0834
 6497SOL    HW130953   1.046   4.186   6.204  0.0308  0.4606  0.2032
 6497SOL    HW230954   1.132   4.073   6.239  1.5254 -0.5234 -1.3411
 6498SOL     OW30955   0.240   3.566   3.941  0.6599  0.0256  0.1884
 6498SOL    HW130956   0.176   3.528   3.882 -0.4723  1.2027  0.6407
 6498SOL    HW230957   0.326   3.556   3.901  1.1693  0.0519  1.2644
 6499SOL     OW30958   4.428   0.530   2.263  0.1576  0.4758 -0.3159
 6499SOL    HW130959   4.523   0.539   2.274  0.3730 -1.4525 -0.6067
 6499SOL    HW230960   4.428   0.511   2.169 -1.6021 -0.5734 -0.0857
 6500SOL     OW30961   3.596   0.813   7.622  0.5843 -0.8170  0.2224
 6500SOL    HW130962   3.659   0.884   7.608  0.6435 -1.1532 -1.2336
 6500SOL    HW230963   3.543   0.866   7.682  0.0961 -3.5655  2.2048
 6501SOL     OW30964   4.499   4.556   1.827 -0.5304  0.1922 -0.2293
 6501SOL    HW130965   4.582   4.509   1.824 -0.0070  1.0879  0.4062
 6501SOL    HW230966   4.465   4.539   1.915 -1.4655 -1.6847 -0.9366
 6502SOL     OW30967   2.264   4.376   8.890 -0.4735  0.0823 -0.4840
 6502SOL    HW130968   2.295   4.449   8.837  0.6633 -1.1510 -1.5325
 6502SOL    HW230969   2.255   4.417   8.976 -0.1758  2.0409 -1.3793
 6503SOL     OW30970   3.686   2.983  14.802 -0.0731  0.1234 -0.0631
 6503SOL    HW130971   3.699   2.889  14.788 -0.6920  0.1771 -0.9690
 6503SOL    HW230972   3.625   3.007  14.733 -1.3073  1.5502  1.5141
 6504SOL     OW30973   4.683   2.415  10.189 -0.8322  0.4931  0.3400
 6504SOL    HW130974   4.637   2.388  10.109  0.6016  2.7860 -1.2901
 6504SOL    HW230975   4.716   2.332  10.224 -0.9527  1.2152  2.1552
 6505SOL     OW30976   2.466   4.588   5.259 -0.0693 -0.0904  0.0763
 6505SOL    HW130977   2.467   4.493   5.267 -3.2693 -0.1266  0.2481
 6505SOL    HW230978   2.541   4.605   5.316 -0.1096  0.9323 -0.1777
 6506SOL     OW30979   2.102   4.500   6.049 -0.2751  0.3632  0.2574
 6506SOL    HW130980   2.127   4.481   6.139 -0.7397 -2.7857 -0.2634
 6506SOL    HW230981   2.045   4.424   6.037  0.0530  0.1788 -0.1457
 6507SOL     OW30982   2.869   1.880  16.147 -0.3352  0.4622  0.1309
 6507SOL    HW130983   2.779   1.901  16.119 -1.2254 -1.4981  1.5547
 6507SOL    HW230984   2.878   1.910  16.237  0.6523 -1.4833  0.6658
 6508SOL     OW30985   4.080   3.457  15.697  0.1810 -0.6232  0.4702
 6508SOL    HW130986   4.101   3.493  15.611  0.9284  0.5107  1.1339
 6508SOL    HW230987   3.984   3.462  15.697  0.3458  2.4401  0.3920
 6509SOL     OW30988   4.400   1.014   6.151  0.3932 -0.7380  0.1986
 6509SOL    HW130989   4.434   1.088   6.200 -0.0656 -1.0809  1.0329
 6509SOL    HW230990   4.309   1.006   6.180 -0.2612  0.4266 -1.5543
 6510SOL     OW30991   2.558   0.291   8.305  0.4240  0.1458  0.7989
 6510SOL    HW130992   2.557   0.200   8.334 -0.9540  0.5525  2.0460
 6510SOL    HW230993   2.653   0.306   8.305  0.8593 -2.6418  1.8860
 6511SOL     OW30994   3.574   0.592   8.665  0.2221  0.6063  0.5305
 6511SOL    HW130995   3.631   0.521   8.694 -0.7517 -0.8479 -1.1456
 6511SOL    HW230996   3.616   0.673   8.693  0.0487  0.5560  0.9376
 6512SOL     OW30997   2.676   4.681   2.229  0.0192 -0.0809  0.4049
 6512SOL    HW130998   2.607   0.028   2.224 -1.9741 -2.3665 -1.8517
 6512SOL    HW230999   2.641   4.597   2.200  1.0557 -0.4121  0.0964
 6513SOL     OW31000   1.595   1.599  13.110 -0.0495 -0.0859  0.6976
 6513SOL    HW131001   1.667   1.660  13.097 -0.6345  0.4438 -0.1057
 6513SOL    HW231002   1.541   1.647  13.046  1.0804  0.8284  0.4436
 6514SOL     OW31003   2.788   2.565   0.561 -0.8105 -0.2155 -0.4649
 6514SOL    HW131004   2.801   2.640   0.502  2.6299 -1.1674 -0.9299
 6514SOL    HW231005   2.693   2.565   0.572 -0.6410 -0.8309  1.0091
 6515SOL     OW31006   4.068   2.798  10.068  0.3919 -0.0444 -0.4457
 6515SOL    HW131007   3.997   2.861  10.086  2.7434  1.8612  2.2373
 6515SOL    HW231008   4.112   2.824   9.987  0.0253  0.3657 -0.5156
 6516SOL     OW31009   3.949   4.408   5.839  0.6995  0.1755  0.0217
 6516SOL    HW131010   3.915   4.368   5.919 -0.5104  0.3132 -0.4177
 6516SOL    HW231011   3.877   4.389   5.779  2.0842  0.1376 -1.6105
 6517SOL     OW31012   3.623   3.110   4.275 -0.0478 -0.5045  0.1462
 6517SOL    HW131013   3.625   3.032   4.330 -1.4101 -1.4164 -1.1007
 6517SOL    HW231014   3.571   3.078   4.201  2.1429 -1.5935 -0.9219
 6518SOL     OW31015   2.428   1.392  11.835 -0.2626  0.3500  0.5447
 6518SOL    HW131016   2.495   1.369  11.771  1.1520 -0.3112  2.2808
 6518SOL    HW231017   2.353   1.416  11.780 -0.0080  1.0933  0.5212
 6519SOL     OW31018   1.251   2.607  16.626 -0.0400 -0.3607  0.1017
 6519SOL    HW131019   1.310   2.626  16.553  0.3710  0.2758  0.6080
 6519SOL    HW231020   1.239   2.700  16.646 -0.9569 -1.1944  3.4896
 6520SOL     OW31021   3.425   3.648   4.297  0.7233  0.2607 -0.4351
 6520SOL    HW131022   3.339   3.636   4.256  0.7297 -1.9436  0.2272
 6520SOL    HW231023   3.462   3.723   4.249 -1.2508  2.2499  1.1750
 6521SOL     OW31024   4.496   4.212  12.317  0.2452  0.1665  0.6421
 6521SOL    HW131025   4.555   4.191  12.244 -1.4010 -0.7261 -0.4341
 6521SOL    HW231026   4.556   4.259  12.374  0.9787  0.7716 -0.6169
 6522SOL     OW31027   1.766   0.313   9.900  0.2941  0.3838 -0.1659
 6522SOL    HW131028   1.790   0.222   9.917  1.1865  0.4179 -1.2461
 6522SOL    HW231029   1.688   0.328   9.954  1.1183  1.0407  0.8442
 6523SOL     OW31030   3.312   2.628   2.379  0.0469 -0.0134  0.2458
 6523SOL    HW131031   3.296   2.626   2.285  0.9984  2.5273  0.0413
 6523SOL    HW231032   3.407   2.637   2.382  0.0006  0.3600  0.6289
 6524SOL     OW31033   3.621   2.328  15.800 -0.0418  0.2810 -0.5147
 6524SOL    HW131034   3.708   2.363  15.819 -0.3047 -0.5373  2.2026
 6524SOL    HW231035   3.565   2.365  15.869 -1.6516  1.7956 -2.6352
 6525SOL     OW31036   2.258   1.999   9.919 -0.4677  0.4271  0.1445
 6525SOL    HW131037   2.323   1.981   9.851 -0.0865  2.4005 -0.0163
 6525SOL    HW231038   2.298   2.073   9.963 -0.3703  0.6715 -0.3586
 6526SOL     OW31039   0.353   0.101   7.373 -0.6223 -0.2186  0.0908
 6526SOL    HW131040   0.299   0.174   7.402 -1.9356 -1.6916  1.3862
 6526SOL    HW231041   0.443   0.135   7.374 -0.6800 -0.0624 -0.0815
 6527SOL     OW31042   0.569   0.040   6.137 -0.1166  0.3892 -0.0355
 6527SOL    HW131043   0.522   4.699   6.078 -1.2520  0.9942  0.2669
 6527SOL    HW231044   0.632   4.707   6.187 -1.1365 -0.9195 -0.0890
 6528SOL     OW31045   2.909   4.701   1.602  0.1673  0.2881 -0.6083
 6528SOL    HW131046   2.977   4.634   1.591  0.9229  0.8900  0.3046
 6528SOL    HW231047   2.935   0.013   1.689  2.7943 -0.2085 -1.2233
 6529SOL     OW31048   0.677   0.846  13.758 -0.1277  0.0275  0.1765
 6529SOL    HW131049   0.677   0.790  13.681 -0.5824 -1.6939  1.4351
 6529SOL    HW231050   0.592   0.810  13.785  1.1617 -3.2296 -0.1151
 6530SOL     OW31051   0.129   0.012   8.932 -0.0090  0.5586 -0.1462
 6530SOL    HW131052   0.135   0.040   8.840  2.4319  0.8571  0.0948
 6530SOL    HW231053   0.043   4.698   8.957  0.3910 -1.0048 -0.7916
 6531SOL     OW31054   4.468   2.023   5.355 -0.0995 -0.2668 -0.3912
 6531SOL    HW131055   4.413   2.086   5.309  0.0117 -0.5158 -0.8651
 6531SOL    HW231056   4.401   1.994   5.418  1.1163 -1.5460  0.3385
 6532SOL     OW31057   2.629   2.984   4.730  0.5209  0.0676 -0.2268
 6532SOL    HW131058   2.568   2.914   4.709  0.2178 -0.0229  0.9434
 6532SOL    HW231059   2.659   2.944   4.812  0.0723 -0.7981 -0.4831
 6533SOL     OW31060   0.153   0.777   3.158 -0.2372 -0.4148 -0.2710
 6533SOL    HW131061   0.076   0.724   3.180 -0.4722  0.1443  0.2674
 6533SOL    HW231062   0.150   0.843   3.227 -0.1066 -0.5673 -0.1170
 6534SOL     OW31063   3.799   2.336   3.432  0.3016 -0.0107  0.6839
 6534SOL    HW131064   3.779   2.346   3.339  2.3765 -0.1001  0.2281
 6534SOL    HW231065   3.894   2.353   3.427  0.2250  0.2993  0.2517
 6535SOL     OW31066   2.430   4.104   7.170  0.3496  0.4219  0.5349
 6535SOL    HW131067   2.481   4.037   7.125  1.1300  1.2499  0.1905
 6535SOL    HW231068   2.375   4.147   7.104  0.9018 -2.3376 -1.7377
 6536SOL     OW31069   0.013   3.062   1.217 -0.9876 -0.0220 -0.1145
 6536SOL    HW131070   4.707   3.039   1.127  2.4468  0.1568 -1.0883
 6536SOL    HW231071   4.654   3.045   1.271 -0.8400 -0.0203  0.0949
 6537SOL     OW31072   3.835   1.537   6.444  0.4937  0.5325  0.8952
 6537SOL    HW131073   3.918   1.567   6.408  0.2495 -0.9453 -0.8909
 6537SOL    HW231074   3.869   1.451   6.471  0.5206  0.1822 -0.2653
 6538SOL     OW31075   0.306   4.000   6.609 -0.0222  0.6666  0.2681
 6538SOL    HW131076   0.390   4.046   6.613 -0.5306  1.6683 -0.7379
 6538SOL    HW231077   0.299   3.961   6.522  0.8645  1.2292 -0.0602
 6539SOL     OW31078   3.368   1.065   8.959 -0.4022 -0.3486 -0.1153
 6539SOL    HW131079   3.332   1.118   9.030  1.4359  0.3986  0.2506
 6539SOL    HW231080   3.421   1.003   9.010  1.4283  1.3855  0.0645
 6540SOL     OW31081   4.459   3.870   6.025  0.8571 -0.2126  0.4006
 6540SOL    HW131082   4.457   3.909   5.938  1.2164  0.8291  0.8559
 6540SOL    HW231083   4.503   3.787   6.007  2.2540 -0.0712  3.1740
 6541SOL     OW31084   1.555   3.317  13.845  0.1518 -0.2311  0.6527
 6541SOL    HW131085   1.511   3.241  13.807  1.1809  1.1902 -3.3005
 6541SOL    HW231086   1.517   3.301  13.932  0.2542  2.1100  1.1271
 6542SOL     OW31087   1.274   0.442   3.062  0.3771  0.7246  0.2306
 6542SOL    HW131088   1.250   0.350   3.073 -0.9471  1.1363  0.7309
 6542SOL    HW231089   1.309   0.466   3.148 -2.7407 -3.0470  2.5336
 6543SOL     OW31090   0.418   3.413   2.841  0.0191 -0.0237  0.2099
 6543SOL    HW131091   0.355   3.443   2.775  1.3687 -0.1032 -1.1180
 6543SOL    HW231092   0.364   3.422   2.920 -0.4311 -1.2473  0.0359
 6544SOL     OW31093   1.141   0.949   7.320 -0.3371 -0.0283  0.0445
 6544SOL    HW131094   1.152   1.013   7.390  0.2288  0.4183 -0.4483
 6544SOL    HW231095   1.227   0.962   7.279 -1.6222 -0.6742 -2.8855
 6545SOL     OW31096   1.658   4.100   8.820  0.1867  0.4489  0.2367
 6545SOL    HW131097   1.631   4.161   8.889  0.8005  2.2103 -1.1008
 6545SOL    HW231098   1.735   4.137   8.778  0.5886  2.0138  2.3043
 6546SOL     OW31099   4.039   0.511   4.014 -0.4345 -0.0949 -0.8362
 6546SOL    HW131100   3.960   0.503   3.959 -0.6803 -0.9851 -0.3469
 6546SOL    HW231101   4.098   0.540   3.944  0.4206 -0.9158 -0.4573
 6547SOL     OW31102   3.676   0.599   1.578 -0.3599  0.1865 -0.1048
 6547SOL    HW131103   3.624   0.560   1.649  0.5020  3.5079  2.3505
 6547SOL    HW231104   3.757   0.605   1.628 -0.6089  0.1290  0.3077
 6548SOL     OW31105   0.395   0.425   3.557 -0.0822  0.1467 -0.2068
 6548SOL    HW131106   0.474   0.415   3.610 -1.3721  1.4308  1.9618
 6548SOL    HW231107   0.415   0.508   3.513  0.6181 -1.1275 -2.2627
 6549SOL     OW31108   3.314   2.440   2.597  0.5417 -0.2971 -0.2407
 6549SOL    HW131109   3.328   2.532   2.620  1.4863 -0.5133  0.0634
 6549SOL    HW231110   3.305   2.444   2.502 -1.4995 -1.7222 -0.1141
 6550SOL     OW31111   0.002   1.496  13.128  0.5244  1.5041 -0.0963
 6550SOL    HW131112   0.061   1.436  13.084 -1.1956 -0.5121  0.3532
 6550SOL    HW231113   4.683   1.534  13.049  2.5621 -0.3646 -1.9610
 6551SOL     OW31114   0.593   2.584   3.523  0.2718  0.4676 -0.3902
 6551SOL    HW131115   0.514   2.624   3.487 -1.3459 -2.3301  0.0140
 6551SOL    HW231116   0.655   2.603   3.452  1.0396  0.4583  0.2665
 6552SOL     OW31117   3.826   1.896   1.069 -0.2437 -0.0150 -0.6495
 6552SOL    HW131118   3.770   1.970   1.093  0.8921  0.3334  0.9480
 6552SOL    HW231119   3.786   1.812   1.092  0.3364 -0.0085  0.3767
 6553SOL     OW31120   3.443   1.144   4.322 -0.1918 -0.2695  0.0745
 6553SOL    HW131121   3.390   1.223   4.315 -2.8229 -1.9447  1.1102
 6553SOL    HW231122   3.531   1.171   4.296 -1.5002  1.5615 -2.3659
 6554SOL     OW31123   1.252   4.147   6.621 -0.4025 -0.1239  0.0224
 6554SOL    HW131124   1.236   4.241   6.613  1.6756  0.3205  1.3505
 6554SOL    HW231125   1.325   4.136   6.681 -0.2078  0.0054 -0.1892
 6555SOL     OW31126   0.336   4.514   1.048 -0.1398 -1.0269  0.3463
 6555SOL    HW131127   0.390   4.563   0.986 -0.5477  0.8903  1.5044
 6555SOL    HW231128   0.401   4.487   1.112  0.4056  0.1062  0.2677
 6556SOL     OW31129   1.755   3.457  11.350  0.3033 -0.0760  0.1300
 6556SOL    HW131130   1.673   3.411  11.370 -1.0357  2.3744  0.2721
 6556SOL    HW231131   1.781   3.407  11.273  2.2673  2.4034 -0.7975
 6557SOL     OW31132   2.932   2.515   2.801  0.0559 -0.2408  0.1664
 6557SOL    HW131133   2.903   2.507   2.710  0.8835 -2.2525  0.0725
 6557SOL    HW231134   2.916   2.608   2.819 -2.4187 -0.8551  1.1642
 6558SOL     OW31135   1.961   4.655   1.016 -0.0006  0.2332  0.6279
 6558SOL    HW131136   2.041   4.694   0.982  1.1002 -2.3142  0.2963
 6558SOL    HW231137   1.997   4.629   1.101 -0.2489  2.9099  1.5585
 6559SOL     OW31138   3.924   4.617   2.393  0.3288  0.5571 -0.5196
 6559SOL    HW131139   3.998   4.639   2.450 -2.3064  0.9525  2.7581
 6559SOL    HW231140   3.922   4.523   2.412 -2.3877  0.8114  0.4190
 6560SOL     OW31141   2.813   2.680   4.678 -0.6325  0.0030  0.1017
 6560SOL    HW131142   2.720   2.660   4.688 -0.7372 -0.6086 -2.1802
 6560SOL    HW231143   2.849   2.697   4.765  0.4511 -0.7293 -0.1996
 6561SOL     OW31144   2.121   1.651   1.238  0.6880  1.0179 -0.1405
 6561SOL    HW131145   2.168   1.592   1.297  0.5012 -0.5317 -1.5573
 6561SOL    HW231146   2.187   1.705   1.195 -0.6678  1.9059 -1.0868
 6562SOL     OW31147   2.985   2.438  16.102 -0.5923  0.2722 -0.1920
 6562SOL    HW131148   3.075   2.407  16.112 -0.1104  1.3770 -1.1748
 6562SOL    HW231149   2.946   2.368  16.154 -2.0739  0.6951 -0.7357
 6563SOL     OW31150   3.610   1.488   4.205 -0.2330  0.0586  0.0657
 6563SOL    HW131151   3.576   1.575   4.226 -0.5091 -0.8739  3.4808
 6563SOL    HW231152   3.541   1.466   4.144 -0.2471 -1.2050  0.5512
 6564SOL     OW31153   2.914   4.248  12.207  0.1549 -0.5255  0.0072
 6564SOL    HW131154   2.953   4.334  12.219 -0.3959 -0.0978 -1.2408
 6564SOL    HW231155   2.987   4.186  12.210 -0.0055 -0.7233 -0.2242
 6565SOL     OW31156   0.430   1.346   2.308 -0.0063 -0.4137  0.3535
 6565SOL    HW131157   0.523   1.357   2.292  0.0522  0.4575  1.3283
 6565SOL    HW231158   0.399   1.328   2.219 -0.7092 -2.6875  1.0528
 6566SOL     OW31159   3.201   0.042  15.622 -0.3606  0.1035 -0.2611
 6566SOL    HW131160   3.278   4.718  15.585  1.7866  1.7148  2.3344
 6566SOL    HW231161   3.205   0.015  15.714 -0.0434 -3.3512 -1.2990
 6567SOL     OW31162   0.289   0.156  13.390  0.2977 -0.0079  0.1868
 6567SOL    HW131163   0.331   0.077  13.356 -3.4313 -2.5186  1.4348
 6567SOL    HW231164   0.197   0.149  13.363 -0.1940 -0.4554  1.9640
 6568SOL     OW31165   1.956   0.591   4.816  0.3806  0.4178 -0.3087
 6568SOL    HW131166   1.941   0.668   4.760  1.1122  2.1587  1.8850
 6568SOL    HW231167   1.891   0.612   4.883 -0.1061  0.5051 -0.8030
 6569SOL     OW31168   0.646   4.348  10.318 -0.4987 -0.3132  0.2275
 6569SOL    HW131169   0.727   4.315  10.356 -0.4588 -1.6648 -1.0231
 6569SOL    HW231170   0.647   4.309  10.230  2.9254  1.0306 -0.3140
 6570SOL     OW31171   2.849   2.926  17.438  0.0398  0.5222 -0.1631
 6570SOL    HW131172   2.764   2.923  17.394 -0.6288 -2.1091  1.3045
 6570SOL    HW231173   2.908   2.935  17.364  2.7624 -1.6030  1.7772
 6571SOL     OW31174   2.643   4.067  15.230  0.2679  0.2901 -0.3279
 6571SOL    HW131175   2.625   4.156  15.199 -1.8820  0.2794  0.8875
 6571SOL    HW231176   2.679   4.025  15.152  1.0324  0.2629  0.0374
 6572SOL     OW31177   0.155   3.256   1.392  0.3218  0.6123 -0.8268
 6572SOL    HW131178   0.145   3.164   1.368 -1.4629  0.2393  1.2801
 6572SOL    HW231179   0.240   3.270   1.350  0.1548  0.2160 -1.2965
 6573SOL     OW31180   2.746   4.625   4.261 -0.2810 -0.1751  0.0776
 6573SOL    HW131181   2.760   0.000   4.246 -0.5362 -0.0500  0.6071
 6573SOL    HW231182   2.665   4.611   4.212 -0.7769  2.8157  0.0298
 6574SOL     OW31183   3.603   2.719   6.488  0.6374 -0.0221  0.5411
 6574SOL    HW131184   3.689   2.762   6.489 -0.3858  2.0190  0.7759
 6574SOL    HW231185   3.601   2.697   6.581 -3.1478 -3.2450 -0.3404
 6575SOL     OW31186   2.869   1.400   4.637 -0.0730  0.1615  0.1560
 6575SOL    HW131187   2.905   1.333   4.579 -0.8934  1.9707 -2.4191
 6575SOL    HW231188   2.944   1.460   4.640  0.8712 -0.9948 -0.8993
 6576SOL     OW31189   4.295   2.883   3.302 -0.3066  0.0359  0.7897
 6576SOL    HW131190   4.237   2.808   3.309  1.5619 -1.3118  1.7953
 6576SOL    HW231191   4.237   2.958   3.314 -1.1814 -0.2802 -1.3115
 6577SOL     OW31192   1.955   1.916   7.842  0.1628  0.1480  0.3904
 6577SOL    HW131193   2.046   1.898   7.820 -0.1693 -1.2652  0.1605
 6577SOL    HW231194   1.946   1.865   7.922 -0.5600  0.2889  0.3994
 6578SOL     OW31195   0.109   0.206  12.162 -0.0724  0.4899  0.0298
 6578SOL    HW131196   0.084   0.211  12.254  0.1476  2.3965 -0.0093
 6578SOL    HW231197   0.184   0.265  12.162 -0.3171  0.7760 -2.2610
 6579SOL     OW31198   3.166   0.535   3.621 -0.6541  0.4019  0.5355
 6579SOL    HW131199   3.133   0.446   3.613  1.9492 -0.4098 -1.1452
 6579SOL    HW231200   3.091   0.578   3.581 -1.0135  1.1798  2.0262
 6580SOL     OW31201   4.008   2.154  14.381 -0.0246  0.3698  1.1110
 6580SOL    HW131202   3.939   2.215  14.355 -0.9551 -0.9217  0.5612
 6580SOL    HW231203   4.068   2.202  14.439 -0.6516 -2.5198  4.1251
 6581SOL     OW31204   3.985   0.705   7.180  0.1617  0.6454  0.5947
 6581SOL    HW131205   4.045   0.647   7.226  2.9708  2.4909 -0.7524
 6581SOL    HW231206   3.910   0.646   7.178 -1.5472  2.7313  2.6569
 6582SOL     OW31207   3.055   0.791   5.876 -0.1815 -0.7985 -0.7810
 6582SOL    HW131208   3.054   0.884   5.898 -1.9632 -0.8303 -0.6514
 6582SOL    HW231209   3.142   0.762   5.901 -0.0628 -0.3010 -0.6277
 6583SOL     OW31210   0.009   0.508  10.186  0.4933 -0.0745  0.1386
 6583SOL    HW131211   4.682   0.495  10.103  1.9925 -0.4400 -0.6340
 6583SOL    HW231212   4.668   0.463  10.245 -0.8011  1.6207  0.1305
 6584SOL     OW31213   1.729   1.336   3.426 -0.2612 -0.1403 -0.0181
 6584SOL    HW131214   1.645   1.348   3.471  0.7580 -0.1236  1.8797
 6584SOL    HW231215   1.714   1.379   3.342  0.1055 -1.0612 -0.5533
 6585SOL     OW31216   3.070   3.141   3.473 -0.2692 -0.3301 -0.3404
 6585SOL    HW131217   3.028   3.200   3.535 -0.4619 -2.0672  1.1652
 6585SOL    HW231218   3.005   3.151   3.403  0.1171 -2.4660 -1.0003
 6586SOL     OW31219   0.140   2.044   5.694 -0.9487  0.2284 -0.5612
 6586SOL    HW131220   0.061   2.072   5.649 -1.6312  0.2567  0.6395
 6586SOL    HW231221   0.181   1.996   5.622 -0.8039 -0.3460 -0.0917
 6587SOL     OW31222   4.227   3.964   9.594 -0.4854  0.7069  0.5130
 6587SOL    HW131223   4.206   4.053   9.621 -0.6306  1.1793 -1.2010
 6587SOL    HW231224   4.240   3.980   9.501 -0.0864 -2.2828  0.0448
 6588SOL     OW31225   3.885   0.275  15.071 -0.4157  0.4147 -0.3805
 6588SOL    HW131226   3.818   0.289  15.005 -2.3580 -1.1322  1.2336
 6588SOL    HW231227   3.951   0.227  15.021  2.0320  1.5803  1.7357
 6589SOL     OW31228   3.875   4.233  14.239 -0.0856  0.1973  0.0135
 6589SOL    HW131229   3.857   4.245  14.332 -0.9659 -0.8849 -0.0126
 6589SOL    HW231230   3.784   4.232  14.207  0.8335  1.1249 -2.6348
 6590SOL     OW31231   3.654   3.745  12.403 -0.1071  0.0210  0.0708
 6590SOL    HW131232   3.651   3.655  12.436 -0.5056  0.6420  1.7547
 6590SOL    HW231233   3.580   3.739  12.342  0.9345  0.7363 -1.2603
 6591SOL     OW31234   0.824   3.723   3.684  0.3383  0.5443  0.4047
 6591SOL    HW131235   0.776   3.678   3.615 -0.5047  2.7317 -0.4343
 6591SOL    HW231236   0.765   3.715   3.760  0.1724  0.0338  0.2230
 6592SOL     OW31237   1.683   0.227   5.285  0.1972  0.1415 -0.3233
 6592SOL    HW131238   1.770   0.199   5.258  0.7048 -0.1390  1.5547
 6592SOL    HW231239   1.696   0.263   5.373 -0.1311  0.5570 -0.4468
 6593SOL     OW31240   1.924   3.827   8.501  0.3227  0.5559  0.0376
 6593SOL    HW131241   1.936   3.836   8.595 -0.8370  0.4811  0.1943
 6593SOL    HW231242   1.997   3.875   8.463 -1.2613  1.1018 -2.3256
 6594SOL     OW31243   4.530   1.675  15.743 -0.2996  0.2956  0.1699
 6594SOL    HW131244   4.440   1.645  15.727 -0.4601  0.9503 -0.1873
 6594SOL    HW231245   4.512   1.747  15.805 -1.3003  0.4520 -0.3001
 6595SOL     OW31246   4.215   3.757   6.106 -0.3593 -0.1897 -0.3966
 6595SOL    HW131247   4.295   3.805   6.086 -1.3952  1.5113 -0.4230
 6595SOL    HW231248   4.201   3.715   6.021  0.9751 -0.8647 -0.2794
 6596SOL     OW31249   0.684   2.355   6.118 -0.0173 -0.0661 -0.2137
 6596SOL    HW131250   0.745   2.363   6.045  1.0422  1.7479  0.8566
 6596SOL    HW231251   0.724   2.275   6.152 -3.0374 -1.6960 -0.4526
 6597SOL     OW31252   3.592   0.576  12.770  0.2088 -0.3393 -0.0456
 6597SOL    HW131253   3.668   0.632  12.788  0.2778  0.2657 -2.2228
 6597SOL    HW231254   3.569   0.594  12.679 -1.6419  2.6208  1.0129
 6598SOL     OW31255   1.539   1.132   1.986 -0.1188  0.4209  0.5022
 6598SOL    HW131256   1.528   1.072   2.059  2.8244 -1.2555 -0.3978
 6598SOL    HW231257   1.587   1.068   1.932  0.3313  1.4970 -0.3780
 6599SOL     OW31258   0.506   1.057   3.025 -0.5417  0.6267 -0.3081
 6599SOL    HW131259   0.538   1.079   2.938 -0.7519 -0.3812 -0.6381
 6599SOL    HW231260   0.411   1.060   3.013 -0.5484  1.3748 -0.0613
 6600SOL     OW31261   3.209   1.801  13.996  0.5945  0.2981  0.2098
 6600SOL    HW131262   3.216   1.879  13.941  0.1480  0.7369  0.7703
 6600SOL    HW231263   3.143   1.810  14.065  0.4188  0.8014 -0.0228
 6601SOL     OW31264   3.179   1.926   7.761  0.3685 -0.1970 -0.3601
 6601SOL    HW131265   3.229   1.993   7.807  0.1027 -0.4113  0.2461
 6601SOL    HW231266   3.256   1.876   7.734  0.2081  0.1660 -1.4779
 6602SOL     OW31267   2.163   1.028   2.840 -0.0479 -0.1846  0.0174
 6602SOL    HW131268   2.133   1.082   2.767 -0.2897  0.4024  0.5509
 6602SOL    HW231269   2.257   1.014   2.828 -0.1159 -0.0101 -0.7299
 6603SOL     OW31270   2.542   2.544   9.276  0.4357 -0.0218  0.1069
 6603SOL    HW131271   2.558   2.457   9.240  0.8548 -0.1205  0.5373
 6603SOL    HW231272   2.606   2.542   9.347  0.0738  0.5522  0.4521
 6604SOL     OW31273   2.699   2.541   5.154 -0.1858  0.1872  0.2155
 6604SOL    HW131274   2.768   2.476   5.166 -0.8876 -0.8710 -1.5015
 6604SOL    HW231275   2.658   2.548   5.240 -0.4239  2.0614 -0.0627
 6605SOL     OW31276   2.754   4.035  15.899 -0.3053  0.4299 -0.0425
 6605SOL    HW131277   2.799   4.091  15.963 -1.7367 -0.0802  1.4129
 6605SOL    HW231278   2.748   3.954  15.950  0.0141  0.4042 -0.0484
 6606SOL     OW31279   0.390   0.393   6.894  0.6580  0.3106  0.0277
 6606SOL    HW131280   0.424   0.379   6.982 -0.2142  1.1878  0.5083
 6606SOL    HW231281   0.323   0.458   6.918  1.3894  0.9184  0.4230
 6607SOL     OW31282   3.698   1.138   5.131 -0.0417 -0.3270  0.1034
 6607SOL    HW131283   3.634   1.186   5.077 -1.0217  0.3190  1.8396
 6607SOL    HW231284   3.664   1.048   5.124  0.9607 -0.6895 -0.0053
 6608SOL     OW31285   0.769   4.264   9.863 -0.4999 -0.2781  0.1218
 6608SOL    HW131286   0.856   4.296   9.840 -0.3749  2.1609  4.0892
 6608SOL    HW231287   0.796   4.173   9.876 -0.0770 -0.3369 -1.1240
 6609SOL     OW31288   2.079   3.270   7.582  0.8150 -0.4724  0.0728
 6609SOL    HW131289   2.169   3.288   7.607  1.1397  0.0433 -1.5018
 6609SOL    HW231290   2.049   3.352   7.543 -0.0779 -0.0284  1.6748
 6610SOL     OW31291   1.268   4.494   3.512 -0.1025  0.3130  0.0792
 6610SOL    HW131292   1.324   4.444   3.452  0.6302  0.8177  0.3431
 6610SOL    HW231293   1.334   4.539   3.565 -1.3071  0.2324  1.6373
 6611SOL     OW31294   0.215   4.392   4.379  0.0522 -0.0395  0.0789
 6611SOL    HW131295   0.217   4.466   4.440  0.1970 -0.4957  0.6215
 6611SOL    HW231296   0.158   4.327   4.420  1.9407 -0.9738  1.2298
 6612SOL     OW31297   4.262   0.073   3.150  0.7747 -0.4691 -0.2395
 6612SOL    HW131298   4.290   0.078   3.241  1.0073 -1.0612 -0.2829
 6612SOL    HW231299   4.337   0.028   3.111  1.2752 -0.3614  0.6046
 6613SOL     OW31300   1.615   3.418   5.174 -0.0117 -0.0362  0.4058
 6613SOL    HW131301   1.520   3.420   5.174  0.0105  0.9922 -0.0670
 6613SOL    HW231302   1.630   3.363   5.096  1.2644  0.9745 -0.0558
 6614SOL     OW31303   2.420   0.422  15.889 -0.4753  0.2280 -0.3071
 6614SOL    HW131304   2.501   0.383  15.922 -0.6273  1.0900  1.1147
 6614SOL    HW231305   2.430   0.513  15.919  0.2739 -0.3220  1.1136
 6615SOL     OW31306   3.055   2.413   8.022  0.2833 -0.6271  0.2414
 6615SOL    HW131307   2.962   2.422   8.042  0.2612 -1.9810  0.7451
 6615SOL    HW231308   3.098   2.413   8.108  0.4800  1.8884  0.1616
 6616SOL     OW31309   3.772   2.036   2.675 -0.1283 -0.2358 -0.0609
 6616SOL    HW131310   3.854   2.063   2.716 -0.3107  2.7371 -1.5851
 6616SOL    HW231311   3.795   2.047   2.583 -1.7652  2.0011 -0.2211
 6617SOL     OW31312   4.566   1.359  12.305 -0.5100  0.0267 -0.0088
 6617SOL    HW131313   4.548   1.400  12.220  0.1643 -1.9220 -1.0770
 6617SOL    HW231314   4.648   1.402  12.329 -1.0427  1.1788 -0.2350
 6618SOL     OW31315   3.237   1.407   5.018  0.3122 -0.6500  0.3941
 6618SOL    HW131316   3.289   1.481   4.986 -2.4845  0.5665 -1.3041
 6618SOL    HW231317   3.303   1.344   4.988 -0.3709 -0.6014 -1.2310
 6619SOL     OW31318   4.126   1.316  13.502  0.0153 -0.2081  0.3360
 6619SOL    HW131319   4.177   1.328  13.422  3.3255  2.2786  2.8045
 6619SOL    HW231320   4.204   1.305  13.556  0.5420 -1.4208 -0.6581
 6620SOL     OW31321   3.848   0.891   0.224 -0.2602 -0.0834  1.0339
 6620SOL    HW131322   3.791   0.843   0.285 -0.0571 -1.0227  0.4817
 6620SOL    HW231323   3.919   0.829   0.239 -0.6520 -1.1367 -1.4626
 6621SOL     OW31324   4.221   2.851   9.845 -0.5112  0.6847 -0.4232
 6621SOL    HW131325   4.157   2.841   9.775 -0.1228 -1.2214 -0.5148
 6621SOL    HW231326   4.294   2.790   9.834  0.7727  1.9160  1.2024
 6622SOL     OW31327   2.212   0.008   6.266  0.3807  0.1121 -0.0879
 6622SOL    HW131328   2.219   4.631   6.279  1.3913  0.1588 -0.2924
 6622SOL    HW231329   2.139   0.031   6.323 -0.0472  0.3058 -0.7151
 6623SOL     OW31330   2.669   1.779   4.521  0.2208 -0.2552  0.6504
 6623SOL    HW131331   2.727   1.769   4.446  0.4148 -1.8403  1.0093
 6623SOL    HW231332   2.649   1.686   4.533  1.2720 -0.2426  2.4856
 6624SOL     OW31333   0.840   3.019  16.042  0.2089  0.1532 -0.6607
 6624SOL    HW131334   0.859   2.929  16.015  0.5597 -0.4678  1.6744
 6624SOL    HW231335   0.856   3.019  16.136 -0.0880  1.8608 -0.6006
 6625SOL     OW31336   1.205   3.900   7.182 -0.2412 -0.1075 -0.2201
 6625SOL    HW131337   1.171   3.889   7.094  0.1707 -0.5924 -0.3197
 6625SOL    HW231338   1.241   3.813   7.200 -0.7703 -0.8089 -2.6615
 6626SOL     OW31339   1.848   4.168   3.446  0.2635 -0.2276 -0.2187
 6626SOL    HW131340   1.832   4.075   3.463  0.7290 -0.5438 -1.5508
 6626SOL    HW231341   1.810   4.203   3.527  0.7886  1.3350 -0.6563
 6627SOL     OW31342   3.292   0.587  11.862  0.1695 -0.4662  0.4042
 6627SOL    HW131343   3.311   0.574  11.955  1.5200 -0.1130  0.1830
 6627SOL    HW231344   3.199   0.610  11.858  0.2019 -0.4675 -0.3128
 6628SOL     OW31345   0.721   3.341   3.316  0.2690 -0.2745 -0.2552
 6628SOL    HW131346   0.722   3.343   3.412  4.4385  0.7402 -0.3322
 6628SOL    HW231347   0.812   3.325   3.291  0.3854 -1.2269  0.7616
 6629SOL     OW31348   0.765   1.902   5.895 -0.0325 -0.0935  0.2672
 6629SOL    HW131349   0.694   1.951   5.854  0.8771  0.6491 -0.4297
 6629SOL    HW231350   0.708   1.830   5.923 -0.9478  0.1323 -1.0580
 6630SOL     OW31351   1.163   3.577  12.053 -0.0716  0.5687 -0.3544
 6630SOL    HW131352   1.073   3.544  12.062  1.4888 -3.4169  0.7806
 6630SOL    HW231353   1.192   3.603  12.140  0.1614 -1.5563  0.2087
 6631SOL     OW31354   2.579   3.724   2.106  0.3296  0.1385 -0.4019
 6631SOL    HW131355   2.494   3.765   2.120 -0.4788 -1.6994  0.0107
 6631SOL    HW231356   2.546   3.635   2.109  1.5656 -0.2926  0.2516
 6632SOL     OW31357   4.180   0.128   6.159  0.3775 -1.1585 -0.3450
 6632SOL    HW131358   4.178   0.036   6.133  0.3251 -1.1091 -0.5238
 6632SOL    HW231359   4.274   0.146   6.154  0.4497 -1.5428 -0.3154
 6633SOL     OW31360   4.507   3.736  11.783 -0.2497  0.4594  0.3937
 6633SOL    HW131361   4.542   3.808  11.731 -1.2663  1.0597  0.5415
 6633SOL    HW231362   4.539   3.754  11.872 -1.9587 -2.3473  1.5785
 6634SOL     OW31363   2.717   2.036   0.968  0.1327  0.1780  0.3876
 6634SOL    HW131364   2.765   2.119   0.975  2.6515 -1.2161 -0.1114
 6634SOL    HW231365   2.736   2.007   1.057 -1.1650 -0.0279  0.5924
 6635SOL     OW31366   1.536   4.203   2.229  0.5469 -0.1481  0.3486
 6635SOL    HW131367   1.532   4.126   2.285 -2.5425 -0.1474  0.1626
 6635SOL    HW231368   1.630   4.216   2.235  0.6583  0.5903 -2.8410
 6636SOL     OW31369   2.852   3.324  11.436 -0.9223 -0.0886 -0.2604
 6636SOL    HW131370   2.787   3.392  11.419  0.6430  1.5177  0.0747
 6636SOL    HW231371   2.928   3.383  11.435 -0.5534 -0.5027  2.5776
 6637SOL     OW31372   0.060   2.639  14.871  0.4640  0.1828  0.1744
 6637SOL    HW131373   0.093   2.553  14.845 -0.3419 -0.5340  1.5169
 6637SOL    HW231374   0.120   2.662  14.941 -1.0282 -0.3625  1.6372
 6638SOL     OW31375   4.001   2.628   2.594 -0.4517  0.2651 -0.6024
 6638SOL    HW131376   4.010   2.538   2.561  0.7030 -0.0321  0.5187
 6638SOL    HW231377   4.089   2.642   2.628 -0.0378  0.1889 -1.6265
 6639SOL     OW31378   4.127   2.512  16.155  0.1566 -0.4337 -0.1746
 6639SOL    HW131379   4.177   2.512  16.237 -1.6040  1.8874  0.8861
 6639SOL    HW231380   4.075   2.589  16.177  0.6968 -0.5664  1.5671
 6640SOL     OW31381   2.901   1.910  13.041  0.0379  0.1730 -0.6472
 6640SOL    HW131382   2.862   1.982  12.991 -0.1998  1.2919  1.1452
 6640SOL    HW231383   2.896   1.962  13.122  0.6446  0.3083 -0.6984
 6641SOL     OW31384   0.845   0.271   1.687  0.4703 -0.3740  0.3586
 6641SOL    HW131385   0.908   0.324   1.638 -0.6894  0.3270 -0.3849
 6641SOL    HW231386   0.841   0.197   1.626 -0.0527  1.0448 -1.3276
 6642SOL     OW31387   3.651   1.320  13.432  0.6258 -0.4728 -0.6126
 6642SOL    HW131388   3.639   1.258  13.504 -1.7977  0.2793 -0.3942
 6642SOL    HW231389   3.621   1.270  13.356  1.9387 -3.8549  1.0833
 6643SOL     OW31390   1.708   2.910   2.980 -0.1170  0.8342  0.1437
 6643SOL    HW131391   1.678   2.989   2.934  1.8132  1.9056  0.7247
 6643SOL    HW231392   1.788   2.895   2.930 -0.0943  0.7527  0.2066
 6644SOL     OW31393   1.443   4.463   6.700  0.2419  0.3606  0.4789
 6644SOL    HW131394   1.424   4.553   6.726 -1.4776  0.1355  0.0272
 6644SOL    HW231395   1.531   4.456   6.737 -0.7364  0.0842  2.8138
 6645SOL     OW31396   0.706   1.965   8.539  0.0209 -0.9178  0.0333
 6645SOL    HW131397   0.721   1.930   8.626  1.0395 -0.8883 -0.1285
 6645SOL    HW231398   0.720   1.899   8.470 -0.2753  1.2654 -2.1194
 6646SOL     OW31399   4.229   4.154   2.892  0.7101 -0.0594 -0.3075
 6646SOL    HW131400   4.256   4.193   2.809  2.6403  0.2131  0.4535
 6646SOL    HW231401   4.313   4.124   2.928 -0.6095  0.6638  3.4348
 6647SOL     OW31402   4.117   2.030   1.061 -0.5463  0.1382  0.0825
 6647SOL    HW131403   4.074   2.056   1.143 -0.1640 -2.8128  1.2306
 6647SOL    HW231404   4.057   2.069   0.997  1.1634  0.9404 -1.0100
 6648SOL     OW31405   1.203   3.315   8.392 -0.5760  0.4330  0.2534
 6648SOL    HW131406   1.173   3.264   8.317 -0.4774 -1.2713  1.3719
 6648SOL    HW231407   1.123   3.333   8.440 -1.3517  3.3878 -2.0948
 6649SOL     OW31408   1.841   1.717  16.388  0.6225  0.6224  0.3969
 6649SOL    HW131409   1.777   1.652  16.417 -1.4322  1.7442 -1.5944
 6649SOL    HW231410   1.871   1.749  16.473 -0.4103  1.4407  0.4544
 6650SOL     OW31411   3.530   1.562   8.553  0.2599  0.3312 -0.3060
 6650SOL    HW131412   3.565   1.474   8.565  1.8019  1.4883  3.5991
 6650SOL    HW231413   3.591   1.586   8.483  2.1734 -2.7975  0.2719
 6651SOL     OW31414   1.300   3.472   3.309  0.5275 -0.0724 -0.0304
 6651SOL    HW131415   1.316   3.476   3.404  3.1786  0.0204 -0.4652
 6651SOL    HW231416   1.298   3.377   3.297  3.5546  0.1503 -2.2540
 6652SOL     OW31417   1.748   1.721   7.039 -0.0916  0.1059 -0.1535
 6652SOL    HW131418   1.843   1.716   7.030  0.0049 -1.3516  1.8859
 6652SOL    HW231419   1.725   1.715   6.946  1.2165 -0.1950 -0.4662
 6653SOL     OW31420   3.785   0.716   4.088 -0.4262  0.6053  0.0013
 6653SOL    HW131421   3.704   0.678   4.054 -1.0116  0.9714  0.9784
 6653SOL    HW231422   3.757   0.807   4.086  1.3657  1.1418 -0.0374
 6654SOL     OW31423   1.087   3.081   3.466 -0.2238 -0.0055  0.5813
 6654SOL    HW131424   1.049   3.033   3.392 -0.4905 -0.0555  0.7517
 6654SOL    HW231425   1.177   3.086   3.434 -0.8499  1.5059 -0.9412
 6655SOL     OW31426   2.142   2.628   9.005 -0.6420 -1.0956  0.1742
 6655SOL    HW131427   2.075   2.685   9.043 -0.7890  0.4514 -2.4796
 6655SOL    HW231428   2.208   2.618   9.074 -1.2737  1.8213  1.1825
 6656SOL     OW31429   1.183   2.728   6.898  0.2838 -0.1051 -0.1719
 6656SOL    HW131430   1.208   2.643   6.860  1.9633 -0.3038  1.4026
 6656SOL    HW231431   1.271   2.765   6.902 -0.0439  0.6476  0.0669
 6657SOL     OW31432   1.789   0.102   0.309 -0.2083  0.1803 -0.0267
 6657SOL    HW131433   1.834   0.030   0.264 -0.3849 -0.0772  0.2180
 6657SOL    HW231434   1.810   0.084   0.400 -0.2267  1.0090  0.1418
 6658SOL     OW31435   3.111   1.992   5.716 -0.2527 -0.0514  0.6020
 6658SOL    HW131436   3.206   2.000   5.711 -0.1770 -1.4727 -0.2368
 6658SOL    HW231437   3.090   1.962   5.628 -0.4607 -1.3063  1.0695
 6659SOL     OW31438   1.056   0.497   5.999 -0.4426 -0.2947  0.0647
 6659SOL    HW131439   1.052   0.453   5.914 -1.4476  0.3423 -0.2144
 6659SOL    HW231440   1.136   0.454   6.032 -0.4589 -0.7570 -0.4975
 6660SOL     OW31441   0.244   2.344   6.028  0.0056 -0.4746  0.3685
 6660SOL    HW131442   0.234   2.254   6.057  1.3501 -1.1706 -1.3141
 6660SOL    HW231443   0.301   2.376   6.098 -2.7163 -0.4369  2.5800
 6661SOL     OW31444   1.227   1.904   6.434  0.5898  0.0108 -0.0114
 6661SOL    HW131445   1.269   1.885   6.351 -0.1357  1.5333 -0.7240
 6661SOL    HW231446   1.140   1.928   6.403  1.5944  0.3434 -2.5826
 6662SOL     OW31447   3.338   3.178   3.541  0.0860  0.0685  0.3524
 6662SOL    HW131448   3.243   3.187   3.550  0.2255  0.8473  0.9996
 6662SOL    HW231449   3.361   3.215   3.455 -1.1874  0.5153  0.2066
 6663SOL     OW31450   2.079   1.229   3.837 -0.8881 -0.4274 -0.1256
 6663SOL    HW131451   2.024   1.211   3.761 -2.2940 -1.7566  1.2067
 6663SOL    HW231452   2.159   1.218   3.786  0.7071  2.6991  1.7122
 6664SOL     OW31453   3.645   2.699   4.970 -0.1552  0.3690 -0.1886
 6664SOL    HW131454   3.665   2.690   4.877  0.4409  0.2835 -0.0579
 6664SOL    HW231455   3.732   2.732   4.995 -0.5900  2.2900 -1.1936
 6665SOL     OW31456   3.087   1.544   4.601  0.2539 -0.8484 -0.1547
 6665SOL    HW131457   3.101   1.630   4.640 -1.5801 -0.6304 -0.0022
 6665SOL    HW231458   3.085   1.576   4.511  1.1048 -0.6051 -0.0910
 6666SOL     OW31459   4.616   0.312  15.921  0.3657  0.2839 -0.7193
 6666SOL    HW131460   4.567   0.270  15.992 -0.6754 -1.2749 -2.3729
 6666SOL    HW231461   4.675   0.360  15.979 -0.9230  0.1370  0.7257
 6667SOL     OW31462   0.692   3.172  15.359 -0.3828  0.3085  0.3524
 6667SOL    HW131463   0.650   3.151  15.442  0.0957  1.9083  0.9947
 6667SOL    HW231464   0.779   3.201  15.386  0.1270 -1.1493  0.2808
 6668SOL     OW31465   3.636   2.720   9.745  0.4602  0.3538 -0.0964
 6668SOL    HW131466   3.665   2.808   9.768 -1.4682  1.0181 -0.1645
 6668SOL    HW231467   3.644   2.712   9.650 -0.5532 -0.5929 -0.1018
 6669SOL     OW31468   2.881   4.487   5.213  0.0034 -0.2319 -0.1882
 6669SOL    HW131469   2.945   4.551   5.183 -0.8198  0.4190 -0.5374
 6669SOL    HW231470   2.937   4.422   5.257  1.6604  0.5162 -1.1845
 6670SOL     OW31471   3.245   1.359  15.225 -0.0131 -0.4235  0.3279
 6670SOL    HW131472   3.167   1.357  15.169  0.7937 -1.3855 -0.7890
 6670SOL    HW231473   3.313   1.405  15.175 -0.9290 -2.6219 -2.9821
 6671SOL     OW31474   0.703   4.114   4.622 -0.4276 -0.1659 -0.3008
 6671SOL    HW131475   0.688   4.100   4.716  0.0547 -0.2083 -0.2314
 6671SOL    HW231476   0.777   4.054   4.614 -0.5889 -0.3541 -0.3512
 6672SOL     OW31477   3.608   1.229   8.204 -0.7358  0.0575 -0.5244
 6672SOL    HW131478   3.535   1.232   8.265 -0.8570  1.6973 -0.7264
 6672SOL    HW231479   3.569   1.288   8.139 -2.4229 -1.3536 -0.7536
 6673SOL     OW31480   0.834   1.003   9.956 -0.0459  0.3206  0.4417
 6673SOL    HW131481   0.802   0.965  10.038 -0.9510 -0.8540 -0.4685
 6673SOL    HW231482   0.925   1.023   9.980  0.1473  1.0906 -0.9359
 6674SOL     OW31483   3.068   0.330   8.374 -0.0591  0.3883  0.4167
 6674SOL    HW131484   3.010   0.260   8.344  2.3184 -2.0386  1.5648
 6674SOL    HW231485   3.042   0.407   8.322 -0.0313  2.7680  3.9402
 6675SOL     OW31486   1.432   0.550  16.524 -0.4534 -0.4026  0.3412
 6675SOL    HW131487   1.450   0.577  16.614 -0.6348  1.3615 -0.1686
 6675SOL    HW231488   1.406   0.637  16.497  0.0274 -0.5999 -0.7574
 6676SOL     OW31489   0.433   3.108   7.798 -0.5632  0.4956 -0.1314
 6676SOL    HW131490   0.453   3.181   7.740  0.6168 -0.7759 -1.3369
 6676SOL    HW231491   0.411   3.147   7.883  2.3344 -0.0745  0.8767
 6677SOL     OW31492   0.704   0.376   6.720  0.0056  0.5568  0.1694
 6677SOL    HW131493   0.714   0.291   6.677  2.5752  0.1972  1.4884
 6677SOL    HW231494   0.710   0.353   6.813  1.8198  0.4966  0.0227
 6678SOL     OW31495   3.660   0.845   2.684  0.1140  0.0314  0.3765
 6678SOL    HW131496   3.718   0.921   2.680 -2.0382  1.6225 -0.5218
 6678SOL    HW231497   3.698   0.776   2.629  1.3500 -0.4847  1.8668
 6679SOL     OW31498   2.210   2.559   3.282  0.8662  0.4095  0.2242
 6679SOL    HW131499   2.228   2.574   3.374  0.9023 -2.3012  0.6652
 6679SOL    HW231500   2.222   2.648   3.250  2.3535  0.6332  1.3995
 6680SOL     OW31501   0.159   1.536   7.148  0.3548 -0.5059 -0.3966
 6680SOL    HW131502   0.085   1.591   7.119  2.1461  0.7867 -2.5565
 6680SOL    HW231503   0.112   1.474   7.204 -1.2880  1.4524  0.4047
 6681SOL     OW31504   3.238   0.366  17.676  0.1499 -0.4777 -0.1227
 6681SOL    HW131505   3.246   0.378  17.582  0.2440 -1.7055 -0.2753
 6681SOL    HW231506   3.328   0.385   0.026  0.5627  2.5935 -3.7058
 6682SOL     OW31507   3.692   0.851   3.703  0.3731 -0.3405  0.3035
 6682SOL    HW131508   3.619   0.842   3.641 -1.9277 -0.8358  3.0515
 6682SOL    HW231509   3.648   0.885   3.781  0.4744  0.9001 -0.1876
 6683SOL     OW31510   2.237   0.289   9.356 -0.5334 -0.2499  0.3403
 6683SOL    HW131511   2.310   0.227   9.358 -1.1549 -1.0095 -1.3059
 6683SOL    HW231512   2.238   0.312   9.449 -0.4962  0.2302  0.2222
 6684SOL     OW31513   2.146   2.297  12.759  0.3425 -0.6257 -0.2501
 6684SOL    HW131514   2.141   2.279  12.852  2.3018 -0.4946 -0.1231
 6684SOL    HW231515   2.078   2.234  12.737 -0.5981  0.4559 -0.4575
 6685SOL     OW31516   1.102   2.058   4.674 -0.0269  0.0944  0.0828
 6685SOL    HW131517   1.022   2.070   4.622  0.6290  2.7961 -0.3229
 6685SOL    HW231518   1.093   1.974   4.719  0.8243 -0.2785 -0.4429
 6686SOL     OW31519   2.399   2.345   3.006  0.3949  0.8915  0.1231
 6686SOL    HW131520   2.364   2.425   3.045 -0.6859  1.2739 -1.6024
 6686SOL    HW231521   2.476   2.377   2.959  0.0440  1.0620 -0.3397
 6687SOL     OW31522   1.957   3.613  11.193  0.0547 -0.2335  0.0674
 6687SOL    HW131523   1.882   3.601  11.251  1.1116  0.6805  1.6275
 6687SOL    HW231524   1.927   3.577  11.110 -1.4554 -0.6375  0.7921
 6688SOL     OW31525   3.713   1.189  14.784 -0.2418  0.0016  0.2723
 6688SOL    HW131526   3.750   1.274  14.760 -0.0390 -0.1534  0.0292
 6688SOL    HW231527   3.724   1.177  14.878 -0.7542  1.4375  0.5091
 6689SOL     OW31528   1.355   1.657   3.044 -0.6540  0.8401 -0.2613
 6689SOL    HW131529   1.303   1.734   3.022  0.6219  2.0237  0.8902
 6689SOL    HW231530   1.435   1.696   3.079  1.3408 -0.6957 -3.1125
 6690SOL     OW31531   0.517   0.431   6.463  0.2942 -0.1069  0.0417
 6690SOL    HW131532   0.519   0.335   6.455  4.1727 -0.0070  0.1058
 6690SOL    HW231533   0.424   0.455   6.470  0.3522 -0.2655  1.3442
 6691SOL     OW31534   0.350   2.587   1.516  0.3263 -1.1783  0.4548
 6691SOL    HW131535   0.256   2.605   1.511  0.7061  1.1804  1.5879
 6691SOL    HW231536   0.351   2.545   1.430  1.3433 -0.5064  0.1380
 6692SOL     OW31537   3.065   3.902   5.485  0.0192  0.6140 -0.3353
 6692SOL    HW131538   2.996   3.836   5.493  1.1659 -0.5430  0.0747
 6692SOL    HW231539   3.135   3.849   5.522 -1.8843 -1.5198  0.2072
 6693SOL     OW31540   3.055   1.648   5.266  0.4795  0.1436  0.4263
 6693SOL    HW131541   3.135   1.596   5.278 -0.3337 -1.8606 -2.7996
 6693SOL    HW231542   3.040   1.622   5.175 -2.6060 -1.2048  1.3374
 6694SOL     OW31543   2.120   0.765   3.304  0.0420  0.2736  0.0993
 6694SOL    HW131544   2.125   0.737   3.213 -0.4722 -1.6653  0.6637
 6694SOL    HW231545   2.092   0.855   3.288  0.3315  0.4077  0.3396
 6695SOL     OW31546   3.826   1.419   3.136 -0.2208 -0.5443 -0.3340
 6695SOL    HW131547   3.840   1.499   3.085  0.7695 -0.0824  0.6395
 6695SOL    HW231548   3.862   1.442   3.222 -1.9279 -1.1523  0.5462
 6696SOL     OW31549   4.083   0.073   9.631 -0.5252 -0.4661  0.1825
 6696SOL    HW131550   4.003   0.122   9.651 -1.7312 -1.5107 -2.1018
 6696SOL    HW231551   4.135   0.103   9.706  2.8942  0.5757 -2.5971
 6697SOL     OW31552   2.645   2.037   7.773 -0.0508  0.2296  0.6609
 6697SOL    HW131553   2.613   2.096   7.842  0.9562  1.0221  0.4458
 6697SOL    HW231554   2.638   1.949   7.809 -0.2968 -0.0232 -0.0054
 6698SOL     OW31555   2.133   0.232   5.688  0.1890 -0.1130  0.3519
 6698SOL    HW131556   2.083   0.251   5.609 -0.0610  1.5543  0.9218
 6698SOL    HW231557   2.198   0.176   5.647  0.1928 -0.6630  1.0977
 6699SOL     OW31558   1.357   2.188  11.312 -0.3431 -0.2410  0.5789
 6699SOL    HW131559   1.367   2.280  11.291 -0.7411 -0.1447  0.8116
 6699SOL    HW231560   1.348   2.146  11.226 -0.2302  0.1939  0.3545
 6700SOL     OW31561   1.446   1.668   7.845  0.1123 -0.3513 -0.0304
 6700SOL    HW131562   1.485   1.709   7.922 -2.4859  0.1159  1.0330
 6700SOL    HW231563   1.502   1.707   7.778  0.4654 -0.1682  0.3747
 6701SOL     OW31564   0.068   3.013  10.075 -0.1781  0.3609  0.0249
 6701SOL    HW131565   0.012   2.985  10.003  0.7370 -2.2892  0.3228
 6701SOL    HW231566   0.089   3.102  10.048 -0.3094  0.4958  0.3705
 6702SOL     OW31567   0.928   4.036   7.199 -0.1199  0.2535 -0.2734
 6702SOL    HW131568   1.019   4.020   7.225 -0.7322  0.5556  2.0182
 6702SOL    HW231569   0.940   4.099   7.128 -1.1173 -0.9611 -1.5200
 6703SOL     OW31570   2.897   2.150  14.488 -0.1424 -0.7897 -0.3495
 6703SOL    HW131571   2.967   2.095  14.453  0.8481  0.7315 -0.7574
 6703SOL    HW231572   2.881   2.205  14.411  0.4192 -1.1827 -0.7513
 6704SOL     OW31573   1.005   1.478   3.266 -0.3961  0.2725 -0.4783
 6704SOL    HW131574   0.930   1.530   3.296 -0.3722 -0.3276  0.6630
 6704SOL    HW231575   1.071   1.542   3.291 -0.4789  0.2773 -0.2697
 6705SOL     OW31576   2.494   3.300   8.793 -0.2897  0.7653  0.1720
 6705SOL    HW131577   2.447   3.283   8.712 -0.6185 -0.3946  0.6129
 6705SOL    HW231578   2.443   3.237   8.844 -0.0976 -0.4251 -1.1185
 6706SOL     OW31579   1.627   0.801  16.602 -0.0166  0.5808  0.7897
 6706SOL    HW131580   1.640   0.764  16.689 -0.1585 -1.8637 -0.2442
 6706SOL    HW231581   1.552   0.859  16.615  0.2807  1.4426 -1.3604
 6707SOL     OW31582   0.134   1.415   5.601  0.2727 -0.2568  0.1549
 6707SOL    HW131583   0.137   1.501   5.560  1.8626  0.7023  2.2444
 6707SOL    HW231584   0.135   1.371   5.516  0.4133 -1.7872  0.9444
 6708SOL     OW31585   3.961   1.984   1.756 -0.2797 -0.1411  0.0172
 6708SOL    HW131586   3.968   1.889   1.765 -0.8774 -0.3045 -1.3498
 6708SOL    HW231587   4.049   2.019   1.768  0.1253 -0.8620 -0.8695
 6709SOL     OW31588   4.425   0.894  12.316 -0.1509  0.2437  0.0841
 6709SOL    HW131589   4.518   0.877  12.301 -0.2305  0.2874 -0.4642
 6709SOL    HW231590   4.420   0.985  12.346 -0.6300  0.2547 -0.0189
 6710SOL     OW31591   3.080   0.483  16.871  0.3317  0.2402  0.0217
 6710SOL    HW131592   3.164   0.437  16.878 -1.1536 -2.7365 -1.4283
 6710SOL    HW231593   3.088   0.545  16.943  3.1213 -0.8286  0.6553
 6711SOL     OW31594   3.287   4.014  13.406 -0.0891 -0.6565 -0.0984
 6711SOL    HW131595   3.200   4.053  13.397  0.8516  1.5618  0.5820
 6711SOL    HW231596   3.347   4.085  13.382 -0.5810 -1.0800 -2.5732
 6712SOL     OW31597   1.157   1.299   6.631 -0.7181 -0.0928  0.1841
 6712SOL    HW131598   1.122   1.316   6.719  1.0908  2.0861  0.4896
 6712SOL    HW231599   1.137   1.382   6.588  2.5039  2.0237  2.7554
 6713SOL     OW31600   0.838   2.254   0.084 -0.1972  0.6518 -0.3504
 6713SOL    HW131601   0.826   2.238   0.177  0.8381  1.4542 -0.0796
 6713SOL    HW231602   0.891   2.333   0.091 -1.0549  1.2038 -0.0227
 6714SOL     OW31603   4.391   0.849  11.122  0.5884  0.0968 -0.2977
 6714SOL    HW131604   4.447   0.902  11.066  3.4168 -1.2798  1.2037
 6714SOL    HW231605   4.370   0.912  11.191 -0.5048 -0.0577 -0.4811
 6715SOL     OW31606   1.371   4.700   6.404 -0.0358 -0.4535  0.1194
 6715SOL    HW131607   1.382   0.069   6.366 -1.1306 -0.4134 -0.1044
 6715SOL    HW231608   1.352   4.649   6.325  1.3971 -0.0235 -0.5149
 6716SOL     OW31609   0.633   0.282   4.442 -0.4567  0.8605  0.0564
 6716SOL    HW131610   0.616   0.188   4.445 -0.6591  0.9006  0.2319
 6716SOL    HW231611   0.713   0.289   4.391 -0.3526  2.5360  0.4348
 6717SOL     OW31612   1.844   4.444   9.062 -0.5623 -0.2807 -0.2554
 6717SOL    HW131613   1.834   4.470   9.154 -2.9609  2.3458 -1.2474
 6717SOL    HW231614   1.871   4.530   9.030 -0.4846  0.2090  1.0925
 6718SOL     OW31615   0.223   4.415   6.305 -0.3827 -0.5096 -0.0880
 6718SOL    HW131616   0.135   4.439   6.332  0.1749  1.3976  0.0875
 6718SOL    HW231617   0.206   4.384   6.217  0.5820  0.4619 -0.6272
 6719SOL     OW31618   0.814   4.553   9.554 -0.1459 -0.0437  0.1847
 6719SOL    HW131619   0.792   4.461   9.572  0.3229 -0.1672  0.1273
 6719SOL    HW231620   0.877   4.537   9.484 -1.4263 -1.8882 -0.5508
 6720SOL     OW31621   3.668   4.318   7.746 -0.5427  0.0371 -0.0860
 6720SOL    HW131622   3.679   4.223   7.742 -2.1638 -0.1259 -1.0882
 6720SOL    HW231623   3.581   4.324   7.786 -0.3900  0.5236  0.1731
 6721SOL     OW31624   2.800   2.547   0.085 -0.2806 -0.1605  0.9160
 6721SOL    HW131625   2.733   2.514   0.144 -0.7933  0.1883  0.5235
 6721SOL    HW231626   2.794   2.508  17.674  0.1089  0.8789  0.4223
 6722SOL     OW31627   2.376   2.878   1.372  0.2760  0.5368 -0.8610
 6722SOL    HW131628   2.393   2.785   1.356 -1.1474 -0.0013  0.7926
 6722SOL    HW231629   2.447   2.914   1.319  0.4456  1.9137  0.2990
 6723SOL     OW31630   4.092   3.441   3.349  0.0247 -0.5132  0.0204
 6723SOL    HW131631   4.179   3.474   3.374  0.4774 -2.1111  0.5162
 6723SOL    HW231632   4.042   3.464   3.427  1.1992 -2.0755  1.2244
 6724SOL     OW31633   4.599   1.400   3.710  0.5681 -0.2944  0.1007
 6724SOL    HW131634   4.610   1.312   3.673  0.7486 -1.0237  1.8328
 6724SOL    HW231635   4.603   1.370   3.801  1.1656 -0.4160  0.0366
 6725SOL     OW31636   2.318   1.459  10.919  0.6257  0.5153 -0.2156
 6725SOL    HW131637   2.342   1.426  11.005  1.3511 -0.0663 -0.6386
 6725SOL    HW231638   2.285   1.377  10.882 -0.8616  0.6476  0.7977
 6726SOL     OW31639   2.507   2.962   3.128 -0.3533 -0.6634  0.0909
 6726SOL    HW131640   2.424   2.961   3.080  0.2901  0.4961 -1.0675
 6726SOL    HW231641   2.510   3.053   3.158 -0.5529 -1.2374  1.8010
 6727SOL     OW31642   0.079   0.771  12.544 -0.3740  0.5516 -0.3041
 6727SOL    HW131643   0.091   0.740  12.634  2.4298  2.2605 -0.0945
 6727SOL    HW231644   0.096   0.863  12.566  0.2717  0.5755 -0.8879
 6728SOL     OW31645   4.070   2.955   1.573 -0.2478  0.3280  0.8931
 6728SOL    HW131646   4.019   3.036   1.568  0.1601  0.5280 -0.2161
 6728SOL    HW231647   4.110   2.948   1.486  0.3968 -0.7601  1.2890
 6729SOL     OW31648   2.445   1.142  10.235  0.2073 -0.0548 -0.2162
 6729SOL    HW131649   2.356   1.117  10.259  0.4341 -0.3978  0.2843
 6729SOL    HW231650   2.494   1.114  10.313 -1.1865 -0.5943  0.4571
 6730SOL     OW31651   2.616   3.755   5.784 -0.5694 -0.1881  0.0265
 6730SOL    HW131652   2.615   3.850   5.775  0.7251 -0.0503  1.3391
 6730SOL    HW231653   2.594   3.742   5.877 -0.4148  2.4536  0.4331
 6731SOL     OW31654   1.008   0.579   9.020  0.3605 -0.4245 -0.1506
 6731SOL    HW131655   1.038   0.656   9.070  0.7828 -0.5296 -0.2393
 6731SOL    HW231656   0.915   0.585   9.041  0.4902 -2.4079  0.9719
 6732SOL     OW31657   1.024   1.052   1.194 -0.1597  0.1916  0.2840
 6732SOL    HW131658   0.992   1.135   1.230 -2.6178  0.3145 -2.1676
 6732SOL    HW231659   1.048   1.001   1.271 -1.7184 -2.0106 -0.6816
 6733SOL     OW31660   1.610   2.807   9.090 -0.1749 -0.1392  0.3097
 6733SOL    HW131661   1.570   2.777   9.172  2.2126  0.1586  1.5742
 6733SOL    HW231662   1.555   2.879   9.059 -0.3010 -0.3707 -0.0045
 6734SOL     OW31663   4.415   3.172   8.522  0.0720  0.1589  0.1994
 6734SOL    HW131664   4.324   3.142   8.527 -0.3497  1.7012  1.7763
 6734SOL    HW231665   4.437   3.140   8.435 -1.0909 -0.0886 -0.0092
 6735SOL     OW31666   2.584   1.804   1.548  0.8778  0.1641 -0.6624
 6735SOL    HW131667   2.672   1.769   1.532  0.1842 -1.1815 -1.5483
 6735SOL    HW231668   2.600   1.877   1.607  0.4586 -0.4138  0.1636
 6736SOL     OW31669   0.707   3.090  13.066 -0.4504  0.0654 -0.1750
 6736SOL    HW131670   0.760   3.081  12.986 -0.7076  0.4675 -0.3959
 6736SOL    HW231671   0.628   3.119  13.020  0.8647  0.7016 -2.0676
 6737SOL     OW31672   4.281   0.973   6.828  0.2981  0.0176  0.0759
 6737SOL    HW131673   4.220   0.964   6.755 -0.1747 -2.1591  0.7457
 6737SOL    HW231674   4.232   0.933   6.900  0.4066 -1.9491 -0.9586
 6738SOL     OW31675   2.694   4.285   7.797 -0.0099  0.2415 -0.3335
 6738SOL    HW131676   2.599   4.275   7.797  0.0286 -0.1137 -0.0595
 6738SOL    HW231677   2.738   4.218   7.746  0.4902  0.2605  0.0703
 6739SOL     OW31678   3.447   0.196   3.322 -0.7052 -0.4823 -0.1118
 6739SOL    HW131679   3.411   0.269   3.270  0.0201 -0.2212 -0.2491
 6739SOL    HW231680   3.542   0.203   3.321 -0.6227 -1.4959  1.2740
 6740SOL     OW31681   0.434   2.426   6.240 -0.4439 -0.0855  0.0452
 6740SOL    HW131682   0.458   2.386   6.323  0.7695 -2.6595 -1.5423
 6740SOL    HW231683   0.508   2.400   6.186  0.0463  0.6403  0.3632
 6741SOL     OW31684   4.271   2.150   6.235  0.8812 -0.4082 -0.7913
 6741SOL    HW131685   4.326   2.072   6.224  0.8656 -0.2083 -2.3595
 6741SOL    HW231686   4.333   2.217   6.205  2.1857 -0.5019  1.6791
 6742SOL     OW31687   4.357   3.406  10.656  0.2357  0.0506  0.0097
 6742SOL    HW131688   4.337   3.409  10.563  0.6568 -0.9601 -0.1204
 6742SOL    HW231689   4.409   3.325  10.660 -1.4723 -1.0303  0.3418
 6743SOL     OW31690   4.221   0.797   4.705 -0.0625  0.0808  0.1302
 6743SOL    HW131691   4.129   0.770   4.701 -0.4572  1.2259  1.5423
 6743SOL    HW231692   4.232   0.819   4.612  1.3717  0.2253  0.3420
 6744SOL     OW31693   3.252   1.348   4.362  1.2518 -0.3705  0.6030
 6744SOL    HW131694   3.257   1.319   4.454  0.0133 -0.8242  0.5264
 6744SOL    HW231695   3.296   1.433   4.368 -0.6328  0.6561 -0.1953
 6745SOL     OW31696   3.215   1.620   6.834  0.2965  0.7683  0.2289
 6745SOL    HW131697   3.302   1.612   6.874  1.6837 -1.4023 -3.1840
 6745SOL    HW231698   3.188   1.705   6.867 -1.7852  0.2026 -0.0135
 6746SOL     OW31699   1.492   1.923   4.523 -0.3827  0.1397  0.9352
 6746SOL    HW131700   1.443   1.851   4.483  0.1139 -0.0201  0.6066
 6746SOL    HW231701   1.419   1.984   4.531 -0.0749  0.9295 -1.9590
 6747SOL     OW31702   3.875   1.965   7.282 -0.1319 -0.6901  0.3031
 6747SOL    HW131703   3.965   1.943   7.257 -0.6811 -1.7516 -0.7228
 6747SOL    HW231704   3.851   1.889   7.335 -0.0535 -0.6424  0.4079
 6748SOL     OW31705   3.772   0.866   5.668  0.9020 -0.0906 -0.3005
 6748SOL    HW131706   3.725   0.930   5.614  0.7346 -0.1554 -0.2322
 6748SOL    HW231707   3.709   0.827   5.729 -0.8674  2.0302 -0.7856
 6749SOL     OW31708   0.500   2.130  17.655  0.1338 -0.5303 -0.4028
 6749SOL    HW131709   0.427   2.124   0.041 -0.5577 -1.7758 -1.3374
 6749SOL    HW231710   0.559   2.200   0.010 -0.0701 -1.1464  1.3784
 6750SOL     OW31711   2.910   1.632   9.960 -0.2461  0.0987  0.2384
 6750SOL    HW131712   2.906   1.546  10.002  0.9339  0.3095  0.7855
 6750SOL    HW231713   2.819   1.627   9.930 -0.7503  0.2333  1.7461
 6751SOL     OW31714   1.209   0.387  11.480  0.2020  0.4736 -0.2357
 6751SOL    HW131715   1.197   0.304  11.435  1.6393  0.3104 -0.3110
 6751SOL    HW231716   1.202   0.350  11.568  0.3806  1.6595  0.2718
 6752SOL     OW31717   1.767   1.460  17.589  0.4026  0.0876 -0.3736
 6752SOL    HW131718   1.702   1.394  17.613 -1.1164  1.2862 -1.2002
 6752SOL    HW231719   1.823   1.459  17.666 -3.0353  0.1658  2.1634
 6753SOL     OW31720   3.085   0.111  10.302  0.1211  0.1918 -0.0748
 6753SOL    HW131721   3.079   0.185  10.241  0.7733  0.9515  0.7679
 6753SOL    HW231722   3.066   0.042  10.239 -1.4780  0.4683  0.0887
 6754SOL     OW31723   3.561   0.078   9.041  0.1452  0.0591 -0.5488
 6754SOL    HW131724   3.613   0.128   8.977  1.3851  0.0111  0.4236
 6754SOL    HW231725   3.477   0.085   8.994  0.0208  0.8823 -0.1975
 6755SOL     OW31726   3.043   3.088   6.264  0.0839  0.4894  0.7343
 6755SOL    HW131727   3.138   3.099   6.271  0.1604 -0.3745  1.0331
 6755SOL    HW231728   3.010   3.178   6.274  0.6361  0.8159 -0.4412
 6756SOL     OW31729   2.073   2.360  17.527 -0.4980 -0.1750 -0.4389
 6756SOL    HW131730   2.084   2.265  17.539 -5.9108 -0.5660  1.2317
 6756SOL    HW231731   2.091   2.378  17.434  0.1331  0.6736 -0.1509
 6757SOL     OW31732   2.243   2.850   3.742 -0.0269  0.3146  0.6323
 6757SOL    HW131733   2.262   2.932   3.787  0.3111  2.1888 -2.9253
 6757SOL    HW231734   2.265   2.872   3.651 -3.1445 -0.5959 -0.3420
 6758SOL     OW31735   3.574   1.311   3.158  0.4228 -0.3934 -0.2129
 6758SOL    HW131736   3.614   1.397   3.168  0.0024 -0.5002  2.3509
 6758SOL    HW231737   3.516   1.330   3.084 -0.1440  0.6746  0.4946
 6759SOL     OW31738   3.724   3.225  12.510 -0.0435 -0.9597  0.5593
 6759SOL    HW131739   3.782   3.290  12.550 -1.0175  0.6256 -0.6073
 6759SOL    HW231740   3.760   3.138  12.530  3.5287  0.2914 -0.3818
 6760SOL     OW31741   1.287   0.582   0.070  0.1428  0.0071 -0.0995
 6760SOL    HW131742   1.304   0.671   0.040  0.7890 -0.4149 -0.9998
 6760SOL    HW231743   1.292   0.536  17.662 -1.1417 -1.7698  0.7923
 6761SOL     OW31744   2.762   3.068   8.237 -0.3738 -0.1670 -0.5314
 6761SOL    HW131745   2.796   3.045   8.150  1.3057 -1.1437  0.3837
 6761SOL    HW231746   2.824   3.010   8.283 -1.3421 -0.2807  0.6307
 6762SOL     OW31747   0.434   3.070   8.087 -0.2092 -0.2648 -0.4287
 6762SOL    HW131748   0.375   3.127   8.137  0.4525 -1.0256  1.2232
 6762SOL    HW231749   0.518   3.104   8.117  0.5640 -1.6270 -1.0234
 6763SOL     OW31750   2.407   2.682   2.881  0.5692  0.7524 -0.4916
 6763SOL    HW131751   2.467   2.737   2.830  0.0915  2.5677  0.9358
 6763SOL    HW231752   2.443   2.670   2.969 -0.9313  0.0242  0.0172
 6764SOL     OW31753   1.992   4.561   6.583  0.4876 -0.2884 -0.0905
 6764SOL    HW131754   1.939   4.508   6.524  1.9635  0.5411 -2.1397
 6764SOL    HW231755   1.935   4.585   6.656 -0.3677  1.6044 -1.3863
 6765SOL     OW31756   1.711   4.160   6.433  0.1094 -0.1735 -0.0098
 6765SOL    HW131757   1.694   4.096   6.503 -0.0700  1.0674  1.0816
 6765SOL    HW231758   1.628   4.207   6.444  0.9277  0.4747  3.3605
 6766SOL     OW31759   3.181   2.266  17.185  0.0281  0.5695 -0.7903
 6766SOL    HW131760   3.198   2.174  17.206  1.0692  0.8415 -0.4451
 6766SOL    HW231761   3.222   2.273  17.098  1.3202  0.4285 -0.1951
 6767SOL     OW31762   4.401   4.281  14.283  0.0471 -0.4775  0.2993
 6767SOL    HW131763   4.316   4.262  14.242  0.5993  0.9491 -1.5078
 6767SOL    HW231764   4.455   4.288  14.205 -0.0305 -2.4958  0.0673
 6768SOL     OW31765   4.381   3.765  10.892  0.2554 -0.2956  0.2660
 6768SOL    HW131766   4.419   3.839  10.939  1.6520 -0.6341 -0.3151
 6768SOL    HW231767   4.293   3.801  10.884  1.5006  2.8248  0.5737
 6769SOL     OW31768   3.639   1.550   5.801  0.3917 -0.2020 -0.5168
 6769SOL    HW131769   3.592   1.469   5.821 -0.7150  0.1988 -1.4597
 6769SOL    HW231770   3.730   1.523   5.815  0.1432 -1.4120 -1.1867
 6770SOL     OW31771   2.977   3.562  11.378  0.4583  0.1506  0.4536
 6770SOL    HW131772   2.943   3.645  11.412 -1.2565 -0.4022  0.0553
 6770SOL    HW231773   3.039   3.601  11.316  1.9963 -1.9935  0.6340
 6771SOL     OW31774   2.294   0.418  17.309  0.1502  0.2183  0.5380
 6771SOL    HW131775   2.288   0.507  17.275 -0.7001 -0.0425 -0.0150
 6771SOL    HW231776   2.234   0.413  17.384 -0.4049  0.5243  0.1162
 6772SOL     OW31777   3.322   3.288   4.375 -0.3694  0.6518 -0.5877
 6772SOL    HW131778   3.239   3.336   4.373 -1.0227 -0.3743  1.8262
 6772SOL    HW231779   3.328   3.274   4.280  0.8850  1.6029 -0.6590
 6773SOL     OW31780   3.007   1.003  16.389  0.0265 -0.4574 -0.2549
 6773SOL    HW131781   3.003   0.907  16.390 -0.1587 -0.4119  3.6441
 6773SOL    HW231782   3.053   1.019  16.471  0.7440 -1.2612 -0.5003
 6774SOL     OW31783   1.956   1.438  15.420 -0.1853 -0.3605 -0.6813
 6774SOL    HW131784   2.034   1.413  15.470 -0.7710  0.4311  0.6385
 6774SOL    HW231785   1.966   1.533  15.416 -0.8968 -0.1329  2.8489
 6775SOL     OW31786   3.020   0.206   9.217  0.0119  0.2949  0.3827
 6775SOL    HW131787   3.053   0.122   9.248 -0.2836  0.6101  1.5391
 6775SOL    HW231788   3.012   0.240   9.306 -2.2357 -3.1617  1.5008
 6776SOL     OW31789   2.336   3.044   4.777  0.6264  0.1995  0.1686
 6776SOL    HW131790   2.324   3.115   4.840 -2.4929 -0.7828  0.7015
 6776SOL    HW231791   2.343   2.963   4.828 -1.1859  0.4895  0.8762
 6777SOL     OW31792   4.201   2.059   3.429  0.7350 -0.3193 -0.1484
 6777SOL    HW131793   4.285   2.093   3.461  1.0377 -0.1716 -1.1094
 6777SOL    HW231794   4.142   2.110   3.484 -1.1157 -1.9682 -0.5891
 6778SOL     OW31795   3.406   3.989  14.682  0.1719 -0.0183  0.3266
 6778SOL    HW131796   3.343   4.034  14.738  0.1929  1.0985 -0.5504
 6778SOL    HW231797   3.404   4.046  14.605  1.3584  0.5649  0.7175
 6779SOL     OW31798   4.244   2.192   5.366  0.1115 -0.0814 -0.2139
 6779SOL    HW131799   4.173   2.224   5.423 -0.2274  2.4279 -2.0203
 6779SOL    HW231800   4.199   2.189   5.281 -0.0080  0.2545 -0.1633
 6780SOL     OW31801   2.256   2.504   6.990 -0.2895 -0.4514  0.3408
 6780SOL    HW131802   2.303   2.585   6.968 -0.0137 -0.8041 -0.3689
 6780SOL    HW231803   2.330   2.469   7.040 -1.4656 -1.4296  1.3879
 6781SOL     OW31804   1.672   0.781  14.874 -0.4585 -0.4717 -0.2761
 6781SOL    HW131805   1.685   0.814  14.785 -0.0994 -0.8889 -0.3748
 6781SOL    HW231806   1.671   0.685  14.873  0.5877 -0.4822 -0.1280
 6782SOL     OW31807   3.714   3.590   3.659  0.0306 -0.4194  0.0227
 6782SOL    HW131808   3.725   3.675   3.702 -1.3604 -0.1885 -0.0638
 6782SOL    HW231809   3.672   3.615   3.576  0.0338  0.3585  0.2513
 6783SOL     OW31810   2.115   3.819   7.935 -0.5925 -0.2077  0.0807
 6783SOL    HW131811   2.092   3.900   7.982  0.2887  0.1427 -0.0932
 6783SOL    HW231812   2.160   3.779   8.009 -1.9667  0.2483  1.1733
 6784SOL     OW31813   2.045   1.001  16.320 -0.6368  0.7891 -0.4170
 6784SOL    HW131814   1.963   0.956  16.340  1.4442 -1.7121  2.4864
 6784SOL    HW231815   2.066   1.027  16.410 -1.1005 -1.7047  0.4060
 6785SOL     OW31816   3.574   1.593   4.592 -0.7521 -0.0099  0.1000
 6785SOL    HW131817   3.650   1.645   4.567 -1.1843  0.1912 -0.8159
 6785SOL    HW231818   3.524   1.653   4.648 -0.5757 -0.4060  0.6751
 6786SOL     OW31819   3.960   4.200   1.835 -0.3462  0.0591 -0.3110
 6786SOL    HW131820   3.974   4.133   1.768  0.9934 -1.0830  1.1098
 6786SOL    HW231821   4.050   4.230   1.847 -0.3409 -1.1284  2.5766
 6787SOL     OW31822   0.588   1.726   9.581  0.1391  0.0295  0.0073
 6787SOL    HW131823   0.627   1.681   9.656 -2.5583 -3.0735 -0.4815
 6787SOL    HW231824   0.604   1.662   9.512 -1.9256  1.0530 -1.4207
 6788SOL     OW31825   2.868   1.507   6.993 -0.3976 -0.4617  0.2367
 6788SOL    HW131826   2.772   1.500   6.999 -0.5602  2.3633  1.0198
 6788SOL    HW231827   2.872   1.602   7.002 -0.1385 -0.6006  1.6597
 6789SOL     OW31828   0.842   1.058   3.086 -0.1990 -1.0077  0.2487
 6789SOL    HW131829   0.880   0.986   3.136  1.5500 -0.8124 -0.7781
 6789SOL    HW231830   0.773   1.078   3.148 -0.2130  0.1033 -0.1330
 6790SOL     OW31831   1.532   0.003   7.890 -0.3804 -0.1109 -0.2803
 6790SOL    HW131832   1.617   0.000   7.934 -0.8065 -1.8241  0.4436
 6790SOL    HW231833   1.493   0.084   7.923  1.7416  0.9308 -0.3297
 6791SOL     OW31834   1.429   3.807   3.918 -0.1090 -0.3074  0.5628
 6791SOL    HW131835   1.338   3.835   3.931 -0.2133 -0.4457  0.1397
 6791SOL    HW231836   1.417   3.721   3.958 -1.5495  0.0063  0.8294
 6792SOL     OW31837   0.383   3.383   6.921 -0.6133  0.1259 -0.2600
 6792SOL    HW131838   0.471   3.345   6.910 -0.0321  1.4359 -0.1765
 6792SOL    HW231839   0.377   3.413   6.830 -1.2168 -3.5620 -1.4341
 6793SOL     OW31840   4.533   1.390  11.828 -0.3578  0.5557 -0.0253
 6793SOL    HW131841   4.579   1.444  11.764 -1.2888 -1.2936 -2.2543
 6793SOL    HW231842   4.531   1.440  11.910 -1.0218 -1.0663  0.9695
 6794SOL     OW31843   0.431   0.382   5.688  0.6573 -0.3199  0.1328
 6794SOL    HW131844   0.340   0.374   5.716 -0.1547  2.6749 -1.5888
 6794SOL    HW231845   0.453   0.473   5.709  2.0684 -0.3928 -1.0559
 6795SOL     OW31846   2.093   3.154  12.779 -0.2918 -0.1712 -0.3863
 6795SOL    HW131847   2.104   3.130  12.687  1.2596  2.8208 -0.9841
 6795SOL    HW231848   2.154   3.226  12.791 -0.0741 -0.2452 -1.0579
 6796SOL     OW31849   0.517   0.815   6.195 -0.0480 -0.4342  0.5134
 6796SOL    HW131850   0.557   0.769   6.121  0.7497  1.0797 -0.0143
 6796SOL    HW231851   0.539   0.906   6.174 -1.9719 -0.1076 -0.1137
 6797SOL     OW31852   3.895   0.615   4.834  0.5799  0.4604 -0.1615
 6797SOL    HW131853   3.877   0.654   4.749  1.6200 -0.5034 -0.8260
 6797SOL    HW231854   3.868   0.524   4.827  2.0126  0.2717 -3.1205
 6798SOL     OW31855   0.838   3.846  11.279 -0.2597 -0.4635 -0.5178
 6798SOL    HW131856   0.902   3.795  11.230  1.7665 -0.1029  1.7817
 6798SOL    HW231857   0.829   3.779  11.346 -2.7858 -1.8980 -2.2803
 6799SOL     OW31858   3.082   2.672   6.281 -0.1488 -0.1874 -0.3376
 6799SOL    HW131859   3.028   2.614   6.335  0.6194 -2.1834 -1.6910
 6799SOL    HW231860   3.019   2.730   6.238 -0.1916  1.9952  2.7132
 6800SOL     OW31861   4.171   1.216   6.323  0.2973 -0.3311  0.3224
 6800SOL    HW131862   4.151   1.128   6.290  2.3451 -0.7562  0.1779
 6800SOL    HW231863   4.223   1.194   6.401  1.4165 -1.3294 -0.7085
 6801SOL     OW31864   2.129   4.379   3.385 -0.6964  0.0721 -0.0891
 6801SOL    HW131865   2.181   4.403   3.461 -0.5231 -0.6110  0.0098
 6801SOL    HW231866   2.066   4.451   3.390 -1.1074 -0.1846 -1.5719
 6802SOL     OW31867   1.363   3.194   6.870  0.3726  0.3536 -0.3221
 6802SOL    HW131868   1.455   3.197   6.896  0.8461 -1.9194 -1.6627
 6802SOL    HW231869   1.351   3.121   6.809  1.6351  1.2098 -1.5999
 6803SOL     OW31870   0.827   2.852   0.227  0.0135  0.3478 -0.3000
 6803SOL    HW131871   0.737   2.822   0.243  1.0548 -3.4048 -1.4753
 6803SOL    HW231872   0.879   2.797   0.285 -0.9150 -0.7357 -0.5100
 6804SOL     OW31873   3.733   1.064   8.503  0.0234  0.4878  0.1028
 6804SOL    HW131874   3.682   1.140   8.530 -1.1377 -0.3218  0.1874
 6804SOL    HW231875   3.674   1.035   8.434 -0.4243 -1.0469  1.1242
 6805SOL     OW31876   2.003   2.737   0.859 -0.4812  0.8151 -0.2030
 6805SOL    HW131877   1.931   2.683   0.891  1.3750 -1.6128 -0.0850
 6805SOL    HW231878   1.967   2.786   0.785  2.2460  0.5784 -1.7286
 6806SOL     OW31879   2.835   0.011  12.168  0.1546 -0.0398 -0.2871
 6806SOL    HW131880   2.750   0.040  12.201 -0.5152 -0.4613 -1.6267
 6806SOL    HW231881   2.816   4.679  12.088  0.3157  1.3158 -1.1790
 6807SOL     OW31882   1.896   4.336   6.335 -0.2468  0.7795 -0.5004
 6807SOL    HW131883   1.976   4.285   6.321 -0.2109  1.0961 -1.5246
 6807SOL    HW231884   1.829   4.271   6.355  1.4618  0.0137  2.6732
 6808SOL     OW31885   2.188   0.466   7.161 -0.4028 -0.4035  0.7230
 6808SOL    HW131886   2.244   0.400   7.119  1.7668  0.9597  1.4747
 6808SOL    HW231887   2.173   0.523   7.086 -0.7202  1.2083  2.0257
 6809SOL     OW31888   1.139   1.405   7.798 -0.3377 -0.8090  0.2898
 6809SOL    HW131889   1.125   1.499   7.808 -1.8391 -0.7804 -1.9752
 6809SOL    HW231890   1.192   1.408   7.718  1.5997 -0.5404  1.5916
 6810SOL     OW31891   1.128   1.075   5.508 -0.2736 -0.2906  0.0996
 6810SOL    HW131892   1.036   1.080   5.535 -0.6757 -1.8799 -0.9719
 6810SOL    HW231893   1.149   0.991   5.547  1.0330  0.6777  1.4622
 6811SOL     OW31894   4.599   2.179   3.838  0.0079 -0.4171  0.4057
 6811SOL    HW131895   4.607   2.268   3.804  1.0947  0.3785  2.7110
 6811SOL    HW231896   4.619   2.127   3.760  0.5471 -0.9431  0.8899
 6812SOL     OW31897   2.046   2.032   7.302  0.0498  0.2898 -0.1486
 6812SOL    HW131898   2.018   1.961   7.360  0.0294  1.4059  1.2104
 6812SOL    HW231899   1.960   2.073   7.289  0.9962  2.2889 -0.0340
 6813SOL     OW31900   4.112   0.502   7.306 -0.1165 -0.2259  0.1393
 6813SOL    HW131901   4.109   0.414   7.269 -0.3133 -1.1257  2.3102
 6813SOL    HW231902   4.056   0.504   7.383  0.6476  0.0210  0.6980
 6814SOL     OW31903   4.326   2.868   0.878 -0.3240  0.0136  0.8784
 6814SOL    HW131904   4.358   2.839   0.792 -0.2702  3.0271 -0.1239
 6814SOL    HW231905   4.367   2.798   0.929 -0.6512 -0.1934  0.8572
 6815SOL     OW31906   0.717   4.390   5.753 -0.3646  0.3075  0.3999
 6815SOL    HW131907   0.662   4.460   5.789 -2.3097  0.1654 -2.2690
 6815SOL    HW231908   0.715   4.411   5.660 -0.4467 -3.5215 -0.4475
 6816SOL     OW31909   0.620   2.969   7.211 -0.1227 -0.6837  0.3028
 6816SOL    HW131910   0.608   2.939   7.121 -3.5057  2.9521 -0.4617
 6816SOL    HW231911   0.555   3.040   7.208  0.8908  0.2357  0.1182
 6817SOL     OW31912   1.836   2.521   6.958 -0.1675  0.2516  0.2525
 6817SOL    HW131913   1.777   2.449   6.980  0.6139 -0.3222  0.4606
 6817SOL    HW231914   1.898   2.483   6.896 -0.5766  2.2894 -1.3895
 6818SOL     OW31915   3.794   3.194   4.487  0.1547 -0.6799  0.3519
 6818SOL    HW131916   3.731   3.123   4.480 -2.2938  1.5945 -1.0184
 6818SOL    HW231917   3.763   3.247   4.413 -1.5437 -2.7795 -0.4538
 6819SOL     OW31918   0.309   1.221   9.506 -0.5489 -0.4662  0.1400
 6819SOL    HW131919   0.328   1.309   9.537 -0.4921 -0.0443 -1.1145
 6819SOL    HW231920   0.386   1.176   9.541  1.0279  3.0351  1.1562
 6820SOL     OW31921   2.214   1.082  12.633  0.0035 -0.0608 -0.4835
 6820SOL    HW131922   2.247   1.027  12.562 -0.4516  0.8379 -1.4053
 6820SOL    HW231923   2.140   1.128  12.592  0.6445 -0.1835 -1.7973
 6821SOL     OW31924   1.376   1.436   6.233 -0.4705  0.1264 -0.3499
 6821SOL    HW131925   1.303   1.380   6.210  0.1752 -0.3228 -1.2979
 6821SOL    HW231926   1.403   1.485   6.155 -0.5238  0.3585 -0.2241
 6822SOL     OW31927   4.141   4.183  12.652 -0.2108  0.8677  0.2952
 6822SOL    HW131928   4.163   4.276  12.643 -0.4004  0.8244 -0.6426
 6822SOL    HW231929   4.225   4.142  12.669 -0.8081 -0.3442  0.2923
 6823SOL     OW31930   1.415   1.088   4.147 -0.0351  0.7287 -0.2256
 6823SOL    HW131931   1.371   1.028   4.087 -0.6102  0.9898 -0.0560
 6823SOL    HW231932   1.502   1.047   4.147 -0.4343 -0.1061 -0.2544
 6824SOL     OW31933   0.500   1.106   5.844 -0.6313 -0.2601  0.1379
 6824SOL    HW131934   0.524   1.178   5.901  0.3462  0.3118 -1.0147
 6824SOL    HW231935   0.411   1.118   5.810 -0.4391 -1.3308 -0.7318
 6825SOL     OW31936   0.169   3.339   6.589 -0.1057 -0.0503 -0.4549
 6825SOL    HW131937   0.258   3.344   6.622  0.1339 -1.9269 -0.8061
 6825SOL    HW231938   0.164   3.243   6.589  0.3953 -0.0666  1.7686
 6826SOL     OW31939   3.765   3.501   4.414  0.4501 -0.3557  0.2291
 6826SOL    HW131940   3.731   3.455   4.337  0.8237 -0.1992 -0.0246
 6826SOL    HW231941   3.693   3.488   4.477  0.5948 -1.6856  0.1222
 6827SOL     OW31942   2.327   3.925   5.551 -0.8910 -0.5374 -0.4230
 6827SOL    HW131943   2.265   3.944   5.480 -0.8211 -0.0977 -0.3663
 6827SOL    HW231944   2.330   4.000   5.610  1.7902 -0.4569 -0.6572
 6828SOL     OW31945   3.486   1.100   3.438 -0.2578  0.2644 -0.1248
 6828SOL    HW131946   3.513   1.112   3.347 -1.2099 -0.3349 -0.4946
 6828SOL    HW231947   3.408   1.155   3.429 -0.2143  0.5237  1.0082
 6829SOL     OW31948   1.693   2.627   1.529 -0.5319  0.0179  0.4563
 6829SOL    HW131949   1.743   2.585   1.599  0.1265  2.4720  1.4244
 6829SOL    HW231950   1.672   2.547   1.479 -0.9594  2.1638 -2.7716
 6830SOL     OW31951   3.168   4.161   8.372  0.1593 -0.3693  0.1863
 6830SOL    HW131952   3.231   4.107   8.324 -0.9423 -1.8254  0.3688
 6830SOL    HW231953   3.211   4.168   8.457 -0.2950 -1.5098  0.5067
 6831SOL     OW31954   3.272   2.858   6.851 -0.0447  0.0576 -0.4412
 6831SOL    HW131955   3.348   2.914   6.861  0.6581 -0.7620 -1.1525
 6831SOL    HW231956   3.227   2.865   6.935 -0.6911 -0.6098 -0.7276
 6832SOL     OW31957   0.413   4.250   7.375  0.4233  0.3224 -0.0866
 6832SOL    HW131958   0.470   4.274   7.448  0.8455 -1.0801  0.0525
 6832SOL    HW231959   0.471   4.200   7.318 -1.0629 -0.1190 -1.2145
 6833SOL     OW31960   4.142   0.475   3.716 -0.2750 -0.2948  0.4339
 6833SOL    HW131961   4.093   0.393   3.714 -0.2450 -0.3020 -0.0438
 6833SOL    HW231962   4.077   0.539   3.685 -0.6248  0.5371  2.9059
 6834SOL     OW31963   0.017   3.748  12.495 -0.0234 -0.4244 -0.0076
 6834SOL    HW131964   4.687   3.668  12.515 -2.0535  0.6482 -0.5544
 6834SOL    HW231965   0.023   3.794  12.579 -1.4909 -0.0084 -0.1309
 6835SOL     OW31966   0.056   1.095   3.258  0.0240 -0.1477 -0.9240
 6835SOL    HW131967   0.019   1.171   3.303  2.3042  1.0291 -1.0245
 6835SOL    HW231968   4.697   1.051   3.223 -0.2207 -1.1868  0.9513
 6836SOL     OW31969   3.390   4.088   0.872 -0.6088  0.1190 -0.2818
 6836SOL    HW131970   3.461   4.146   0.845  0.4524 -1.1236 -0.2208
 6836SOL    HW231971   3.437   4.009   0.901 -1.5738 -0.3519 -0.0109
 6837SOL     OW31972   2.306   4.227   4.681 -0.5659  0.0016  0.2781
 6837SOL    HW131973   2.224   4.229   4.730 -0.4598  0.2687  0.4434
 6837SOL    HW231974   2.343   4.314   4.693 -0.1097 -0.0922 -0.4568
 6838SOL     OW31975   3.684   2.090   3.421 -0.1333 -0.3079  0.4557
 6838SOL    HW131976   3.738   2.041   3.483  1.3144  2.1004  1.1021
 6838SOL    HW231977   3.722   2.175   3.442  1.0483 -0.9346  0.8065
 6839SOL     OW31978   3.659   4.122   7.339  0.4801  0.2512 -0.0365
 6839SOL    HW131979   3.639   4.098   7.248 -3.3949  0.8300  0.6419
 6839SOL    HW231980   3.754   4.128   7.340  0.4401  1.3384 -3.8686
 6840SOL     OW31981   2.336   2.977  13.102 -0.2925  0.3301  0.0055
 6840SOL    HW131982   2.378   3.015  13.179  1.6817 -0.9743 -0.4334
 6840SOL    HW231983   2.413   2.972  13.045  0.2372  1.9585  0.5627
 6841SOL     OW31984   3.616   2.096   3.721 -0.8583 -0.3651  0.1030
 6841SOL    HW131985   3.590   2.004   3.719 -0.1350 -0.6024  1.6829
 6841SOL    HW231986   3.582   2.109   3.810 -0.7786  1.1302 -0.0846
 6842SOL     OW31987   0.951   2.585  16.810 -0.2065 -0.3369 -0.1280
 6842SOL    HW131988   1.008   2.650  16.770 -1.9839  0.6396 -1.0754
 6842SOL    HW231989   0.978   2.587  16.901 -1.6956 -0.6968  0.3235
 6843SOL     OW31990   0.200   3.854   0.283  0.2662  0.2807  0.4784
 6843SOL    HW131991   0.262   3.870   0.354 -0.3775 -0.1365  1.1271
 6843SOL    HW231992   0.256   3.809   0.220  1.0394  2.7348 -0.5888
 6844SOL     OW31993   2.560   0.210   4.522 -0.7488  0.5171 -0.1928
 6844SOL    HW131994   2.526   0.294   4.489 -2.8969 -0.9121 -1.6406
 6844SOL    HW231995   2.607   0.177   4.446  1.5946  2.0236  0.6195
 6845SOL     OW31996   1.623   3.692   5.921  0.0834  0.8494 -0.0513
 6845SOL    HW131997   1.604   3.760   5.986  0.9242  0.2035  0.8563
 6845SOL    HW231998   1.538   3.657   5.895  0.9807 -1.8718  0.6718
 6846SOL     OW31999   0.202   1.698   7.839  0.0297  0.0209  0.2797
 6846SOL    HW132000   0.113   1.664   7.850 -0.0570 -0.8250 -2.8352
 6846SOL    HW232001   0.250   1.621   7.807 -4.2443 -3.3331  1.9535
 6847SOL     OW32002   2.193   1.782  16.633  0.3434  0.1217  0.3048
 6847SOL    HW132003   2.247   1.753  16.706  0.8662  1.6095  0.4903
 6847SOL    HW232004   2.130   1.843  16.671  1.9637  0.7075  1.9907
 6848SOL     OW32005   1.845   0.864  16.389 -0.4253  0.2328  0.1780
 6848SOL    HW132006   1.787   0.867  16.465  0.7658 -2.7569  1.2172
 6848SOL    HW232007   1.822   0.775  16.360 -0.0992 -0.1765  1.1668
 6849SOL     OW32008   3.615   3.492  12.506 -0.1159 -0.0052  0.2465
 6849SOL    HW132009   3.521   3.487  12.491 -0.1012 -0.6295  0.3599
 6849SOL    HW232010   3.632   3.397  12.503  0.6525  0.1892 -1.8119
 6850SOL     OW32011   0.502   0.342   8.594 -0.2795 -0.2958 -0.1969
 6850SOL    HW132012   0.573   0.406   8.604 -0.1715  0.1203 -3.7142
 6850SOL    HW232013   0.423   0.396   8.599 -0.4525 -0.5720  0.1010
 6851SOL     OW32014   4.354   1.842   6.582 -0.2758  0.8227 -0.6310
 6851SOL    HW132015   4.437   1.866   6.541  0.8429 -0.2827  0.9629
 6851SOL    HW232016   4.337   1.926   6.625  1.7756  1.1647 -0.4922
 6852SOL     OW32017   1.229   2.973   0.857 -0.9700 -0.2018  0.3478
 6852SOL    HW132018   1.189   2.889   0.877 -1.6654  0.4224  1.5212
 6852SOL    HW232019   1.285   2.943   0.785 -0.4731  0.8694  0.2748
 6853SOL     OW32020   0.011   0.863   1.096  0.0706 -0.7341  0.1174
 6853SOL    HW132021   0.058   0.808   1.158  1.1395 -1.2275 -1.1269
 6853SOL    HW232022   4.673   0.795   1.060  0.9130 -0.7200 -1.2049
 6854SOL     OW32023   0.891   2.448   1.999 -0.2026 -0.2135 -0.2737
 6854SOL    HW132024   0.908   2.419   2.089  1.4060  0.2818 -0.4133
 6854SOL    HW232025   0.806   2.406   1.987  0.5041 -1.6149 -0.4739
 6855SOL     OW32026   3.587   3.985  12.092 -0.6508 -0.7413 -0.0251
 6855SOL    HW132027   3.549   3.928  12.158 -1.1833  0.9439  1.1265
 6855SOL    HW232028   3.678   3.990  12.121 -0.0818  0.1233 -1.9267
 6856SOL     OW32029   3.141   3.115   5.756 -0.2681 -0.4478 -0.1121
 6856SOL    HW132030   3.227   3.089   5.725 -0.1075  0.0024 -0.0533
 6856SOL    HW232031   3.166   3.126   5.848  1.2673 -3.1254 -0.2165
 6857SOL     OW32032   3.072   4.568   7.804  0.0029  0.6110 -0.3261
 6857SOL    HW132033   3.025   4.495   7.765  0.0886 -0.3174  1.2860
 6857SOL    HW232034   3.006   4.599   7.867 -1.4191 -1.0442 -1.0248
 6858SOL     OW32035   1.836   0.010   7.519  0.1136 -0.2599 -0.2385
 6858SOL    HW132036   1.878   0.074   7.576  0.4793 -1.5431  0.9365
 6858SOL    HW232037   1.855   4.647   7.566  0.9968  1.2356  1.9870
 6859SOL     OW32038   0.531   4.392   8.907  0.2051 -0.1012  0.0188
 6859SOL    HW132039   0.479   4.355   8.978 -1.6456  2.2788 -0.0805
 6859SOL    HW232040   0.520   4.487   8.914 -1.3705 -0.1547 -1.8053
 6860SOL     OW32041   1.036   2.881  10.139 -0.7545 -0.0631  0.0835
 6860SOL    HW132042   1.020   2.968  10.176 -0.3322  0.4178 -0.8520
 6860SOL    HW232043   0.954   2.877  10.089 -0.8544 -0.0912  0.2492
 6861SOL     OW32044   2.114   2.750   2.478  0.3394 -0.4346 -0.0781
 6861SOL    HW132045   2.139   2.779   2.390 -2.3318 -0.8391 -0.9945
 6861SOL    HW232046   2.040   2.696   2.451  1.0227 -1.6651  0.5518
 6862SOL     OW32047   1.848   1.492  12.118  0.5070  0.1141  1.0187
 6862SOL    HW132048   1.861   1.583  12.091  1.8654 -0.8583 -1.6206
 6862SOL    HW232049   1.937   1.458  12.112  0.6671  0.7274 -0.1352
 6863SOL     OW32050   3.808   0.161  13.376  0.2686 -0.1788  0.6819
 6863SOL    HW132051   3.857   0.079  13.367  0.1106 -0.2579  0.5371
 6863SOL    HW232052   3.725   0.126  13.345  0.7181  1.5277 -2.4252
 6864SOL     OW32053   4.714   2.082   7.807 -0.5431  0.1737  0.3116
 6864SOL    HW132054   0.077   2.096   7.856 -0.4841 -1.1026  0.5710
 6864SOL    HW232055   4.667   2.034   7.875  2.5231  0.9610  3.0320
 6865SOL     OW32056   0.540   4.489  12.953  0.1117  0.0179  0.1354
 6865SOL    HW132057   0.605   4.453  13.014  0.8107 -1.1755 -1.3147
 6865SOL    HW232058   0.554   4.583  12.964 -0.7281  0.4834 -2.7804
 6866SOL     OW32059   0.181   4.660  12.788 -0.3230 -0.5012  0.7196
 6866SOL    HW132060   0.152   4.571  12.808  0.7217 -0.6326  1.6385
 6866SOL    HW232061   0.270   4.642  12.759 -0.5184 -1.1938  0.5455
 6867SOL     OW32062   1.780   3.745   0.036  0.3826 -0.1815  0.0102
 6867SOL    HW132063   1.793   3.835   0.065  0.1111 -0.6177  1.5219
 6867SOL    HW232064   1.853   3.729  17.653 -1.4376 -2.2900 -1.6657
 6868SOL     OW32065   2.155   0.750   7.652  0.5108 -0.2876 -0.1036
 6868SOL    HW132066   2.162   0.691   7.727  0.7658 -0.5814 -0.3599
 6868SOL    HW232067   2.108   0.826   7.686 -0.0042  0.0739 -1.6155
 6869SOL     OW32068   0.856   1.522  16.648  0.3367  0.1238 -0.2797
 6869SOL    HW132069   0.790   1.538  16.716  0.4826  0.2161 -0.1593
 6869SOL    HW232070   0.905   1.603  16.638 -0.5123  0.9012  1.8931
 6870SOL     OW32071   2.497   3.765   6.889  0.2782 -0.0031  0.3460
 6870SOL    HW132072   2.461   3.761   6.978  0.2955  1.4182  0.4069
 6870SOL    HW232073   2.536   3.678   6.879  0.0008 -0.2134  1.0689
 6871SOL     OW32074   2.644   2.141  10.168 -0.2497 -0.0565  0.1197
 6871SOL    HW132075   2.708   2.073  10.191  1.1039  1.5666  1.2062
 6871SOL    HW232076   2.690   2.183  10.095  1.3811 -0.3879  0.9346
 6872SOL     OW32077   0.075   0.193  15.179 -0.2367  0.1332 -0.4221
 6872SOL    HW132078   0.124   0.272  15.153 -1.7183  0.4472 -2.2525
 6872SOL    HW232079   0.131   0.151  15.244 -0.7101 -1.0417 -0.7790
 6873SOL     OW32080   1.663   3.154   7.017 -0.5141 -0.4429  0.1997
 6873SOL    HW132081   1.700   3.088   7.076 -2.8951 -3.1843 -1.3465
 6873SOL    HW232082   1.727   3.225   7.021 -2.8640  1.4850  2.6926
 6874SOL     OW32083   0.729   1.423   2.272 -0.0669 -0.4979 -0.1573
 6874SOL    HW132084   0.786   1.355   2.306  0.0711 -0.0169  0.5729
 6874SOL    HW232085   0.798   1.486   2.249 -1.0455 -0.6112 -3.4594
 6875SOL     OW32086   4.687   4.114   5.032 -0.3194  0.9226 -0.1494
 6875SOL    HW132087   0.029   4.057   4.985 -1.1163  2.0364 -2.5379
 6875SOL    HW232088   4.679   4.073   5.118  0.7980  2.4270  0.6647
 6876SOL     OW32089   0.209   1.432   0.331  0.1524  0.0763  0.3179
 6876SOL    HW132090   0.265   1.362   0.361 -2.4152 -2.3362 -0.5039
 6876SOL    HW232091   0.263   1.472   0.263  1.2514 -0.6069  0.7983
 6877SOL     OW32092   1.584   2.939  10.608  0.3342  0.1607 -0.7513
 6877SOL    HW132093   1.529   2.980  10.541  1.0457 -1.9673 -2.5993
 6877SOL    HW232094   1.652   2.897  10.556 -0.8026  0.5831 -2.5847
 6878SOL     OW32095   4.402   3.027   9.577 -0.5335  0.0241 -0.6370
 6878SOL    HW132096   4.416   2.933   9.565  0.2000 -0.0078  0.4794
 6878SOL    HW232097   4.490   3.037   9.614 -0.5249 -1.2103 -0.3423
 6879SOL     OW32098   0.961   0.797  13.769 -0.2100  0.3767 -0.2789
 6879SOL    HW132099   0.870   0.823  13.780  0.2085  1.1667  1.2848
 6879SOL    HW232100   0.953   0.701  13.766 -2.4978  0.5370  1.2315
 6880SOL     OW32101   3.467   1.498  12.610  0.2343  0.2317 -0.2853
 6880SOL    HW132102   3.377   1.531  12.615 -0.3576 -1.2327 -1.1600
 6880SOL    HW232103   3.501   1.525  12.695 -0.9415 -1.4881  0.7314
 6881SOL     OW32104   4.183   1.624  15.237 -0.0203 -0.0459  0.5599
 6881SOL    HW132105   4.165   1.530  15.227 -1.0153  0.3869 -1.6629
 6881SOL    HW232106   4.126   1.665  15.173  1.1853  0.0807 -0.4310
 6882SOL     OW32107   0.297   1.633  12.134  0.1817 -0.2199 -0.2492
 6882SOL    HW132108   0.218   1.604  12.179 -0.3756  0.9651 -0.4662
 6882SOL    HW232109   0.358   1.656  12.204 -0.7502  2.0241 -0.1682
 6883SOL     OW32110   1.326   4.097  15.284  0.1562  0.0291 -0.0671
 6883SOL    HW132111   1.330   4.099  15.379  0.4688  0.3492 -0.0880
 6883SOL    HW232112   1.236   4.129  15.272  0.8414  1.5656 -1.0848
 6884SOL     OW32113   1.775   4.303   3.237 -0.2509 -0.4817 -0.0524
 6884SOL    HW132114   1.726   4.224   3.213 -3.1247  1.0240  0.7989
 6884SOL    HW232115   1.790   4.276   3.327  0.2434 -0.3485 -0.0961
 6885SOL     OW32116   0.592   0.208   1.069 -0.0899 -0.2439 -0.0566
 6885SOL    HW132117   0.578   0.235   1.160 -0.8789  1.4111 -0.6651
 6885SOL    HW232118   0.500   0.199   1.043  0.1370 -1.2723 -0.5000
 6886SOL     OW32119   4.299   2.474   3.709  0.4078 -0.2239 -0.1514
 6886SOL    HW132120   4.384   2.442   3.679  0.2394 -1.9881  1.2560
 6886SOL    HW232121   4.306   2.473   3.804 -0.9458  1.3635 -0.0245
 6887SOL     OW32122   2.432   1.802   8.136  0.4951 -0.5697 -0.2038
 6887SOL    HW132123   2.518   1.843   8.144 -0.0147  0.2201  1.2180
 6887SOL    HW232124   2.450   1.719   8.181  0.9438 -0.0590  0.5751
 6888SOL     OW32125   2.096   3.457   9.197 -0.3331 -0.3311 -0.0213
 6888SOL    HW132126   2.053   3.543   9.203  0.7862  0.3693 -1.9844
 6888SOL    HW232127   2.025   3.393   9.202 -0.7599  0.0722 -0.8573
 6889SOL     OW32128   0.872   2.686  12.410 -0.9754  0.0786  0.4088
 6889SOL    HW132129   0.795   2.651  12.365 -2.3318  1.7559  1.4206
 6889SOL    HW232130   0.900   2.762  12.359 -0.1628 -1.6500 -1.6867
 6890SOL     OW32131   3.680   3.676   5.433 -0.1759 -0.9338 -0.5055
 6890SOL    HW132132   3.623   3.752   5.446 -0.2968 -0.9763 -0.8005
 6890SOL    HW232133   3.677   3.626   5.515 -2.3760 -2.6327 -1.6590
 6891SOL     OW32134   0.050   4.478   6.064 -0.2598  0.0998 -0.7046
 6891SOL    HW132135   0.115   4.539   6.030 -0.0252 -1.3821 -2.9253
 6891SOL    HW232136   4.697   4.507   6.006  0.2859  1.8931 -0.4613
 6892SOL     OW32137   1.026   4.338   9.836  0.2122 -0.1748 -0.1408
 6892SOL    HW132138   1.082   4.369   9.907 -1.8187  2.1145  0.4411
 6892SOL    HW232139   1.087   4.333   9.762 -0.2442 -1.4330 -0.4308
 6893SOL     OW32140   2.418   1.087   5.070 -0.3841  0.3771 -0.6115
 6893SOL    HW132141   2.394   1.016   5.130 -0.0041 -0.2745 -1.2301
 6893SOL    HW232142   2.406   1.158   5.133  0.0248  1.9027 -2.2766
 6894SOL     OW32143   0.358   1.738  13.570  0.4085 -0.5693  1.1526
 6894SOL    HW132144   0.285   1.787  13.531  1.1796 -0.9710 -0.7987
 6894SOL    HW232145   0.333   1.716  13.659  1.0510 -0.8269  1.2691
 6895SOL     OW32146   0.080   3.820   3.128  0.1527 -0.2254 -0.1378
 6895SOL    HW132147   0.002   3.866   3.095 -0.3347  1.1093  2.8917
 6895SOL    HW232148   0.088   3.864   3.213 -0.4435  0.7541 -0.5792
 6896SOL     OW32149   0.560   3.957  13.779 -0.0209 -0.9942 -0.7202
 6896SOL    HW132150   0.633   3.909  13.740  1.7910  0.0011  1.4099
 6896SOL    HW232151   0.503   3.955  13.703 -0.0693 -0.9512 -0.6849
 6897SOL     OW32152   1.549   3.947   9.493  0.1452  0.2913  0.3239
 6897SOL    HW132153   1.480   3.980   9.435 -1.0310  0.3114  1.7356
 6897SOL    HW232154   1.496   3.918   9.567  0.9465  0.9392  1.1510
 6898SOL     OW32155   2.025   3.498  13.978 -0.0154  0.9714 -0.7434
 6898SOL    HW132156   1.972   3.477  13.901 -2.8216  0.8821  1.2231
 6898SOL    HW232157   2.107   3.456  13.951  0.0672  1.5749 -1.4657
 6899SOL     OW32158   4.330   1.756   8.599 -0.4073  0.5616  0.0238
 6899SOL    HW132159   4.405   1.764   8.658 -1.2678  0.6203  1.1238
 6899SOL    HW232160   4.306   1.848   8.583  1.0854  1.5337  3.4547
 6900SOL     OW32161   3.030   3.065   4.564  0.0064  0.3509  0.2813
 6900SOL    HW132162   3.008   3.078   4.656 -0.4486 -1.2759  0.3946
 6900SOL    HW232163   2.951   3.022   4.530 -1.1555  1.7001  1.2570
 6901SOL     OW32164   4.433   2.929   4.745 -0.2606 -0.1738 -0.7313
 6901SOL    HW132165   4.420   2.948   4.838  1.9440  0.1143 -0.4865
 6901SOL    HW232166   4.528   2.933   4.740 -0.2916 -0.2528 -1.4559
 6902SOL     OW32167   2.636   4.644   7.746  0.6423 -0.0586 -0.2962
 6902SOL    HW132168   2.628   4.630   7.652 -3.0869 -1.8439  0.2647
 6902SOL    HW232169   2.553   4.610   7.781  0.2553 -0.3852 -1.5379
 6903SOL     OW32170   4.603   1.977   0.819 -0.7236 -0.0341  0.2424
 6903SOL    HW132171   4.526   2.008   0.866 -1.2331  0.9871 -1.2438
 6903SOL    HW232172   4.608   2.036   0.743 -0.3233 -1.9995 -1.2668
 6904SOL     OW32173   3.395   3.835  16.515 -0.3392  0.0766  0.3876
 6904SOL    HW132174   3.466   3.845  16.578  1.4389 -1.0160 -1.4290
 6904SOL    HW232175   3.378   3.929  16.511 -1.3786 -0.1637 -0.5918
 6905SOL     OW32176   2.478   1.912   8.642  0.0674  0.1550  0.0436
 6905SOL    HW132177   2.387   1.885   8.654  0.8200 -2.3044  0.0949
 6905SOL    HW232178   2.519   1.883   8.723 -1.4182  1.5970  1.2880
 6906SOL     OW32179   3.893   1.775   2.907  0.1881 -0.2748 -0.4870
 6906SOL    HW132180   3.944   1.855   2.898 -0.0501  0.0779  1.3340
 6906SOL    HW232181   3.938   1.735   2.981  1.3238 -0.2174 -1.1524
 6907SOL     OW32182   1.436   0.122   6.069  0.4934 -0.3717  0.1931
 6907SOL    HW132183   1.441   0.027   6.083  0.4598 -0.3680  0.2293
 6907SOL    HW232184   1.492   0.140   5.993 -2.7009  0.4450 -1.9755
 6908SOL     OW32185   0.679   0.707   3.436  0.0309  0.5756 -0.3673
 6908SOL    HW132186   0.586   0.727   3.422 -0.1028 -0.6944 -1.2356
 6908SOL    HW232187   0.689   0.652   3.514 -1.2055 -2.1866 -2.1526
 6909SOL     OW32188   3.215   2.906  10.962 -0.2966 -0.0722 -0.3815
 6909SOL    HW132189   3.205   2.990  11.007  2.0585 -0.4259  0.8128
 6909SOL    HW232190   3.308   2.884  10.975 -1.1146 -2.7615  0.7102
 6910SOL     OW32191   1.000   1.056  17.153 -0.2028 -0.1400 -0.5231
 6910SOL    HW132192   1.095   1.071  17.154 -0.6228  2.5508  1.9788
 6910SOL    HW232193   0.958   1.140  17.138 -3.2421 -1.8528 -1.4278
 6911SOL     OW32194   4.483   4.601  17.133 -0.5667  0.1117 -0.2947
 6911SOL    HW132195   4.518   4.554  17.057  1.2073  1.5084 -0.3648
 6911SOL    HW232196   4.500   4.529  17.193 -1.6668 -0.4596 -0.6667
 6912SOL     OW32197   1.680   2.052  12.457  0.5574  0.2267  0.0668
 6912SOL    HW132198   1.681   2.117  12.387 -0.2265  1.2971  1.0503
 6912SOL    HW232199   1.607   2.091  12.505  0.8852  2.2789 -1.1123
 6913SOL     OW32200   1.210   1.167   2.665  0.6522  0.2276  0.3401
 6913SOL    HW132201   1.172   1.145   2.750  0.9660  0.5523  0.5666
 6913SOL    HW232202   1.195   1.083   2.622  0.0876 -0.1376  1.2560
 6914SOL     OW32203   4.714   1.278   4.201 -0.0029 -0.0298  0.2778
 6914SOL    HW132204   4.702   1.343   4.270  2.0301  0.0146  0.5845
 6914SOL    HW232205   0.050   1.210   4.240  1.7028  0.9694 -0.3637
 6915SOL     OW32206   0.075   2.590   9.742  0.0973 -0.1116  0.0511
 6915SOL    HW132207   0.043   2.510   9.784  0.1889 -0.3675 -0.3648
 6915SOL    HW232208   0.126   2.640   9.805 -1.1667 -0.9045  1.7012
 6916SOL     OW32209   2.877   1.372  13.702  0.0043  0.2616  0.0512
 6916SOL    HW132210   2.874   1.277  13.718  0.0906 -0.0309 -1.5794
 6916SOL    HW232211   2.829   1.371  13.619 -0.6218  0.3794  0.4153
 6917SOL     OW32212   3.150   3.144   7.103  0.2889  0.1702 -0.2574
 6917SOL    HW132213   3.073   3.168   7.156 -0.6177  1.0932 -2.0010
 6917SOL    HW232214   3.128   3.190   7.022  1.2460 -0.3449 -0.8011
 6918SOL     OW32215   4.425   4.121   6.599 -0.1501  0.1383 -0.3806
 6918SOL    HW132216   4.400   4.209   6.627 -0.0749  0.1885 -0.4722
 6918SOL    HW232217   4.511   4.105   6.638 -0.3853  2.7884  1.2234
 6919SOL     OW32218   3.244   2.886   4.477  0.4870 -0.0770  0.5461
 6919SOL    HW132219   3.308   2.879   4.548  1.1132  0.2699  0.0202
 6919SOL    HW232220   3.188   2.949   4.521  3.8420  2.6139  0.9719
 6920SOL     OW32221   1.723   1.740  13.472  0.1191 -0.3960  0.3500
 6920SOL    HW132222   1.727   1.758  13.378  2.8443  0.3870  0.6011
 6920SOL    HW232223   1.803   1.786  13.499  1.3346 -1.7299 -0.9709
 6921SOL     OW32224   4.343   0.151  15.824 -0.0231  0.0430  0.4131
 6921SOL    HW132225   4.314   0.234  15.785 -0.9021 -0.5966 -0.2704
 6921SOL    HW232226   4.292   0.149  15.906 -0.1581  0.0202  0.3282
 6922SOL     OW32227   4.672   4.611  11.755 -0.0987  0.0688  0.5132
 6922SOL    HW132228   0.025   4.660  11.794 -1.8853  1.6101  1.8626
 6922SOL    HW232229   4.651   4.552  11.828 -2.9381 -0.9599 -1.1134
 6923SOL     OW32230   3.122   4.603   7.365  0.5769 -0.0727  0.1731
 6923SOL    HW132231   3.033   4.603   7.398  1.0936 -0.7434  1.5745
 6923SOL    HW232232   3.166   4.541   7.424 -1.2292 -2.3037 -0.8294
 6924SOL     OW32233   3.852   3.342  11.461  0.3169 -0.0942 -0.0531
 6924SOL    HW132234   3.892   3.364  11.545  1.8972  0.2699 -0.9064
 6924SOL    HW232235   3.898   3.410  11.412 -0.3118 -0.7440 -1.5403
 6925SOL     OW32236   2.662   2.164   4.111  0.0686  0.1146 -0.0602
 6925SOL    HW132237   2.647   2.258   4.117  2.2171  0.7214 -3.8539
 6925SOL    HW232238   2.650   2.157   4.016  0.6441 -3.1006  0.1103
 6926SOL     OW32239   4.661   4.411   6.433  0.3484 -0.6020 -0.7304
 6926SOL    HW132240   4.711   4.350   6.488  2.5518  0.5827 -1.4122
 6926SOL    HW232241   4.591   4.352   6.405 -0.1162 -0.3148 -0.1611
 6927SOL     OW32242   2.183   1.689  13.488 -0.3588 -0.1927 -0.0612
 6927SOL    HW132243   2.145   1.604  13.508 -0.8453  0.2966  1.1252
 6927SOL    HW232244   2.199   1.683  13.394  0.0938  0.6558 -0.0464
 6928SOL     OW32245   3.066   2.522   0.029  0.2130  0.5708 -1.0324
 6928SOL    HW132246   2.973   2.524   0.051  0.7700 -0.5919  1.4339
 6928SOL    HW232247   3.093   2.433   0.009 -2.6177 -1.0634  2.4837
 6929SOL     OW32248   1.473   0.596   5.785  0.3852 -0.3449  0.3033
 6929SOL    HW132249   1.539   0.656   5.751 -0.1100  0.1009  0.1340
 6929SOL    HW232250   1.525   0.524   5.749 -1.9364 -1.7041 -0.3243
 6930SOL     OW32251   2.587   3.367   7.125  0.1860 -0.1860 -0.2257
 6930SOL    HW132252   2.594   3.311   7.048  0.4931 -0.4219 -0.0294
 6930SOL    HW232253   2.495   3.360   7.152  0.0897  1.0000 -0.2484
 6931SOL     OW32254   4.366   2.569   4.223 -0.3353 -0.1972  0.2737
 6931SOL    HW132255   4.441   2.511   4.212 -1.0120 -1.2713  1.2725
 6931SOL    HW232256   4.361   2.570   4.319  0.8812 -2.2034  0.3559
 6932SOL     OW32257   1.185   1.906  15.753  0.4559  0.6205  0.4869
 6932SOL    HW132258   1.235   1.914  15.672  0.9110  1.0392  0.8141
 6932SOL    HW232259   1.132   1.827  15.739  1.1610  0.6393 -2.2982
 6933SOL     OW32260   2.279   0.038  13.911  0.0679  0.1115 -0.9485
 6933SOL    HW132261   2.262   4.663  13.926  3.5137 -0.2423  0.6521
 6933SOL    HW232262   2.318   0.055  13.996  0.2902  1.6616 -1.3662
 6934SOL     OW32263   1.172   4.215   8.728  0.0586  0.0130  0.1236
 6934SOL    HW132264   1.136   4.299   8.756 -1.4151  0.4055 -2.9416
 6934SOL    HW232265   1.104   4.161   8.768 -2.1943  2.2108 -0.7390
 6935SOL     OW32266   0.867   3.233   4.415 -0.2590 -0.2403  0.0886
 6935SOL    HW132267   0.906   3.171   4.477 -0.5479  2.4573  3.0329
 6935SOL    HW232268   0.811   3.296   4.463  0.8941  1.7640 -1.2144
 6936SOL     OW32269   2.060   4.629   3.313  0.3883 -0.1573 -0.7402
 6936SOL    HW132270   2.120   4.642   3.386  2.1631  1.9828 -2.5960
 6936SOL    HW232271   1.978   4.668   3.342  0.7421  1.1213 -1.4492
 6937SOL     OW32272   0.843   4.362   8.616 -0.2623  0.0837  0.4479
 6937SOL    HW132273   0.772   4.409   8.659  1.7231  1.9529  1.7135
 6937SOL    HW232274   0.906   4.356   8.688  0.4957 -0.2210 -0.2401
 6938SOL     OW32275   3.826   4.622   1.390  0.3065 -0.3786 -0.0659
 6938SOL    HW132276   3.766   4.683   1.348  0.6086 -1.2358 -1.7325
 6938SOL    HW232277   3.811   4.634   1.484 -0.0026 -0.3515 -0.1205
 6939SOL     OW32278   1.014   1.173   9.730  0.2377 -0.0507 -0.0144
 6939SOL    HW132279   0.923   1.194   9.707  0.4049  0.6795 -0.0202
 6939SOL    HW232280   1.016   1.206   9.820 -0.7510  2.1355 -0.7986
 6940SOL     OW32281   0.175   3.735   7.157  0.0297 -0.2820  0.4797
 6940SOL    HW132282   0.251   3.723   7.214  2.4814 -0.8565 -2.9527
 6940SOL    HW232283   0.210   3.764   7.073  0.9091  0.0988  0.9830
 6941SOL     OW32284   4.480   1.150   8.889  0.1846 -0.3622 -0.1205
 6941SOL    HW132285   4.546   1.132   8.956  1.1492 -0.7999 -1.1991
 6941SOL    HW232286   4.462   1.062   8.855  1.0145 -0.2446 -0.8554
 6942SOL     OW32287   2.563   3.495   9.077  0.0264  0.2451 -0.1491
 6942SOL    HW132288   2.468   3.492   9.063  0.1330 -1.6718 -0.4957
 6942SOL    HW232289   2.575   3.522   9.168 -1.9965  0.1408  0.1511
 6943SOL     OW32290   0.941   4.385   6.290  0.2978  0.5196 -0.4470
 6943SOL    HW132291   0.926   4.380   6.196 -0.9722 -0.8404 -0.1736
 6943SOL    HW232292   0.864   4.336   6.317  0.8120 -1.0497 -1.7936
 6944SOL     OW32293   4.326   3.879   5.014  0.3454 -0.1548 -0.2248
 6944SOL    HW132294   4.419   3.904   5.011 -0.0831  1.5941  1.0775
 6944SOL    HW232295   4.276   3.958   4.995 -1.6572 -1.0907  1.1058
 6945SOL     OW32296   3.496   1.851  10.056 -0.5733  0.3179 -0.2824
 6945SOL    HW132297   3.437   1.927  10.051 -1.4156 -0.1857  1.9881
 6945SOL    HW232298   3.542   1.859  10.139 -1.1241  1.4553 -0.0833
 6946SOL     OW32299   1.337   3.998   4.176 -0.6533  0.6298 -0.0128
 6946SOL    HW132300   1.282   4.072   4.150 -1.1587  0.2945  0.1031
 6946SOL    HW232301   1.406   4.016   4.112 -0.3354  1.3612  0.5405
 6947SOL     OW32302   3.938   0.152  16.063  0.0930  0.1384 -0.5245
 6947SOL    HW132303   4.014   0.117  16.109 -0.3684  0.5226  0.5380
 6947SOL    HW232304   3.977   0.193  15.986  0.4295  0.9794  0.1000
 6948SOL     OW32305   3.582   0.642  12.478  0.1911 -0.7991  0.1810
 6948SOL    HW132306   3.506   0.690  12.511  0.8797  0.8955 -0.6508
 6948SOL    HW232307   3.583   0.671  12.387  0.7336  2.3461  1.1651
 6949SOL     OW32308   1.692   3.243   2.579  0.0915  0.2022 -0.6170
 6949SOL    HW132309   1.757   3.185   2.539 -0.9198 -2.2446  1.3201
 6949SOL    HW232310   1.633   3.251   2.505 -0.3777  0.7701 -0.1853
 6950SOL     OW32311   4.145   1.143   3.140  0.0094  0.3120  0.2163
 6950SOL    HW132312   4.166   1.052   3.120  1.8228  0.5617  0.9734
 6950SOL    HW232313   4.128   1.171   3.050 -1.4420  3.4392  1.4528
 6951SOL     OW32314   2.404   2.172  10.058 -0.7777  0.0473 -0.2560
 6951SOL    HW132315   2.489   2.153  10.097 -1.0970 -0.5959  0.1370
 6951SOL    HW232316   2.416   2.240   9.991 -0.5856  1.6288  1.3771
 6952SOL     OW32317   1.533   4.405   6.175  0.3819  0.1741  0.1935
 6952SOL    HW132318   1.551   4.375   6.265 -0.7920  1.2398  0.7762
 6952SOL    HW232319   1.486   4.329   6.140 -0.0109  0.4033  0.2316
 6953SOL     OW32320   3.688   2.980  12.334  0.0633  0.1684 -0.0288
 6953SOL    HW132321   3.682   2.987  12.430  1.0299  2.3404 -0.1210
 6953SOL    HW232322   3.607   2.932  12.316  0.3966 -0.8188  1.1119
 6954SOL     OW32323   1.459   0.408   4.375  0.2831 -0.3272  0.1590
 6954SOL    HW132324   1.400   0.483   4.383  1.2660  0.5353 -0.5906
 6954SOL    HW232325   1.417   0.343   4.319  0.1716 -0.0709 -0.0522
 6955SOL     OW32326   3.566   0.070  13.284 -0.7195  0.2113 -0.3013
 6955SOL    HW132327   3.525   0.099  13.202  1.9493  0.6174 -1.5020
 6955SOL    HW232328   3.511   0.118  13.345 -2.3099 -0.0987 -1.4894
 6956SOL     OW32329   4.144   3.561  17.437 -0.3881  0.3500 -0.2551
 6956SOL    HW132330   4.161   3.527  17.350  0.8533  0.2657  0.0144
 6956SOL    HW232331   4.228   3.606  17.449 -0.0607 -0.5486  0.7754
 6957SOL     OW32332   4.311   2.371   0.477 -0.0246  0.1217  0.4102
 6957SOL    HW132333   4.255   2.342   0.548  2.3311 -1.1968  1.7014
 6957SOL    HW232334   4.381   2.307   0.491  1.3240  1.9358  2.0013
 6958SOL     OW32335   1.807   2.437  10.766  0.1427  0.3185 -0.2944
 6958SOL    HW132336   1.879   2.497  10.783  0.0362  0.3893 -0.0939
 6958SOL    HW232337   1.748   2.444  10.841 -0.1360  0.9178 -0.5694
 6959SOL     OW32338   3.084   3.552   7.115 -0.0646  0.3577  0.2740
 6959SOL    HW132339   3.036   3.533   7.035 -0.1969 -0.1966  0.4867
 6959SOL    HW232340   3.086   3.646   7.135 -0.7511  0.5743 -0.7187
 6960SOL     OW32341   0.909   4.436   6.601 -0.1710  0.3737  0.4126
 6960SOL    HW132342   0.969   4.474   6.537  1.0851 -1.3787  0.5678
 6960SOL    HW232343   0.939   4.487   6.676 -2.7408 -0.0040  1.7019
 6961SOL     OW32344   4.261   4.227   1.104  0.1687 -0.4277  0.2148
 6961SOL    HW132345   4.240   4.195   1.016  1.8880 -2.2820  0.4551
 6961SOL    HW232346   4.260   4.319   1.081  1.0311 -0.9589 -1.9618
 6962SOL     OW32347   1.625   0.130  15.567 -0.1056 -0.1266  0.1335
 6962SOL    HW132348   1.589   0.070  15.632 -2.2771  0.7795 -0.2301
 6962SOL    HW232349   1.687   0.079  15.515 -0.5832 -0.6082  0.0301
 6963SOL     OW32350   2.445   2.952   5.271 -0.0750  0.4552 -0.5273
 6963SOL    HW132351   2.539   2.937   5.266  0.2157  1.4549  1.9218
 6963SOL    HW232352   2.433   3.045   5.290 -0.3464  0.0183  1.3971
 6964SOL     OW32353   2.280   0.648   1.549 -0.1716  0.2200  0.1978
 6964SOL    HW132354   2.308   0.591   1.477  0.9649  0.6060  0.3246
 6964SOL    HW232355   2.206   0.607   1.593 -0.7785 -0.0325 -1.0926
 6965SOL     OW32356   4.263   2.613  15.271  0.3521 -0.2602  0.4312
 6965SOL    HW132357   4.185   2.578  15.314 -1.7832  1.5360 -2.0104
 6965SOL    HW232358   4.306   2.532  15.245 -1.6901 -1.1980  0.0588
 6966SOL     OW32359   4.577   2.440   1.814 -0.7971  0.7497 -0.0138
 6966SOL    HW132360   4.535   2.372   1.865  0.2656 -0.4785 -0.7697
 6966SOL    HW232361   4.601   2.394   1.734 -0.1815  0.9066  0.0800
 6967SOL     OW32362   1.083   4.642   8.140  0.2556 -0.5758 -0.3463
 6967SOL    HW132363   1.000   4.679   8.111  1.2671  1.5406 -0.5384
 6967SOL    HW232364   1.097   4.706   8.210  0.8103  0.5012 -1.4377
 6968SOL     OW32365   3.683   2.996   5.883 -0.1812  0.3353  0.5538
 6968SOL    HW132366   3.681   3.085   5.847 -1.7838 -0.5582 -1.5407
 6968SOL    HW232367   3.597   2.973   5.848  1.1613 -2.4337 -0.8978
 6969SOL     OW32368   1.174   1.626   9.546  0.2091  0.4669 -0.6105
 6969SOL    HW132369   1.134   1.713   9.558 -1.7773 -0.5315  0.1106
 6969SOL    HW232370   1.142   1.599   9.460  1.1112  1.7645 -1.3447
 6970SOL     OW32371   2.662   1.700   3.957  0.0813 -0.3396  0.1195
 6970SOL    HW132372   2.617   1.772   3.914 -1.7695 -1.4077  0.2452
 6970SOL    HW232373   2.752   1.729   3.973 -0.4440 -0.7496  4.0180
 6971SOL     OW32374   4.038   0.029  14.846 -0.0489 -0.1001 -0.9858
 6971SOL    HW132375   4.048   4.673  14.787  0.4863 -1.2880  0.5890
 6971SOL    HW232376   3.956   4.718  14.885  0.6915  1.3034  1.6650
 6972SOL     OW32377   1.687   1.020   5.316  0.2020  0.4116  0.3929
 6972SOL    HW132378   1.614   1.079   5.297  0.8701  1.2674  0.4667
 6972SOL    HW232379   1.746   1.076   5.366  0.4039  0.2425  0.3470
 6973SOL     OW32380   0.029   2.657  12.821 -0.0128  0.1410  0.2603
 6973SOL    HW132381   4.679   2.593  12.843  1.9812 -2.2285 -0.5631
 6973SOL    HW232382   0.048   2.678  12.912 -1.9325  0.2438  0.6511
 6974SOL     OW32383   3.794   3.430   5.828  0.4254  0.1380  0.1061
 6974SOL    HW132384   3.726   3.364   5.812  1.7210 -1.3114  0.5700
 6974SOL    HW232385   3.744   3.469   5.900  1.7732  0.8183  0.6778
 6975SOL     OW32386   0.587   2.508  10.436  0.9199  0.1730  0.1138
 6975SOL    HW132387   0.507   2.559  10.446  1.2422  0.2962  2.1130
 6975SOL    HW232388   0.545   2.438  10.386  2.5609  1.0583 -2.4989
 6976SOL     OW32389   2.431   2.269   5.040  0.3316 -0.3463 -0.4175
 6976SOL    HW132390   2.356   2.236   5.090 -0.0661  1.2417  0.0446
 6976SOL    HW232391   2.487   2.192   5.031  2.5535  0.9358  2.5524
 6977SOL     OW32392   0.881   3.938   0.868  0.4363  1.0087  0.5046
 6977SOL    HW132393   0.886   3.843   0.854 -0.4178  0.7006  2.2588
 6977SOL    HW232394   0.961   3.972   0.828  0.3995  0.1811 -0.2817
 6978SOL     OW32395   2.692   0.537   8.544  0.5865  0.0319  0.3089
 6978SOL    HW132396   2.713   0.628   8.524  0.3076 -0.2850 -1.4030
 6978SOL    HW232397   2.598   0.532   8.527  0.7361 -0.2131 -0.4514
 6979SOL     OW32398   0.112   0.005   3.651 -0.0423 -0.2947  0.0669
 6979SOL    HW132399   0.149   0.060   3.581  1.2779  1.1968  1.9466
 6979SOL    HW232400   0.165   0.029   3.726 -1.1302 -1.4230  1.1991
 6980SOL     OW32401   4.196   2.739   1.782  0.3532  0.0922 -0.2483
 6980SOL    HW132402   4.225   2.820   1.826  0.7146  0.2699 -0.8107
 6980SOL    HW232403   4.226   2.748   1.691  1.8493  0.9882  0.3156
 6981SOL     OW32404   3.386   4.102  10.859 -0.8075  0.5812 -0.0154
 6981SOL    HW132405   3.318   4.080  10.796  0.1740 -0.0769 -0.8604
 6981SOL    HW232406   3.333   4.086  10.937 -0.0410 -2.7766 -0.1742
 6982SOL     OW32407   3.060   0.065   6.359 -0.1946  0.3592  0.5339
 6982SOL    HW132408   2.972   0.094   6.337 -0.3257 -0.8167 -0.5270
 6982SOL    HW232409   3.087   0.029   6.274 -0.5244  2.7524 -0.5866
 6983SOL     OW32410   4.341   4.328  11.699 -0.3223 -0.2906  0.0960
 6983SOL    HW132411   4.399   4.384  11.647 -0.0190 -1.9384 -1.3645
 6983SOL    HW232412   4.401   4.255  11.714 -1.5702 -1.5628 -1.0388
 6984SOL     OW32413   0.449   1.717  10.965  0.1950 -0.0669 -0.6576
 6984SOL    HW132414   0.357   1.718  10.938  0.4839  0.4493 -1.6121
 6984SOL    HW232415   0.463   1.806  10.997  0.5215 -0.5674  0.6155
 6985SOL     OW32416   3.138   3.491  14.036 -0.3128 -0.7003 -0.2302
 6985SOL    HW132417   3.224   3.457  14.011  0.1598  1.1854 -1.1789
 6985SOL    HW232418   3.158   3.585  14.037 -2.4436 -0.2320 -0.8293
 6986SOL     OW32419   2.135   1.020  15.670  0.1015  0.0666  0.7517
 6986SOL    HW132420   2.203   1.079  15.702  0.1025 -0.1490  1.1445
 6986SOL    HW232421   2.121   1.061  15.585 -2.1655  0.3188  1.2731
 6987SOL     OW32422   0.127   4.709   5.802 -0.1677 -0.3264 -0.0270
 6987SOL    HW132423   0.078   4.664   5.733  0.5161 -1.4835  0.2428
 6987SOL    HW232424   0.066   0.063   5.818 -0.0815 -0.0172 -1.0450
 6988SOL     OW32425   2.422   1.036   2.592  0.4024 -0.1514  0.0271
 6988SOL    HW132426   2.409   0.942   2.608 -0.5013 -0.2629 -1.3383
 6988SOL    HW232427   2.497   1.034   2.532 -1.1286 -1.2189 -1.8923
 6989SOL     OW32428   3.789   0.935   3.296  0.1081 -0.1758  0.3538
 6989SOL    HW132429   3.760   1.016   3.336 -1.5382 -0.6123  0.0478
 6989SOL    HW232430   3.719   0.930   3.231  0.4991 -0.1406 -0.0691
 6990SOL     OW32431   2.677   2.250  16.761  0.5230 -0.2035  0.8728
 6990SOL    HW132432   2.589   2.214  16.774 -0.3540  1.5730 -0.1032
 6990SOL    HW232433   2.725   2.211  16.834 -0.3385  1.7991  2.5003
 6991SOL     OW32434   3.405   0.882   4.378  0.9089 -0.0675  0.4236
 6991SOL    HW132435   3.417   0.977   4.384 -0.1322  0.0204  1.1702
 6991SOL    HW232436   3.360   0.875   4.462 -1.1961  0.0606 -0.6805
 6992SOL     OW32437   0.518   3.622   9.241  0.1523 -0.2950  0.6691
 6992SOL    HW132438   0.572   3.602   9.164  0.6225 -1.0253  1.1897
 6992SOL    HW232439   0.480   3.703   9.208  0.7323  0.0156  0.7800
 6993SOL     OW32440   4.027   0.287  15.842  0.0162 -0.3356 -0.0582
 6993SOL    HW132441   4.019   0.363  15.784 -0.1854  1.0043  1.7468
 6993SOL    HW232442   4.119   0.291  15.866 -0.1110  0.6017  0.2417
 6994SOL     OW32443   4.032   0.842   5.926 -0.4857 -0.3968  0.3375
 6994SOL    HW132444   3.989   0.768   5.970 -0.2037  0.0698  1.3858
 6994SOL    HW232445   4.120   0.814   5.951  0.0319  0.4817 -0.5385
 6995SOL     OW32446   1.497   0.282  16.080 -0.8209 -0.5248  0.6005
 6995SOL    HW132447   1.546   0.213  16.126  0.5645 -0.3759 -0.6660
 6995SOL    HW232448   1.513   0.354  16.141 -0.7336 -0.6188  0.6887
 6996SOL     OW32449   4.616   2.965   7.910 -0.4611 -0.0318 -0.3250
 6996SOL    HW132450   4.548   3.029   7.891  0.7747  1.2761 -0.3208
 6996SOL    HW232451   4.665   2.971   7.828 -1.1668  1.0864 -0.6589
 6997SOL     OW32452   0.664   1.741   2.416  0.2439 -0.6088 -0.2787
 6997SOL    HW132453   0.657   1.762   2.509  2.5214  0.4408 -0.3399
 6997SOL    HW232454   0.754   1.710   2.409  0.4341  0.4651 -2.5259
 6998SOL     OW32455   1.489   2.729   3.080  0.2204 -0.5117 -0.0897
 6998SOL    HW132456   1.562   2.781   3.046 -0.7544  0.6327 -0.4569
 6998SOL    HW232457   1.512   2.653   3.026  1.3963  0.4713 -0.9940
 6999SOL     OW32458   1.165   3.901   3.088 -0.6076 -0.2875 -0.1709
 6999SOL    HW132459   1.245   3.852   3.067 -1.4050 -0.5314 -2.5618
 6999SOL    HW232460   1.193   3.991   3.074  0.9249 -0.3869  2.1158
 7000SOL     OW32461   3.411   2.740   7.281  0.2319  0.1043 -0.7326
 7000SOL    HW132462   3.343   2.794   7.240  0.6252  0.3289 -1.0856
 7000SOL    HW232463   3.416   2.663   7.224 -1.1058  0.8916 -1.9065
 7001SOL     OW32464   2.160   2.109   6.317  0.1652  0.4174 -0.8537
 7001SOL    HW132465   2.091   2.053   6.353  0.6434  0.6592  0.4215
 7001SOL    HW232466   2.203   2.060   6.246 -1.7458  0.8842 -2.3470
 7002SOL     OW32467   3.407   1.980   8.604  0.2158 -0.4953  0.1700
 7002SOL    HW132468   3.486   1.981   8.658 -0.7247  0.0918  1.5254
 7002SOL    HW232469   3.375   1.889   8.607 -1.2189 -0.0008 -0.1188
 7003SOL     OW32470   1.730   0.974   9.262  0.7132  0.4273 -0.4245
 7003SOL    HW132471   1.777   1.010   9.337  1.1200  0.9871 -0.9490
 7003SOL    HW232472   1.722   0.881   9.282  0.5511  0.1254 -1.9009
 7004SOL     OW32473   2.301   2.078   3.986  0.0375  0.2751  0.2072
 7004SOL    HW132474   2.306   2.124   4.070 -0.0442  0.2356  0.2342
 7004SOL    HW232475   2.236   2.009   4.000  0.2562  0.0333  0.0172
 7005SOL     OW32476   0.824   4.319  14.430 -0.8427 -0.4620  0.3094
 7005SOL    HW132477   0.750   4.259  14.425 -0.9347 -0.0679 -3.0784
 7005SOL    HW232478   0.793   4.401  14.393  3.2612  0.4563 -1.0763
 7006SOL     OW32479   4.020   0.439   5.768  0.2054  0.2526  0.9605
 7006SOL    HW132480   3.946   0.491   5.798 -1.9042 -1.7316 -0.8394
 7006SOL    HW232481   4.064   0.412   5.849 -0.3369  1.5255  1.6662
 7007SOL     OW32482   0.152   0.267   8.379  0.1057  0.2212  0.0545
 7007SOL    HW132483   0.112   0.336   8.432  0.0199 -0.5280  0.9631
 7007SOL    HW232484   0.230   0.238   8.426 -0.8521 -2.1578  0.1681
 7008SOL     OW32485   3.212   3.339   7.759  0.0720 -0.2875  0.0936
 7008SOL    HW132486   3.235   3.337   7.852 -2.4397  0.3730  0.7199
 7008SOL    HW232487   3.299   3.315   7.725 -0.4907 -0.0687 -1.4783
 7009SOL     OW32488   0.226   4.652   4.563 -0.5881 -0.2668 -0.1173
 7009SOL    HW132489   0.195   0.023   4.546 -1.9702 -1.2615 -2.8644
 7009SOL    HW232490   0.201   4.647   4.655  0.8042 -1.1175  0.2126
 7010SOL     OW32491   3.819   4.009   3.008  0.1765 -0.2728 -0.0776
 7010SOL    HW132492   3.791   3.990   3.098  1.3372 -0.2380  0.2975
 7010SOL    HW232493   3.896   3.955   2.993  1.4114  1.9656 -1.6905
 7011SOL     OW32494   0.220   2.059   8.149  0.1720 -0.7435 -0.0987
 7011SOL    HW132495   0.312   2.085   8.148 -0.8538  2.8406 -1.4830
 7011SOL    HW232496   0.203   2.023   8.062 -1.7881  0.2382 -0.1033
 7012SOL     OW32497   2.283   0.093   8.284 -0.2726 -0.0094 -0.0751
 7012SOL    HW132498   2.371   0.072   8.315  0.5017  2.7266 -0.4900
 7012SOL    HW232499   2.309   0.117   8.195 -0.9663 -1.5636 -0.6992
 7013SOL     OW32500   2.757   3.448  10.433 -0.5320  0.4595  0.2352
 7013SOL    HW132501   2.703   3.402  10.497  0.4604  0.4644  1.0878
 7013SOL    HW232502   2.698   3.457  10.359 -0.9410 -0.2807  0.4786
 7014SOL     OW32503   0.824   3.058   8.113 -0.5738 -0.1277 -0.2077
 7014SOL    HW132504   0.835   2.963   8.111 -1.2767 -0.2390  1.3178
 7014SOL    HW232505   0.780   3.083   8.031 -2.9055  0.7836  1.3369
 7015SOL     OW32506   3.460   2.856  15.406  0.2357  0.5284 -0.2088
 7015SOL    HW132507   3.378   2.818  15.375  2.2274 -2.0878 -2.2284
 7015SOL    HW232508   3.520   2.785  15.385 -0.9484 -0.3778 -0.5582
 7016SOL     OW32509   1.820   3.338  10.805 -0.0802 -0.0120  0.1316
 7016SOL    HW132510   1.901   3.287  10.796 -1.7222 -2.4769 -0.6417
 7016SOL    HW232511   1.779   3.319  10.721  1.1803  0.4549 -0.5820
 7017SOL     OW32512   1.095   4.271   1.036 -0.4144 -0.0533  0.0779
 7017SOL    HW132513   1.064   4.290   0.947 -0.5229 -1.5609 -0.2076
 7017SOL    HW232514   1.133   4.183   1.030 -0.9788 -0.2500 -0.7344
 7018SOL     OW32515   3.956   4.427  10.054 -0.0299 -0.1635  0.1318
 7018SOL    HW132516   3.913   4.349  10.091 -1.1173  0.1283 -0.5103
 7018SOL    HW232517   3.892   4.497  10.060  0.6703  0.4673  0.2176
 7019SOL     OW32518   0.299   3.032   3.172  0.0845  0.0153  0.1790
 7019SOL    HW132519   0.237   2.963   3.150  1.1190 -0.2858 -1.7438
 7019SOL    HW232520   0.236   3.098   3.202 -0.0053 -1.6309  3.5977
 7020SOL     OW32521   3.683   3.986  14.912  0.1725 -0.4753 -0.4273
 7020SOL    HW132522   3.649   4.062  14.959 -0.7830  0.1679 -2.1480
 7020SOL    HW232523   3.740   4.029  14.848 -0.6350 -0.9553 -1.4768
 7021SOL     OW32524   3.970   2.463   1.515  0.4294 -0.6072 -0.0418
 7021SOL    HW132525   3.954   2.558   1.518 -1.0440 -0.8429 -0.1195
 7021SOL    HW232526   3.882   2.429   1.496 -0.2389  0.8856  0.3564
 7022SOL     OW32527   1.324   2.334   5.897  0.0983 -0.2077 -0.6649
 7022SOL    HW132528   1.258   2.372   5.955  1.3378 -0.2012  0.7353
 7022SOL    HW232529   1.395   2.397   5.915 -0.0840 -0.6234  1.4831
 7023SOL     OW32530   3.284   0.651   4.726  0.0663  0.2148 -0.1539
 7023SOL    HW132531   3.356   0.627   4.668  0.0937 -0.7112  0.2682
 7023SOL    HW232532   3.218   0.601   4.678  0.8392  0.8451 -1.8640
 7024SOL     OW32533   0.591   1.605  14.868  0.0402  0.2367  0.2757
 7024SOL    HW132534   0.583   1.700  14.872 -0.2099  0.1620  1.5315
 7024SOL    HW232535   0.623   1.592  14.779 -2.1978 -0.3376 -0.4431
 7025SOL     OW32536   2.163   4.428   2.341 -0.4463  0.2726  0.3369
 7025SOL    HW132537   2.210   4.451   2.261 -2.6556 -0.1115 -1.0769
 7025SOL    HW232538   2.115   4.509   2.360  1.4537  1.2791  0.8642
 7026SOL     OW32539   3.384   4.438   3.520 -0.1975  0.1646 -0.2988
 7026SOL    HW132540   3.303   4.397   3.490 -1.7772  1.4791  2.0968
 7026SOL    HW232541   3.372   4.520   3.472  0.9898 -0.2234 -1.2482
 7027SOL     OW32542   0.741   4.647   1.207  0.0505  0.1078 -0.4324
 7027SOL    HW132543   0.752   4.689   1.122  0.7176 -2.9982 -1.9029
 7027SOL    HW232544   0.834   4.636   1.229 -0.3973 -0.1285  1.3030
 7028SOL     OW32545   4.560   2.968   5.503 -0.0350  0.1951  0.6907
 7028SOL    HW132546   4.482   2.915   5.490  0.7415 -1.0534  1.1092
 7028SOL    HW232547   4.596   2.962   5.414  0.7357  1.8141  0.8940
 7029SOL     OW32548   4.432   3.090  14.411  0.2385 -0.3917  0.0835
 7029SOL    HW132549   4.405   3.160  14.470 -2.4222 -0.6657 -0.7913
 7029SOL    HW232550   4.454   3.025  14.478 -2.3567 -2.3231 -0.9278
 7030SOL     OW32551   3.598   4.371   3.090  0.4091 -0.1061 -0.1896
 7030SOL    HW132552   3.682   4.405   3.121  0.0412 -0.4243  1.1755
 7030SOL    HW232553   3.642   4.316   3.025 -1.5443 -1.9164  0.0215
 7031SOL     OW32554   0.178   1.859  17.551 -0.2574  0.7159 -0.0064
 7031SOL    HW132555   0.242   1.869  17.480 -0.8471 -0.6512 -0.7311
 7031SOL    HW232556   0.130   1.778  17.531  0.8503  0.1831 -0.5343
 7032SOL     OW32557   0.552   1.419   8.640 -0.0366 -0.8021  0.1651
 7032SOL    HW132558   0.526   1.416   8.548  0.8833  1.2561 -0.1537
 7032SOL    HW232559   0.648   1.415   8.635  0.1418  0.8883  2.2481
 7033SOL     OW32560   0.097   2.308   7.986  0.2686  0.1882 -0.8821
 7033SOL    HW132561   0.088   2.335   8.077  3.5513  0.2044 -0.5593
 7033SOL    HW232562   0.020   2.349   7.947 -0.3923 -0.4799 -0.2672
 7034SOL     OW32563   1.772   3.644   2.612 -0.1663 -0.2035 -0.2175
 7034SOL    HW132564   1.719   3.724   2.615  1.4146  0.7865  1.4049
 7034SOL    HW232565   1.734   3.599   2.537 -1.2333  0.5656 -0.1443
 7035SOL     OW32566   1.101   1.585   8.207 -0.5796  0.3408  0.0876
 7035SOL    HW132567   1.116   1.664   8.156  1.2002 -0.2071 -0.2343
 7035SOL    HW232568   1.179   1.586   8.263 -1.8090 -1.6280  1.8628
 7036SOL     OW32569   4.200   0.043   4.938  0.1781 -0.9016  0.2979
 7036SOL    HW132570   4.154   4.680   4.917 -0.8938  0.1607 -1.4841
 7036SOL    HW232571   4.176   0.054   5.030 -0.6764  0.5608 -0.0962
 7037SOL     OW32572   1.011   4.647  13.669  0.1086  0.0982 -0.1556
 7037SOL    HW132573   1.059   4.618  13.747 -1.3056 -2.9400 -0.4145
 7037SOL    HW232574   0.961   4.566  13.654 -2.0315  1.9440 -2.7693
 7038SOL     OW32575   4.520   0.490   8.131  0.1794  0.2742  0.1555
 7038SOL    HW132576   4.611   0.505   8.106 -0.2417  0.2969 -1.3998
 7038SOL    HW232577   4.537   0.432   8.205 -1.5885  1.5657  1.5877
 7039SOL     OW32578   2.528   3.262  12.705  0.8694  0.1789 -0.1309
 7039SOL    HW132579   2.537   3.198  12.634 -0.6498  1.2154 -1.2624
 7039SOL    HW232580   2.617   3.295  12.706  1.0479 -0.3133  0.2326
 7040SOL     OW32581   1.591   3.608   0.664  0.9166  0.4144 -0.4462
 7040SOL    HW132582   1.563   3.517   0.659  1.1280  0.4004 -1.4183
 7040SOL    HW232583   1.584   3.621   0.759  0.9077  0.4408 -0.4504
 7041SOL     OW32584   1.894   3.352   6.410 -0.4090 -0.4590  0.1381
 7041SOL    HW132585   1.981   3.381   6.381 -1.2610  2.4712  0.4571
 7041SOL    HW232586   1.836   3.418   6.373 -1.2804 -0.0987  2.1071
 7042SOL     OW32587   0.864   2.214  10.460 -0.0268 -0.5183 -0.4180
 7042SOL    HW132588   0.820   2.148  10.406 -2.3600  0.8054 -0.1432
 7042SOL    HW232589   0.944   2.219  10.406  0.1066 -1.6050 -0.3169
 7043SOL     OW32590   4.065   2.757   7.699 -0.0463 -0.7442  0.0498
 7043SOL    HW132591   4.015   2.762   7.618  2.1750 -1.5180 -1.3512
 7043SOL    HW232592   4.153   2.738   7.667 -0.5095  0.0822 -1.7429
 7044SOL     OW32593   1.926   2.023   0.478 -0.1883  0.2546 -0.0239
 7044SOL    HW132594   2.015   1.989   0.489 -0.6983 -1.7909 -2.2315
 7044SOL    HW232595   1.918   1.993   0.387 -0.2214 -3.3157  1.1735
 7045SOL     OW32596   3.728   4.066   6.414 -0.2920 -0.3129 -0.2249
 7045SOL    HW132597   3.727   4.159   6.392 -0.7899 -0.0746  0.8392
 7045SOL    HW232598   3.770   4.073   6.500 -1.9650  1.6139  0.4367
 7046SOL     OW32599   1.096   3.061  13.800  0.0304 -0.4528 -0.1007
 7046SOL    HW132600   1.171   3.071  13.742 -0.4352  0.9376 -0.4767
 7046SOL    HW232601   1.061   2.976  13.773  1.7941 -1.7852  1.7330
 7047SOL     OW32602   1.387   3.706   8.237 -0.2184  0.4534 -0.4207
 7047SOL    HW132603   1.403   3.788   8.283 -0.9065  0.6943 -0.6169
 7047SOL    HW232604   1.368   3.645   8.309  2.5174 -1.1166 -1.0337
 7048SOL     OW32605   1.931   4.468   3.094 -0.2168 -0.3974 -0.2927
 7048SOL    HW132606   1.998   4.498   3.155  0.4718  1.5152 -1.9690
 7048SOL    HW232607   1.880   4.401   3.140 -1.6919  1.6957  1.1116
 7049SOL     OW32608   1.147   1.780   4.764  0.1015  0.3599  0.2732
 7049SOL    HW132609   1.185   1.716   4.824 -0.2096  1.7164  1.9374
 7049SOL    HW232610   1.057   1.786   4.796  0.2113  2.1014  0.2866
 7050SOL     OW32611   1.438   0.266   2.409  0.4696  0.3802 -0.3378
 7050SOL    HW132612   1.489   0.318   2.471 -0.6062  0.1197  0.7811
 7050SOL    HW232613   1.447   0.182   2.454  0.9157 -0.0215 -1.1953
 7051SOL     OW32614   0.745   4.412   3.229  0.0852 -0.2208  0.0935
 7051SOL    HW132615   0.783   4.491   3.191  0.3937  0.8234  2.5424
 7051SOL    HW232616   0.782   4.342   3.176  0.2560  0.2753 -0.4377
 7052SOL     OW32617   2.216   4.550  11.666  0.0429  0.2524 -0.8812
 7052SOL    HW132618   2.132   4.593  11.679  0.6250  1.0671  0.2324
 7052SOL    HW232619   2.232   4.549  11.572 -2.0905  0.1843 -1.2286
 7053SOL     OW32620   2.400   0.887   5.484  0.4270 -0.7909 -0.3654
 7053SOL    HW132621   2.490   0.920   5.486 -0.1645  0.7998 -0.2700
 7053SOL    HW232622   2.369   0.933   5.562  0.3695 -0.5932 -0.5072
 7054SOL     OW32623   0.982   2.819   0.643 -0.1290 -0.3708 -0.2016
 7054SOL    HW132624   0.999   2.913   0.639  0.8493 -0.6412 -2.6011
 7054SOL    HW232625   0.992   2.804   0.737 -0.3355  2.6665  0.2951
 7055SOL     OW32626   0.672   3.213   5.103 -0.1385  0.1187 -0.1587
 7055SOL    HW132627   0.590   3.208   5.152  0.4324 -0.5325  0.7116
 7055SOL    HW232628   0.647   3.262   5.024  1.6447  0.1714 -0.6888
 7056SOL     OW32629   3.097   1.544   7.466  0.1589 -0.8130  0.1201
 7056SOL    HW132630   3.113   1.622   7.413  1.8116 -1.7470 -0.7288
 7056SOL    HW232631   3.163   1.485   7.430 -0.0703 -0.6572 -0.5574
 7057SOL     OW32632   0.642   1.598  10.796 -0.5451 -0.2637 -0.1755
 7057SOL    HW132633   0.589   1.663  10.843  2.8084  0.9592  1.8613
 7057SOL    HW232634   0.618   1.526  10.855  3.2119 -0.2559  1.3378
 7058SOL     OW32635   2.231   0.311   4.560  0.0247  0.0536 -0.8464
 7058SOL    HW132636   2.243   0.254   4.635 -0.4577 -0.5430 -1.2202
 7058SOL    HW232637   2.251   0.393   4.605 -0.9619  0.2128 -0.7021
 7059SOL     OW32638   3.569   2.968   8.166  0.2682 -0.2501 -0.6947
 7059SOL    HW132639   3.592   3.028   8.237  0.2060 -0.6016 -0.3786
 7059SOL    HW232640   3.552   2.882   8.202  0.0710  0.6549  1.3440
 7060SOL     OW32641   1.996   1.261  13.046  0.3037  0.3528 -0.1525
 7060SOL    HW132642   1.920   1.214  13.013 -0.6023  1.6424  0.0803
 7060SOL    HW232643   1.984   1.342  12.996  1.7713 -0.0339 -1.1551
 7061SOL     OW32644   4.462   4.419   2.143  0.6139  0.1669  0.5895
 7061SOL    HW132645   4.498   4.330   2.144 -0.3395 -0.2326 -0.7417
 7061SOL    HW232646   4.371   4.396   2.162  0.6990 -1.1961 -0.6443
 7062SOL     OW32647   0.889   3.440   5.094 -0.6522  0.1873 -0.0472
 7062SOL    HW132648   0.832   3.388   5.151  0.8459 -0.7879  0.5521
 7062SOL    HW232649   0.951   3.472   5.160 -0.0526  2.0066 -1.4824
 7063SOL     OW32650   1.537   3.135   7.367 -0.1916 -0.3497 -0.3398
 7063SOL    HW132651   1.598   3.209   7.370  1.2358 -1.5170 -0.9484
 7063SOL    HW232652   1.570   3.086   7.442  2.9437  2.1591 -0.0597
 7064SOL     OW32653   0.864   1.806   4.554 -0.1471 -0.2599 -0.0177
 7064SOL    HW132654   0.853   1.824   4.647 -3.4658  1.6376 -0.7724
 7064SOL    HW232655   0.867   1.710   4.557 -0.2604 -0.2820 -0.6296
 7065SOL     OW32656   2.319   1.507   7.016  0.0602  0.2629  0.1093
 7065SOL    HW132657   2.312   1.582   7.075  1.1887  3.0511 -3.3302
 7065SOL    HW232658   2.227   1.481   7.013  0.4024 -0.7057 -1.9196
 7066SOL     OW32659   2.277   3.235   4.952  0.7914 -0.1067  0.0926
 7066SOL    HW132660   2.355   3.280   4.985 -0.0164  0.6597  0.9500
 7066SOL    HW232661   2.204   3.274   4.999  0.7007  3.4869 -2.9901
 7067SOL     OW32662   0.563   2.736   8.504  0.0020 -0.1916 -0.0159
 7067SOL    HW132663   0.534   2.669   8.442 -1.6054 -0.2211  0.7559
 7067SOL    HW232664   0.579   2.688   8.585  0.7242 -1.5169 -0.9515
 7068SOL     OW32665   0.088   0.512  13.023  0.2846 -0.1698 -0.1088
 7068SOL    HW132666   0.046   0.447  13.080  0.3801  0.0296  0.1877
 7068SOL    HW232667   0.181   0.496  13.037  0.7024  0.8947 -1.6621
 7069SOL     OW32668   0.418   1.156   8.691  0.7406  0.1531  0.4201
 7069SOL    HW132669   0.457   1.243   8.687 -0.5555  0.7800  1.9476
 7069SOL    HW232670   0.324   1.170   8.679  0.5134 -0.7735  1.1339
 7070SOL     OW32671   0.397   1.644   4.477  0.3066  0.2906  0.4489
 7070SOL    HW132672   0.349   1.686   4.405 -0.2904 -0.4920  0.3958
 7070SOL    HW232673   0.413   1.559   4.437  0.4168 -0.4110  2.0045
 7071SOL     OW32674   2.611   1.462  16.099 -0.1935 -0.6241  0.5309
 7071SOL    HW132675   2.599   1.491  16.008 -1.9321  3.5229  2.0952
 7071SOL    HW232676   2.534   1.489  16.149 -0.9456 -0.1309 -0.8858
 7072SOL     OW32677   2.628   1.418   2.155 -0.2630 -0.1336  0.4773
 7072SOL    HW132678   2.689   1.460   2.094 -0.0026 -1.9644 -0.5173
 7072SOL    HW232679   2.616   1.490   2.217  0.9821  0.8679 -0.4414
 7073SOL     OW32680   1.772   1.492   5.192  1.0989 -0.4150  0.5912
 7073SOL    HW132681   1.788   1.585   5.176 -0.8948 -0.3024 -0.7293
 7073SOL    HW232682   1.796   1.483   5.284 -0.3122 -0.7355  0.9294
 7074SOL     OW32683   3.866   0.446   9.592 -0.0925 -0.5119  0.2466
 7074SOL    HW132684   3.836   0.536   9.583  0.0880 -0.3966  0.7626
 7074SOL    HW232685   3.953   0.448   9.633  1.4814  0.2872 -3.1656
 7075SOL     OW32686   4.688   2.827   6.550  0.3570 -0.2920 -0.5256
 7075SOL    HW132687   0.031   2.812   6.478 -1.4622  0.7869 -2.2764
 7075SOL    HW232688   4.602   2.851   6.516  0.2620  0.0427 -0.0597
 7076SOL     OW32689   0.910   1.543  15.563 -0.4516  0.2194 -0.4241
 7076SOL    HW132690   0.925   1.613  15.499  1.3202 -1.0392 -1.3793
 7076SOL    HW232691   0.815   1.555  15.571 -0.2062  0.3091  2.3159
 7077SOL     OW32692   2.216   1.715   4.354  0.1748 -0.1926 -0.0529
 7077SOL    HW132693   2.264   1.769   4.417  3.0977 -2.9737  0.0902
 7077SOL    HW232694   2.282   1.647   4.339  1.2442  0.6815  0.6613
 7078SOL     OW32695   0.217   3.083   4.741 -0.0166 -0.1276 -0.4618
 7078SOL    HW132696   0.258   3.034   4.670  2.2399 -0.9133  1.3841
 7078SOL    HW232697   0.267   3.054   4.817  1.1447 -0.6238 -1.4239
 7079SOL     OW32698   0.881   4.699   7.867  0.3223 -0.7988 -0.2741
 7079SOL    HW132699   0.936   4.623   7.845  3.8772  1.2295  1.6649
 7079SOL    HW232700   0.874   4.686   7.962  0.0027 -1.8746 -0.4420
 7080SOL     OW32701   3.340   0.955   2.420 -0.5547 -0.2818 -0.2388
 7080SOL    HW132702   3.254   0.920   2.397 -1.0181 -1.2100  2.8956
 7080SOL    HW232703   3.380   0.880   2.465 -2.2661 -0.6129  0.7303
 7081SOL     OW32704   2.663   4.075  13.419  0.7369  0.5166  0.3322
 7081SOL    HW132705   2.645   4.009  13.352 -0.3392  2.1189 -0.9528
 7081SOL    HW232706   2.608   4.144  13.382 -1.3474 -1.5298 -0.4217
 7082SOL     OW32707   2.390   1.819   4.530 -0.0971 -0.2759  0.0491
 7082SOL    HW132708   2.484   1.810   4.547  0.0921  0.8786 -0.3785
 7082SOL    HW232709   2.391   1.915   4.520  3.1944  0.0243  3.4530
 7083SOL     OW32710   0.522   0.584   6.686 -0.3975  0.2511 -0.3897
 7083SOL    HW132711   0.556   0.514   6.742  1.7705  1.9458  0.3917
 7083SOL    HW232712   0.530   0.533   6.606 -0.0050 -0.4530  0.1025
 7084SOL     OW32713   0.220   2.437  10.543  0.7476 -0.8999 -0.0787
 7084SOL    HW132714   0.242   2.453  10.634  1.0687 -3.1062  0.2364
 7084SOL    HW232715   0.245   2.345  10.538 -1.2387 -1.4654  0.4072
 7085SOL     OW32716   2.949   1.697  12.524  0.0945  0.0865 -0.3094
 7085SOL    HW132717   3.021   1.759  12.542  1.1715 -1.2079 -0.1733
 7085SOL    HW232718   2.921   1.728  12.438 -2.4123  0.7544  0.7591
 7086SOL     OW32719   2.968   4.147  15.178 -0.0394 -0.4253 -0.0330
 7086SOL    HW132720   3.040   4.177  15.123  0.6327 -0.8462  0.6243
 7086SOL    HW232721   2.912   4.225  15.185 -1.1146 -1.2659  0.7962
 7087SOL     OW32722   0.190   1.836   3.649  0.3957 -0.9161  0.1639
 7087SOL    HW132723   0.211   1.762   3.592  3.0782 -0.5381  0.6664
 7087SOL    HW232724   0.204   1.805   3.739  2.3373  1.9695  0.8512
 7088SOL     OW32725   1.946   3.089   7.436 -0.3093  0.4082  0.4511
 7088SOL    HW132726   1.913   3.048   7.517  1.7197  0.7403  1.4526
 7088SOL    HW232727   1.993   3.158   7.483 -0.2348  2.2890 -2.3938
 7089SOL     OW32728   1.342   4.228   9.096  0.1267  0.0222  0.4576
 7089SOL    HW132729   1.292   4.210   9.017  0.7929 -2.4385  0.6034
 7089SOL    HW232730   1.417   4.278   9.064 -0.0862  0.4003  0.5527
 7090SOL     OW32731   0.200   3.514   2.640  0.0239  0.0378  0.2371
 7090SOL    HW132732   0.208   3.548   2.551 -0.6952  0.5360  0.3672
 7090SOL    HW232733   0.151   3.434   2.619 -0.5766  1.0830 -2.2939
 7091SOL     OW32734   1.385   1.595   7.356 -0.6191  0.6003  0.4211
 7091SOL    HW132735   1.470   1.634   7.336 -0.7503  0.5615 -0.1989
 7091SOL    HW232736   1.330   1.668   7.327 -1.5835  0.2657  1.4057
 7092SOL     OW32737   2.428   0.372   9.053 -0.0099 -0.2019 -0.4498
 7092SOL    HW132738   2.409   0.443   9.115 -1.5335 -1.2329  0.2775
 7092SOL    HW232739   2.466   0.308   9.113 -1.0506 -1.3160 -0.9746
 7093SOL     OW32740   3.421   0.264   2.249  0.1293 -0.6419  0.4191
 7093SOL    HW132741   3.441   0.343   2.300 -1.0550 -0.4820  0.6386
 7093SOL    HW232742   3.478   0.214   2.308  1.2504  0.7400  0.5181
 7094SOL     OW32743   0.889   0.338   4.325  0.0236  0.7790  0.0834
 7094SOL    HW132744   0.912   0.283   4.250  1.1388  1.3978 -0.0270
 7094SOL    HW232745   0.919   0.422   4.290 -0.9872  1.0731 -0.0794
 7095SOL     OW32746   3.228   2.578   0.236 -0.1872 -0.4268  0.1443
 7095SOL    HW132747   3.184   2.568   0.152 -0.8687  2.9504  0.1333
 7095SOL    HW232748   3.169   2.643   0.273  0.9351  0.9363 -0.4603
 7096SOL     OW32749   2.779   3.185   6.630 -0.1577 -0.2388 -0.2960
 7096SOL    HW132750   2.693   3.219   6.608  0.3573  0.8909 -0.5825
 7096SOL    HW232751   2.839   3.252   6.596 -1.0550  0.4574 -0.5124
 7097SOL     OW32752   4.469   1.460   9.085 -0.6459 -0.8046  0.0855
 7097SOL    HW132753   4.539   1.512   9.123  0.1454 -3.0801  1.6811
 7097SOL    HW232754   4.410   1.521   9.040  0.8669  0.6924  0.1333
 7098SOL     OW32755   2.717   1.801   2.338 -0.8700 -0.4767  0.5660
 7098SOL    HW132756   2.799   1.764   2.303  0.4274  1.6295  1.3384
 7098SOL    HW232757   2.700   1.862   2.267  0.2601 -2.1011 -1.1189
 7099SOL     OW32758   0.162   0.967   3.652 -0.2375  0.1901 -0.1008
 7099SOL    HW132759   0.210   0.932   3.728 -1.1131 -0.3655  0.1916
 7099SOL    HW232760   0.079   0.993   3.691  0.5795  2.7455 -0.0844
 7100SOL     OW32761   1.468   3.758   4.781  0.1418  0.1230  0.2439
 7100SOL    HW132762   1.476   3.663   4.777  0.1556  0.2349 -2.0609
 7100SOL    HW232763   1.472   3.783   4.689  0.3182 -0.8127 -0.0054
 7101SOL     OW32764   2.502   4.507  16.157 -0.0668  0.1874 -0.6448
 7101SOL    HW132765   2.474   4.426  16.198  1.7786 -1.1591 -2.0431
 7101SOL    HW232766   2.431   4.567  16.181  1.4372  1.9435 -0.5987
 7102SOL     OW32767   0.158   1.835  10.727 -0.0064  0.0748 -0.6900
 7102SOL    HW132768   0.244   1.850  10.688  0.1028 -0.1684 -0.5464
 7102SOL    HW232769   0.103   1.896  10.679  0.6484 -0.7840 -2.5566
 7103SOL     OW32770   0.472   1.027   4.714  0.5398 -0.2725  0.2386
 7103SOL    HW132771   0.510   0.949   4.675 -1.6441 -1.2280  0.0622
 7103SOL    HW232772   0.539   1.048   4.779  1.1800  3.1648 -1.5007
 7104SOL     OW32773   0.527   2.442   6.921 -0.2051 -0.2786  0.6140
 7104SOL    HW132774   0.497   2.375   6.981  0.7837 -2.0690 -0.8975
 7104SOL    HW232775   0.463   2.513   6.927 -0.5876 -0.5292 -0.5414
 7105SOL     OW32776   1.864   0.300   2.610  0.4504 -0.4851 -0.2117
 7105SOL    HW132777   1.811   0.319   2.533  0.5426  0.8045  0.0399
 7105SOL    HW232778   1.931   0.368   2.613 -0.1361  0.1791 -2.3209
 7106SOL     OW32779   1.220   4.316   2.637 -0.7650  0.6479 -0.5198
 7106SOL    HW132780   1.296   4.374   2.640 -0.3040  0.1091 -1.7217
 7106SOL    HW232781   1.160   4.370   2.586  1.1811  2.2314 -1.1753
 7107SOL     OW32782   1.812   4.698  15.404 -0.5685 -0.1433  0.2131
 7107SOL    HW132783   1.854   4.708  15.319  1.0057  0.2619  1.0385
 7107SOL    HW232784   1.829   4.609  15.432 -0.5580 -0.0642  0.4604
 7108SOL     OW32785   0.855   0.039   8.991  0.3298  0.3256 -0.2355
 7108SOL    HW132786   0.880   0.123   8.953 -1.7684  0.9356 -0.2873
 7108SOL    HW232787   0.904   0.028   9.072 -3.4112  2.9144  2.3900
 7109SOL     OW32788   3.931   1.892   9.403 -0.2074 -0.3161  0.1372
 7109SOL    HW132789   3.950   1.941   9.323  1.7825 -0.4008  0.5523
 7109SOL    HW232790   3.857   1.941   9.439  0.5184 -0.5013  1.8693
 7110SOL     OW32791   0.418   4.674   8.152  0.4039  0.0916 -0.4378
 7110SOL    HW132792   0.474   0.007   8.210  1.1284 -3.2600  1.7751
 7110SOL    HW232793   0.393   0.013   8.079  0.7230  0.1254 -0.5193
 7111SOL     OW32794   3.982   4.660   8.138  0.0769 -0.1576 -0.3130
 7111SOL    HW132795   3.946   4.575   8.162 -0.7749 -0.0374 -1.1614
 7111SOL    HW232796   3.929   0.001   8.192 -2.5491 -1.2781 -1.6706
 7112SOL     OW32797   0.757   1.181   8.486  0.4878  0.1693  0.2343
 7112SOL    HW132798   0.729   1.175   8.394 -0.5084  1.8537  0.4192
 7112SOL    HW232799   0.844   1.142   8.482  0.2765 -0.2734 -0.0958
 7113SOL     OW32800   4.476   2.813  17.061 -0.1082  0.4322  0.1948
 7113SOL    HW132801   4.486   2.858  16.978  0.8986  1.1308  0.6844
 7113SOL    HW232802   4.520   2.729  17.048 -0.1444  0.3119  0.8362
 7114SOL     OW32803   1.149   2.356   3.228 -0.2619  0.5048  0.0001
 7114SOL    HW132804   1.172   2.268   3.201 -0.6571  0.4826 -0.2643
 7114SOL    HW232805   1.210   2.374   3.299 -0.2548 -0.1424  0.1581
 7115SOL     OW32806   4.437   2.071   7.579  0.1161  0.3363  0.1507
 7115SOL    HW132807   4.374   2.100   7.513 -1.1246  0.3798  1.3460
 7115SOL    HW232808   4.384   2.007   7.627  1.3075 -1.4194 -0.8925
 7116SOL     OW32809   4.024   4.658   5.870 -0.3822  0.1147 -0.4848
 7116SOL    HW132810   3.968   0.008   5.833 -0.7964 -0.7311 -1.4325
 7116SOL    HW232811   3.988   4.573   5.843 -0.0279 -0.1519 -0.1072
 7117SOL     OW32812   1.858   2.793  10.542 -0.0695 -0.2861  0.3930
 7117SOL    HW132813   1.787   2.732  10.522  0.0291 -0.6836  1.2567
 7117SOL    HW232814   1.935   2.754  10.501 -0.0718  1.2389 -1.0573
 7118SOL     OW32815   0.683   0.420  14.764  0.1739 -0.7738  0.6435
 7118SOL    HW132816   0.660   0.513  14.773 -0.1886 -0.7770 -0.2093
 7118SOL    HW232817   0.598   0.380  14.747 -0.3601 -0.0381  1.5916
 7119SOL     OW32818   2.204   3.524   4.566 -0.0976 -0.1251  0.1647
 7119SOL    HW132819   2.292   3.529   4.606 -0.5916  0.9562  1.1201
 7119SOL    HW232820   2.165   3.457   4.622 -0.9558  0.8994  0.7955
 7120SOL     OW32821   1.849   0.380   6.692  0.3102  0.0931 -0.4365
 7120SOL    HW132822   1.776   0.431   6.657  0.5581 -0.7663 -2.1738
 7120SOL    HW232823   1.806   0.304   6.731 -3.5874  2.4446 -0.1623
 7121SOL     OW32824   2.898   2.460   8.692 -0.1169  0.0762  0.4497
 7121SOL    HW132825   2.910   2.545   8.736 -0.2621  0.4333 -0.2032
 7121SOL    HW232826   2.812   2.477   8.656 -0.6429 -1.2940  1.0763
 7122SOL     OW32827   2.369   4.504   4.326 -0.0770  0.5760 -0.4153
 7122SOL    HW132828   2.314   4.426   4.326 -1.5657  1.6173 -0.2677
 7122SOL    HW232829   2.436   4.458   4.376 -1.1742  0.4267  0.9038
 7123SOL     OW32830   3.893   1.092   5.970 -0.0709  0.2300  0.7490
 7123SOL    HW132831   3.824   1.106   5.905 -2.0555 -0.6525  2.6616
 7123SOL    HW232832   3.907   0.999   5.952  0.0789  0.5207 -0.6408
 7124SOL     OW32833   1.914   4.283   8.734 -0.2534  0.1290 -0.0316
 7124SOL    HW132834   1.997   4.253   8.772 -1.3085 -0.2506  1.9900
 7124SOL    HW232835   1.947   4.317   8.651 -1.4342  2.2246  0.3627
 7125SOL     OW32836   1.192   1.779   2.284 -0.0343 -0.0691  0.4933
 7125SOL    HW132837   1.193   1.708   2.220 -0.2316 -0.3990  0.8579
 7125SOL    HW232838   1.181   1.739   2.370  0.5798  1.3211  1.2238
 7126SOL     OW32839   0.190   4.008   4.560 -0.5579  0.7248  0.5717
 7126SOL    HW132840   0.174   3.914   4.549  1.1726  0.5079  0.0168
 7126SOL    HW232841   0.115   4.043   4.510 -1.6491 -0.5013  1.3455
 7127SOL     OW32842   0.064   2.427  10.937  0.0218 -0.3989 -0.1282
 7127SOL    HW132843   0.157   2.407  10.926 -0.0442  0.0481 -1.4481
 7127SOL    HW232844   0.044   2.491  10.869 -1.0230  0.0119  0.5691
 7128SOL     OW32845   0.384   0.119  16.276  0.2489 -0.2380  0.1224
 7128SOL    HW132846   0.385   0.041  16.221  1.7245  0.0590 -0.2708
 7128SOL    HW232847   0.292   0.118  16.302 -0.0415 -0.4554 -0.8959
 7129SOL     OW32848   4.676   2.736   1.228  0.0949  0.0474 -0.2040
 7129SOL    HW132849   4.700   2.795   1.157 -0.7823  1.2400  0.4982
 7129SOL    HW232850   4.582   2.752   1.237  0.5622  2.3354  0.6884
 7130SOL     OW32851   3.753   4.045   7.783  0.2640  0.0090  0.3374
 7130SOL    HW132852   3.744   3.952   7.806  0.8260 -0.5077 -1.4855
 7130SOL    HW232853   3.819   4.027   7.716 -1.2362  1.2667 -1.4756
 7131SOL     OW32854   0.989   3.982   6.720 -0.7108  0.1845 -0.5287
 7131SOL    HW132855   1.053   4.010   6.654 -0.7557  2.0134  0.1983
 7131SOL    HW232856   0.924   4.052   6.724 -1.3147 -0.4461  0.6152
 7132SOL     OW32857   4.380   1.213  11.997  0.3387 -1.0033 -0.0908
 7132SOL    HW132858   4.460   1.238  11.951 -0.5905 -0.0299 -1.1765
 7132SOL    HW232859   4.385   1.117  11.995 -0.5169 -1.0633  0.4888
 7133SOL     OW32860   3.297   4.186   8.888  0.1006  0.3434 -0.3203
 7133SOL    HW132861   3.230   4.216   8.827  0.5072  0.0612 -0.9019
 7133SOL    HW232862   3.255   4.144   8.963 -0.2453 -1.9792 -1.8209
 7134SOL     OW32863   2.111   0.093  12.978 -0.0869 -0.0748  0.5016
 7134SOL    HW132864   2.078   0.179  12.950 -0.7384 -0.8995 -1.2554
 7134SOL    HW232865   2.099   0.105  13.072 -1.4886 -0.1240  0.3236
 7135SOL     OW32866   2.915   3.695  14.071 -0.2817 -1.0527  0.0520
 7135SOL    HW132867   2.838   3.656  14.030 -1.7674  0.4274  1.4424
 7135SOL    HW232868   2.970   3.684  13.993  0.1594 -0.3363  0.2588
 7136SOL     OW32869   1.977   2.060  12.699  0.0971 -0.1401 -0.0440
 7136SOL    HW132870   2.045   2.037  12.636  0.6220 -1.9194  1.1671
 7136SOL    HW232871   1.916   2.111  12.646 -1.3476  0.5955  2.3030
 7137SOL     OW32872   4.084   0.791   2.461 -0.2062 -0.2815 -0.4301
 7137SOL    HW132873   4.172   0.754   2.452 -0.7659 -1.7684  0.2044
 7137SOL    HW232874   4.034   0.721   2.418 -0.8275  0.0388 -0.2336
 7138SOL     OW32875   4.051   3.880   0.848  0.0080 -0.1116 -0.3606
 7138SOL    HW132876   4.103   3.803   0.869  0.8242  0.1045 -1.5741
 7138SOL    HW232877   3.970   3.836   0.824  0.4639 -1.1256 -0.0057
 7139SOL     OW32878   4.401   0.765   8.518 -0.7466  0.2542 -0.7010
 7139SOL    HW132879   4.330   0.702   8.532  0.3510 -0.6135  0.8761
 7139SOL    HW232880   4.378   0.822   8.444  0.6369  0.1106 -1.2399
 7140SOL     OW32881   1.537   0.061   9.250 -0.2689  0.5001  0.6816
 7140SOL    HW132882   1.565   0.026   9.165 -1.0751 -0.7901  0.9490
 7140SOL    HW232883   1.538   0.154   9.228 -0.8768  0.1892 -0.6522
 7141SOL     OW32884   2.060   3.958   0.180 -0.0303 -0.1114 -0.5392
 7141SOL    HW132885   2.124   4.022   0.212 -1.2553 -0.5969  2.8516
 7141SOL    HW232886   2.097   3.935   0.095  3.1301  1.3550  0.4552
 7142SOL     OW32887   3.980   3.290  15.454 -0.1908 -0.0470  0.1891
 7142SOL    HW132888   4.055   3.349  15.452 -1.8035  1.9839 -0.2057
 7142SOL    HW232889   3.952   3.292  15.363 -1.7178 -1.4452  0.6092
 7143SOL     OW32890   1.759   1.593  10.581  0.1847  0.3472  0.1926
 7143SOL    HW132891   1.796   1.532  10.644 -1.6510 -1.9931 -1.0147
 7143SOL    HW232892   1.835   1.639  10.544  1.1617 -2.7951 -1.7540
 7144SOL     OW32893   0.128   2.872  14.034  0.2101 -0.0759  0.6325
 7144SOL    HW132894   0.173   2.847  14.115 -0.8175 -2.5142  0.4518
 7144SOL    HW232895   0.083   2.953  14.060 -0.6070  0.3787 -2.2952
 7145SOL     OW32896   1.263   0.868   6.833  0.4026  0.1775 -0.2947
 7145SOL    HW132897   1.207   0.801   6.795 -0.3943 -0.6467  2.3116
 7145SOL    HW232898   1.191   0.926   6.859 -0.4167  0.2209 -2.6677
 7146SOL     OW32899   2.530   2.745   0.044  0.6744  0.0636  0.3304
 7146SOL    HW132900   2.564   2.659   0.020  1.1051  0.5671 -0.9022
 7146SOL    HW232901   2.440   2.725   0.069  0.6774 -0.4131 -0.0258
 7147SOL     OW32902   2.458   1.609   1.808  0.4163 -0.4817 -0.2752
 7147SOL    HW132903   2.464   1.539   1.743  1.3619 -0.3106 -0.3833
 7147SOL    HW232904   2.552   1.619   1.824  0.5210  0.2158 -1.3365
 7148SOL     OW32905   1.383   1.840  11.286  0.4506 -0.0240 -0.1296
 7148SOL    HW132906   1.325   1.876  11.353  1.6181 -0.7392  1.2655
 7148SOL    HW232907   1.373   1.899  11.211 -0.6345  2.9689  2.3561
 7149SOL     OW32908   4.314   2.865   5.781  0.4148 -0.5696  0.5288
 7149SOL    HW132909   4.404   2.833   5.774  0.8616  0.5260  1.1940
 7149SOL    HW232910   4.313   2.915   5.863  2.8072  0.9035 -0.3349
 7150SOL     OW32911   2.269   1.641  17.123  0.3745  0.4683  0.7971
 7150SOL    HW132912   2.240   1.732  17.125 -0.4905  0.1537  2.2242
 7150SOL    HW232913   2.281   1.620  17.030 -1.2157  0.2761  0.6514
 7151SOL     OW32914   0.832   0.053   6.817 -0.2877 -0.2636  0.2298
 7151SOL    HW132915   0.742   0.023   6.808 -0.8186  1.2204  0.6817
 7151SOL    HW232916   0.844   0.091   6.729  0.9417  2.4457  1.5681
 7152SOL     OW32917   0.351   2.500   3.883  0.3352  0.4393 -0.2288
 7152SOL    HW132918   0.316   2.465   3.801  0.5212  0.4064 -0.2946
 7152SOL    HW232919   0.283   2.562   3.910 -0.7801 -0.5496 -0.7393
 7153SOL     OW32920   3.121   2.866   7.985 -0.2286 -0.7692  0.2132
 7153SOL    HW132921   3.133   2.824   7.900 -0.8276  1.1247 -0.8145
 7153SOL    HW232922   3.046   2.812   8.011 -1.3239  0.2987 -0.7129
 7154SOL     OW32923   4.097   0.053   8.421 -0.3082 -0.0747  0.2804
 7154SOL    HW132924   4.083   0.080   8.512 -3.0579 -0.7637  0.0667
 7154SOL    HW232925   4.110   4.678   8.438  0.9190 -0.1227 -0.8841
 7155SOL     OW32926   0.430   4.279   7.895 -0.0634  0.4133  0.4916
 7155SOL    HW132927   0.487   4.302   7.821  0.7206  0.1464  1.0049
 7155SOL    HW232928   0.410   4.192   7.859 -1.4469  0.7393  0.4784
 7156SOL     OW32929   2.870   0.752  13.366 -0.3137  0.7768 -0.5555
 7156SOL    HW132930   2.859   0.723  13.456 -0.9724 -1.2153 -1.2645
 7156SOL    HW232931   2.801   0.701  13.323 -0.9482 -0.1165  1.5678
 7157SOL     OW32932   2.147   2.199   3.704  0.0254 -0.4848 -0.5096
 7157SOL    HW132933   2.229   2.247   3.690  1.4206 -2.3175  1.2563
 7157SOL    HW232934   2.119   2.247   3.782  2.9602  0.1930  0.1196
 7158SOL     OW32935   1.066   4.620   6.834  0.7349  0.1734 -0.1877
 7158SOL    HW132936   1.151   4.664   6.829  0.5686  0.6951  1.5918
 7158SOL    HW232937   1.018   4.703   6.837  0.8916  0.1193  3.5957
 7159SOL     OW32938   3.832   3.510  13.724 -0.1722  0.3764  0.2566
 7159SOL    HW132939   3.821   3.480  13.814  3.5856 -0.0204  0.5649
 7159SOL    HW232940   3.823   3.603  13.748  1.2544  0.2634  1.2113
 7160SOL     OW32941   2.928   4.320   7.378  0.5552 -0.1828 -0.2245
 7160SOL    HW132942   3.007   4.351   7.335  1.1317  1.1993  1.8095
 7160SOL    HW232943   2.869   4.373   7.324 -1.9434 -1.7799  0.9533
 7161SOL     OW32944   0.343   4.497   8.605 -0.4617 -0.3233  0.0993
 7161SOL    HW132945   0.378   4.517   8.691 -2.5701 -2.2495  1.4049
 7161SOL    HW232946   0.411   4.540   8.553  0.3047 -0.2598  1.1560
 7162SOL     OW32947   3.284   1.509   5.284 -0.8190  0.0687 -0.7291
 7162SOL    HW132948   3.373   1.507   5.319 -0.8153  1.2828 -0.6650
 7162SOL    HW232949   3.291   1.487   5.191  0.8354 -0.9345 -0.3533
 7163SOL     OW32950   3.352   1.696  10.970  0.1053  0.0306  0.6028
 7163SOL    HW132951   3.399   1.684  10.888 -0.2562  1.0613  0.2366
 7163SOL    HW232952   3.327   1.604  10.983 -1.1227  0.3999  0.8791
 7164SOL     OW32953   2.083   4.450   9.692  0.3336  0.2139  0.0701
 7164SOL    HW132954   2.174   4.479   9.696  0.7239 -1.3252  2.4816
 7164SOL    HW232955   2.093   4.368   9.643  1.6437  2.0312 -2.6971
 7165SOL     OW32956   1.738   3.441   3.577 -0.5509  0.8854 -0.3648
 7165SOL    HW132957   1.688   3.506   3.528  1.4237  0.1786 -3.3108
 7165SOL    HW232958   1.704   3.357   3.547 -1.7099  0.8193  1.1115
 7166SOL     OW32959   1.655   4.684   6.528  1.2047  0.6822  0.1389
 7166SOL    HW132960   1.569   4.674   6.486  0.5199 -1.4373  2.0315
 7166SOL    HW232961   1.715   4.650   6.463 -0.4116 -1.3932 -0.2459
 7167SOL     OW32962   0.253   3.801   8.425 -0.0143 -0.1473 -0.1566
 7167SOL    HW132963   0.290   3.856   8.356  0.8710  0.1733  0.5662
 7167SOL    HW232964   0.235   3.864   8.495  1.4470 -0.5829  0.6176
 7168SOL     OW32965   1.580   3.422   6.396  0.2031  0.1533  0.2681
 7168SOL    HW132966   1.620   3.475   6.465 -0.0895 -0.9714  1.2901
 7168SOL    HW232967   1.620   3.455   6.315  1.7359 -0.4984  0.7527
 7169SOL     OW32968   0.709   2.892   6.795 -0.0620 -0.3481  0.1212
 7169SOL    HW132969   0.736   2.979   6.768  0.5084 -0.5472  0.0541
 7169SOL    HW232970   0.799   2.860   6.804 -0.0181 -0.2450  0.0515
 7170SOL     OW32971   4.532   2.643   5.368  0.1880  0.2329 -0.3005
 7170SOL    HW132972   4.464   2.632   5.434 -1.2699 -0.9184 -1.9675
 7170SOL    HW232973   4.520   2.734   5.342 -2.2218  0.7318  2.5750
 7171SOL     OW32974   4.657   0.577   6.841  0.6188 -0.4574 -0.7623
 7171SOL    HW132975   4.594   0.506   6.842 -1.4172  1.4023  1.7149
 7171SOL    HW232976   4.602   0.650   6.812  3.0305  1.1721 -1.2309
 7172SOL     OW32977   3.135   0.425   6.435  0.0510  0.3362 -0.2988
 7172SOL    HW132978   3.149   0.358   6.502 -0.0138 -0.1889 -0.8087
 7172SOL    HW232979   3.216   0.412   6.385  0.0809 -3.5532  0.7498
 7173SOL     OW32980   4.171   2.057   6.897  0.5483 -0.3976  0.3114
 7173SOL    HW132981   4.093   2.005   6.875 -1.5988  2.4187  1.4130
 7173SOL    HW232982   4.155   2.130   6.838 -1.6256 -2.5498 -1.7503
 7174SOL     OW32983   3.329   3.176  13.908  0.0175 -0.3773 -0.0337
 7174SOL    HW132984   3.374   3.261  13.909 -1.2955  0.3262  0.7417
 7174SOL    HW232985   3.273   3.179  13.986 -1.0533 -2.5186 -0.7233
 7175SOL     OW32986   3.503   2.530   8.052 -0.1294 -0.0984 -0.3262
 7175SOL    HW132987   3.420   2.529   8.006  0.5105 -1.0866 -1.4665
 7175SOL    HW232988   3.499   2.441   8.088 -2.1205  0.1202 -0.0188
 7176SOL     OW32989   2.654   4.064   3.671 -0.2835  0.2010  0.1430
 7176SOL    HW132990   2.575   4.028   3.712 -0.6235 -0.7477 -1.3791
 7176SOL    HW232991   2.661   4.147   3.718 -1.8328  0.9832 -0.9970
 7177SOL     OW32992   3.511   1.257  10.552 -0.1959 -0.1318 -0.2429
 7177SOL    HW132993   3.462   1.187  10.509 -0.9150  0.0609  0.2659
 7177SOL    HW232994   3.594   1.215  10.572 -0.3941  0.4612  1.7775
 7178SOL     OW32995   3.889   0.076  15.735 -0.4258 -0.0519  0.0400
 7178SOL    HW132996   3.929   0.142  15.792 -1.5812  2.2138 -1.7735
 7178SOL    HW232997   3.942   0.061  15.657 -2.0115  0.1535 -1.0857
 7179SOL     OW32998   2.446   3.974   7.425  0.1405 -0.2924 -0.0006
 7179SOL    HW132999   2.449   4.001   7.333 -1.6863  0.3047  0.1200
 7179SOL    HW233000   2.540   3.973   7.443  0.2155  1.6181 -0.3360
 7180SOL     OW33001   2.611   1.790   5.982 -0.0630 -0.6840  0.1194
 7180SOL    HW133002   2.571   1.712   6.021 -1.8018  0.0105 -0.2677
 7180SOL    HW233003   2.699   1.765   5.956  0.3600 -2.5106  3.3280
 7181SOL     OW33004   4.550   0.486   6.539 -0.2166  0.3202 -0.0144
 7181SOL    HW133005   4.582   0.397   6.552 -2.0732 -0.3193  0.0461
 7181SOL    HW233006   4.507   0.494   6.624 -0.0331  3.7042 -0.2466
 7182SOL     OW33007   3.894   2.212  10.093 -0.0656  0.5341 -0.1300
 7182SOL    HW133008   3.817   2.199  10.148  0.1160 -0.0564 -0.0088
 7182SOL    HW233009   3.956   2.250  10.155  1.1220  1.4727 -1.9023
 7183SOL     OW33010   2.930   2.158   1.928  0.0890 -0.1321 -0.0141
 7183SOL    HW133011   2.919   2.064   1.911 -0.6814  0.1988 -1.3345
 7183SOL    HW233012   2.945   2.151   2.022  1.3315 -4.3185 -0.4969
 7184SOL     OW33013   3.159   3.648  11.180 -0.3437  0.0729 -0.5913
 7184SOL    HW133014   3.255   3.652  11.190 -0.4153 -2.3450  1.0967
 7184SOL    HW233015   3.139   3.742  11.184 -0.8407  0.0286 -2.3449
 7185SOL     OW33016   3.403   2.289  16.650 -0.2498 -0.4101  0.0137
 7185SOL    HW133017   3.414   2.343  16.572 -2.4610  0.1122  0.0543
 7185SOL    HW233018   3.446   2.210  16.616 -1.9815 -0.4694 -2.0173
 7186SOL     OW33019   1.189   4.400  13.015  0.1902  0.0291  0.2360
 7186SOL    HW133020   1.130   4.331  13.046 -0.0945 -0.1978 -0.8196
 7186SOL    HW233021   1.225   4.347  12.944 -0.4402 -1.9896  1.4318
 7187SOL     OW33022   3.374   4.653   6.152 -0.2363  0.1123 -0.3430
 7187SOL    HW133023   3.433   0.006   6.177  1.1538 -0.8122 -0.9919
 7187SOL    HW233024   3.294   4.703   6.140 -0.8819 -1.2585 -1.7668
 7188SOL     OW33025   0.027   0.388   8.601 -0.0196 -0.1083  0.5077
 7188SOL    HW133026   4.702   0.337   8.669  0.0747 -1.0960 -0.1704
 7188SOL    HW233027   0.000   0.478   8.618 -0.6289  0.1300 -1.6350
 7189SOL     OW33028   1.099   3.624   7.426 -0.0678 -0.1508 -0.1220
 7189SOL    HW133029   1.153   3.701   7.442  3.3473 -2.5156 -0.1925
 7189SOL    HW233030   1.086   3.629   7.331  0.4704 -2.2556 -0.3080
 7190SOL     OW33031   3.909   3.267  13.011 -0.4290 -0.7367 -0.7922
 7190SOL    HW133032   3.985   3.324  12.999  0.3254 -1.3366  1.2192
 7190SOL    HW233033   3.920   3.212  12.934 -2.1068 -1.2032 -0.7068
 7191SOL     OW33034   3.788   1.681  15.926  0.1235 -1.0374 -0.1648
 7191SOL    HW133035   3.708   1.662  15.976  0.9745 -1.0702  1.1803
 7191SOL    HW233036   3.763   1.640  15.843  0.0181 -1.3878  0.0380
 7192SOL     OW33037   3.044   2.221   2.578  0.4383 -0.0893  0.4298
 7192SOL    HW133038   3.011   2.221   2.667 -0.8812 -0.7026 -0.0499
 7192SOL    HW233039   3.136   2.240   2.596  0.5500 -0.5815  0.3894
 7193SOL     OW33040   3.870   2.581   6.405 -0.4892  0.1152  0.7436
 7193SOL    HW133041   3.799   2.533   6.448 -1.2301 -0.5450 -1.2174
 7193SOL    HW233042   3.826   2.589   6.321 -0.7995  1.9997  1.0825
 7194SOL     OW33043   3.426   1.307   7.012 -0.1668  0.3497  0.1619
 7194SOL    HW133044   3.342   1.352   7.002 -0.4966 -0.3702 -0.2924
 7194SOL    HW233045   3.392   1.232   7.061  0.5309 -1.1429 -1.6406
 7195SOL     OW33046   2.270   3.100   2.513 -0.0293  0.3244 -0.2119
 7195SOL    HW133047   2.274   3.077   2.420  0.7444  1.0044 -0.3527
 7195SOL    HW233048   2.340   3.046   2.551 -1.1727 -1.3892 -0.5373
 7196SOL     OW33049   1.419   0.087   2.902 -0.5791  0.0154 -0.5436
 7196SOL    HW133050   1.480   0.128   2.963 -0.9957 -2.4127  1.4979
 7196SOL    HW233051   1.400   0.162   2.846  2.5894  0.3178 -1.2146
 7197SOL     OW33052   3.317   2.261  16.932 -0.5509  0.2864 -0.4177
 7197SOL    HW133053   3.388   2.309  16.976 -1.8426  0.0882  1.8817
 7197SOL    HW233054   3.340   2.273  16.840  3.0294 -0.7130  0.3546
 7198SOL     OW33055   2.539   4.026   7.865 -0.1087 -0.4312 -0.0601
 7198SOL    HW133056   2.462   3.981   7.832  1.5490 -2.8145 -0.6164
 7198SOL    HW233057   2.597   4.018   7.790  1.8578  0.9547  1.3082
 7199SOL     OW33058   3.711   0.558   7.551  0.3231  0.2177  0.5817
 7199SOL    HW133059   3.698   0.542   7.644 -0.1924  3.5409  1.0747
 7199SOL    HW233060   3.659   0.638   7.542  0.9187  0.6334  0.8337
 7200SOL     OW33061   3.366   0.436   0.613 -0.4184  0.3696 -0.2093
 7200SOL    HW133062   3.415   0.364   0.573 -0.1018  0.4964 -0.0492
 7200SOL    HW233063   3.412   0.509   0.571 -1.6581  0.4860 -1.3834
 7201SOL     OW33064   1.863   3.151  11.355  0.1931  0.5511  0.7719
 7201SOL    HW133065   1.800   3.139  11.283 -0.8368  2.1075  1.4252
 7201SOL    HW233066   1.916   3.072  11.344 -0.4032 -0.0618  2.3327
 7202SOL     OW33067   4.322   0.199   1.047  0.6272 -0.2484  0.0235
 7202SOL    HW133068   4.396   0.240   1.092 -0.9482  2.2814  0.3032
 7202SOL    HW233069   4.303   0.130   1.110 -0.4596 -0.7434 -0.8613
 7203SOL     OW33070   2.694   4.464  12.323  0.6027  0.4049 -0.5283
 7203SOL    HW133071   2.750   4.540  12.337  1.7057 -0.4668 -0.2048
 7203SOL    HW233072   2.750   4.400  12.278  0.7458 -0.1643  0.4783
 7204SOL     OW33073   3.929   4.082   7.347  0.2746 -0.6032 -0.6373
 7204SOL    HW133074   3.983   4.133   7.287  1.5911 -2.1452 -0.7568
 7204SOL    HW233075   3.984   4.077   7.426 -0.1801 -0.4512 -0.3109
 7205SOL     OW33076   2.505   0.553  10.701  0.5669  0.0685 -0.5756
 7205SOL    HW133077   2.459   0.569  10.783  1.6342  2.0009 -0.3334
 7205SOL    HW233078   2.546   0.467  10.707 -0.6463 -0.3721  1.1760
 7206SOL     OW33079   1.516   0.751   0.682 -0.6427  0.0502 -0.3491
 7206SOL    HW133080   1.603   0.784   0.661 -0.0833 -0.4324  1.2403
 7206SOL    HW233081   1.485   0.823   0.737 -0.0946  0.9556 -1.2267
 7207SOL     OW33082   0.599   0.831   5.926 -0.3868 -0.1524  0.2272
 7207SOL    HW133083   0.564   0.919   5.918 -1.3636 -0.4127  1.5408
 7207SOL    HW233084   0.689   0.857   5.944  0.7614 -4.3134  0.6757
 7208SOL     OW33085   3.279   0.931   4.604 -0.2824 -0.9541  0.0048
 7208SOL    HW133086   3.245   0.851   4.645  1.4118 -2.0385 -0.7055
 7208SOL    HW233087   3.205   0.989   4.623 -0.3072 -0.3881 -1.8679
 7209SOL     OW33088   2.481   2.569   8.152 -0.0427 -0.4108  0.2193
 7209SOL    HW133089   2.526   2.632   8.209  0.1946 -1.3936  1.1205
 7209SOL    HW233090   2.519   2.486   8.182  2.6317  0.5501 -0.5318
 7210SOL     OW33091   1.019   4.341   4.429  0.1317 -0.3009  0.0722
 7210SOL    HW133092   0.987   4.339   4.520 -2.4826 -0.7471 -0.8476
 7210SOL    HW233093   0.963   4.270   4.398  1.2545 -0.6883 -1.0300
 7211SOL     OW33094   4.316   1.250   8.212 -0.3918  0.5523 -0.1552
 7211SOL    HW133095   4.329   1.187   8.141 -0.4483  0.0639  0.2661
 7211SOL    HW233096   4.401   1.293   8.199 -0.6414  0.5707 -1.7626
 7212SOL     OW33097   3.283   0.800   8.312 -0.1004 -0.0885 -0.4273
 7212SOL    HW133098   3.188   0.795   8.327 -0.0874  1.0693  0.0228
 7212SOL    HW233099   3.308   0.808   8.404 -2.8860 -0.6784  0.3958
 7213SOL     OW33100   4.544   4.483  11.967  0.6976  0.4151 -0.1256
 7213SOL    HW133101   4.562   4.491  12.061 -1.3908  1.6784  0.1506
 7213SOL    HW233102   4.472   4.544  11.953  0.2565 -0.1454 -0.2745
 7214SOL     OW33103   0.203   0.889   8.896 -0.0032  0.2088 -0.1885
 7214SOL    HW133104   0.210   0.890   8.992 -1.0545 -0.5404 -0.0992
 7214SOL    HW233105   0.117   0.931   8.889 -0.2354  0.0166  1.4802
 7215SOL     OW33106   3.346   1.955   4.977  0.3899 -0.4020  0.0527
 7215SOL    HW133107   3.424   1.903   4.999  0.2398 -1.0658 -0.9772
 7215SOL    HW233108   3.355   2.025   5.042 -1.2268  1.1384 -1.4018
 7216SOL     OW33109   0.701   3.764   8.088  0.4235 -0.2969  0.7058
 7216SOL    HW133110   0.793   3.738   8.099 -0.0846 -3.0564 -1.6111
 7216SOL    HW233111   0.710   3.856   8.115 -1.4068  0.0513  0.1298
 7217SOL     OW33112   3.195   0.312  15.960  0.4675  0.1351 -0.4602
 7217SOL    HW133113   3.136   0.238  15.976 -0.9326  1.2941 -0.2498
 7217SOL    HW233114   3.281   0.272  15.944  0.4858 -1.1350  2.6797
 7218SOL     OW33115   0.181   0.458  10.661  0.2299  0.5826 -0.2335
 7218SOL    HW133116   0.277   0.459  10.659  0.2935  0.3224  2.5440
 7218SOL    HW233117   0.160   0.513  10.585 -1.3114 -0.3604 -0.4863
 7219SOL     OW33118   3.849   0.405   8.534  0.3833 -0.2353 -0.1199
 7219SOL    HW133119   3.846   0.443   8.622  1.9048  1.4414 -0.7928
 7219SOL    HW233120   3.802   0.470   8.482  0.5185 -0.1860 -0.1805
 7220SOL     OW33121   1.401   3.756  10.501 -0.3998 -0.2276  0.2487
 7220SOL    HW133122   1.402   3.792  10.590  0.6865 -2.0502  0.9668
 7220SOL    HW233123   1.474   3.810  10.470 -0.5456 -0.6314 -0.8159
 7221SOL     OW33124   0.582   1.784   5.438 -0.0390 -0.1865 -0.2703
 7221SOL    HW133125   0.527   1.779   5.516 -0.6840  3.3714 -0.4790
 7221SOL    HW233126   0.661   1.832   5.463 -0.0346 -0.6835  0.6663
 7222SOL     OW33127   2.719   1.155   1.025  0.0443 -0.2282  0.4848
 7222SOL    HW133128   2.707   1.109   0.941  0.9918 -0.3487  0.4150
 7222SOL    HW233129   2.743   1.084   1.085  0.0883 -0.2848  0.4004
 7223SOL     OW33130   2.291   4.419   3.152  0.4868  0.0329 -0.3161
 7223SOL    HW133131   2.244   4.413   3.235  2.3247  0.5425  0.7690
 7223SOL    HW233132   2.308   4.513   3.144  3.0401 -0.0187  4.2935
 7224SOL     OW33133   0.119   3.013  10.615 -0.0972 -0.1485  0.2980
 7224SOL    HW133134   0.156   2.981  10.532 -0.4055 -1.0857  0.5247
 7224SOL    HW233135   0.115   3.106  10.594  0.1912 -0.4456 -1.0758
 7225SOL     OW33136   3.541   0.243   5.121  0.5881 -0.5951 -0.3767
 7225SOL    HW133137   3.536   0.256   5.216 -1.2493  0.8339 -0.6710
 7225SOL    HW233138   3.627   0.275   5.095  1.1692 -2.2035 -0.4650
 7226SOL     OW33139   1.457   3.638   0.997  0.1824 -0.2318  0.1994
 7226SOL    HW133140   1.389   3.701   0.974  0.1304 -0.6522 -0.8019
 7226SOL    HW233141   1.412   3.555   0.982  2.2369 -1.3525  0.3274
 7227SOL     OW33142   0.196   1.273   8.973 -0.1967  0.7116 -0.2884
 7227SOL    HW133143   0.233   1.267   9.061 -0.8170 -2.2560 -0.2447
 7227SOL    HW233144   0.253   1.346   8.947  1.2523 -0.2296  0.2028
 7228SOL     OW33145   0.683   2.369  10.803 -0.3297 -0.0056 -0.0118
 7228SOL    HW133146   0.666   2.461  10.825 -0.4155  0.1233 -0.6109
 7228SOL    HW233147   0.719   2.386  10.716  1.4262 -2.1448  0.2969
 7229SOL     OW33148   1.687   4.055   3.196  0.3416  0.2889 -0.3141
 7229SOL    HW133149   1.602   4.053   3.153  1.5259 -0.8669 -2.6068
 7229SOL    HW233150   1.681   3.984   3.260  0.7238 -0.9972 -1.6869
 7230SOL     OW33151   4.477   0.597   0.038  0.1531  0.0129  0.0979
 7230SOL    HW133152   4.554   0.584   0.093 -0.7589 -0.4897  1.2502
 7230SOL    HW233153   4.466   0.510  17.675  5.3739 -0.1134 -0.9810
 7231SOL     OW33154   0.615   4.443   5.457 -0.3189  0.3865 -0.5875
 7231SOL    HW133155   0.680   4.465   5.391 -1.3581 -0.2163 -1.8093
 7231SOL    HW233156   0.563   4.524   5.454 -2.5467 -1.0020  0.4552
 7232SOL     OW33157   0.604   3.924  11.634 -0.5569 -0.6525 -0.2768
 7232SOL    HW133158   0.634   3.939  11.544  0.1065 -0.1726  0.0249
 7232SOL    HW233159   0.512   3.899  11.621 -1.3697  1.9734  0.5233
 7233SOL     OW33160   3.695   2.659  12.810  1.3253 -0.1178  0.3170
 7233SOL    HW133161   3.695   2.566  12.832 -1.8347 -0.0937  0.4387
 7233SOL    HW233162   3.646   2.648  12.728 -0.7218 -2.1319  1.7947
 7234SOL     OW33163   2.993   1.421   8.685 -0.2850  0.2779 -0.0863
 7234SOL    HW133164   2.928   1.354   8.665  1.4272 -1.4418  0.1030
 7234SOL    HW233165   3.000   1.447   8.777 -1.9727 -0.3895  0.2203
 7235SOL     OW33166   2.219   1.950   0.450  0.4592  0.1681 -0.3554
 7235SOL    HW133167   2.230   2.014   0.520  1.8190  0.3138 -0.7091
 7235SOL    HW233168   2.240   1.868   0.496 -0.0942  0.1985 -0.0420
 7236SOL     OW33169   4.659   3.943  11.687  0.1924 -0.3549 -0.2694
 7236SOL    HW133170   4.598   3.997  11.737 -0.1487 -0.7166 -0.2870
 7236SOL    HW233171   4.664   3.992  11.606 -0.9099  0.0544 -0.0898
 7237SOL     OW33172   3.301   1.796   2.524 -0.5999  0.3735  0.0791
 7237SOL    HW133173   3.350   1.714   2.516 -0.0833  0.6669  0.2009
 7237SOL    HW233174   3.316   1.823   2.615  1.3784 -0.1581 -0.0906
 7238SOL     OW33175   3.159   3.832   1.804 -0.1625 -0.1769  0.3073
 7238SOL    HW133176   3.230   3.870   1.753 -0.6877 -1.3003 -1.2373
 7238SOL    HW233177   3.107   3.911   1.793 -0.7888 -0.6897 -0.4057
 7239SOL     OW33178   3.919   2.895   7.470 -0.2083  0.4234 -0.7138
 7239SOL    HW133179   3.861   2.962   7.507  1.7115  1.3799  0.5459
 7239SOL    HW233180   3.869   2.869   7.393  0.2538  1.3967 -1.3381
 7240SOL     OW33181   4.138   3.059   7.159  0.0841 -0.2228 -0.0088
 7240SOL    HW133182   4.233   3.047   7.160 -0.0674 -1.3968  0.3971
 7240SOL    HW233183   4.121   3.041   7.066 -0.3897  0.5508 -0.0719
 7241SOL     OW33184   0.358   2.271   1.538  0.4949 -0.1413 -0.4335
 7241SOL    HW133185   0.346   2.324   1.617  0.3457 -1.4934  0.4486
 7241SOL    HW233186   0.285   2.305   1.486  0.9363  0.2162 -0.8170
 7242SOL     OW33187   0.766   1.408   8.114 -0.3055  0.5768 -0.1220
 7242SOL    HW133188   0.682   1.364   8.102  0.1103 -0.0903 -0.5790
 7242SOL    HW233189   0.795   1.364   8.194  1.4442 -0.2559 -1.2237
 7243SOL     OW33190   2.809   1.646   8.682 -0.0214  0.3951  0.3238
 7243SOL    HW133191   2.875   1.716   8.680 -2.8528  3.0392  0.3720
 7243SOL    HW233192   2.844   1.573   8.732 -3.4854 -1.0854  0.5748
 7244SOL     OW33193   2.508   2.562  14.773  0.0016 -0.5364  0.2249
 7244SOL    HW133194   2.453   2.572  14.695 -0.8828 -1.0977  0.7841
 7244SOL    HW233195   2.483   2.474  14.800 -0.0456 -0.5365  0.1798
 7245SOL     OW33196   3.324   3.765   6.273  0.2628 -0.4714  0.6422
 7245SOL    HW133197   3.234   3.779   6.244  0.9568  0.0805 -1.2438
 7245SOL    HW233198   3.368   3.850   6.279 -0.9195  0.3533 -2.2447
 7246SOL     OW33199   2.225   1.925  17.039  0.1142  0.4770 -0.2016
 7246SOL    HW133200   2.318   1.903  17.044 -0.6449 -2.3008  1.3108
 7246SOL    HW233201   2.234   1.983  17.115 -1.7223  1.8757 -1.0381
 7247SOL     OW33202   1.974   1.910  12.932  0.4706  0.0352  0.2505
 7247SOL    HW133203   2.068   1.905  12.950  0.9288  1.1507 -1.8536
 7247SOL    HW233204   1.973   1.973  12.860 -0.0142 -1.6196 -1.1769
 7248SOL     OW33205   4.322   0.730   5.953 -0.2124  0.6039  0.3683
 7248SOL    HW133206   4.401   0.753   5.904 -0.7784  0.2333 -0.7155
 7248SOL    HW233207   4.344   0.638   5.969  1.2718  0.8667 -0.1006
 7249SOL     OW33208   3.403   3.381   5.311 -0.3665 -0.0128  1.0436
 7249SOL    HW133209   3.406   3.373   5.216  1.4952 -2.6180  1.3453
 7249SOL    HW233210   3.334   3.447   5.323  1.4589  1.9608  0.6264
 7250SOL     OW33211   0.995   4.494  14.163  0.0867 -0.1925 -0.0038
 7250SOL    HW133212   1.083   4.511  14.130 -0.5600  1.6091 -0.7810
 7250SOL    HW233213   0.948   4.557  14.108  1.2680  0.9743  0.3416
 7251SOL     OW33214   1.337   2.622  14.207  0.2494  0.1240  0.3431
 7251SOL    HW133215   1.426   2.656  14.198  1.6845 -3.1320  2.4931
 7251SOL    HW233216   1.285   2.698  14.179 -2.2003 -1.6110  0.2203
 7252SOL     OW33217   0.487   0.595  13.530  0.0645 -0.0209  0.1364
 7252SOL    HW133218   0.575   0.623  13.556 -0.2448 -0.2637  1.4656
 7252SOL    HW233219   0.461   0.553  13.612 -1.1199 -0.5671 -0.5156
 7253SOL     OW33220   1.392   3.889   5.648  0.3564  0.9097 -0.3943
 7253SOL    HW133221   1.351   3.818   5.599 -0.9370  1.4393 -0.0748
 7253SOL    HW233222   1.360   3.880   5.737  0.6356 -1.6846 -0.5748
 7254SOL     OW33223   2.152   1.553   5.896 -0.4472  0.0233 -0.0437
 7254SOL    HW133224   2.106   1.473   5.871  0.9126 -0.6729 -0.3677
 7254SOL    HW233225   2.119   1.575   5.983 -1.8166  0.2759 -0.6434
 7255SOL     OW33226   3.311   2.406   5.460  0.0433  0.2103 -0.1730
 7255SOL    HW133227   3.281   2.497   5.454  1.7497  0.6790 -1.6706
 7255SOL    HW233228   3.227   2.364   5.442  0.4432 -0.9872  0.8390
 7256SOL     OW33229   4.546   1.758   9.283 -0.2365  0.4415  0.2239
 7256SOL    HW133230   4.473   1.701   9.310 -0.0422  1.6349  3.2788
 7256SOL    HW233231   4.506   1.843   9.268  0.0817  0.6641  0.6308
 7257SOL     OW33232   1.711   2.017   8.788 -0.9899  0.2134 -0.3424
 7257SOL    HW133233   1.750   1.997   8.702  0.7006  1.9525  0.0291
 7257SOL    HW233234   1.644   2.082   8.769 -1.0180 -0.1758 -1.5865
 7258SOL     OW33235   0.507   4.376   7.586 -0.2600 -0.3351  0.2941
 7258SOL    HW133236   0.589   4.382   7.635 -0.6306  0.5269  0.8159
 7258SOL    HW233237   0.538   4.426   7.511 -2.2636  1.5272  0.7034
 7259SOL     OW33238   1.365   3.081  14.234  0.2429  0.4017  0.6832
 7259SOL    HW133239   1.372   3.024  14.310  0.1923 -1.8354 -0.9957
 7259SOL    HW233240   1.279   3.069  14.193 -0.0176 -0.5225  1.5026
 7260SOL     OW33241   3.029   0.499   7.986  0.1028 -0.9229 -0.2690
 7260SOL    HW133242   3.083   0.427   7.952  1.2070  0.8686 -2.3288
 7260SOL    HW233243   3.089   0.559   8.030 -0.9337 -0.0764 -0.0146
 7261SOL     OW33244   3.486   0.767  14.931 -0.1808 -0.1892  0.4886
 7261SOL    HW133245   3.396   0.762  14.901  0.1377 -0.9529 -0.3546
 7261SOL    HW233246   3.531   0.791  14.850 -0.6000  2.9570  1.1839
 7262SOL     OW33247   2.105   4.574   5.783 -0.0236  0.0050 -0.1179
 7262SOL    HW133248   2.135   4.489   5.752 -1.8485 -0.2832 -1.0512
 7262SOL    HW233249   2.141   4.573   5.872 -2.3620  1.1927  0.8512
 7263SOL     OW33250   0.744   2.018   5.550  0.1332  0.3776 -0.2664
 7263SOL    HW133251   0.683   2.038   5.621  1.9822 -0.0611  1.4488
 7263SOL    HW233252   0.778   2.105   5.531 -1.1751  0.7026 -1.1309
 7264SOL     OW33253   1.918   4.202   9.133  0.4561 -0.1611  0.6168
 7264SOL    HW133254   2.012   4.192   9.118  0.0135 -1.8555 -1.0362
 7264SOL    HW233255   1.900   4.276   9.075 -4.5685 -1.9808 -0.1001
 7265SOL     OW33256   3.791   2.352   2.588 -0.4875 -0.0682 -0.1940
 7265SOL    HW133257   3.752   2.414   2.649  1.4226 -0.7074  1.7122
 7265SOL    HW233258   3.855   2.328   2.655  1.4445 -1.5582 -2.5638
 7266SOL     OW33259   3.569   2.441   6.725  0.5368 -0.0470 -0.0609
 7266SOL    HW133260   3.614   2.444   6.640  0.4807  0.8963 -0.0567
 7266SOL    HW233261   3.625   2.494   6.782  1.1018  0.1607 -0.8083
 7267SOL     OW33262   0.939   2.430   2.868  0.0002  0.5365  0.0920
 7267SOL    HW133263   1.004   2.459   2.803  2.3252  0.9954  2.6032
 7267SOL    HW233264   0.978   2.343   2.864 -2.0997 -0.3510 -1.0013
 7268SOL     OW33265   4.528   1.120  14.864 -0.3010  0.0935  0.0082
 7268SOL    HW133266   4.596   1.124  14.930  0.8451 -3.2457 -0.9743
 7268SOL    HW233267   4.475   1.047  14.896 -1.6518  0.8796 -0.4117
 7269SOL     OW33268   3.747   2.012   9.915 -0.3155 -1.1253 -0.3304
 7269SOL    HW133269   3.731   1.990  10.006  2.0469  2.1976  0.8837
 7269SOL    HW233270   3.676   2.072   9.893  1.0711  0.4035 -0.6843
 7270SOL     OW33271   4.309   4.523   6.901  0.2218  0.3230  0.0216
 7270SOL    HW133272   4.316   4.527   6.996  0.8903  1.8583 -0.1026
 7270SOL    HW233273   4.337   4.609   6.870  1.9368  0.3022  1.5233
 7271SOL     OW33274   4.708   0.220   5.851 -0.2614  0.2194  0.3630
 7271SOL    HW133275   0.004   0.270   5.931  0.9288  0.7364 -0.1819
 7271SOL    HW233276   4.620   0.254   5.834 -0.7481 -1.1723  0.0605
 7272SOL     OW33277   1.425   2.765  13.339 -0.1714 -0.0770 -0.8018
 7272SOL    HW133278   1.390   2.797  13.256  0.1719  0.6942 -0.6468
 7272SOL    HW233279   1.344   2.766  13.390  1.7011  2.4086  2.1053
 7273SOL     OW33280   1.490   3.103   6.575  0.2711 -0.3691 -0.0084
 7273SOL    HW133281   1.548   3.061   6.638  2.5154 -0.4980 -2.1619
 7273SOL    HW233282   1.532   3.076   6.493  0.5140 -0.0090 -0.0030
 7274SOL     OW33283   0.397   3.238  12.061  0.4180 -0.0494 -0.3522
 7274SOL    HW133284   0.484   3.206  12.038  0.3961  0.5496 -1.2745
 7274SOL    HW233285   0.383   3.215  12.153  0.2819  0.7438 -0.1714
 7275SOL     OW33286   1.222   2.266   9.039 -0.9754  0.1700  0.4868
 7275SOL    HW133287   1.157   2.206   9.002 -0.9614  0.5182 -0.1036
 7275SOL    HW233288   1.247   2.206   9.109 -0.6810 -1.3031 -0.8476
 7276SOL     OW33289   3.152   2.644   8.591 -0.3811  0.3182 -0.3464
 7276SOL    HW133290   3.071   2.677   8.630  0.4942  1.4656  0.4788
 7276SOL    HW233291   3.219   2.694   8.637  0.2728 -1.8296  1.0117
 7277SOL     OW33292   2.056   2.255   3.072  0.2798  0.1181  0.3568
 7277SOL    HW133293   1.962   2.243   3.067  0.0669  1.6870  0.7225
 7277SOL    HW233294   2.043   2.329   3.130 -0.1915  1.0980 -1.0092
 7278SOL     OW33295   0.007   2.923   8.972 -0.3086  0.2451 -0.8492
 7278SOL    HW133296   4.689   2.927   9.060 -2.3813 -2.2014 -1.6076
 7278SOL    HW233297   0.086   2.874   8.995  0.5783  1.4428 -1.3458
 7279SOL     OW33298   2.804   0.015   6.314 -0.2931 -0.0212  0.3441
 7279SOL    HW133299   2.839   4.668   6.374  1.7114 -2.1294 -3.1268
 7279SOL    HW233300   2.712   0.007   6.336  0.1096 -0.6103  1.7750
 7280SOL     OW33301   4.116   1.716   8.767  0.7189 -0.3880 -0.8223
 7280SOL    HW133302   4.184   1.732   8.702  0.0875  1.4816 -1.0363
 7280SOL    HW233303   4.062   1.652   8.720 -3.1461  0.1338  2.9035
 7281SOL     OW33304   3.522   1.872   2.680 -0.2924  0.4446  0.1839
 7281SOL    HW133305   3.591   1.932   2.708  0.6105  0.9445 -3.0409
 7281SOL    HW233306   3.551   1.854   2.591 -0.0760  0.0149  0.3422
 7282SOL     OW33307   0.789   2.654   3.309  0.1026  0.3976 -0.4573
 7282SOL    HW133308   0.846   2.585   3.276 -1.5403 -0.9346 -0.5338
 7282SOL    HW233309   0.706   2.623   3.272 -0.1555 -0.6559  1.0060
 7283SOL     OW33310   3.275   4.518   3.125  0.1256 -0.5251 -0.7708
 7283SOL    HW133311   3.181   4.502   3.115 -0.0677 -0.7230  1.2170
 7283SOL    HW233312   3.291   4.607   3.093  0.6741 -1.3635 -2.7863
 7284SOL     OW33313   1.519   4.510   3.041  0.5558  0.6458  0.0713
 7284SOL    HW133314   1.564   4.551   3.115  0.6519 -0.6759  0.7558
 7284SOL    HW233315   1.502   4.586   2.986 -0.1142 -1.6841 -2.9339
 7285SOL     OW33316   0.548   0.428   1.676  0.3181  0.5458 -0.1692
 7285SOL    HW133317   0.636   0.391   1.671 -0.9570 -2.7956  2.2764
 7285SOL    HW233318   0.555   0.519   1.646 -3.5718  1.4740  1.6899
 7286SOL     OW33319   2.917   1.571  13.922  0.1176  0.2601  0.2038
 7286SOL    HW133320   2.879   1.556  13.836 -0.2715 -0.6308  0.5390
 7286SOL    HW233321   2.859   1.642  13.949 -0.5053 -0.2570  0.2166
 7287SOL     OW33322   1.005   2.049  13.098  0.0801 -0.5992  0.3166
 7287SOL    HW133323   1.099   2.047  13.082 -0.0469 -0.2382 -0.4884
 7287SOL    HW233324   0.982   2.074  13.008  1.0292  1.0547  0.5338
 7288SOL     OW33325   4.061   1.187   3.395  0.2203 -0.2198 -0.3435
 7288SOL    HW133326   3.966   1.177   3.383  0.0400 -1.0147  1.8279
 7288SOL    HW233327   4.101   1.173   3.309 -0.8537 -1.1222 -0.6930
 7289SOL     OW33328   1.550   4.539   8.482  0.2650  0.5031 -0.9611
 7289SOL    HW133329   1.499   4.551   8.401 -1.2956  2.6076  0.3316
 7289SOL    HW233330   1.604   4.465   8.454 -0.4521  0.3897 -2.0350
 7290SOL     OW33331   1.751   1.067  12.149 -0.2802 -0.6517  0.3407
 7290SOL    HW133332   1.764   1.026  12.064 -0.9621  0.5722 -0.3488
 7290SOL    HW233333   1.708   1.141  12.106  0.1621 -1.1158 -0.9032
 7291SOL     OW33334   3.619   1.845   1.834  0.3540 -0.0793  0.4004
 7291SOL    HW133335   3.604   1.767   1.780 -0.3205  0.1089  0.3183
 7291SOL    HW233336   3.709   1.833   1.865  0.4126  0.5887  0.4859
 7292SOL     OW33337   0.472   2.770  15.146 -0.4927 -0.7359 -0.0701
 7292SOL    HW133338   0.496   2.715  15.071  0.7001 -0.9387  0.4535
 7292SOL    HW233339   0.380   2.747  15.155 -0.6265 -0.2894 -0.3184
 7293SOL     OW33340   1.649   3.748   8.650  0.3723 -0.5897 -0.2140
 7293SOL    HW133341   1.743   3.743   8.667  0.5357  0.5508 -0.7534
 7293SOL    HW233342   1.609   3.721   8.733  1.7641 -1.4221  0.1753
 7294SOL     OW33343   2.603   2.435   4.100  0.3969 -0.2530  0.5259
 7294SOL    HW133344   2.666   2.471   4.037  0.7472 -0.2038  0.9052
 7294SOL    HW233345   2.628   2.492   4.173 -1.4148  0.6564  0.4423
 7295SOL     OW33346   3.695   0.434   4.251 -0.0468  0.4309 -0.3219
 7295SOL    HW133347   3.684   0.408   4.160 -2.9078 -0.4230  0.2536
 7295SOL    HW233348   3.691   0.530   4.251  0.1162  0.4359  0.0772
 7296SOL     OW33349   1.870   1.086  11.237  0.5331  0.1806  0.5949
 7296SOL    HW133350   1.779   1.095  11.263  0.1992  0.9964 -0.8882
 7296SOL    HW233351   1.861   1.099  11.143  0.2565  2.9333  1.0114
 7297SOL     OW33352   2.486   1.982   4.216 -0.3385 -0.1030  0.0240
 7297SOL    HW133353   2.444   1.945   4.139  1.5792 -1.8752 -0.1660
 7297SOL    HW233354   2.550   2.049   4.189 -2.2840  1.5862 -0.4035
 7298SOL     OW33355   1.118   0.207   4.821 -0.1026  0.6030  0.8122
 7298SOL    HW133356   1.064   0.255   4.758 -1.5264  1.1301  2.4340
 7298SOL    HW233357   1.195   0.264   4.826  1.3066 -1.1068 -1.5310
 7299SOL     OW33358   1.380   3.292   0.018  0.2878 -0.3516  0.6490
 7299SOL    HW133359   1.464   3.334   0.001  0.9766 -2.3542 -0.9046
 7299SOL    HW233360   1.388   3.216  17.637  1.4362  1.1644 -1.2101
 7300SOL     OW33361   1.533   0.914   6.686 -0.2696  1.0041 -0.1134
 7300SOL    HW133362   1.587   0.974   6.635  0.3300  1.9484  1.6816
 7300SOL    HW233363   1.457   0.903   6.629  1.8149 -0.1993 -2.7219
 7301SOL     OW33364   0.496   2.282   3.389 -0.4827  0.1813  0.1205
 7301SOL    HW133365   0.432   2.213   3.373  0.2987 -0.4833 -0.1789
 7301SOL    HW233366   0.493   2.295   3.483  3.7634 -1.1451  0.4371
 7302SOL     OW33367   1.600   0.914   6.037  0.0718  0.0217 -0.0621
 7302SOL    HW133368   1.615   0.911   5.942 -2.1965  1.1289 -0.4513
 7302SOL    HW233369   1.684   0.873   6.060 -0.2212  0.1893  1.3126
 7303SOL     OW33370   2.055   4.691  15.614  0.6360  0.1207  0.2234
 7303SOL    HW133371   2.005   4.616  15.644  0.0898  0.6742  0.7015
 7303SOL    HW233372   2.130   4.650  15.571 -0.3667 -2.7513  1.2061
 7304SOL     OW33373   2.831   1.062  15.712 -0.0174 -0.1130 -0.6794
 7304SOL    HW133374   2.849   1.040  15.621 -0.3621  1.2030 -1.0631
 7304SOL    HW233375   2.780   1.143  15.703 -0.2479  0.0484  2.0475
 7305SOL     OW33376   2.966   1.391   1.393  0.3127 -0.1805 -0.2578
 7305SOL    HW133377   2.955   1.299   1.372 -0.4565  0.2590 -1.8763
 7305SOL    HW233378   2.902   1.423   1.328  1.8153  3.4368  0.0603
 7306SOL     OW33379   0.658   4.054  11.332  0.1895 -0.9577  0.1250
 7306SOL    HW133380   0.568   4.048  11.298 -0.1131 -1.1611  0.9725
 7306SOL    HW233381   0.699   3.974  11.301  0.8985 -0.3351 -0.5509
 7307SOL     OW33382   3.880   1.331   4.744 -0.5435  0.2574 -0.2416
 7307SOL    HW133383   3.967   1.371   4.748 -2.2406  3.7555  2.2055
 7307SOL    HW233384   3.867   1.272   4.819 -0.7041 -1.0898 -1.3264
 7308SOL     OW33385   4.655   2.061   3.399 -0.3217 -0.0939 -0.4060
 7308SOL    HW133386   4.652   2.100   3.312  1.8836 -3.0837 -1.8253
 7308SOL    HW233387   4.676   1.973   3.366 -0.3403 -0.6587  1.1133
 7309SOL     OW33388   1.074   4.521   2.576  0.2436  0.2017  0.0652
 7309SOL    HW133389   1.111   4.604   2.605 -0.4818  0.3430  0.5908
 7309SOL    HW233390   1.034   4.559   2.498  0.2247  0.4116  0.1786
 7310SOL     OW33391   0.456   4.120   3.946  0.1818  0.1950  0.3421
 7310SOL    HW133392   0.394   4.053   3.976 -1.3774  1.2121 -0.6470
 7310SOL    HW233393   0.532   4.102   4.001 -0.6665 -4.6884 -0.0766
 7311SOL     OW33394   2.976   1.223   4.458  0.4394 -0.1201 -0.1870
 7311SOL    HW133395   2.988   1.260   4.370 -2.6582  0.0198 -0.5799
 7311SOL    HW233396   2.912   1.155   4.435  0.6520 -1.0522  2.0438
 7312SOL     OW33397   0.091   0.077   0.134 -0.7155  0.4318  0.2917
 7312SOL    HW133398   0.012   0.130   0.129 -0.6348  0.8671  3.6227
 7312SOL    HW233399   0.068   0.016   0.064  2.3878 -0.0789 -0.2675
 7313SOL     OW33400   2.305   1.182  16.721  0.4896  0.1432  0.2096
 7313SOL    HW133401   2.302   1.264  16.672  0.6368  0.5075  0.7988
 7313SOL    HW233402   2.237   1.196  16.788  0.1633 -0.8215  0.0795
 7314SOL     OW33403   4.453   4.082   5.517 -0.3817 -0.0301  0.2084
 7314SOL    HW133404   4.383   4.140   5.488 -0.7012 -0.0380  0.9559
 7314SOL    HW233405   4.521   4.102   5.453  0.4604 -0.7127  0.8812
 7315SOL     OW33406   1.954   0.561  14.825 -0.4048 -0.5015 -0.0543
 7315SOL    HW133407   1.868   0.528  14.798 -0.4738  0.8894 -1.5266
 7315SOL    HW233408   2.013   0.510  14.770  0.1797  2.0072 -1.7302
 7316SOL     OW33409   2.770   4.636   9.425 -0.3876  0.3261 -0.3779
 7316SOL    HW133410   2.691   4.621   9.375  0.2750  0.9436 -1.6022
 7316SOL    HW233411   2.768   4.557   9.480  0.2844 -0.4206 -1.4166
 7317SOL     OW33412   3.960   3.275   7.747  0.0533 -0.3616  0.5280
 7317SOL    HW133413   3.922   3.240   7.666  1.1041  1.2419 -0.6581
 7317SOL    HW233414   3.992   3.188   7.771  1.7748  0.3144  0.6898
 7318SOL     OW33415   4.656   1.508  12.060  0.2075  0.0269 -0.0113
 7318SOL    HW133416   0.010   1.448  12.043  1.2136  1.6416 -1.4070
 7318SOL    HW233417   4.688   1.560  12.134 -1.1207  0.4363  0.2822
 7319SOL     OW33418   0.190   4.368   2.574  0.1045 -0.1436  0.0311
 7319SOL    HW133419   0.143   4.302   2.625 -0.1709  1.2116  1.5283
 7319SOL    HW233420   0.269   4.367   2.629 -0.6778 -1.9235  1.1337
 7320SOL     OW33421   1.568   3.880   6.146  0.5458  0.4706  0.0941
 7320SOL    HW133422   1.573   3.951   6.081  0.2234 -1.0410 -1.5704
 7320SOL    HW233423   1.475   3.880   6.172  0.7314 -1.8788  0.7487
 7321SOL     OW33424   0.384   2.873   6.434  0.0616 -0.8110  0.3172
 7321SOL    HW133425   0.466   2.898   6.391 -0.1780 -1.2481 -0.4002
 7321SOL    HW233426   0.421   2.843   6.517 -1.1787 -1.2755  0.7018
 7322SOL     OW33427   0.967   3.958  10.114  0.7477  0.3148 -0.6370
 7322SOL    HW133428   1.023   3.883  10.136 -0.0795 -0.4825 -1.3066
 7322SOL    HW233429   0.931   3.991  10.197 -0.2489 -2.2978 -0.0479
 7323SOL     OW33430   0.563   1.159   9.579  0.0461  0.0662  0.5786
 7323SOL    HW133431   0.607   1.160   9.664  3.1276 -0.0045 -1.0108
 7323SOL    HW233432   0.623   1.096   9.540 -2.1383  0.9728 -4.2161
 7324SOL     OW33433   0.825   1.278   5.788 -0.4405  0.2589  0.1961
 7324SOL    HW133434   0.784   1.233   5.714  2.0044  0.0018 -1.0041
 7324SOL    HW233435   0.784   1.364   5.776 -2.3791 -1.0154 -2.5400
 7325SOL     OW33436   0.828   0.291   8.018  0.7714 -0.1970  0.6106
 7325SOL    HW133437   0.837   0.246   7.933 -1.6050  0.5335 -0.0464
 7325SOL    HW233438   0.776   0.230   8.070 -0.4656  0.1492 -0.2223
 7326SOL     OW33439   2.750   2.234   3.647  0.0438  0.0771 -0.1834
 7326SOL    HW133440   2.756   2.155   3.592  0.2533  0.3155 -0.5040
 7326SOL    HW233441   2.674   2.221   3.702  0.0762  1.0582  0.0981
 7327SOL     OW33442   4.016   3.799   1.244 -0.2681  0.3426  0.1385
 7327SOL    HW133443   3.979   3.767   1.162 -2.2886  2.9207  0.0259
 7327SOL    HW233444   4.039   3.886   1.210 -0.9870  0.8224  0.8790
 7328SOL     OW33445   0.247   0.980   6.883 -0.6397 -0.0012 -0.2195
 7328SOL    HW133446   0.309   0.909   6.897  1.6334  2.0473  0.2924
 7328SOL    HW233447   0.161   0.942   6.867  0.1626 -1.8255 -0.1873
 7329SOL     OW33448   0.801   2.919   5.898 -0.0076 -0.4849  0.4067
 7329SOL    HW133449   0.875   2.971   5.930 -0.8848  0.1396  1.4415
 7329SOL    HW233450   0.827   2.903   5.807  4.4174  4.5725  0.7879
 7330SOL     OW33451   2.095   0.409   4.093  0.2334 -0.3184  0.0037
 7330SOL    HW133452   2.009   0.385   4.127  1.2479 -2.9827  0.6731
 7330SOL    HW233453   2.146   0.448   4.164 -1.3243  0.3130  0.7718
 7331SOL     OW33454   0.734   2.830   4.404  0.5600 -0.5621 -0.4779
 7331SOL    HW133455   0.742   2.869   4.316 -0.0405  0.6932  0.0102
 7331SOL    HW233456   0.664   2.888   4.434 -0.1895 -1.2771 -0.8356
 7332SOL     OW33457   2.206   3.697  10.891  0.0421  0.2991  0.5462
 7332SOL    HW133458   2.146   3.680  10.819  0.5666  1.4702 -0.1715
 7332SOL    HW233459   2.149   3.712  10.966 -1.5818 -1.0479 -0.4165
 7333SOL     OW33460   3.230   3.816   5.906  0.6197 -0.1859 -0.7184
 7333SOL    HW133461   3.188   3.900   5.920  0.1025 -0.8195  1.5868
 7333SOL    HW233462   3.165   3.761   5.863 -1.0358 -0.5219  2.2362
 7334SOL     OW33463   2.697   3.296   3.716  0.0391  0.4167 -0.1899
 7334SOL    HW133464   2.674   3.226   3.776  0.1959  0.3913 -0.1588
 7334SOL    HW233465   2.618   3.317   3.667 -0.9834 -0.1235  1.2219
 7335SOL     OW33466   0.782   2.948   2.744 -0.4413 -0.1222 -0.0024
 7335SOL    HW133467   0.826   2.862   2.751  1.4904  0.8007 -0.7105
 7335SOL    HW233468   0.767   2.950   2.649 -0.7614  1.5498  0.0934
 7336SOL     OW33469   3.837   2.239   7.402  0.4447  0.7948  0.2214
 7336SOL    HW133470   3.859   2.157   7.358 -0.1060 -0.1055  1.6302
 7336SOL    HW233471   3.782   2.273   7.331 -1.7273 -0.4415  1.3012
 7337SOL     OW33472   1.256   0.824   0.446 -0.1094  0.3827  0.5506
 7337SOL    HW133473   1.263   0.815   0.351 -2.5945  1.7757  0.2656
 7337SOL    HW233474   1.346   0.822   0.480  0.5610 -0.8635 -1.2857
 7338SOL     OW33475   0.949   3.851   9.363  0.2338 -0.0199 -0.2478
 7338SOL    HW133476   0.922   3.764   9.334  1.3119 -0.3755 -0.1837
 7338SOL    HW233477   0.872   3.887   9.407 -0.3847 -1.8211  0.1449
 7339SOL     OW33478   2.913   2.802   2.837 -0.1747 -0.2115  0.0558
 7339SOL    HW133479   2.912   2.815   2.932  0.3341 -1.8770  0.2793
 7339SOL    HW233480   2.960   2.882   2.813  1.4684 -0.5888  2.0855
 7340SOL     OW33481   3.841   4.196   3.427 -0.2377 -0.1537 -0.7288
 7340SOL    HW133482   3.751   4.213   3.456  0.3094 -1.4402  1.7308
 7340SOL    HW233483   3.877   4.279   3.396  0.3717  1.2777  3.8839
 7341SOL     OW33484   3.113   1.051   3.091  0.3263 -0.0218 -0.2495
 7341SOL    HW133485   3.194   1.071   3.044  0.0715 -0.6697 -0.9588
 7341SOL    HW233486   3.110   0.955   3.085  0.4214 -0.1171  1.3447
 7342SOL     OW33487   1.636   2.016   7.982 -0.2088 -0.3579 -0.1594
 7342SOL    HW133488   1.633   2.080   8.053  1.4945  1.1707 -1.4303
 7342SOL    HW233489   1.554   2.034   7.937  1.1804  2.8903 -1.4559
 7343SOL     OW33490   3.247   2.885   2.464  0.2667  1.0599 -0.2783
 7343SOL    HW133491   3.333   2.921   2.441  1.2410 -1.6588 -0.8247
 7343SOL    HW233492   3.272   2.799   2.497  1.9804  1.7542  0.2242
 7344SOL     OW33493   2.731   3.588  16.817  1.0455  0.4918  0.5492
 7344SOL    HW133494   2.791   3.653  16.855 -0.0364  1.2758  0.8959
 7344SOL    HW233495   2.706   3.530  16.888 -1.5149  1.4856  0.4533
 7345SOL     OW33496   1.521   4.374   9.368 -0.2493 -0.0367 -0.0461
 7345SOL    HW133497   1.606   4.330   9.368  0.2862  0.9759 -3.5374
 7345SOL    HW233498   1.457   4.310   9.338 -2.1521  0.8065  2.2617
 7346SOL     OW33499   2.799   3.115   7.094 -0.3715 -0.5154 -0.1388
 7346SOL    HW133500   2.867   3.178   7.121 -0.6381 -0.2903  0.0092
 7346SOL    HW233501   2.808   3.051   7.164 -0.8366  0.4792  0.8436
 7347SOL     OW33502   1.711   3.560   4.052  0.8530  0.0256 -0.2492
 7347SOL    HW133503   1.770   3.537   3.981  1.8072  0.0773  0.5221
 7347SOL    HW233504   1.650   3.487   4.055  2.5335 -1.3960 -1.0634
 7348SOL     OW33505   1.980   2.502   3.166 -0.1101 -0.0534 -0.6825
 7348SOL    HW133506   2.039   2.497   3.241  0.8479 -0.6965 -1.4589
 7348SOL    HW233507   2.006   2.591   3.143  1.4604 -0.5026 -0.6446
 7349SOL     OW33508   0.731   0.645   4.081  0.0291  0.3923  0.3442
 7349SOL    HW133509   0.818   0.605   4.086  0.8831  2.3894  1.5187
 7349SOL    HW233510   0.670   0.576   4.109  0.2445 -0.0265 -0.2231
 7350SOL     OW33511   2.472   0.653   7.069 -0.2529  0.4400 -1.1282
 7350SOL    HW133512   2.506   0.681   6.984 -0.1619 -0.0379 -1.2477
 7350SOL    HW233513   2.408   0.723   7.081  1.4487  1.9066 -0.5828
 7351SOL     OW33514   1.546   2.217   8.184 -0.2739 -0.0746 -0.0196
 7351SOL    HW133515   1.475   2.234   8.122 -0.8687  1.0002  0.9457
 7351SOL    HW233516   1.506   2.248   8.266  0.6428 -1.7928  1.0651
 7352SOL     OW33517   3.041   4.658   3.333 -0.3362  0.1043  0.7221
 7352SOL    HW133518   3.109   4.627   3.273  0.6363 -1.0285  2.4185
 7352SOL    HW233519   2.967   4.599   3.327  0.9969 -1.4775 -0.2286
 7353SOL     OW33520   4.096   2.600   4.326 -0.4051 -0.0623  0.4428
 7353SOL    HW133521   4.118   2.674   4.382 -1.4134  1.5433 -1.2906
 7353SOL    HW233522   4.149   2.624   4.250  0.2582  0.1187  0.9703
 7354SOL     OW33523   4.031   0.011   2.990 -0.4279 -0.0348 -0.3375
 7354SOL    HW133524   4.105   0.023   3.049 -1.6846  1.4099  0.9661
 7354SOL    HW233525   4.067   0.049   2.910  1.7491  1.7513  1.4776
 7355SOL     OW33526   3.089   4.026   6.014 -0.0687 -0.1696 -0.4657
 7355SOL    HW133527   3.171   4.076   6.019  0.6213 -1.4802  1.4639
 7355SOL    HW233528   3.028   4.087   5.973  1.7176  0.5547 -2.0307
 7356SOL     OW33529   1.584   2.160  10.467  0.7553  0.0863  0.7294
 7356SOL    HW133530   1.599   2.066  10.477 -1.3678 -0.1743  1.6367
 7356SOL    HW233531   1.489   2.175  10.460  0.9700  0.8413 -0.5217
 7357SOL     OW33532   3.532   1.028   9.628 -0.1936 -0.5010  0.5247
 7357SOL    HW133533   3.554   1.097   9.565 -1.6358 -1.6205 -1.2019
 7357SOL    HW233534   3.609   1.038   9.684  0.6844  1.7605 -1.0506
 7358SOL     OW33535   1.882   2.628  17.618 -0.3902 -0.1257  0.4529
 7358SOL    HW133536   1.822   2.566  17.576  1.3261 -1.7231  0.3593
 7358SOL    HW233537   1.955   2.638  17.557 -1.5978 -0.9881 -1.1566
 7359SOL     OW33538   4.110   3.609   0.962  0.0258  0.0648 -0.4280
 7359SOL    HW133539   4.082   3.564   0.883 -0.8265 -0.5293  0.2074
 7359SOL    HW233540   4.139   3.538   1.020  0.6622  0.1266 -0.6697
 7360SOL     OW33541   2.148   2.264   4.301  0.3508 -0.2110 -0.3941
 7360SOL    HW133542   2.069   2.267   4.355  1.5516  1.7751  1.2540
 7360SOL    HW233543   2.133   2.178   4.262 -1.4823 -0.5430  1.0696
 7361SOL     OW33544   1.960   1.489   8.232  0.3326 -0.1657  0.6360
 7361SOL    HW133545   1.903   1.499   8.308 -2.0970  0.2855 -1.2536
 7361SOL    HW233546   1.976   1.582   8.219  2.1693 -0.5777 -0.0542
 7362SOL     OW33547   4.520   3.863   3.104 -0.1297  0.6014 -0.0894
 7362SOL    HW133548   4.478   3.900   3.182  0.2627 -1.7077  1.2126
 7362SOL    HW233549   4.504   3.934   3.041 -2.0710  0.7270  0.5267
 7363SOL     OW33550   3.747   1.760   5.332  0.7903 -0.4315 -0.3557
 7363SOL    HW133551   3.754   1.850   5.299 -1.1638  0.0124  0.4078
 7363SOL    HW233552   3.738   1.714   5.249 -2.3080  0.5572 -0.5781
 7364SOL     OW33553   3.660   2.467  17.405 -0.2654 -0.3384  0.0480
 7364SOL    HW133554   3.572   2.462  17.368 -1.0486  1.5596  1.6924
 7364SOL    HW233555   3.668   2.560  17.422  1.4410 -0.6529  0.9512
 7365SOL     OW33556   2.841   2.919   8.972 -0.2374 -0.4640 -0.1581
 7365SOL    HW133557   2.769   2.981   8.962 -0.1728 -0.2210  0.8665
 7365SOL    HW233558   2.798   2.840   9.006 -1.3863 -1.1169 -3.1433
 7366SOL     OW33559   1.091   4.283   5.132  0.7999  0.5973  0.2838
 7366SOL    HW133560   1.148   4.349   5.172  0.5248  1.5150 -0.8126
 7366SOL    HW233561   1.157   4.244   5.074  1.6376 -2.2152  3.1451
 7367SOL     OW33562   2.169   0.657   5.558  0.5059 -0.1680  0.0328
 7367SOL    HW133563   2.225   0.691   5.488  0.8353  0.0148  0.3841
 7367SOL    HW233564   2.165   0.562   5.545 -2.2406  0.3256 -2.6911
 7368SOL     OW33565   2.336   3.963   4.629  0.2696  0.5484 -0.5571
 7368SOL    HW133566   2.338   3.922   4.715  0.5038  0.2596 -0.6966
 7368SOL    HW233567   2.329   4.057   4.644  2.5074  0.7253 -0.5759
 7369SOL     OW33568   3.631   3.748   7.244  0.4743 -0.1499  0.3947
 7369SOL    HW133569   3.546   3.757   7.200  0.0394  2.5685  1.8368
 7369SOL    HW233570   3.607   3.762   7.336  0.9996 -2.1886  0.8375
 7370SOL     OW33571   3.308   4.184   6.098 -0.2465 -0.0684  0.1180
 7370SOL    HW133572   3.398   4.152   6.094  0.3398  1.8530 -2.2331
 7370SOL    HW233573   3.308   4.268   6.143  2.7706 -0.7646  1.3744
 7371SOL     OW33574   4.022   4.065   4.963  0.0975  0.5324  0.2736
 7371SOL    HW133575   4.094   4.128   4.960 -0.0221  0.6233 -0.8306
 7371SOL    HW233576   4.021   4.046   5.057  2.1750 -0.1921  0.1400
 7372SOL     OW33577   4.653   1.482   6.458 -0.2769 -0.5939 -0.3163
 7372SOL    HW133578   4.572   1.501   6.504 -0.2041  0.4402 -0.6193
 7372SOL    HW233579   4.654   1.389   6.481  1.0552 -1.0941 -2.2825
 7373SOL     OW33580   0.873   2.973   7.330 -0.2398  0.5072 -0.0102
 7373SOL    HW133581   0.907   2.886   7.349  0.5320  0.6299 -0.8642
 7373SOL    HW233582   0.797   2.952   7.276 -1.4203 -1.0815  2.2401
 7374SOL     OW33583   0.559   0.799   4.591  0.4361 -0.0150 -0.0572
 7374SOL    HW133584   0.569   0.819   4.498  1.2321 -1.1714 -0.2268
 7374SOL    HW233585   0.551   0.703   4.591 -1.1738  0.1145 -2.2537
 7375SOL     OW33586   1.570   2.190  13.027  0.2693 -0.7637 -0.6067
 7375SOL    HW133587   1.620   2.268  13.053  0.2170 -1.1189  0.5653
 7375SOL    HW233588   1.597   2.122  13.090 -0.5528 -0.7137 -0.1996
 7376SOL     OW33589   1.832   0.539   8.347  0.3287 -0.5636  0.9587
 7376SOL    HW133590   1.885   0.581   8.416  0.7462  0.6048 -0.0758
 7376SOL    HW233591   1.812   0.454   8.386 -1.3690 -0.1313  1.0536
 7377SOL     OW33592   0.613   2.553   2.315  0.8013 -0.4137  0.3559
 7377SOL    HW133593   0.615   2.603   2.397 -1.0991  0.8508 -0.3618
 7377SOL    HW233594   0.579   2.618   2.252 -1.2650 -2.5589 -0.7261
 7378SOL     OW33595   0.488   3.704  12.176  0.0853 -0.3903  0.2721
 7378SOL    HW133596   0.513   3.653  12.099 -0.2949  1.0668 -0.8173
 7378SOL    HW233597   0.407   3.747  12.147  0.6814  0.8771  0.4727
 7379SOL     OW33598   4.078   4.580   6.124  0.6110 -0.9172 -0.2227
 7379SOL    HW133599   4.061   4.633   6.046 -0.8706 -0.9778  0.0522
 7379SOL    HW233600   3.990   4.540   6.129  0.4058 -0.4614 -0.2344
 7380SOL     OW33601   3.964   3.741   2.600 -0.4779 -0.2793  0.1773
 7380SOL    HW133602   3.912   3.820   2.588 -0.6528 -0.2724  0.9435
 7380SOL    HW233603   3.897   3.676   2.617  1.5760 -2.4129  0.1229
 7381SOL     OW33604   1.037   1.329   9.979 -0.0744 -0.1591  0.0993
 7381SOL    HW133605   1.075   1.390   9.916 -0.2812  0.3418  0.4542
 7381SOL    HW233606   0.958   1.382   9.995 -1.3652 -2.8816  2.6467
 7382SOL     OW33607   1.390   0.055  12.982  0.1873 -0.2126 -0.0320
 7382SOL    HW133608   1.392   0.149  12.969  0.3828 -0.4067 -1.3748
 7382SOL    HW233609   1.307   0.013  12.959 -0.3716 -1.3986  4.0909
 7383SOL     OW33610   4.278   4.172   4.957 -0.2496 -0.2314 -0.1494
 7383SOL    HW133611   4.362   4.219   4.955 -0.7262  0.5429 -2.4449
 7383SOL    HW233612   4.256   4.180   4.864 -0.6521  1.0855  0.0457
 7384SOL     OW33613   2.050   0.234   0.503 -0.0746 -0.8508 -0.1270
 7384SOL    HW133614   1.968   0.245   0.454  0.7581  0.1879 -1.2703
 7384SOL    HW233615   2.106   0.206   0.430 -0.5476 -0.6661 -0.5623
 7385SOL     OW33616   1.422   4.005   8.337  0.0899  0.3996  0.4723
 7385SOL    HW133617   1.384   4.088   8.364 -1.0734  0.3920 -1.1083
 7385SOL    HW233618   1.505   4.016   8.383  0.3250 -0.3481  0.2400
 7386SOL     OW33619   3.299   2.219   4.197  0.0524 -0.4134  0.0644
 7386SOL    HW133620   3.210   2.207   4.231 -0.9150  1.0061 -2.0178
 7386SOL    HW233621   3.325   2.257   4.281  1.9234 -2.2890  0.3410
 7387SOL     OW33622   1.518   0.526   3.290 -0.1397 -0.0067  0.3296
 7387SOL    HW133623   1.613   0.536   3.301  0.0920  1.4894 -3.0690
 7387SOL    HW233624   1.491   0.613   3.262 -1.0386  0.2567  2.0335
 7388SOL     OW33625   0.268   4.191  11.790 -0.2742  0.0653  0.5467
 7388SOL    HW133626   0.244   4.099  11.799  0.7654 -0.6457 -3.8962
 7388SOL    HW233627   0.362   4.186  11.774 -0.5080  0.1759 -0.8581
 7389SOL     OW33628   2.396   1.779   6.598  0.1940 -0.2563  0.3867
 7389SOL    HW133629   2.400   1.702   6.655 -0.1092 -0.1640  0.5270
 7389SOL    HW233630   2.455   1.752   6.527 -0.0378  0.2376  0.0042
 7390SOL     OW33631   2.357   0.461   8.372  0.0795  0.1137 -0.2033
 7390SOL    HW133632   2.435   0.410   8.352 -0.6226 -1.4978  1.1594
 7390SOL    HW233633   2.368   0.466   8.467  2.4431 -1.2793 -0.4083
 7391SOL     OW33634   4.132   2.041  16.845  0.1686 -0.0300  0.3026
 7391SOL    HW133635   4.082   2.027  16.926 -0.8466 -1.6560 -0.6163
 7391SOL    HW233636   4.059   2.027  16.786  0.2216 -0.2647  0.2937
 7392SOL     OW33637   0.312   2.193  10.594  0.3590 -0.2182 -0.4526
 7392SOL    HW133638   0.354   2.234  10.669 -2.9244  2.7452 -0.2277
 7392SOL    HW233639   0.341   2.103  10.613 -1.5237 -0.5905  0.6570
 7393SOL     OW33640   0.314   3.322   5.450 -0.3746  0.1069  0.2261
 7393SOL    HW133641   0.390   3.291   5.499 -0.1866 -1.1098 -0.8248
 7393SOL    HW233642   0.336   3.414   5.436  0.2702 -0.1326 -0.3227
 7394SOL     OW33643   3.533   1.542  11.141 -0.0153 -0.2822 -0.3655
 7394SOL    HW133644   3.452   1.494  11.125 -0.2930  0.1537 -0.2804
 7394SOL    HW233645   3.546   1.545  11.236  1.4602 -2.4357 -0.4981
 7395SOL     OW33646   2.494   0.817   1.610 -0.5375 -0.5323  0.2984
 7395SOL    HW133647   2.516   0.824   1.517  2.1332  2.0688  1.1118
 7395SOL    HW233648   2.423   0.754   1.600 -0.7837 -0.2745  0.4038
 7396SOL     OW33649   2.849   2.946   7.321  0.0407  0.3132 -0.7444
 7396SOL    HW133650   2.765   2.904   7.338  0.2588  0.4938  0.7919
 7396SOL    HW233651   2.880   2.952   7.412 -0.4870 -2.9722 -0.3664
 7397SOL     OW33652   0.821   4.683  16.533 -0.1881  0.1743  0.0361
 7397SOL    HW133653   0.758   0.035  16.521 -1.3837 -1.0225 -0.7789
 7397SOL    HW233654   0.804   4.651  16.622 -0.3680  0.8120  0.2304
 7398SOL     OW33655   4.368   2.619   7.941  0.4540 -0.3550 -0.5085
 7398SOL    HW133656   4.408   2.539   7.977  0.6910  0.2416  0.5679
 7398SOL    HW233657   4.429   2.638   7.870 -0.5709 -1.8218 -1.7911
 7399SOL     OW33658   0.901   1.666   2.112  0.6316  0.8015  0.0711
 7399SOL    HW133659   0.806   1.662   2.101  0.5052  0.5866  1.2251
 7399SOL    HW233660   0.922   1.712   2.030  0.9427  1.0078  0.2649
 7400SOL     OW33661   4.674   2.092   9.313  0.5053  0.4608  0.6801
 7400SOL    HW133662   4.607   2.079   9.380  0.8447 -0.4505  0.8343
 7400SOL    HW233663   0.029   2.104   9.372  0.0419  2.3659  0.8651
 7401SOL     OW33664   3.249   0.874  17.023 -0.2020  0.6462  0.4475
 7401SOL    HW133665   3.198   0.799  17.052  0.9533  0.2538  1.4605
 7401SOL    HW233666   3.318   0.876  17.090 -0.4291 -0.1122  0.7008
 7402SOL     OW33667   0.010   0.516   0.135 -0.1637  0.6485  0.3500
 7402SOL    HW133668   0.091   0.514   0.083 -0.7223  0.0693 -0.4993
 7402SOL    HW233669   0.027   0.439   0.190  0.2354 -0.7103 -1.6673
 7403SOL     OW33670   4.245   1.825   8.977  0.1187 -0.5173 -0.3789
 7403SOL    HW133671   4.315   1.876   8.935 -0.1880  0.3840  0.1944
 7403SOL    HW233672   4.204   1.789   8.899  0.6615  2.1554 -1.8918
 7404SOL     OW33673   4.706   0.426   4.759  0.2262 -0.6112  0.5072
 7404SOL    HW133674   4.657   0.360   4.710 -1.0136 -0.0266  0.9870
 7404SOL    HW233675   0.042   0.365   4.809 -0.9503 -0.0156  2.4867
 7405SOL     OW33676   2.759   0.827   6.288 -0.6843 -0.5851  0.1619
 7405SOL    HW133677   2.715   0.809   6.205 -3.0305  2.2045  0.8155
 7405SOL    HW233678   2.714   0.767   6.347 -2.0773 -0.6241 -0.9395
 7406SOL     OW33679   2.273   1.770  17.561  0.0007 -0.2596  0.4908
 7406SOL    HW133680   2.293   1.790  17.652  1.4593  1.0597 -0.1342
 7406SOL    HW233681   2.231   1.685  17.577 -2.0988  1.0465  1.8877
 7407SOL     OW33682   2.317   1.618  12.186  0.2315 -0.5497 -0.8066
 7407SOL    HW133683   2.271   1.549  12.138  0.4250 -1.6229  0.5736
 7407SOL    HW233684   2.302   1.595  12.278 -2.5670 -1.3991 -1.4831
 7408SOL     OW33685   3.249   0.043  16.516  0.5357 -0.0203  0.5521
 7408SOL    HW133686   3.182   0.089  16.567 -0.3693  1.1239 -1.6569
 7408SOL    HW233687   3.240   4.668  16.534 -0.4334 -0.1714 -0.7195
 7409SOL     OW33688   3.195   0.918   8.798  0.2076  0.4255 -0.0643
 7409SOL    HW133689   3.158   0.996   8.756  1.1969  0.0854 -1.5889
 7409SOL    HW233690   3.269   0.955   8.845  0.6972  0.7562 -1.0857
 7410SOL     OW33691   0.839   0.575   3.766 -0.0464  0.2073  0.9382
 7410SOL    HW133692   0.906   0.524   3.812 -0.1611 -0.0039  0.8692
 7410SOL    HW233693   0.854   0.662   3.803  0.2271  0.4620  0.2253
 7411SOL     OW33694   1.696   2.300   6.748  0.1986  0.3929  0.0307
 7411SOL    HW133695   1.651   2.221   6.718 -0.7388  0.7127  0.5873
 7411SOL    HW233696   1.670   2.304   6.840  1.2547  0.6487  0.3156
 7412SOL     OW33697   1.583   4.069   4.677 -0.0298 -0.6817 -0.3675
 7412SOL    HW133698   1.569   4.002   4.610  0.5059 -0.5518 -0.6097
 7412SOL    HW233699   1.499   4.114   4.674 -0.0023 -0.5971  0.0821
 7413SOL     OW33700   2.890   0.408  10.474  0.0680 -0.1576 -0.7696
 7413SOL    HW133701   2.890   0.425  10.568 -1.3365 -0.3034 -0.7476
 7413SOL    HW233702   2.848   0.489  10.444 -0.8853  0.3370  1.8168
 7414SOL     OW33703   2.319   3.806   2.161 -0.0272 -0.3393  0.5902
 7414SOL    HW133704   2.254   3.832   2.226  0.2778  0.9810  0.3750
 7414SOL    HW233705   2.262   3.753   2.105 -2.0739  2.5669 -0.0884
 7415SOL     OW33706   0.825   0.978  17.614 -0.3088  0.2036 -0.3555
 7415SOL    HW133707   0.900   0.941  17.660 -1.1463 -0.2613  0.6535
 7415SOL    HW233708   0.770   0.899  17.612  0.9506 -0.7672  3.4116
 7416SOL     OW33709   1.753   3.069   9.134 -0.2255  0.2240  0.0438
 7416SOL    HW133710   1.722   2.978   9.134  2.1256 -0.5544  0.4001
 7416SOL    HW233711   1.805   3.066   9.053  1.1841 -0.0616  0.9774
 7417SOL     OW33712   2.917   0.198   1.398  0.5210 -0.1513  0.4488
 7417SOL    HW133713   2.867   0.275   1.424 -1.1675 -0.6304 -1.2819
 7417SOL    HW233714   2.879   0.134   1.458 -0.5562  0.2083  0.1552
 7418SOL     OW33715   2.964   2.480  12.174 -0.1432  0.7009 -0.1285
 7418SOL    HW133716   3.018   2.402  12.163 -0.0982  0.4629  1.8746
 7418SOL    HW233717   3.009   2.522  12.247  0.9595  0.3640 -0.6182
 7419SOL     OW33718   3.750   4.544  10.313 -0.0755 -0.0325 -0.1624
 7419SOL    HW133719   3.711   4.608  10.374 -1.5253 -0.4260 -0.6840
 7419SOL    HW233720   3.718   4.461  10.348  0.7132 -0.0668  0.4673
 7420SOL     OW33721   2.627   1.537   5.191 -0.5882 -0.3876  0.3749
 7420SOL    HW133722   2.690   1.609   5.182 -0.4131 -0.4274  1.2943
 7420SOL    HW233723   2.667   1.505   5.272  1.4166 -0.2620 -0.5620
 7421SOL     OW33724   3.930   2.184   0.911  0.0534  0.4460  0.2674
 7421SOL    HW133725   3.861   2.201   0.976  0.9193  0.7641  1.0891
 7421SOL    HW233726   3.927   2.265   0.860 -0.5318 -0.7624 -1.6195
 7422SOL     OW33727   2.996   3.526   1.446  0.2752 -0.2844 -0.1113
 7422SOL    HW133728   3.051   3.498   1.519  0.9685 -0.6406 -0.7703
 7422SOL    HW233729   2.996   3.621   1.459 -0.4819 -0.5473  1.7238
 7423SOL     OW33730   1.513   0.691   4.186  0.3351  0.2718 -0.3980
 7423SOL    HW133731   1.574   0.633   4.231  2.7972  3.9569  0.9887
 7423SOL    HW233732   1.435   0.647   4.222  1.3042 -1.0682  0.0580
 7424SOL     OW33733   0.440   4.011   7.875  0.1598 -0.0856  0.5335
 7424SOL    HW133734   0.431   3.924   7.836 -4.2547  0.0340  1.3231
 7424SOL    HW233735   0.536   4.017   7.879  0.3045 -3.1111  1.0172
 7425SOL     OW33736   3.176   3.690   2.455  0.7329  0.5463  1.1423
 7425SOL    HW133737   3.143   3.736   2.531  0.2951  1.6760  0.2646
 7425SOL    HW233738   3.243   3.640   2.502  0.1619  0.6339  2.0314
 7426SOL     OW33739   4.573   0.166   6.649 -0.4786  0.2501 -0.1207
 7426SOL    HW133740   4.480   0.184   6.664 -0.1115  0.6399  1.6479
 7426SOL    HW233741   4.574   0.100   6.580 -0.0880  0.7066 -0.5593
 7427SOL     OW33742   0.961   3.599   0.780  0.4181 -0.0499 -0.0582
 7427SOL    HW133743   0.940   3.522   0.833 -1.3180  0.9891  0.7513
 7427SOL    HW233744   0.875   3.617   0.742  1.6973  2.4974 -1.7668
 7428SOL     OW33745   4.602   1.619   6.883  0.2383 -0.2901  0.2101
 7428SOL    HW133746   4.552   1.629   6.964 -1.3492  1.2570 -0.9853
 7428SOL    HW233747   4.540   1.591   6.815 -2.2076 -0.1661  2.3758
 7429SOL     OW33748   1.200   1.829   8.148  0.2739 -0.0451  0.5377
 7429SOL    HW133749   1.149   1.879   8.085  0.0490  1.4398  1.8836
 7429SOL    HW233750   1.215   1.894   8.218  1.0259  0.3747 -0.0139
 7430SOL     OW33751   1.376   0.807  17.242  0.0517 -0.0237 -0.6830
 7430SOL    HW133752   1.353   0.900  17.233 -1.4322 -0.5159 -1.9675
 7430SOL    HW233753   1.315   0.765  17.182 -0.2825  0.3260 -0.5908
 7431SOL     OW33754   2.659   2.723   8.313  0.2231 -0.1050 -0.3482
 7431SOL    HW133755   2.747   2.748   8.287  0.3544 -1.5503 -1.3302
 7431SOL    HW233756   2.665   2.744   8.406  1.7125  0.4419 -0.5772
 7432SOL     OW33757   1.015   2.129   8.954  0.3793 -0.9201 -0.7523
 7432SOL    HW133758   0.968   2.052   8.987  0.6268 -1.2405 -1.1553
 7432SOL    HW233759   0.997   2.132   8.861 -0.0452 -0.4718 -0.6536
 7433SOL     OW33760   2.478   3.577  11.928  0.0576  0.6274  0.2570
 7433SOL    HW133761   2.520   3.632  11.994  1.0860 -0.6700  0.6923
 7433SOL    HW233762   2.402   3.634  11.914 -0.1712  0.5179  1.0899
 7434SOL     OW33763   1.907   2.776   2.774 -0.2069 -0.1907  0.4406
 7434SOL    HW133764   1.840   2.716   2.805  0.1404 -0.8186 -0.0364
 7434SOL    HW233765   1.983   2.719   2.778  0.8978  1.3481  1.5624
 7435SOL     OW33766   3.815   2.014  10.717 -0.0813 -0.6956  0.1083
 7435SOL    HW133767   3.906   2.041  10.706 -1.0181  1.6158 -1.9206
 7435SOL    HW233768   3.763   2.091  10.739  0.3653 -0.0666 -1.0552
 7436SOL     OW33769   0.320   2.541   6.628  0.2708 -0.2191  0.2286
 7436SOL    HW133770   0.268   2.540   6.548  1.9730  1.8302 -0.8991
 7436SOL    HW233771   0.393   2.486   6.598 -0.6247 -2.1851  1.6443
 7437SOL     OW33772   2.537   1.039  10.469  0.2147 -0.2481 -0.5782
 7437SOL    HW133773   2.600   0.978  10.506  2.2163  1.4310 -1.2215
 7437SOL    HW233774   2.458   1.006  10.512 -1.5502  2.6019 -1.6194
 7438SOL     OW33775   3.855   4.019  12.191 -0.6833  0.3565  0.4754
 7438SOL    HW133776   3.876   3.937  12.148  0.1110  0.0744  1.3917
 7438SOL    HW233777   3.875   4.002  12.283  2.5815  1.4585 -0.0398
 7439SOL     OW33778   0.900   2.353   9.082 -0.5375 -0.7700 -0.3292
 7439SOL    HW133779   0.956   2.284   9.046 -0.6141 -0.9646 -0.0764
 7439SOL    HW233780   0.822   2.303   9.107  0.1676 -1.6244  0.1243
 7440SOL     OW33781   4.131   3.817   5.547  0.4857  0.5619 -0.2173
 7440SOL    HW133782   4.136   3.729   5.510 -0.0630  0.2125  0.5421
 7440SOL    HW233783   4.191   3.863   5.488  0.0824 -1.1013 -1.9027
 7441SOL     OW33784   2.321   1.203  15.739 -0.0902 -0.0152  0.0340
 7441SOL    HW133785   2.372   1.208  15.819  1.0085  1.0342 -0.7402
 7441SOL    HW233786   2.385   1.218  15.670 -0.9483 -0.6545 -0.9039
 7442SOL     OW33787   3.001   0.088   2.949  0.0422  0.0285  0.3319
 7442SOL    HW133788   2.953   0.168   2.969  1.2118  0.1590  2.4739
 7442SOL    HW233789   2.934   0.027   2.980  0.5507 -0.6996 -0.0081
 7443SOL     OW33790   3.267   4.035   3.669 -0.2702 -0.8355 -0.3757
 7443SOL    HW133791   3.307   3.985   3.599 -1.0146 -0.5996 -0.9626
 7443SOL    HW233792   3.341   4.089   3.699 -0.0975 -1.4075  0.2131
 7444SOL     OW33793   2.677   1.346   3.664  0.6190 -0.5159 -0.3344
 7444SOL    HW133794   2.706   1.316   3.578 -0.0805  0.5430 -0.9358
 7444SOL    HW233795   2.648   1.262   3.700  1.0258 -1.2959 -1.8427
 7445SOL     OW33796   0.465   1.402   4.126 -0.3904 -0.2126 -0.0536
 7445SOL    HW133797   0.475   1.352   4.045 -3.0189  0.4137 -0.7534
 7445SOL    HW233798   0.478   1.489   4.090  0.7837 -0.7128 -0.8549
 7446SOL     OW33799   1.460   4.245   2.978  0.1140  0.0620 -0.1217
 7446SOL    HW133800   1.460   4.340   2.992  0.1331 -0.0279  0.4777
 7446SOL    HW233801   1.551   4.239   2.949 -0.1480 -2.1499 -0.4936
 7447SOL     OW33802   4.300   0.380  15.713  0.1568  0.0466 -0.3367
 7447SOL    HW133803   4.371   0.443  15.703  1.4270 -1.6336 -1.9136
 7447SOL    HW233804   4.231   0.416  15.658  1.2128  2.5263 -0.0359
 7448SOL     OW33805   3.018   0.307   5.428 -0.5483 -0.4580  0.4418
 7448SOL    HW133806   2.972   0.259   5.359  1.3520 -1.1414 -0.3508
 7448SOL    HW233807   3.110   0.288   5.409 -0.6708  0.8565 -1.4514
 7449SOL     OW33808   0.651   1.925   2.202  0.2397 -0.0925  0.4543
 7449SOL    HW133809   0.663   1.891   2.290  0.9523  3.2675  1.6305
 7449SOL    HW233810   0.646   1.840   2.157  1.7541  0.6667 -1.1677
 7450SOL     OW33811   2.210   1.958   2.124  0.0262  0.4361 -0.7369
 7450SOL    HW133812   2.136   1.917   2.171 -0.8085  1.6725 -0.9640
 7450SOL    HW233813   2.193   2.048   2.154 -0.5640 -0.1931  0.8207
 7451SOL     OW33814   0.089   2.324   4.733 -0.4209 -0.1965  0.7331
 7451SOL    HW133815   0.135   2.243   4.714 -0.4662 -0.2850  1.0015
 7451SOL    HW233816   0.005   2.291   4.764 -0.6819  0.0145  0.2559
 7452SOL     OW33817   4.570   1.353   9.604  0.1546 -0.7130 -0.1082
 7452SOL    HW133818   4.641   1.298   9.570 -0.1912 -0.3939 -1.3567
 7452SOL    HW233819   4.547   1.302   9.681 -2.2877  0.2473 -0.2067
 7453SOL     OW33820   3.447   0.704   2.566 -0.4471 -0.4562  0.4019
 7453SOL    HW133821   3.498   0.755   2.629  1.4251  0.8514 -2.2097
 7453SOL    HW233822   3.359   0.710   2.605 -1.0404 -0.9571 -0.8469
 7454SOL     OW33823   3.410   3.723   8.598  0.2272  0.0952 -0.1323
 7454SOL    HW133824   3.409   3.719   8.694  0.8842 -0.4997 -0.1523
 7454SOL    HW233825   3.317   3.712   8.577 -0.8243  0.7501  4.0506
 7455SOL     OW33826   4.330   0.766  10.883 -0.1323  0.6465 -0.5823
 7455SOL    HW133827   4.384   0.687  10.887 -0.7787  0.4190  3.8817
 7455SOL    HW233828   4.326   0.794  10.975  0.8305  2.9691 -1.2567
 7456SOL     OW33829   2.603   0.473   6.341  0.1835 -0.1424  0.5756
 7456SOL    HW133830   2.511   0.499   6.337  0.6005  1.1548 -0.6326
 7456SOL    HW233831   2.617   0.418   6.264 -1.1511  1.5669 -0.8799
 7457SOL     OW33832   0.551   3.393  17.420 -0.3688 -0.5414  0.5477
 7457SOL    HW133833   0.580   3.317  17.370  1.5141  0.3068  0.3246
 7457SOL    HW233834   0.610   3.454  17.375  1.0866  0.2204  3.4534
 7458SOL     OW33835   3.194   0.324   4.173  0.3670  0.4076  0.5266
 7458SOL    HW133836   3.269   0.281   4.215  1.4073  1.8809  0.1655
 7458SOL    HW233837   3.220   0.331   4.081 -0.8230  0.4305  0.1847
 7459SOL     OW33838   1.975   3.064  10.971 -0.3548  0.3582  0.3039
 7459SOL    HW133839   2.000   3.134  10.910  2.2816  0.2026  1.2116
 7459SOL    HW233840   1.888   3.054  10.931  0.5239 -0.8385 -1.2703
 7460SOL     OW33841   2.886   4.132   4.649 -0.6389  0.4388  0.4716
 7460SOL    HW133842   2.906   4.225   4.636 -1.2389  0.3886 -0.8050
 7460SOL    HW233843   2.793   4.136   4.625 -0.6147 -1.1951  0.1492
 7461SOL     OW33844   1.693   4.055   5.027  0.6167  0.0567  0.3823
 7461SOL    HW133845   1.664   3.964   5.016  0.0001  0.2533  0.3778
 7461SOL    HW233846   1.702   4.080   4.935  1.8711  0.8623  0.7398
 7462SOL     OW33847   0.777   0.436   6.071 -0.7259 -0.1034  0.3547
 7462SOL    HW133848   0.858   0.458   6.025 -1.2898 -1.7007 -1.4350
 7462SOL    HW233849   0.764   0.499   6.142 -0.5981  0.0747  0.2200
 7463SOL     OW33850   2.824   1.240  16.017 -0.0270 -0.6488 -0.1050
 7463SOL    HW133851   2.770   1.190  15.956  1.8735 -0.0484 -2.2683
 7463SOL    HW233852   2.874   1.166  16.053 -0.4386  0.2746  2.3658
 7464SOL     OW33853   0.930   3.386   4.830 -0.3931 -0.2655 -0.3095
 7464SOL    HW133854   1.025   3.395   4.823 -0.1796 -1.4695  1.2060
 7464SOL    HW233855   0.912   3.412   4.920  1.1143  0.2702 -0.1748
 7465SOL     OW33856   4.246   3.667   2.159 -0.5883 -0.2437 -0.6948
 7465SOL    HW133857   4.167   3.682   2.211  0.1880  0.2794  0.3484
 7465SOL    HW233858   4.302   3.721   2.215 -2.2166  0.2527  0.4776
 7466SOL     OW33859   0.118   3.467   7.018  0.0395 -0.5047 -0.2874
 7466SOL    HW133860   0.129   3.552   7.060 -0.0469 -0.9807  0.7056
 7466SOL    HW233861   0.208   3.448   6.989 -0.5574 -0.7359 -1.9874
 7467SOL     OW33862   2.278   3.142   8.244  0.5131 -0.3983  0.2004
 7467SOL    HW133863   2.339   3.109   8.310  0.1849 -1.1609  0.1217
 7467SOL    HW233864   2.225   3.199   8.300  2.0410  2.9877 -1.7937
 7468SOL     OW33865   2.162   4.322  11.888  0.3528 -0.1779 -0.5237
 7468SOL    HW133866   2.184   4.253  11.950 -1.6738  0.4629  0.9079
 7468SOL    HW233867   2.213   4.397  11.920 -0.0962 -0.0561 -0.1032
 7469SOL     OW33868   0.399   1.898   9.510  0.1555 -0.6060 -0.4018
 7469SOL    HW133869   0.470   1.845   9.548 -0.5056 -1.1124  0.1386
 7469SOL    HW233870   0.386   1.958   9.583  1.8648 -1.0353  0.2555
 7470SOL     OW33871   3.063   3.639  16.014  0.3221  0.0447  0.3062
 7470SOL    HW133872   3.144   3.636  16.065  0.5702  1.1592 -0.0126
 7470SOL    HW233873   3.091   3.658  15.924  1.8480  2.7925  1.3696
 7471SOL     OW33874   0.381   2.017  14.688  0.2260 -0.2884  0.2402
 7471SOL    HW133875   0.450   2.080  14.668 -0.1082 -0.0346 -0.1244
 7471SOL    HW233876   0.428   1.965  14.753  0.1458  0.3818  0.8491
 7472SOL     OW33877   3.250   1.130   7.979 -0.5018 -0.6804  0.0648
 7472SOL    HW133878   3.215   1.042   7.962 -2.6719  0.1337  0.3089
 7472SOL    HW233879   3.204   1.138   8.063 -0.7127 -0.5926 -0.0611
 7473SOL     OW33880   3.062   0.840   6.568 -0.6794  0.5845 -0.4157
 7473SOL    HW133881   3.110   0.858   6.649 -0.0063 -2.3295 -0.1561
 7473SOL    HW233882   3.133   0.828   6.506  0.1621 -3.1647  1.2807
 7474SOL     OW33883   1.530   3.800   1.251 -0.0698 -0.5672  0.0887
 7474SOL    HW133884   1.530   3.775   1.343  0.0252 -0.6115  0.0765
 7474SOL    HW233885   1.519   3.895   1.249 -1.7599 -0.7738 -0.2685
 7475SOL     OW33886   4.091   1.678  12.993 -0.5805  0.0746 -0.0032
 7475SOL    HW133887   4.143   1.623  13.053  1.0843 -1.1079 -2.5595
 7475SOL    HW233888   4.008   1.673  13.042 -0.3252 -2.5277  0.1787
 7476SOL     OW33889   4.096   1.568   3.985  0.1664 -0.1246 -0.0768
 7476SOL    HW133890   4.091   1.640   4.049  0.5743  0.1517 -0.3526
 7476SOL    HW233891   4.015   1.580   3.937 -0.8929 -2.3840  1.1628
 7477SOL     OW33892   1.083   1.907   3.364  0.3101  0.2497 -0.7145
 7477SOL    HW133893   1.111   1.991   3.399  0.2113 -0.5391  1.2680
 7477SOL    HW233894   0.990   1.915   3.343  0.6739 -0.6609 -2.7212
 7478SOL     OW33895   3.168   4.146   5.349 -0.4491  0.5058 -0.2600
 7478SOL    HW133896   3.127   4.075   5.398 -3.9240  2.6482 -0.0206
 7478SOL    HW233897   3.096   4.172   5.292  2.8345  3.1103 -3.1981
 7479SOL     OW33898   3.359   4.568   5.086  0.6137  0.4381  0.7312
 7479SOL    HW133899   3.338   4.605   5.172 -1.6720  0.6111  0.1054
 7479SOL    HW233900   3.369   4.650   5.036 -2.3918  1.6683  2.1581
 7480SOL     OW33901   2.683   3.673   6.311 -0.2585 -0.1575  0.2775
 7480SOL    HW133902   2.755   3.627   6.353 -0.7496 -1.0311  0.1606
 7480SOL    HW233903   2.712   3.761   6.333 -1.5783  0.3683 -0.0978
 7481SOL     OW33904   2.798   3.967   1.582 -0.3044  0.2843  0.9919
 7481SOL    HW133905   2.798   3.976   1.677 -0.8580 -2.1337  1.2354
 7481SOL    HW233906   2.755   4.048   1.556  1.0096  1.5735  2.8130
 7482SOL     OW33907   1.400   1.468   7.674  0.0876  0.2292  0.4921
 7482SOL    HW133908   1.430   1.521   7.749 -0.1537 -1.1224  1.5348
 7482SOL    HW233909   1.404   1.521   7.594  1.9188  0.9008  1.0142
 7483SOL     OW33910   2.470   0.939  13.304  0.7120  0.3802 -1.1050
 7483SOL    HW133911   2.420   1.015  13.334 -0.8813 -0.2848 -2.0868
 7483SOL    HW233912   2.558   0.949  13.340  0.3591 -0.6724  0.0665
 7484SOL     OW33913   1.125   1.953   4.212 -0.0098  0.5708 -0.7745
 7484SOL    HW133914   1.052   1.979   4.156 -1.2044 -2.3146 -0.5530
 7484SOL    HW233915   1.199   1.988   4.163  0.5740 -0.3318 -0.5165
 7485SOL     OW33916   3.696   2.444   7.571 -0.1610 -0.4676 -0.1339
 7485SOL    HW133917   3.729   2.356   7.556 -0.3287 -0.5917  0.2302
 7485SOL    HW233918   3.605   2.435   7.542  1.2842 -1.2497 -4.4322
 7486SOL     OW33919   2.541   1.730   5.010  0.0749  0.1996  1.3108
 7486SOL    HW133920   2.544   1.676   5.089  0.9584  1.2846  2.0181
 7486SOL    HW233921   2.560   1.671   4.936  0.5499  1.2777  0.5708
 7487SOL     OW33922   3.414   0.788   8.556 -0.1612  0.2488 -0.6905
 7487SOL    HW133923   3.446   0.868   8.598 -0.3454 -0.1170  0.1436
 7487SOL    HW233924   3.457   0.724   8.612 -2.4922 -0.0697  0.7130
 7488SOL     OW33925   1.918   3.536   4.269  0.0783 -0.2941  0.1162
 7488SOL    HW133926   1.847   3.556   4.209  0.4420  0.0214 -0.2054
 7488SOL    HW233927   1.919   3.607   4.333 -1.2177  0.2423 -0.4606
 7489SOL     OW33928   4.718   3.932  13.005  0.3225  0.2379 -0.1432
 7489SOL    HW133929   4.650   3.877  13.042 -0.0404 -0.9052 -2.4656
 7489SOL    HW233930   0.064   3.913  13.073  1.8752  1.2216 -1.3337
 7490SOL     OW33931   2.960   4.121   7.602  0.0951 -0.1507  0.7070
 7490SOL    HW133932   3.055   4.110   7.614  0.4860  1.2536 -0.9495
 7490SOL    HW233933   2.953   4.211   7.572 -2.3590 -0.7028 -0.3393
 7491SOL     OW33934   0.752   4.045   3.200 -0.0318 -0.0050 -0.4450
 7491SOL    HW133935   0.764   4.048   3.295 -1.3607  2.0460 -0.3270
 7491SOL    HW233936   0.680   3.983   3.192 -0.7423  0.7557 -0.0099
 7492SOL     OW33937   1.848   2.653   6.251 -0.5968  0.2914  0.0479
 7492SOL    HW133938   1.855   2.575   6.195 -1.8529 -0.7435  1.3230
 7492SOL    HW233939   1.799   2.712   6.194  2.3000  1.8881 -0.7306
 7493SOL     OW33940   2.724   4.599   5.429  0.3776  0.2979  0.1288
 7493SOL    HW133941   2.779   4.577   5.353 -3.1782  2.5822 -3.1044
 7493SOL    HW233942   2.747   4.522   5.481 -0.2347 -0.3753 -0.5876
 7494SOL     OW33943   2.752   2.150   0.380  0.6062 -0.4029  0.3089
 7494SOL    HW133944   2.656   2.152   0.376  0.6217  0.3269  0.3188
 7494SOL    HW233945   2.772   2.211   0.309 -1.0782 -2.7500 -2.1903
 7495SOL     OW33946   2.892   0.382  16.525 -0.3112 -0.4709  0.8453
 7495SOL    HW133947   2.836   0.316  16.564  0.6284 -0.8428  1.5766
 7495SOL    HW233948   2.826   0.437  16.484 -0.1505  1.2938  2.9335
 7496SOL     OW33949   2.878   3.883   4.498 -0.0447 -0.2529  0.4032
 7496SOL    HW133950   2.909   3.960   4.545  0.9500  1.4182 -3.0040
 7496SOL    HW233951   2.886   3.917   4.409  0.0204  3.6588  1.8893
 7497SOL     OW33952   2.001   0.444   6.329 -0.1800 -0.5901  0.2036
 7497SOL    HW133953   1.913   0.429   6.293 -0.0779  0.7726 -0.6282
 7497SOL    HW233954   2.033   0.354   6.335 -0.6010 -0.6558  1.3466
 7498SOL     OW33955   0.200   0.553   7.581  0.0277 -0.0997 -0.4959
 7498SOL    HW133956   0.234   0.624   7.636 -0.9601  0.1665 -0.2271
 7498SOL    HW233957   0.148   0.603   7.518 -0.2459  0.9171  0.5274
 7499SOL     OW33958   4.308   2.799   5.516 -0.7211 -0.6652  0.1985
 7499SOL    HW133959   4.220   2.791   5.479 -0.4968 -0.3108 -0.4023
 7499SOL    HW233960   4.290   2.838   5.602 -0.6301  0.2537 -0.2057
 7500SOL     OW33961   3.636   2.966   4.509 -1.3247  0.2111 -0.2799
 7500SOL    HW133962   3.625   2.899   4.577  1.4464 -0.8843 -0.9036
 7500SOL    HW233963   3.558   3.015   4.533  0.2862  2.3955  0.4631
 7501SOL     OW33964   2.895   1.061   4.073  0.1305 -0.4887 -0.2096
 7501SOL    HW133965   2.858   1.138   4.030  2.8920 -0.5440 -2.6603
 7501SOL    HW233966   2.835   1.053   4.148  3.3150  1.6109  2.5736
 7502SOL     OW33967   3.072   1.780   3.562 -0.0006 -0.5094 -0.7816
 7502SOL    HW133968   3.147   1.725   3.538 -1.3448 -2.3043 -0.9555
 7502SOL    HW233969   3.110   1.860   3.527  0.1592  1.1170  3.1437
 7503SOL     OW33970   1.469   2.254  12.381 -0.5391  0.0542  0.7725
 7503SOL    HW133971   1.498   2.327  12.327  0.0018  0.7230  1.9473
 7503SOL    HW233972   1.377   2.279  12.391 -0.1002  1.8100  0.4915
 7504SOL     OW33973   1.423   2.381   6.407  0.0791  0.0006 -0.7002
 7504SOL    HW133974   1.491   2.410   6.468  0.9070 -0.1968 -1.5412
 7504SOL    HW233975   1.352   2.445   6.420  0.8637  0.6743  0.2693
 7505SOL     OW33976   4.294   0.238   6.465 -0.1384  0.0879 -0.2343
 7505SOL    HW133977   4.302   0.176   6.538  1.4930 -1.6960 -1.9085
 7505SOL    HW233978   4.215   0.203   6.424  0.7728 -0.5678 -1.4155
 7506SOL     OW33979   2.678   0.273   3.317 -0.2582 -0.6510  0.0543
 7506SOL    HW133980   2.635   0.285   3.401  1.3562  0.7088  0.6899
 7506SOL    HW233981   2.761   0.227   3.331  1.8093  3.4656  1.3331
 7507SOL     OW33982   2.651   0.945  13.756 -0.3742 -0.6092  0.5959
 7507SOL    HW133983   2.650   0.856  13.721  2.1339 -0.9607  1.3837
 7507SOL    HW233984   2.636   0.921  13.847  0.0641 -1.4770  0.4451
 7508SOL     OW33985   2.242   2.781   5.517  0.3521 -0.4280  0.0504
 7508SOL    HW133986   2.205   2.789   5.606 -0.3535 -0.3508 -0.2475
 7508SOL    HW233987   2.311   2.717   5.534  0.2695 -0.1079  1.6074
 7509SOL     OW33988   3.106   3.723  16.786 -0.0599  0.3863 -0.3719
 7509SOL    HW133989   3.144   3.648  16.833  2.1521  1.2420 -0.7724
 7509SOL    HW233990   3.145   3.719  16.699  0.9738 -0.6911  0.1367
 7510SOL     OW33991   1.732   2.880   3.285 -0.0598 -0.6700  0.0806
 7510SOL    HW133992   1.711   2.868   3.192 -1.2226  3.4669 -0.1869
 7510SOL    HW233993   1.670   2.949   3.308  0.0331  0.5901 -3.3794
 7511SOL     OW33994   3.633   3.745  17.660 -0.4976 -0.1494 -0.1673
 7511SOL    HW133995   3.705   3.704  17.611  1.8078  1.4344  1.9067
 7511SOL    HW233996   3.663   3.726   0.072  1.0094 -0.3403 -0.7264
 7512SOL     OW33997   1.693   3.968   7.689  0.1235 -0.6675 -0.2192
 7512SOL    HW133998   1.742   3.926   7.759  0.8455 -0.3315 -0.5162
 7512SOL    HW233999   1.653   4.038   7.740  1.3024 -2.4043  3.0358
 7513SOL     OW34000   3.708   2.071  15.095 -0.0416  0.0892 -0.0741
 7513SOL    HW134001   3.772   2.125  15.141  0.8024  0.3219 -1.5096
 7513SOL    HW234002   3.770   2.056  15.023  0.6772  2.3382  0.0749
 7514SOL     OW34003   1.892   2.484   9.173  0.1497  0.8281  0.0394
 7514SOL    HW134004   1.932   2.435   9.101  0.5175 -0.6215  1.2338
 7514SOL    HW234005   1.806   2.509   9.139  0.5257  1.5600 -0.3796
 7515SOL     OW34006   0.600   2.764   6.196  0.0524 -0.3689 -0.4530
 7515SOL    HW134007   0.618   2.706   6.270 -1.9891 -1.7486 -1.0472
 7515SOL    HW234008   0.655   2.724   6.129  1.2938  1.1495 -0.3479
 7516SOL     OW34009   4.699   3.185   4.522  0.0426 -0.2325 -0.1731
 7516SOL    HW134010   4.607   3.169   4.500 -0.3993  1.0711  0.7345
 7516SOL    HW234011   4.695   3.236   4.603 -0.2646 -1.6714  0.7277
 7517SOL     OW34012   3.026   3.680   2.030  0.0640  0.2395 -0.1886
 7517SOL    HW134013   3.079   3.730   1.967  0.9008 -1.0169 -0.4666
 7517SOL    HW234014   3.088   3.630   2.083 -1.6033 -1.1834  0.4138
 7518SOL     OW34015   1.328   3.639   5.504  0.4452 -0.2962 -0.0323
 7518SOL    HW134016   1.335   3.655   5.410  3.2213  1.8454  0.5657
 7518SOL    HW234017   1.367   3.552   5.501 -0.1661 -0.5572 -0.4640
 7519SOL     OW34018   3.071   0.912  17.323  0.1926  0.2994 -0.0479
 7519SOL    HW134019   3.014   0.899  17.399  0.2647 -0.9073 -0.1988
 7519SOL    HW234020   3.006   0.894  17.256  1.9960 -0.5442 -1.5861
 7520SOL     OW34021   1.388   2.481   4.430  0.0267 -0.2875 -0.3919
 7520SOL    HW134022   1.427   2.553   4.380  1.3589 -1.8812 -1.6362
 7520SOL    HW234023   1.297   2.466   4.403  0.3329  0.0361 -1.6098
 7521SOL     OW34024   1.278   1.826   0.915  0.2724 -0.1204 -0.5673
 7521SOL    HW134025   1.202   1.850   0.968  0.8058  1.9802 -0.7481
 7521SOL    HW234026   1.334   1.797   0.987 -1.2787  0.3814  0.8488
 7522SOL     OW34027   3.596   3.188   8.334 -0.0179  0.6748 -0.0928
 7522SOL    HW134028   3.675   3.207   8.385 -1.4131  0.1639  2.2524
 7522SOL    HW234029   3.526   3.229   8.386 -0.0806  0.2260  0.1736
 7523SOL     OW34030   2.212   2.534   5.022  0.2492 -0.1777 -0.0267
 7523SOL    HW134031   2.238   2.556   5.112  0.0581 -2.1951  0.5299
 7523SOL    HW234032   2.299   2.537   4.983 -0.7026 -0.6236 -2.1816
 7524SOL     OW34033   4.136   2.181   3.672  0.0798 -0.4868 -0.7377
 7524SOL    HW134034   4.129   2.227   3.756 -4.3404 -1.6374 -0.5090
 7524SOL    HW234035   4.224   2.215   3.652  0.3954 -0.0992  1.3409
 7525SOL     OW34036   0.548   3.135  15.924 -0.2388 -0.4421  0.3103
 7525SOL    HW134037   0.559   3.041  15.910 -0.7315 -0.3671 -0.5656
 7525SOL    HW234038   0.467   3.142  15.874  1.0286  1.8626 -1.3872
 7526SOL     OW34039   3.352   1.345   8.761 -0.1415  0.5143  0.0229
 7526SOL    HW134040   3.398   1.425   8.784  2.2522 -0.3813 -1.6130
 7526SOL    HW234041   3.334   1.327   8.853 -1.0063  3.1736  0.3576
 7527SOL     OW34042   1.911   1.871   3.207 -0.9063 -0.1595  0.3018
 7527SOL    HW134043   1.917   1.967   3.214  2.3821 -0.2183 -1.8206
 7527SOL    HW234044   1.989   1.848   3.156  0.4924  2.4545  1.2295
 7528SOL     OW34045   1.340   0.341   0.381 -0.0338  0.4919  0.6910
 7528SOL    HW134046   1.344   0.421   0.434  1.3336 -0.0584  1.4229
 7528SOL    HW234047   1.432   0.338   0.354  0.2059 -1.7300  1.7724
 7529SOL     OW34048   0.843   4.061   2.424  0.0552 -0.0820 -0.0842
 7529SOL    HW134049   0.932   4.076   2.392 -0.5208  1.3683 -0.9909
 7529SOL    HW234050   0.803   4.135   2.381 -0.6295 -0.0472  0.6083
 7530SOL     OW34051   3.041   4.495   6.337 -0.0774  0.2233  0.0382
 7530SOL    HW134052   3.134   4.475   6.341  0.1194  1.3771  1.1020
 7530SOL    HW234053   3.024   4.506   6.431 -1.9155  0.1446 -0.2867
 7531SOL     OW34054   0.558   2.950   1.044 -0.5318  0.3515 -0.2947
 7531SOL    HW134055   0.610   2.945   0.964  0.7316  1.2969  0.4734
 7531SOL    HW234056   0.578   2.862   1.076 -1.3983  0.6235  1.0062
 7532SOL     OW34057   4.043   1.424  15.854  0.7962  0.2556  0.3939
 7532SOL    HW134058   4.086   1.350  15.897  1.7394  0.5805  0.0081
 7532SOL    HW234059   4.090   1.491  15.904  0.3568  1.1653 -0.3932
 7533SOL     OW34060   1.553   0.405   2.587 -0.2290  0.3555 -0.5704
 7533SOL    HW134061   1.606   0.405   2.667 -1.9400 -0.5779  0.5487
 7533SOL    HW234062   1.563   0.496   2.559  0.3545  0.0357 -1.4168
 7534SOL     OW34063   4.235   4.034   7.010  0.3997  0.1225  0.4135
 7534SOL    HW134064   4.245   3.969   7.080  0.2485 -0.4761 -0.1188
 7534SOL    HW234065   4.296   4.008   6.940 -0.1578  0.6306 -0.2519
 7535SOL     OW34066   4.701   3.707   7.332 -0.3868  0.2439 -0.1504
 7535SOL    HW134067   0.029   3.734   7.253 -0.9864  1.5607 -0.0505
 7535SOL    HW234068   4.650   3.786   7.350  0.1130  0.2726  1.1603
 7536SOL     OW34069   0.247   1.755   3.907  0.1984 -0.4304 -0.2353
 7536SOL    HW134070   0.267   1.684   3.968  0.7754  0.3538  0.4985
 7536SOL    HW234071   0.294   1.829   3.946 -1.9190  1.8459 -1.9939
 7537SOL     OW34072   1.218   1.992  11.446 -0.2809 -0.2757 -0.1839
 7537SOL    HW134073   1.268   2.063  11.407 -0.3152  0.7595  1.6385
 7537SOL    HW234074   1.128   2.001  11.414  0.1442  2.5205 -0.6108
 7538SOL     OW34075   2.265   4.243  15.579 -0.3887 -0.0235  0.2816
 7538SOL    HW134076   2.175   4.244  15.546  0.0386 -2.4844 -0.8709
 7538SOL    HW234077   2.300   4.186  15.512 -0.3487 -0.6782  0.8589
 7539SOL     OW34078   0.984   2.964   8.535  0.2478 -0.3287 -0.1418
 7539SOL    HW134079   1.077   2.976   8.514  0.0787  0.9043 -0.1823
 7539SOL    HW234080   0.993   2.881   8.581 -1.0128  1.2128  2.9572
 7540SOL     OW34081   3.905   4.526   8.458  0.0522  0.1670 -0.0826
 7540SOL    HW134082   3.823   4.575   8.467  0.5502  1.1500 -0.8920
 7540SOL    HW234083   3.867   4.439   8.450 -0.2384  0.3648 -0.8685
 7541SOL     OW34084   0.347   1.496  10.745 -0.2204 -0.2821 -0.6400
 7541SOL    HW134085   0.323   1.423  10.802 -0.2811  1.4753  1.6191
 7541SOL    HW234086   0.405   1.460  10.678  0.6509 -0.2002  0.0718
 7542SOL     OW34087   0.813   4.684  14.054  0.1281  0.4743 -0.8138
 7542SOL    HW134088   0.746   0.033  14.051  0.0058  0.3183 -1.5642
 7542SOL    HW234089   0.894   0.011  14.032  0.6363 -0.7082 -1.4032
 7543SOL     OW34090   4.127   3.535   4.167 -0.1469  0.2120  0.1914
 7543SOL    HW134091   4.129   3.618   4.119  0.2502 -0.7331 -1.4385
 7543SOL    HW234092   4.066   3.547   4.240 -1.3806 -2.2093 -0.4106
 7544SOL     OW34093   1.345   2.375   8.497  0.4093  0.0808  0.0759
 7544SOL    HW134094   1.349   2.399   8.590 -1.8459  0.9486 -0.0324
 7544SOL    HW234095   1.419   2.315   8.493 -0.2792 -0.6851 -1.0524
 7545SOL     OW34096   0.168   0.795   9.162  0.0710  0.7007  0.4074
 7545SOL    HW134097   0.164   0.707   9.200  0.3770  0.4551 -0.1348
 7545SOL    HW234098   0.207   0.845   9.233 -0.3295  0.4137  0.8296
 7546SOL     OW34099   2.464   1.442   0.991 -0.4668  0.1910 -0.7043
 7546SOL    HW134100   2.549   1.476   0.964 -0.9923  2.4277  0.4153
 7546SOL    HW234101   2.456   1.472   1.082 -1.9189 -0.9556 -0.4490
 7547SOL     OW34102   3.730   3.729  16.163  0.5335  0.2945  0.1364
 7547SOL    HW134103   3.652   3.773  16.196 -0.5249 -1.3730 -0.1053
 7547SOL    HW234104   3.767   3.697  16.245 -3.5219 -0.6306  1.6030
 7548SOL     OW34105   3.840   0.916   2.938  0.0706  0.2991 -0.1074
 7548SOL    HW134106   3.835   1.011   2.947 -0.8608  0.3407 -1.0983
 7548SOL    HW234107   3.882   0.904   2.853  1.3405  2.3341  0.2522
 7549SOL     OW34108   1.752   0.042   2.626  0.2247 -0.3164  0.1879
 7549SOL    HW134109   1.810   0.021   2.699  1.5164  2.3407 -0.0613
 7549SOL    HW234110   1.778   0.133   2.609  1.8232 -0.9114 -0.5303
 7550SOL     OW34111   2.420   1.172   0.876 -0.3168  0.0417 -0.0410
 7550SOL    HW134112   2.447   1.258   0.906 -1.7139  1.4334 -2.7497
 7550SOL    HW234113   2.491   1.118   0.912 -1.2369  0.1868  1.9804
 7551SOL     OW34114   2.602   0.661   0.171 -0.1368  0.5097 -0.1520
 7551SOL    HW134115   2.542   0.612   0.227  0.6873 -0.6139 -0.2547
 7551SOL    HW234116   2.650   0.600   0.114  0.7741  0.4993  0.6281
 7552SOL     OW34117   1.494   4.075   1.303  0.5475 -0.4346  0.1735
 7552SOL    HW134118   1.479   4.166   1.330  0.4114 -0.3776 -0.0944
 7552SOL    HW234119   1.408   4.061   1.263 -0.4627 -1.5334  2.7528
 7553SOL     OW34120   3.635   2.765   7.407 -0.1938 -0.0347 -0.8506
 7553SOL    HW134121   3.692   2.765   7.330  1.3219  3.6464  0.2192
 7553SOL    HW234122   3.551   2.762   7.361 -0.3831  1.9503 -0.6587
 7554SOL     OW34123   3.268   1.669   4.040  0.7611  0.1817  0.0563
 7554SOL    HW134124   3.199   1.695   3.979  1.4756  0.9400 -0.4318
 7554SOL    HW234125   3.295   1.753   4.077  1.2782  0.0293  0.0214
 7555SOL     OW34126   3.760   1.021   7.589  0.1255  0.5885 -0.1609
 7555SOL    HW134127   3.811   1.004   7.510  1.1222  2.7749  0.0033
 7555SOL    HW234128   3.722   1.105   7.562  0.6378  0.9965  0.3708
 7556SOL     OW34129   2.221   1.002  10.312 -0.1588  0.5737 -0.2322
 7556SOL    HW134130   2.293   0.939  10.312 -2.3554 -1.9375  2.6706
 7556SOL    HW234131   2.167   0.980  10.237 -1.5270  0.6573  0.7140
 7557SOL     OW34132   0.429   2.583   1.792  0.1170  0.3690 -0.5406
 7557SOL    HW134133   0.429   2.584   1.696 -1.2230  1.2502 -0.5361
 7557SOL    HW234134   0.521   2.605   1.806  0.6463 -2.5238  0.4777
 7558SOL     OW34135   3.658   3.819  11.177 -0.5447  0.2062  0.2413
 7558SOL    HW134136   3.718   3.886  11.209 -1.3454  1.9960 -1.9944
 7558SOL    HW234137   3.647   3.841  11.084 -0.3405  0.2462  0.2264
 7559SOL     OW34138   2.669   0.901   3.875 -1.1221 -0.3098  0.3202
 7559SOL    HW134139   2.679   0.806   3.864 -1.9109 -0.1830 -1.4914
 7559SOL    HW234140   2.756   0.928   3.847 -1.3061 -1.6207 -1.5139
 7560SOL     OW34141   1.222   1.171   7.961 -0.1641 -0.6330  0.7859
 7560SOL    HW134142   1.175   1.246   7.926  1.2941 -0.4728 -0.8152
 7560SOL    HW234143   1.291   1.165   7.895  0.1763  0.9881  1.0081
 7561SOL     OW34144   3.197   0.093  15.323  0.7096  0.2828 -0.6191
 7561SOL    HW134145   3.103   0.109  15.326  0.6391 -0.1494 -0.5010
 7561SOL    HW234146   3.203   0.074  15.417 -2.8546  1.5713 -0.1308
 7562SOL     OW34147   3.950   4.186  10.195  0.1849 -0.1338  0.6931
 7562SOL    HW134148   4.010   4.123  10.156 -0.2625 -0.1108 -0.0306
 7562SOL    HW234149   3.949   4.168  10.289  1.1386 -0.1588  0.7005
 7563SOL     OW34150   0.450   1.566   5.329  0.2901  0.6550  0.1607
 7563SOL    HW134151   0.460   1.609   5.244 -3.1383  0.2010 -0.4532
 7563SOL    HW234152   0.521   1.607   5.379 -0.3392  1.5878  0.2974
 7564SOL     OW34153   3.458   2.660   5.851 -0.2118  0.3182  0.3888
 7564SOL    HW134154   3.508   2.732   5.814  0.5037  0.4318  1.5738
 7564SOL    HW234155   3.484   2.587   5.794  1.3045 -1.2180  3.0576
 7565SOL     OW34156   0.468   2.775   3.230  0.0391 -0.2157 -0.7086
 7565SOL    HW134157   0.410   2.714   3.184 -0.3509  0.3284 -0.9316
 7565SOL    HW234158   0.460   2.743   3.320 -0.3023 -2.3522 -1.5091
 7566SOL     OW34159   0.038   0.259  12.839 -0.4325 -0.5655  0.4136
 7566SOL    HW134160   0.018   0.353  12.838 -1.5007 -0.7753  1.7872
 7566SOL    HW234161   0.093   0.242  12.763  0.9448 -0.4881  1.3816
 7567SOL     OW34162   3.146   3.564   3.206 -0.1243 -0.0909 -0.2631
 7567SOL    HW134163   3.082   3.608   3.150 -0.3873 -1.4463 -1.0361
 7567SOL    HW234164   3.094   3.540   3.282 -0.6646  0.2892 -0.5135
 7568SOL     OW34165   2.124   2.669  17.438  0.4702 -0.6607 -0.2535
 7568SOL    HW134166   2.124   2.580  17.404  0.0344 -0.2096 -1.4493
 7568SOL    HW234167   2.073   2.711  17.369 -0.5153 -2.3549 -0.5577
 7569SOL     OW34168   0.131   4.219   8.769 -0.1119 -0.0188  0.2020
 7569SOL    HW134169   0.178   4.259   8.842 -0.3668  0.9610 -0.1702
 7569SOL    HW234170   0.089   4.147   8.816  0.3978 -0.3494  0.1454
 7570SOL     OW34171   1.543   0.098   8.818  0.3743  0.4024 -0.3841
 7570SOL    HW134172   1.570   0.142   8.738  1.4383 -3.7694 -2.2897
 7570SOL    HW234173   1.538   0.174   8.876  1.0241 -1.3827  2.0277
 7571SOL     OW34174   1.447   2.776  14.585  0.2731 -0.1275  0.4396
 7571SOL    HW134175   1.425   2.693  14.543  0.0372 -0.5222  1.3426
 7571SOL    HW234176   1.536   2.780  14.551  0.1110 -1.6523 -0.1826
 7572SOL     OW34177   3.521   0.517  14.986  0.3383 -0.3166 -0.1727
 7572SOL    HW134178   3.524   0.608  14.958 -3.4640  0.6784  2.6741
 7572SOL    HW234179   3.454   0.513  15.054  1.0524  3.4892  0.7063
 7573SOL     OW34180   0.458   4.673   5.524 -0.2362  0.3850 -0.4129
 7573SOL    HW134181   0.451   4.703   5.614 -1.0944  0.7249 -0.5957
 7573SOL    HW234182   0.524   0.018   5.496  1.3687 -0.0338  2.5047
 7574SOL     OW34183   2.602   4.461   4.490 -0.5250  0.1035  0.1357
 7574SOL    HW134184   2.595   4.501   4.576 -0.1609 -2.5652  1.3962
 7574SOL    HW234185   2.650   4.528   4.442  0.1841  0.8637  1.9269
 7575SOL     OW34186   3.309   0.289  11.277  0.2870  0.0425 -0.0674
 7575SOL    HW134187   3.303   0.200  11.314  0.4035 -0.2595 -0.7736
 7575SOL    HW234188   3.297   0.274  11.184 -0.4939 -1.5410  0.2678
 7576SOL     OW34189   3.454   2.228   0.204  0.0705  0.3210 -0.3593
 7576SOL    HW134190   3.444   2.304   0.262 -0.7151 -0.7564  0.9317
 7576SOL    HW234191   3.429   2.280   0.128 -0.5826  1.0718  0.3670
 7577SOL     OW34192   0.014   4.311  12.443 -0.2709  0.8073  0.2019
 7577SOL    HW134193   0.023   4.233  12.497  1.4769  0.1793 -1.0054
 7577SOL    HW234194   0.027   4.272  12.357  2.0284 -0.8783  1.3417
 7578SOL     OW34195   3.072   0.986   5.024 -0.2487 -0.4754  0.1100
 7578SOL    HW134196   2.983   0.954   5.007 -0.6850  0.0252  1.4713
 7578SOL    HW234197   3.092   1.009   4.933 -0.4592  1.1370  0.4710
 7579SOL     OW34198   4.345   1.728  11.339  0.2071  0.6999 -0.5123
 7579SOL    HW134199   4.415   1.684  11.290  0.6742 -1.2693  1.9122
 7579SOL    HW234200   4.397   1.798  11.379  1.5190 -0.3962 -0.2958
 7580SOL     OW34201   3.461   2.025   3.168  0.2992  0.4758  0.4482
 7580SOL    HW134202   3.446   1.990   3.081 -0.7531  0.9772  0.4184
 7580SOL    HW234203   3.554   2.004   3.171  0.2243  0.0259 -0.6419
 7581SOL     OW34204   4.462   2.592   0.444  0.1019  0.4546  0.1115
 7581SOL    HW134205   4.517   2.590   0.521  0.4034  1.3190 -0.0797
 7581SOL    HW234206   4.409   2.512   0.445  0.9310 -0.0859  1.2021
 7582SOL     OW34207   3.288   1.177  14.992  0.4318  0.4129  0.4080
 7582SOL    HW134208   3.338   1.181  14.911  3.1813  0.6130  2.1442
 7582SOL    HW234209   3.345   1.234  15.042  0.0916  0.9968  0.1351
 7583SOL     OW34210   2.468   1.958   9.676  0.0322 -0.7634  0.3677
 7583SOL    HW134211   2.408   1.999   9.614  2.1152  1.4721 -0.1868
 7583SOL    HW234212   2.553   1.996   9.655 -0.9926  1.0721 -0.4222
 7584SOL     OW34213   3.059   3.336   4.476 -0.0177 -0.5084 -0.0219
 7584SOL    HW134214   3.031   3.359   4.564  0.5460  0.5837 -0.1208
 7584SOL    HW234215   3.051   3.241   4.486  0.5547 -0.8733 -3.0639
 7585SOL     OW34216   1.048   0.036   0.467 -0.3066 -0.2100 -0.2864
 7585SOL    HW134217   1.072   0.108   0.409 -1.3619  1.4384  1.3279
 7585SOL    HW234218   1.033   0.084   0.549 -0.3340 -0.1801 -0.3089
 7586SOL     OW34219   4.411   1.164  12.388  0.5987 -0.5864  0.3242
 7586SOL    HW134220   4.345   1.216  12.433 -1.1791 -2.1313 -0.4961
 7586SOL    HW234221   4.466   1.238  12.361  2.3742 -1.6425  1.0734
 7587SOL     OW34222   2.663   3.307   0.028  0.0570  0.0556  0.0709
 7587SOL    HW134223   2.661   3.214   0.050  2.0452 -0.0863 -0.3338
 7587SOL    HW234224   2.624   3.311  17.617  0.1634  1.9223  0.1021
 7588SOL     OW34225   1.196   2.446   8.049 -0.4640  0.5132 -0.1133
 7588SOL    HW134226   1.104   2.426   8.069 -0.2340 -2.6164 -2.2338
 7588SOL    HW234227   1.251   2.368   8.045 -0.2597  0.6946 -0.6916
 7589SOL     OW34228   3.026   4.501  12.207 -0.2226  0.9621  0.0686
 7589SOL    HW134229   3.121   4.505  12.215 -0.4686  1.9763  2.4442
 7589SOL    HW234230   3.002   4.592  12.222 -0.3527  0.7746  0.9905
 7590SOL     OW34231   2.262   3.065   1.221  0.0276 -0.6787 -1.0128
 7590SOL    HW134232   2.190   3.013   1.187  0.7606 -0.8283 -2.3130
 7590SOL    HW234233   2.308   3.001   1.276 -2.3743 -1.3334  0.2783
 7591SOL     OW34234   0.511   4.249   4.441  0.0582  0.5017  0.3771
 7591SOL    HW134235   0.569   4.176   4.460  0.8873  1.3128  0.9565
 7591SOL    HW234236   0.443   4.202   4.393  0.5683 -0.0733  0.2226
 7592SOL     OW34237   0.781   0.770   9.379  0.6662  0.3376  0.0554
 7592SOL    HW134238   0.797   0.686   9.421 -0.5683 -0.6747 -1.5144
 7592SOL    HW234239   0.842   0.764   9.306 -0.0846  1.3627 -0.6685
 7593SOL     OW34240   0.325   2.984   5.628 -0.1516 -0.1215  0.1717
 7593SOL    HW134241   0.348   2.892   5.621  0.5320 -0.0484  1.5017
 7593SOL    HW234242   0.281   2.994   5.713  0.1684  3.4760 -0.0570
 7594SOL     OW34243   3.765   0.780  10.989 -0.2490  0.3068  0.1791
 7594SOL    HW134244   3.839   0.820  11.034 -0.5811 -0.2103  1.1721
 7594SOL    HW234245   3.766   0.835  10.910 -0.3497 -0.9862 -0.7230
 7595SOL     OW34246   1.971   4.048   8.053 -0.3125 -0.1521  0.2230
 7595SOL    HW134247   1.926   4.121   8.010 -0.4319  0.1338  0.8324
 7595SOL    HW234248   1.923   4.026   8.133  0.6161 -1.0646  0.5294
 7596SOL     OW34249   0.921   0.650   8.028 -0.5758 -0.0591  0.0572
 7596SOL    HW134250   0.878   0.606   8.101 -0.6182  0.5163  0.3783
 7596SOL    HW234251   0.941   0.577   7.968 -1.1557  0.6849 -1.0442
 7597SOL     OW34252   2.104   2.665   4.098 -0.4100  0.5772  0.2012
 7597SOL    HW134253   2.092   2.597   4.032 -1.9463  0.7294  0.3391
 7597SOL    HW234254   2.199   2.670   4.108  0.0375 -1.5394 -3.1833
 7598SOL     OW34255   3.230   2.876   6.069  0.0374 -0.1681  0.0972
 7598SOL    HW134256   3.191   2.883   6.157  0.4752 -0.8819  0.3482
 7598SOL    HW234257   3.278   2.793   6.077 -2.0933 -1.3095  1.1658
 7599SOL     OW34258   0.582   3.407   4.226 -0.3525 -0.3481  0.3507
 7599SOL    HW134259   0.571   3.422   4.320  2.1653  1.1391  0.3927
 7599SOL    HW234260   0.490   3.395   4.200 -0.4513  0.4090  0.3573
 7600SOL     OW34261   0.580   1.650   4.803  0.2366  0.3491 -0.1467
 7600SOL    HW134262   0.557   1.680   4.891 -3.5530 -3.0971  0.0936
 7600SOL    HW234263   0.564   1.730   4.754 -1.8356 -1.0096 -1.7196
 7601SOL     OW34264   3.294   1.332  17.305 -0.3127  0.5555  1.0174
 7601SOL    HW134265   3.219   1.339  17.363 -1.1429  0.2135 -0.0132
 7601SOL    HW234266   3.307   1.238  17.314 -0.0154  0.7610  2.7525
 7602SOL     OW34267   1.513   1.257   1.701  0.4514 -0.0244 -1.1513
 7602SOL    HW134268   1.454   1.187   1.674 -1.4687  0.1307  2.7738
 7602SOL    HW234269   1.522   1.235   1.794 -1.4334 -0.2855 -1.0430
 7603SOL     OW34270   2.739   1.925   4.743  0.4624  0.4248 -0.2641
 7603SOL    HW134271   2.775   1.979   4.672 -0.7472 -1.0514 -2.0091
 7603SOL    HW234272   2.698   1.857   4.690  0.1136  0.7578 -0.4292
 7604SOL     OW34273   2.496   1.525  13.595 -0.0376 -0.0829 -0.3155
 7604SOL    HW134274   2.557   1.458  13.564  0.3524 -0.4090  1.1561
 7604SOL    HW234275   2.413   1.491  13.562 -0.9265  0.7240  1.0778
 7605SOL     OW34276   0.146   1.595   6.605  0.0837  0.2583 -0.0978
 7605SOL    HW134277   0.204   1.534   6.651 -0.6660 -0.0810  0.4034
 7605SOL    HW234278   0.081   1.531   6.576  0.1461  0.6281 -1.0370
 7606SOL     OW34279   0.141   0.612   8.376 -0.1774  0.5574 -0.1753
 7606SOL    HW134280   0.087   0.691   8.364 -1.1007 -0.1486 -0.7635
 7606SOL    HW234281   0.158   0.601   8.282 -0.0526  2.0728 -0.3318
 7607SOL     OW34282   3.483   2.414   2.067  0.4762  0.7660  0.2968
 7607SOL    HW134283   3.414   2.477   2.087 -1.3195 -0.9384 -0.6090
 7607SOL    HW234284   3.559   2.432   2.123  1.6394  0.5956 -1.2302
 7608SOL     OW34285   3.185   4.170   3.107  0.6518 -0.3381  0.0822
 7608SOL    HW134286   3.141   4.121   3.176 -1.2026  2.4287  0.8539
 7608SOL    HW234287   3.264   4.204   3.148  0.2291 -1.3714  1.7561
 7609SOL     OW34288   4.440   3.183   3.123 -0.4280  0.3413  0.3035
 7609SOL    HW134289   4.434   3.088   3.115 -0.4460  0.3027  0.7934
 7609SOL    HW234290   4.382   3.195   3.198 -1.2119 -2.2624  0.1053
 7610SOL     OW34291   0.241   0.850   5.388 -0.4665 -0.0647 -0.3047
 7610SOL    HW134292   0.239   0.905   5.310  0.3232  0.4111  0.0152
 7610SOL    HW234293   0.151   0.818   5.387 -0.4039 -0.2975  1.6541
 7611SOL     OW34294   2.104   2.306   4.898 -0.0418 -0.7078  0.1490
 7611SOL    HW134295   2.153   2.224   4.899  1.8725  0.3672 -2.9793
 7611SOL    HW234296   2.161   2.367   4.945  2.0690 -1.2380 -1.6956
 7612SOL     OW34297   0.571   0.438   9.856  1.0238  0.4151  0.4009
 7612SOL    HW134298   0.588   0.364   9.797  1.1857  1.5049 -0.9290
 7612SOL    HW234299   0.630   0.503   9.815  1.4399  0.9611  1.8765
 7613SOL     OW34300   1.529   2.990  13.433 -0.2972 -0.2039  0.8890
 7613SOL    HW134301   1.485   2.906  13.419 -0.3602 -0.0634  0.2629
 7613SOL    HW234302   1.527   3.036  13.349 -0.8695 -2.7072 -0.4725
 7614SOL     OW34303   3.752   3.726   2.956  0.2507 -0.6278 -0.2516
 7614SOL    HW134304   3.681   3.702   3.016 -0.0350  1.8890  0.4517
 7614SOL    HW234305   3.750   3.822   2.963 -0.7278 -0.5491 -1.6117
 7615SOL     OW34306   2.533   1.652   4.196  0.0055 -0.1191 -0.3516
 7615SOL    HW134307   2.562   1.728   4.247  0.5097 -0.1130 -0.6499
 7615SOL    HW234308   2.582   1.669   4.115  1.0717  0.0640  0.3299
 7616SOL     OW34309   4.459   3.945   5.743 -0.2783 -0.7026 -0.2435
 7616SOL    HW134310   4.475   3.998   5.664  0.3753 -0.0177  0.3543
 7616SOL    HW234311   4.382   3.990   5.778 -0.5107  0.4294 -2.1747
 7617SOL     OW34312   2.495   2.461  17.586 -0.4347  0.0453  0.0729
 7617SOL    HW134313   2.540   2.390  17.541 -2.3480 -0.0842 -1.6026
 7617SOL    HW234314   2.466   2.415  17.665  0.4448  1.8606  1.4559
 7618SOL     OW34315   1.957   2.219   5.500 -0.0075  0.3655  0.2264
 7618SOL    HW134316   1.862   2.216   5.502  0.0263 -1.3823 -0.9546
 7618SOL    HW234317   1.981   2.288   5.562  1.9494 -1.8694  1.9781
 7619SOL     OW34318   2.347   1.241  12.810  0.0459  0.9704 -1.1580
 7619SOL    HW134319   2.316   1.176  12.746 -1.1906  0.0618  0.3540
 7619SOL    HW234320   2.299   1.214  12.889 -0.3548  3.4003 -0.5708
 7620SOL     OW34321   2.883   3.491   0.057  0.0776  0.3661 -0.8157
 7620SOL    HW134322   2.839   3.560   0.008  2.2911  1.3476 -1.4309
 7620SOL    HW234323   2.812   3.429   0.069 -0.5864  1.5331  1.1665
 7621SOL     OW34324   4.540   0.660  12.490  0.6841 -0.0513  0.1504
 7621SOL    HW134325   4.457   0.668  12.536  0.6377  1.3488 -0.1925
 7621SOL    HW234326   4.549   0.747  12.451  1.7436 -0.1510  0.1802
 7622SOL     OW34327   3.291   1.062  17.325 -0.1969 -0.0032  0.1150
 7622SOL    HW134328   3.339   0.989  17.365  0.9125 -0.6437 -2.3570
 7622SOL    HW234329   3.204   1.020  17.328 -0.9292  1.5324  0.0622
 7623SOL     OW34330   4.128   3.408  12.899  0.4428  0.1796 -0.2026
 7623SOL    HW134331   4.189   3.418  12.972  0.7872 -1.9474 -0.2084
 7623SOL    HW234332   4.150   3.488  12.851 -0.3976  0.5056 -0.0540
 7624SOL     OW34333   3.228   3.388   0.045  0.0684  0.4770 -0.1027
 7624SOL    HW134334   3.196   3.391  17.631 -0.6541  1.3391  0.1820
 7624SOL    HW234335   3.307   3.442   0.041 -1.4791  3.0221  3.1502
 7625SOL     OW34336   3.054   3.772   2.682  0.6472  0.1579  0.6775
 7625SOL    HW134337   3.020   3.691   2.718  0.2063 -0.8733 -2.0815
 7625SOL    HW234338   2.983   3.835   2.685 -0.3788 -1.0243  0.9333
 7626SOL     OW34339   2.922   3.084   8.000  0.2675  0.6683  0.1253
 7626SOL    HW134340   2.978   3.146   8.046  2.0410  0.4051 -1.6688
 7626SOL    HW234341   2.997   3.039   7.962  0.2748  1.0370 -0.2987
 7627SOL     OW34342   4.213   3.133   5.755  0.1504  0.1508  0.4826
 7627SOL    HW134343   4.142   3.068   5.753 -0.4067  0.7401  0.9348
 7627SOL    HW234344   4.277   3.100   5.818  0.7135  0.2556 -0.0346
 7628SOL     OW34345   2.786   0.525   4.435  0.5628 -0.2164 -0.1061
 7628SOL    HW134346   2.765   0.617   4.418 -0.2041 -0.0426  1.8349
 7628SOL    HW234347   2.875   0.518   4.401  0.5653 -0.8202  0.0228
 7629SOL     OW34348   3.857   3.387   8.170 -0.4682 -0.5399 -0.8831
 7629SOL    HW134349   3.850   3.381   8.265  1.6929  1.6303 -0.5874
 7629SOL    HW234350   3.873   3.295   8.145 -0.3522 -0.7267 -0.1056
 7630SOL     OW34351   0.269   4.581   9.576 -0.6415  0.8019 -0.0328
 7630SOL    HW134352   0.184   4.587   9.533  0.6198 -2.3286 -2.9578
 7630SOL    HW234353   0.319   4.535   9.508 -2.2031 -1.7901  0.5515
 7631SOL     OW34354   2.829   0.261   3.054  0.1529  0.1081 -0.3297
 7631SOL    HW134355   2.856   0.351   3.071 -0.8190  0.9280 -3.2241
 7631SOL    HW234356   2.744   0.277   3.014  0.9332 -0.6959 -2.2960
 7632SOL     OW34357   0.040   0.689  15.473  0.1634  0.3388  0.1928
 7632SOL    HW134358   0.047   0.778  15.509  0.9824  0.1997  0.3791
 7632SOL    HW234359   0.045   0.693  15.378 -1.1308 -2.6238 -0.0083
 7633SOL     OW34360   3.507   4.090   2.245  0.0483 -0.1291  0.4946
 7633SOL    HW134361   3.483   4.071   2.336  1.0630 -0.2511  0.7317
 7633SOL    HW234362   3.460   4.166   2.209 -0.1294 -0.0262  0.9462
 7634SOL     OW34363   0.006   1.524   7.893 -0.0610  0.3088  0.3236
 7634SOL    HW134364   4.653   1.572   7.935  0.2221  1.3084 -0.3520
 7634SOL    HW234365   4.710   1.436   7.929 -1.0696  0.0901 -0.6098
 7635SOL     OW34366   1.955   3.580  15.320 -0.0959 -0.0633  0.2811
 7635SOL    HW134367   1.876   3.591  15.267 -1.4042 -1.1084  2.0303
 7635SOL    HW234368   1.989   3.669  15.329 -0.1343 -0.0156 -0.0255
 7636SOL     OW34369   2.698   1.154   2.804  0.1771 -0.4598 -0.1486
 7636SOL    HW134370   2.684   1.232   2.750  2.0507  0.6606  0.9735
 7636SOL    HW234371   2.790   1.133   2.790  0.2892 -0.4704  0.6062
 7637SOL     OW34372   2.318   4.542   4.896 -0.2279 -0.1451  0.6009
 7637SOL    HW134373   2.317   4.579   4.984 -1.1613  1.4203 -0.0590
 7637SOL    HW234374   2.304   4.449   4.913  2.2125 -0.3933  1.2037
 7638SOL     OW34375   0.146   3.972   8.071  0.0963  0.0313 -0.7272
 7638SOL    HW134376   0.175   4.051   8.116  2.6054 -1.4893  0.3211
 7638SOL    HW234377   0.228   3.931   8.042  0.5864  0.4988 -0.0072
 7639SOL     OW34378   1.597   1.023   3.943 -0.0705  0.1314 -0.4871
 7639SOL    HW134379   1.675   1.054   3.989  1.1813 -2.3407 -0.8935
 7639SOL    HW234380   1.589   1.087   3.872  1.1796  1.2133  0.3518
 7640SOL     OW34381   4.144   3.059   2.227 -0.2115  0.2116  0.4412
 7640SOL    HW134382   4.072   3.033   2.286 -2.0679  0.9484 -1.5176
 7640SOL    HW234383   4.118   3.018   2.144  2.1347 -0.2775 -0.0516
 7641SOL     OW34384   3.685   4.045  10.209 -0.1097 -0.1955  0.1956
 7641SOL    HW134385   3.766   4.076  10.167 -0.4335  1.8751  1.0503
 7641SOL    HW234386   3.624   4.100  10.159 -0.1543 -2.0681 -1.7986
 7642SOL     OW34387   2.488   4.462   6.930 -0.3009 -0.1183 -0.0774
 7642SOL    HW134388   2.487   4.531   6.864 -1.0134 -1.0531 -1.0438
 7642SOL    HW234389   2.429   4.394   6.899  1.1694 -1.4932  0.1398
 7643SOL     OW34390   3.076   2.612  17.434 -0.4156  0.5599  0.0405
 7643SOL    HW134391   3.129   2.691  17.441  0.0445  0.2720 -0.2490
 7643SOL    HW234392   3.060   2.585  17.524 -1.4065  1.0134  0.0086
 7644SOL     OW34393   3.819   2.612  10.785  0.1321 -0.0431 -0.0018
 7644SOL    HW134394   3.831   2.593  10.692  2.1314  0.9827  0.0373
 7644SOL    HW234395   3.727   2.636  10.775  0.1656  0.4344  0.8038
 7645SOL     OW34396   4.269   3.360   8.838 -0.1925 -0.0486 -0.1629
 7645SOL    HW134397   4.241   3.322   8.754  1.8281 -1.7512 -0.0899
 7645SOL    HW234398   4.204   3.328   8.900  0.9559  0.1371  1.1344
 7646SOL     OW34399   1.710   4.440   6.833 -0.3763 -0.9494  0.4923
 7646SOL    HW134400   1.715   4.434   6.929 -0.5796  1.4785  0.6568
 7646SOL    HW234401   1.689   4.352   6.802 -0.5492 -0.6187 -0.3187
 7647SOL     OW34402   4.516   0.548  15.449 -0.3633 -0.3375 -0.0675
 7647SOL    HW134403   4.540   0.481  15.512 -3.8211  0.2064  1.8314
 7647SOL    HW234404   4.598   0.597  15.441 -0.4402 -0.4664 -1.7991
 7648SOL     OW34405   3.372   0.010   0.392 -0.1564  0.5266  0.5464
 7648SOL    HW134406   3.296   0.055   0.428  0.5073 -0.6135  3.3931
 7648SOL    HW234407   3.331   4.670   0.328 -0.3658 -0.0667  1.2153
 7649SOL     OW34408   3.761   1.472  10.679 -0.9846 -0.8980  0.0163
 7649SOL    HW134409   3.751   1.471  10.775  0.0780 -1.8667  0.1120
 7649SOL    HW234410   3.672   1.499  10.659 -0.4130  1.3383  0.5137
 7650SOL     OW34411   3.041   3.995   4.840  0.0024  0.1706 -0.4290
 7650SOL    HW134412   2.981   3.944   4.894  1.2654 -1.0515 -0.1711
 7650SOL    HW234413   2.979   4.061   4.809  0.8243  1.5188  0.8282
 7651SOL     OW34414   4.339   0.249   4.443 -0.4783 -0.0562 -0.1170
 7651SOL    HW134415   4.331   0.343   4.457  1.5657  0.0259  0.5760
 7651SOL    HW234416   4.246   0.228   4.437  0.2002 -2.9055 -0.5820
 7652SOL     OW34417   3.559   0.086   2.446 -0.2122  0.2131 -0.7453
 7652SOL    HW134418   3.652   0.108   2.436 -0.0256  0.4493  1.3976
 7652SOL    HW234419   3.564   4.714   2.478  1.0853 -0.3218 -2.4991
 7653SOL     OW34420   1.838   2.434   3.544  0.1621 -0.2528 -0.1278
 7653SOL    HW134421   1.801   2.480   3.469  1.3431  1.3728  0.2626
 7653SOL    HW234422   1.762   2.379   3.558 -0.2041  0.7518  1.9363
 7654SOL     OW34423   3.409   1.847   9.387  0.0475 -0.5048  0.4274
 7654SOL    HW134424   3.494   1.869   9.425 -0.1238  0.7515  0.0847
 7654SOL    HW234425   3.415   1.880   9.297  0.0900  0.5767  0.8295
 7655SOL     OW34426   4.389   0.546   5.193  0.1475  0.3373 -0.1517
 7655SOL    HW134427   4.325   0.517   5.259 -0.8290  1.1245 -0.7613
 7655SOL    HW234428   4.393   0.472   5.132  1.5216 -1.6247  2.2882
 7656SOL     OW34429   1.654   1.650   5.837 -0.3071 -0.0583 -0.1723
 7656SOL    HW134430   1.660   1.737   5.797 -0.8548 -0.2638 -0.7010
 7656SOL    HW234431   1.605   1.601   5.771  1.3176 -0.5521 -1.0202
 7657SOL     OW34432   4.348   0.452   7.818 -0.5607  0.1628  0.8146
 7657SOL    HW134433   4.329   0.465   7.911 -1.4806 -0.2834  0.6861
 7657SOL    HW234434   4.309   0.366   7.802 -0.1753  0.3399 -1.1154
 7658SOL     OW34435   3.005   0.154   2.670 -0.0707 -0.7926 -1.1667
 7658SOL    HW134436   3.076   0.096   2.698  0.9683  1.1781  0.3108
 7658SOL    HW234437   2.944   0.146   2.744 -1.3234  1.6522 -1.9330
 7659SOL     OW34438   1.201   0.188   6.147 -0.7546  0.4724  0.0285
 7659SOL    HW134439   1.287   0.169   6.109 -1.1434 -1.4788  0.1038
 7659SOL    HW234440   1.207   0.282   6.159 -0.1140  0.3898  0.3269
 7660SOL     OW34441   4.576   3.579  17.517 -0.4464  0.3302  0.1631
 7660SOL    HW134442   4.655   3.570  17.570 -0.5895 -2.0661 -0.0479
 7660SOL    HW234443   4.582   3.501  17.463  0.5036 -0.2130  1.0562
 7661SOL     OW34444   4.579   2.832   4.109 -0.3647 -0.2550  0.6725
 7661SOL    HW134445   4.532   2.880   4.040  1.0297 -2.2634 -1.6765
 7661SOL    HW234446   4.632   2.903   4.144  0.4321  0.0273 -1.0883
 7662SOL     OW34447   0.655   4.495   4.674 -0.2273 -0.2508  0.0726
 7662SOL    HW134448   0.592   4.436   4.715 -0.8057  0.4725  0.2231
 7662SOL    HW234449   0.600   4.555   4.624  1.0949  0.8629 -0.0469
 7663SOL     OW34450   4.334   0.546   5.713 -0.3908 -0.7742  0.4870
 7663SOL    HW134451   4.246   0.581   5.730  0.4043  1.7611 -0.6098
 7663SOL    HW234452   4.367   0.615   5.655  0.3889  0.7311  2.7594
 7664SOL     OW34453   4.059   0.139   8.690  0.7363 -0.1242  0.4363
 7664SOL    HW134454   4.142   0.095   8.709  1.0366  0.2981  0.0969
 7664SOL    HW234455   4.013   0.103   8.766  0.5346  0.7931  0.7507
 7665SOL     OW34456   0.703   3.466  15.506 -0.1619  0.6092 -0.0348
 7665SOL    HW134457   0.611   3.490  15.495 -0.9580 -1.1758  2.9104
 7665SOL    HW234458   0.733   3.494  15.419 -1.1466 -0.3685 -0.6817
 7666SOL     OW34459   3.842   3.239   6.606 -0.0298 -0.3612 -0.7522
 7666SOL    HW134460   3.787   3.302   6.559  0.6558  0.0976 -0.9339
 7666SOL    HW234461   3.895   3.300   6.658  0.4078  0.0311 -1.6723
 7667SOL     OW34462   4.635   1.334   3.366 -0.2397  0.4656 -0.3157
 7667SOL    HW134463   4.606   1.329   3.457 -0.8214 -0.4793 -0.5520
 7667SOL    HW234464   4.556   1.372   3.326 -0.4441  0.7952  0.4095
 7668SOL     OW34465   3.363   2.069   2.474  0.1826 -0.0692  0.0179
 7668SOL    HW134466   3.333   1.978   2.480  0.7926 -0.1340  2.0935
 7668SOL    HW234467   3.343   2.100   2.562  1.3692  0.2475  0.1651
 7669SOL     OW34468   2.854   2.372  17.559  0.1490  0.1815 -0.3515
 7669SOL    HW134469   2.935   2.354  17.512 -0.2111 -3.1638  0.2682
 7669SOL    HW234470   2.789   2.358  17.490 -0.7522 -1.7894  0.8973
 7670SOL     OW34471   2.950   1.700  15.962 -0.7182 -0.3689 -0.4923
 7670SOL    HW134472   2.924   1.730  16.049 -0.2779 -0.1279 -0.4444
 7670SOL    HW234473   2.990   1.776  15.920 -1.8470  0.8622  0.6556
 7671SOL     OW34474   1.895   3.102   6.269  0.0904  0.1518 -0.7608
 7671SOL    HW134475   1.887   3.163   6.342  0.3289  0.8667 -1.3341
 7671SOL    HW234476   1.844   3.151   6.205  0.9966 -0.7128 -2.1433
 7672SOL     OW34477   2.820   4.709   3.094  0.1185 -0.0793  0.8349
 7672SOL    HW134478   2.737   4.715   3.047  0.1537 -1.7232  0.5497
 7672SOL    HW234479   2.826   0.077   3.135 -1.3433  1.0377 -1.3014
 7673SOL     OW34480   4.339   3.208   5.314 -0.0421  0.1606  0.7415
 7673SOL    HW134481   4.322   3.117   5.292  1.4327  0.1926 -0.4962
 7673SOL    HW234482   4.316   3.258   5.235 -1.1178 -3.0572 -0.9547
 7674SOL     OW34483   2.168   1.151   9.734  0.3216  0.0284 -0.5802
 7674SOL    HW134484   2.108   1.219   9.764  1.4363  0.5835  0.3747
 7674SOL    HW234485   2.200   1.194   9.655  1.2334 -0.3889 -0.4277
 7675SOL     OW34486   3.833   1.743   5.605  0.4357  0.2258 -0.8750
 7675SOL    HW134487   3.802   1.742   5.514 -0.8588 -0.3159 -0.4296
 7675SOL    HW234488   3.791   1.660   5.627  2.9707 -1.0039 -0.6384
 7676SOL     OW34489   2.847   2.403   3.272  0.2297 -0.6619 -0.1010
 7676SOL    HW134490   2.827   2.359   3.190  1.4463  1.2816 -1.4464
 7676SOL    HW234491   2.776   2.467   3.273  1.6873  0.9808  0.8602
 7677SOL     OW34492   4.641   1.502   2.636 -0.7983  0.0333  0.3008
 7677SOL    HW134493   4.581   1.488   2.710 -1.2187  1.6402  0.2824
 7677SOL    HW234494   0.006   1.472   2.671 -1.5851  1.1911  3.2173
 7678SOL     OW34495   4.202   3.468   2.780 -1.3194  0.1764  0.1297
 7678SOL    HW134496   4.134   3.511   2.831  1.3476  2.0381  2.1249
 7678SOL    HW234497   4.248   3.424   2.851  0.7002 -0.0404 -1.2879
 7679SOL     OW34498   4.172   3.942  12.368  0.3891  0.1478  0.2724
 7679SOL    HW134499   4.090   3.918  12.411  2.6090 -4.3482  1.9881
 7679SOL    HW234500   4.174   4.037  12.379  0.8173  0.3562 -1.6221
 7680SOL     OW34501   3.769   3.181   2.099 -0.0315 -0.2454  0.2271
 7680SOL    HW134502   3.749   3.262   2.052 -1.4723 -1.4042 -1.1480
 7680SOL    HW234503   3.817   3.127   2.036 -1.9008 -0.0364 -1.3923
 7681SOL     OW34504   2.095   1.569   3.231  0.3123 -0.3540  0.0087
 7681SOL    HW134505   2.099   1.618   3.149 -1.7610 -0.4288 -0.1277
 7681SOL    HW234506   2.100   1.475   3.213  0.3113  0.1186 -2.4151
 7682SOL     OW34507   3.286   1.157  16.006  0.0756  0.0913  0.4575
 7682SOL    HW134508   3.211   1.196  16.051  0.0939  0.5389  0.1042
 7682SOL    HW234509   3.257   1.068  15.985 -1.2426  1.1138 -2.0266
 7683SOL     OW34510   1.051   3.604   7.157 -0.7772 -0.7478  0.2804
 7683SOL    HW134511   1.007   3.543   7.098 -0.9237  0.7753 -1.1720
 7683SOL    HW234512   1.138   3.603   7.116 -1.0911  0.7373 -0.4258
 7684SOL     OW34513   1.280   2.674   8.225 -0.1903  0.1775 -0.2584
 7684SOL    HW134514   1.188   2.698   8.233 -0.7454 -2.2488  0.9780
 7684SOL    HW234515   1.269   2.648   8.134 -0.5404 -0.5626 -0.0087
 7685SOL     OW34516   4.300   2.805  12.036  0.0225 -0.4065  0.2921
 7685SOL    HW134517   4.263   2.881  12.081  0.5750  0.6646 -1.0627
 7685SOL    HW234518   4.295   2.732  12.098 -0.1284 -0.9628 -0.3627
 7686SOL     OW34519   4.327   2.705   9.577  0.3024  0.3877 -0.1367
 7686SOL    HW134520   4.268   2.721   9.504 -2.8871  0.2536  2.4258
 7686SOL    HW234521   4.370   2.624   9.549 -1.1764  0.5836 -2.9085
 7687SOL     OW34522   0.579   1.665   2.989 -0.3636 -0.3701 -0.2333
 7687SOL    HW134523   0.648   1.682   2.924  3.2948 -1.1470  3.4711
 7687SOL    HW234524   0.535   1.749   2.978  0.3999  0.2405  1.4678
 7688SOL     OW34525   2.512   1.897  17.085  0.5840 -0.8185  0.1208
 7688SOL    HW134526   2.543   1.898  16.994 -0.2246 -0.3707 -0.1455
 7688SOL    HW234527   2.592   1.886  17.138  0.3213  0.3695  0.7739
 7689SOL     OW34528   4.347   4.442   5.550  0.2333 -0.4276 -0.0312
 7689SOL    HW134529   4.331   4.434   5.645 -0.1756  1.3375  0.0329
 7689SOL    HW234530   4.264   4.452   5.504  0.9406 -0.0491 -1.2197
 7690SOL     OW34531   2.168   2.923   5.286  0.1431 -0.0906  0.0353
 7690SOL    HW134532   2.255   2.932   5.248 -1.0060  0.8148 -2.3730
 7690SOL    HW234533   2.187   2.856   5.352  2.7781 -1.8135 -2.4932
 7691SOL     OW34534   2.383   1.656   8.450 -0.6296 -0.4436  0.1648
 7691SOL    HW134535   2.471   1.650   8.488 -1.2041 -0.4188  1.5286
 7691SOL    HW234536   2.408   1.608   8.371 -1.0765  0.3737 -0.4706
 7692SOL     OW34537   3.136   2.883   0.173  0.8499 -0.6834 -0.5294
 7692SOL    HW134538   3.156   2.977   0.168 -2.3397  0.0556  0.3188
 7692SOL    HW234539   3.048   2.876   0.135  0.1569 -0.3390  0.9806
 7693SOL     OW34540   4.237   1.028  14.935 -0.1593 -0.4248 -0.1096
 7693SOL    HW134541   4.195   0.993  15.015  0.4597 -0.5330  0.1677
 7693SOL    HW234542   4.170   1.090  14.909  1.6665  1.3156 -0.6124
 7694SOL     OW34543   4.577   0.371  13.256 -0.1442  0.4167 -0.3044
 7694SOL    HW134544   4.522   0.366  13.177 -0.5400 -1.0413  0.0735
 7694SOL    HW234545   4.512   0.362  13.325 -0.1708 -0.5762 -0.4628
 7695SOL     OW34546   3.674   4.596   6.480  0.5627 -0.3038  0.2339
 7695SOL    HW134547   3.691   4.689   6.470  2.8478 -0.6958  0.6513
 7695SOL    HW234548   3.687   4.582   6.574  1.2372  1.3279  0.3751
 7696SOL     OW34549   0.251   1.172   4.389  0.0841 -0.1721  0.1577
 7696SOL    HW134550   0.330   1.227   4.390  0.8148 -1.1466 -3.5635
 7696SOL    HW234551   0.235   1.156   4.482  0.2236 -0.6906  0.0912
 7697SOL     OW34552   0.253   0.833   0.737  0.2208  0.1683 -0.0408
 7697SOL    HW134553   0.298   0.796   0.813 -1.3402 -0.7080  0.4586
 7697SOL    HW234554   0.180   0.861   0.793  1.2274 -3.0711  2.8936
 7698SOL     OW34555   4.289   0.965   4.917  0.2506 -0.3467 -0.8201
 7698SOL    HW134556   4.320   1.032   4.856  2.2029 -1.1200 -0.6667
 7698SOL    HW234557   4.262   0.900   4.852 -2.6810  0.6445 -0.6190
 7699SOL     OW34558   0.485   2.897  13.387 -0.3886 -0.2294  0.6453
 7699SOL    HW134559   0.491   2.887  13.482 -0.9922  0.5053  0.7559
 7699SOL    HW234560   0.483   2.992  13.375 -2.2289 -0.2926  0.4082
 7700SOL     OW34561   2.920   2.250   2.815  0.1828  0.2998 -0.3290
 7700SOL    HW134562   2.849   2.224   2.756  0.8958  2.8322 -2.2368
 7700SOL    HW234563   2.928   2.345   2.810  0.2250  0.3218  0.1543
 7701SOL     OW34564   1.229   0.101   9.020 -0.1651  0.1970 -0.2460
 7701SOL    HW134565   1.256   0.188   9.048 -0.3783 -0.5379  2.2689
 7701SOL    HW234566   1.193   0.064   9.101  0.3084  1.8960  0.7327
 7702SOL     OW34567   0.052   3.645   8.927  0.0974 -1.0793 -0.0487
 7702SOL    HW134568   0.098   3.617   9.006 -1.0101 -0.3261  0.8564
 7702SOL    HW234569   0.093   3.576   8.875 -0.0231 -2.3006  1.5030
 7703SOL     OW34570   1.751   1.149  16.105  0.5435 -0.0223  0.0241
 7703SOL    HW134571   1.715   1.156  16.016  0.2249  0.4162  0.1859
 7703SOL    HW234572   1.678   1.104  16.148 -1.7844  0.3232 -3.5127
 7704SOL     OW34573   2.687   4.267   8.216  0.2955  0.3446  0.2651
 7704SOL    HW134574   2.613   4.210   8.193  0.2699  0.4259  0.1492
 7704SOL    HW234575   2.645   4.309   8.291  0.7254  1.3765 -0.0834
 7705SOL     OW34576   4.044   0.836   5.304 -0.6352 -0.4150 -0.0452
 7705SOL    HW134577   4.004   0.788   5.231 -2.3441 -1.5871  1.6642
 7705SOL    HW234578   4.013   0.784   5.378  0.3068  0.2655  0.8193
 7706SOL     OW34579   3.242   0.660   8.080  0.3343  0.2440  0.0835
 7706SOL    HW134580   3.288   0.716   8.143 -1.1140 -0.0154  1.3822
 7706SOL    HW234581   3.270   0.574   8.113 -2.3327 -1.1201 -1.2685
 7707SOL     OW34582   4.376   1.848   4.693  0.7316  0.0749 -0.6073
 7707SOL    HW134583   4.313   1.891   4.751  0.7516 -0.4663 -0.1886
 7707SOL    HW234584   4.374   1.900   4.613  0.5678  1.6573  0.4152
 7708SOL     OW34585   2.884   1.683   6.456 -0.2310  0.2947  0.1025
 7708SOL    HW134586   2.937   1.607   6.479 -0.1993  0.0736 -0.7159
 7708SOL    HW234587   2.887   1.722   6.544  2.7346 -1.6415  0.8553
 7709SOL     OW34588   1.337   3.663   7.214  0.5431 -0.2159  0.1465
 7709SOL    HW134589   1.362   3.610   7.289 -0.7940  1.8148  2.0488
 7709SOL    HW234590   1.417   3.695   7.171  0.3548 -1.9233 -1.4569
 7710SOL     OW34591   2.250   0.597   4.283 -0.4358 -0.4751 -0.0924
 7710SOL    HW134592   2.247   0.667   4.217  0.2814 -1.3997 -1.1066
 7710SOL    HW234593   2.222   0.643   4.362  1.5530 -0.2091  0.4694
 7711SOL     OW34594   4.218   0.996   3.802 -0.7297  0.1903 -0.2356
 7711SOL    HW134595   4.199   1.056   3.730  0.8285  1.6053  0.5275
 7711SOL    HW234596   4.292   0.944   3.771 -0.4560 -0.0008  0.7442
 7712SOL     OW34597   1.806   2.181   2.936  0.0723  0.4322 -0.3553
 7712SOL    HW134598   1.746   2.193   2.862  2.3099  0.4717 -2.1804
 7712SOL    HW234599   1.855   2.109   2.897  0.4679  1.0341 -0.9816
 7713SOL     OW34600   3.527   3.600   3.085  0.3077 -0.2093  0.3619
 7713SOL    HW134601   3.482   3.659   3.146  1.1422  0.8667 -0.0647
 7713SOL    HW234602   3.472   3.590   3.008 -1.9594  2.1139  1.6465
 7714SOL     OW34603   2.170   1.523  17.655  0.7132  0.1199  0.1010
 7714SOL    HW134604   2.225   1.546   0.054  1.0933 -0.8907  0.1226
 7714SOL    HW234605   2.206   1.439  17.628 -1.0685  0.2199 -2.6410
 7715SOL     OW34606   2.092   3.935   4.882  0.4389  0.0215  0.2691
 7715SOL    HW134607   2.082   4.002   4.815  0.7963 -1.0637 -0.8842
 7715SOL    HW234608   2.002   3.902   4.880 -0.4049  2.5195 -2.1090
 7716SOL     OW34609   2.819   2.276   7.433 -0.0645 -0.0577 -0.8945
 7716SOL    HW134610   2.908   2.286   7.401  0.2485 -0.5211 -0.1493
 7716SOL    HW234611   2.837   2.193   7.476 -0.9485  0.1692 -0.0919
 7717SOL     OW34612   3.533   3.537   2.557 -0.3945  0.5451 -0.1261
 7717SOL    HW134613   3.521   3.608   2.620 -2.3933  0.2663 -0.1866
 7717SOL    HW234614   3.582   3.591   2.494 -0.1343 -0.2847 -0.6404
 7718SOL     OW34615   2.939   1.692   2.208  0.6783 -0.3986  0.3076
 7718SOL    HW134616   3.017   1.695   2.262 -0.5183 -0.0244  2.0020
 7718SOL    HW234617   2.957   1.619   2.148 -1.0187 -1.1542  0.7169
 7719SOL     OW34618   0.177   1.358   8.314  0.1096 -0.1866  0.2843
 7719SOL    HW134619   0.118   1.412   8.367 -0.7428 -0.7234 -0.1297
 7719SOL    HW234620   0.125   1.279   8.327  1.2573 -0.9748  0.1637
 7720SOL     OW34621   1.348   0.831   8.529 -0.0691 -0.5641  0.2278
 7720SOL    HW134622   1.350   0.750   8.580 -0.6676 -0.0351  1.0940
 7720SOL    HW234623   1.353   0.891   8.603  0.9303 -0.9425  0.4602
 7721SOL     OW34624   2.028   3.950   4.181 -0.2434 -0.0458  0.3072
 7721SOL    HW134625   2.084   4.003   4.125  1.0011 -1.8917 -0.2055
 7721SOL    HW234626   2.088   3.918   4.248  0.8573  0.7264 -0.3058
 7722SOL     OW34627   0.998   2.725   7.605  0.1819 -0.1205  0.0156
 7722SOL    HW134628   1.023   2.816   7.622 -2.2531  0.2482  1.5364
 7722SOL    HW234629   1.054   2.686   7.672  1.0587  2.5628  0.8680
 7723SOL     OW34630   0.003   3.287   4.774 -0.0015 -0.4681 -1.3293
 7723SOL    HW134631   4.662   3.338   4.830  2.0009 -0.5528  0.8651
 7723SOL    HW234632   0.075   3.298   4.836 -0.0653 -0.2510 -1.2912
 7724SOL     OW34633   1.250   2.945  14.510 -0.0778  0.0359  0.0616
 7724SOL    HW134634   1.219   3.000  14.582  1.7011  0.8639  0.1892
 7724SOL    HW234635   1.316   2.888  14.549  0.8254 -0.2148 -1.8300
 7725SOL     OW34636   2.763   4.181   9.926 -0.0903  0.0992  0.0972
 7725SOL    HW134637   2.735   4.215   9.841  2.1346  0.3981 -0.5176
 7725SOL    HW234638   2.857   4.171   9.914 -0.1249  1.3367 -1.1720
 7726SOL     OW34639   4.642   2.800  10.500  0.1311 -0.1522  0.3698
 7726SOL    HW134640   4.625   2.853  10.422 -0.1242 -1.2498 -0.3290
 7726SOL    HW234641   4.599   2.854  10.567  1.3315  0.0661  0.9611
 7727SOL     OW34642   0.823   1.858  10.026 -0.1195 -0.4613 -0.6617
 7727SOL    HW134643   0.737   1.817  10.031 -0.0085 -0.3939  1.9128
 7727SOL    HW234644   0.861   1.817   9.948  1.4899 -1.7579  0.7973
 7728SOL     OW34645   4.593   4.521   4.034  0.1645  0.3154 -0.5948
 7728SOL    HW134646   4.558   4.475   3.958  2.2917  0.8567 -1.9107
 7728SOL    HW234647   4.589   4.600   3.979  1.7055 -0.4124 -1.7400
 7729SOL     OW34648   2.921   1.327   6.778  0.2856 -0.0886 -0.0425
 7729SOL    HW134649   2.910   1.380   6.857  1.4526 -3.6407  2.5065
 7729SOL    HW234650   2.881   1.389   6.717 -1.2666  0.3278  1.3899
 7730SOL     OW34651   1.543   1.132  14.305  0.0399  0.4768 -0.5797
 7730SOL    HW134652   1.569   1.136  14.397 -2.7885  0.9362  0.2003
 7730SOL    HW234653   1.548   1.225  14.284 -1.3075  0.9800  1.3810
 7731SOL     OW34654   4.230   2.760   3.039  0.2108 -0.0404  0.5071
 7731SOL    HW134655   4.157   2.804   2.997  1.5245 -0.6808 -2.4842
 7731SOL    HW234656   4.187   2.716   3.112 -3.5223  1.0691 -1.0723
 7732SOL     OW34657   3.641   1.784   0.774  0.1980  0.0292  0.0065
 7732SOL    HW134658   3.669   1.744   0.692 -1.1165  1.3318 -1.0939
 7732SOL    HW234659   3.589   1.716   0.817  1.5897 -0.4010  1.0138
 7733SOL     OW34660   3.078   4.697   0.217  0.3001 -0.1262  0.1573
 7733SOL    HW134661   3.152   4.640   0.196  0.7222  0.4614  0.0569
 7733SOL    HW234662   3.019   4.621   0.220  1.0719 -0.7957 -1.3338
 7734SOL     OW34663   2.644   2.960   1.266 -0.2930  0.1870 -0.2487
 7734SOL    HW134664   2.716   2.897   1.265 -0.5652 -0.1405  0.8562
 7734SOL    HW234665   2.651   3.010   1.348 -1.7571 -0.4984  0.2909
 7735SOL     OW34666   1.938   3.482   7.481  0.5388 -0.0677  0.5869
 7735SOL    HW134667   1.990   3.536   7.540  1.0079 -1.4598  1.4493
 7735SOL    HW234668   1.860   3.537   7.474  0.4643 -0.5481 -2.4138
 7736SOL     OW34669   4.656   0.529  14.439 -0.1558 -0.0746 -0.4594
 7736SOL    HW134670   4.571   0.526  14.395  0.1937 -1.4873 -1.0543
 7736SOL    HW234671   4.674   0.622  14.422 -0.2122  0.1122  0.5481
 7737SOL     OW34672   4.584   1.600   9.560  0.2749 -0.2894  0.2086
 7737SOL    HW134673   4.573   1.505   9.566 -1.5105 -0.1368 -0.6672
 7737SOL    HW234674   4.497   1.628   9.532  0.7649  2.1029  1.0851
 7738SOL     OW34675   0.116   1.848   9.800 -0.2902 -0.2631  0.7786
 7738SOL    HW134676   0.028   1.870   9.827  0.7335  1.8013  2.4071
 7738SOL    HW234677   0.116   1.840   9.704 -0.0702 -0.7588  0.8170
 7739SOL     OW34678   2.054   1.063   7.596  0.2574 -0.2696 -0.5776
 7739SOL    HW134679   2.092   1.053   7.509 -0.5557  1.4796 -1.1288
 7739SOL    HW234680   1.972   1.015   7.591 -1.8403  3.3481 -0.8353
 7740SOL     OW34681   2.657   0.273   2.590  0.0716 -0.3620 -0.0976
 7740SOL    HW134682   2.743   0.233   2.573  0.8665  0.9523  0.8596
 7740SOL    HW234683   2.660   0.356   2.544  0.3491 -1.0936 -1.4135
 7741SOL     OW34684   4.252   1.441  12.101  0.0534  0.1203  0.2487
 7741SOL    HW134685   4.304   1.363  12.082  0.9949  1.2105 -1.5306
 7741SOL    HW234686   4.237   1.478  12.014  1.8776 -0.1691 -0.1818
 7742SOL     OW34687   4.151   4.181   4.718  0.2931 -0.0032  0.0364
 7742SOL    HW134688   4.068   4.161   4.674 -0.6780 -1.1789  2.3874
 7742SOL    HW234689   4.223   4.161   4.659 -1.2908 -1.6527 -1.3701
 7743SOL     OW34690   1.874   3.732   7.815  0.0196 -0.6573 -0.0493
 7743SOL    HW134691   1.847   3.690   7.897 -0.4915 -0.2501 -0.0064
 7743SOL    HW234692   1.944   3.794   7.840 -0.0575 -1.2761  1.7269
 7744SOL     OW34693   2.452   0.327  16.483 -0.0513  0.4620 -0.3966
 7744SOL    HW134694   2.447   0.372  16.568  0.9335  0.1318 -0.1661
 7744SOL    HW234695   2.403   0.247  16.501  0.2710  0.8251  2.1177
 7745SOL     OW34696   4.081   2.434   4.546  0.0768 -0.1951  0.4678
 7745SOL    HW134697   4.164   2.390   4.533 -0.6623 -1.9232  1.6150
 7745SOL    HW234698   4.093   2.472   4.459 -1.5838  0.7485  0.6468
 7746SOL     OW34699   3.317   2.448  10.934  0.5400 -0.1420  0.3154
 7746SOL    HW134700   3.294   2.363  10.972  0.8245 -0.2476  0.2486
 7746SOL    HW234701   3.352   2.496  11.010 -1.2298  0.7678  0.5717
 7747SOL     OW34702   1.984   3.959   7.303 -0.0728  0.2995  0.1938
 7747SOL    HW134703   1.945   3.912   7.229 -1.6010  1.6308  0.1356
 7747SOL    HW234704   2.015   3.901   7.372 -0.4849 -0.3361 -0.1585
 7748SOL     OW34705   1.721   3.822   0.959 -0.1741 -0.2196 -0.0203
 7748SOL    HW134706   1.745   3.905   1.001  2.4113 -1.0760  0.1497
 7748SOL    HW234707   1.755   3.834   0.870 -2.1251  1.5445 -0.5313
 7749SOL     OW34708   2.904   2.039   4.550 -0.0560  0.4937 -0.4277
 7749SOL    HW134709   2.944   2.126   4.547 -1.3195  1.0348 -1.3672
 7749SOL    HW234710   2.873   2.032   4.460  0.8898 -1.3374 -0.6137
 7750SOL     OW34711   2.075   1.181  11.408  0.3676  0.0455 -0.2886
 7750SOL    HW134712   1.994   1.159  11.362 -0.0062 -0.0157  0.3893
 7750SOL    HW234713   2.118   1.095  11.408  0.2075 -0.0388  0.6625
 7751SOL     OW34714   3.547   0.326   1.180  0.1741 -0.3985  0.2650
 7751SOL    HW134715   3.501   0.285   1.253  1.5226 -0.3534  1.1492
 7751SOL    HW234716   3.603   0.389   1.225 -1.6148  0.8873  0.6775
 7752SOL     OW34717   3.187   3.741   4.795 -0.1933 -0.0820 -0.1153
 7752SOL    HW134718   3.156   3.827   4.822 -0.1862 -0.8558  2.3572
 7752SOL    HW234719   3.117   3.678   4.814 -0.3815  0.5432  1.2415
 7753SOL     OW34720   4.600   0.195   4.651  0.1093  0.2462  0.7046
 7753SOL    HW134721   4.530   0.204   4.586 -0.8228  3.5317  2.1335
 7753SOL    HW234722   4.563   0.126   4.706  0.1398 -1.1118 -0.9919
 7754SOL     OW34723   4.291   1.381   3.151 -0.2121 -0.2245 -0.2791
 7754SOL    HW134724   4.226   1.428   3.099  1.0849  0.4173 -1.2959
 7754SOL    HW234725   4.252   1.293   3.156 -1.8168  0.5241  0.4384
 7755SOL     OW34726   1.859   4.184   7.176  0.4987 -0.0910 -0.6239
 7755SOL    HW134727   1.819   4.111   7.128  1.1104 -0.3709 -0.7023
 7755SOL    HW234728   1.909   4.132   7.239  0.4302 -0.1136 -0.5871
 7756SOL     OW34729   1.936   2.797   9.143  0.3617  0.3244  0.1609
 7756SOL    HW134730   1.923   2.735   9.215  0.2516  0.2945  0.1157
 7756SOL    HW234731   2.016   2.840   9.174 -0.1047 -0.0208  1.8615
 7757SOL     OW34732   1.575   3.490   6.966  0.1201  0.3366 -0.4390
 7757SOL    HW134733   1.542   3.450   7.046 -1.6171 -1.0025 -1.8529
 7757SOL    HW234734   1.644   3.550   6.997 -0.7608  1.6746 -1.0651
 7758SOL     OW34735   1.896   0.223  15.604  0.1084 -0.2676  0.4007
 7758SOL    HW134736   1.906   0.134  15.571 -1.4050 -0.2888 -0.0067
 7758SOL    HW234737   1.988   0.249  15.596  0.4344 -2.1798 -1.8508
 7759SOL     OW34738   1.382   1.468  13.711  0.3703 -0.3001 -0.2311
 7759SOL    HW134739   1.301   1.469  13.660 -1.0350  2.0958  2.0270
 7759SOL    HW234740   1.403   1.561  13.714  2.8821 -0.8760  0.2307
 7760SOL     OW34741   3.194   1.203   6.815  0.0047 -0.5355  0.2439
 7760SOL    HW134742   3.126   1.242   6.760  1.6054  0.9889 -0.6578
 7760SOL    HW234743   3.190   1.271   6.883 -0.0614 -0.7371  0.4425
 7761SOL     OW34744   2.897   2.920   7.599 -0.7342 -0.3462  0.0499
 7761SOL    HW134745   2.911   2.825   7.594  0.7150 -0.0068 -2.4978
 7761SOL    HW234746   2.980   2.946   7.638 -1.2408  0.6165  0.4880
 7762SOL     OW34747   4.658   3.787   8.429  0.3664  0.4392  0.2158
 7762SOL    HW134748   4.631   3.740   8.350  2.3401  0.5316 -0.5102
 7762SOL    HW234749   0.033   3.799   8.410  0.0211 -1.5616 -2.6753
 7763SOL     OW34750   1.219   4.580   0.028  0.6434  0.0229 -0.5698
 7763SOL    HW134751   1.226   4.493  17.665  0.4701 -0.1511 -0.2181
 7763SOL    HW234752   1.190   4.569   0.119  0.4736 -0.7412 -0.7137
 7764SOL     OW34753   4.049   3.378   6.742 -0.1182  0.2163  0.0677
 7764SOL    HW134754   4.024   3.460   6.699 -0.1150 -0.3761 -1.0552
 7764SOL    HW234755   4.030   3.395   6.834 -0.5429  3.3560 -0.5838
 7765SOL     OW34756   2.343   0.520  12.087  0.0481  0.6258 -0.3622
 7765SOL    HW134757   2.391   0.442  12.060  1.5014  1.6362 -0.6862
 7765SOL    HW234758   2.384   0.539  12.171 -3.0010  1.1740  0.9947
 7766SOL     OW34759   2.795   0.848   3.243  0.5583 -0.5375  0.0971
 7766SOL    HW134760   2.809   0.932   3.200  1.8778 -0.6152  0.3803
 7766SOL    HW234761   2.854   0.794   3.190  1.0377  1.3216 -1.2559
 7767SOL     OW34762   3.037   1.099   8.132  0.1119  0.5290 -0.1852
 7767SOL    HW134763   2.977   1.113   8.059 -0.8111 -2.0718  0.0637
 7767SOL    HW234764   3.009   1.018   8.175 -0.6540  1.2376  0.6473
 7768SOL     OW34765   1.885   2.222   3.914  0.8031 -0.4621 -0.1458
 7768SOL    HW134766   1.809   2.226   3.971  0.1758  0.1218 -1.0315
 7768SOL    HW234767   1.942   2.291   3.949 -0.3752 -0.6952  2.1722
 7769SOL     OW34768   1.712   2.193   0.903 -0.3436 -0.1394  0.6580
 7769SOL    HW134769   1.647   2.142   0.951  1.2604 -2.3002  0.5499
 7769SOL    HW234770   1.747   2.125   0.845  2.0989  0.3494  1.5240
 7770SOL     OW34771   2.576   1.670   6.425  0.1950  0.0360  0.1948
 7770SOL    HW134772   2.636   1.636   6.491 -1.5359  0.1258  1.8134
 7770SOL    HW234773   2.606   1.616   6.351  1.0317 -0.1111  0.6420
 7771SOL     OW34774   0.361   3.897   2.280  0.5086  0.4827 -0.0800
 7771SOL    HW134775   0.374   3.990   2.260  2.2654  0.1032 -0.7287
 7771SOL    HW234776   0.451   3.866   2.291  0.3924  1.0653  2.5810
 7772SOL     OW34777   2.565   1.264   8.836  0.5741 -0.0491 -0.0741
 7772SOL    HW134778   2.600   1.179   8.860  1.4887  0.7796  1.5218
 7772SOL    HW234779   2.530   1.257   8.747 -0.6859  0.0791  0.4110
 7773SOL     OW34780   1.150   0.895   4.389 -0.4583 -0.3009 -0.1549
 7773SOL    HW134781   1.151   0.906   4.294  0.6046  2.5174  0.1828
 7773SOL    HW234782   1.217   0.962   4.408 -0.5703 -0.2396  0.0233
 7774SOL     OW34783   4.540   3.697   7.684 -0.4817 -0.0984 -0.2634
 7774SOL    HW134784   4.616   3.651   7.649  0.8367  3.2473 -1.7432
 7774SOL    HW234785   4.575   3.785   7.698  0.4216 -0.8775  2.4240
 7775SOL     OW34786   2.486   2.924   8.239  0.2115 -0.0636  0.0573
 7775SOL    HW134787   2.561   2.980   8.259  0.4461 -0.3324 -0.0744
 7775SOL    HW234788   2.528   2.838   8.248  0.1422 -0.1563 -0.4504
 7776SOL     OW34789   1.100   1.102   2.928 -0.3463 -0.3838  0.0600
 7776SOL    HW134790   1.140   1.016   2.936 -0.2107 -0.2257  1.0933
 7776SOL    HW234791   1.008   1.078   2.941 -1.3917  2.1999 -2.4341
 7777SOL     OW34792   3.137   1.823   3.190  0.1554 -0.4272 -0.1533
 7777SOL    HW134793   3.123   1.880   3.265 -1.6478 -0.3232 -0.5633
 7777SOL    HW234794   3.215   1.859   3.150 -1.0965  1.2435 -1.0942
 7778SOL     OW34795   4.012   0.727   5.543  0.6464  0.2164  0.0162
 7778SOL    HW134796   3.930   0.742   5.588  0.8466  2.7403 -0.4572
 7778SOL    HW234797   4.063   0.804   5.567  1.1490  0.4979 -1.8882
 7779SOL     OW34798   4.211   4.196   8.088 -0.7326  0.5136 -0.0694
 7779SOL    HW134799   4.227   4.288   8.111 -0.0996  0.8615 -1.9558
 7779SOL    HW234800   4.281   4.161   8.143 -1.0175 -0.2143 -0.1745
 7780SOL     OW34801   0.852   4.604   3.074 -0.3195  0.0937  0.2370
 7780SOL    HW134802   0.923   4.558   3.030  0.0602  0.6312  0.2965
 7780SOL    HW234803   0.909   4.639   3.142  0.8224 -1.1764 -0.0861
 7781SOL     OW34804   0.263   3.142   8.301  0.8412 -0.0517  0.4016
 7781SOL    HW134805   0.258   3.233   8.327 -2.3270  0.3590 -1.5664
 7781SOL    HW234806   0.174   3.121   8.272  0.9776 -1.0431  0.6969
 7782SOL     OW34807   0.983   2.498   6.657 -0.3760 -0.1330 -0.2931
 7782SOL    HW134808   0.993   2.576   6.710 -0.2943  0.7859 -1.6531
 7782SOL    HW234809   0.935   2.436   6.712 -1.2529 -0.6185 -1.5926
 7783SOL     OW34810   4.196   1.710   2.552 -0.5917 -0.3602  0.0379
 7783SOL    HW134811   4.249   1.790   2.546 -0.8761 -0.1213  0.7263
 7783SOL    HW234812   4.134   1.734   2.484  0.7090 -0.3699 -1.1458
 7784SOL     OW34813   0.078   4.698   5.175 -0.4080 -0.1041  0.4107
 7784SOL    HW134814   0.109   0.036   5.105 -2.3942  0.6137  0.1101
 7784SOL    HW234815   0.059   4.616   5.129 -1.6481  1.0414 -1.0829
 7785SOL     OW34816   0.825   0.365   7.005  0.2009  0.0252  0.3980
 7785SOL    HW134817   0.876   0.433   6.960 -0.6650 -0.3657 -1.1689
 7785SOL    HW234818   0.845   0.403   7.090  0.4124 -0.7522  0.6870
 7786SOL     OW34819   4.275   4.713   8.777  0.2107 -0.1422 -0.0324
 7786SOL    HW134820   4.357   0.012   8.822  0.2833 -0.7898  0.0826
 7786SOL    HW234821   4.270   4.617   8.772 -2.8141  0.0672 -1.6361
 7787SOL     OW34822   2.752   0.458   9.326 -0.2074 -0.0605  0.6187
 7787SOL    HW134823   2.826   0.402   9.349  1.8487  2.2210 -0.4381
 7787SOL    HW234824   2.752   0.456   9.231 -0.9769 -0.0026  0.6179
 7788SOL     OW34825   3.462   3.037   1.218  0.1998  0.2273  0.6449
 7788SOL    HW134826   3.452   2.948   1.252  0.8501  0.3454  1.1326
 7788SOL    HW234827   3.372   3.062   1.197 -0.4289 -1.0919  1.7482
 7789SOL     OW34828   4.283   4.460   5.076  0.0215  0.1605  0.7951
 7789SOL    HW134829   4.213   4.421   5.129  0.6374 -0.1040  1.4121
 7789SOL    HW234830   4.223   4.506   5.017 -0.5873  0.9159  2.0150
 7790SOL     OW34831   0.072   2.681  10.277 -0.0891 -0.4815 -0.6418
 7790SOL    HW134832   0.006   2.612  10.274 -2.7623  1.9168  2.2215
 7790SOL    HW234833   0.036   2.734  10.348  1.2957  0.5080 -0.6743
 7791SOL     OW34834   2.398   0.542  13.520  0.1599  0.3621  0.1123
 7791SOL    HW134835   2.367   0.632  13.508  0.2951  0.1822 -1.5978
 7791SOL    HW234836   2.310   0.506  13.506 -0.2401  1.1230  0.6765
 7792SOL     OW34837   3.584   0.081  10.776  0.1948 -0.5691  0.2539
 7792SOL    HW134838   3.621   0.145  10.837 -1.9479  1.6067 -0.7168
 7792SOL    HW234839   3.545   0.023  10.841 -2.2377  1.1927  0.3859
 7793SOL     OW34840   1.086   0.115   5.848 -0.0067 -0.0953  0.4324
 7793SOL    HW134841   1.142   0.042   5.822  0.0183 -0.2249  0.8519
 7793SOL    HW234842   1.138   0.195   5.834  0.7055 -0.3378  1.6330
 7794SOL     OW34843   0.507   4.084   8.502 -0.2598  0.2880  0.0464
 7794SOL    HW134844   0.469   4.056   8.419  1.4196 -2.1765  0.1107
 7794SOL    HW234845   0.593   4.042   8.493 -0.3016  0.1282  0.4156
 7795SOL     OW34846   2.050   3.215   8.518 -0.0114  0.2444  0.1926
 7795SOL    HW134847   1.988   3.213   8.445  0.7445 -0.8847 -0.4248
 7795SOL    HW234848   2.005   3.283   8.568  0.5541  0.5145  0.3390
 7796SOL     OW34849   2.989   2.220   3.454  0.4058  0.5748  0.2584
 7796SOL    HW134850   2.897   2.213   3.428  0.1052 -1.4173  1.9045
 7796SOL    HW234851   2.998   2.314   3.437 -1.0843  0.4265 -1.2986
 7797SOL     OW34852   3.281   3.318   3.087  0.1013 -0.5066  0.3812
 7797SOL    HW134853   3.201   3.266   3.074  0.3001 -0.0066 -2.7914
 7797SOL    HW234854   3.251   3.394   3.136  1.4851 -0.2085  0.7481
 7798SOL     OW34855   1.987   3.479  13.698 -0.0767 -0.2554  0.2065
 7798SOL    HW134856   1.925   3.433  13.640  1.0631 -2.5648  0.8069
 7798SOL    HW234857   2.064   3.452  13.647  0.2042  0.8573  0.0381
 7799SOL     OW34858   3.082   1.734   9.727 -0.4893  0.3581 -0.3002
 7799SOL    HW134859   3.156   1.675   9.718  1.1100  1.7984  3.4339
 7799SOL    HW234860   3.048   1.712   9.813  1.3649 -1.8111 -0.1260
 7800SOL     OW34861   3.281   3.540   3.594  0.0854  0.3181  0.0429
 7800SOL    HW134862   3.192   3.543   3.559  0.4344  0.7567 -0.7941
 7800SOL    HW234863   3.337   3.589   3.534 -0.5382 -0.2760 -1.0325
 7801SOL     OW34864   1.861   1.298  13.950 -0.7827 -0.2099  0.1777
 7801SOL    HW134865   1.945   1.291  13.905 -0.4527  2.4759  0.3630
 7801SOL    HW234866   1.877   1.367  14.015  1.0441 -0.8908  0.4641
 7802SOL     OW34867   2.392   0.961   6.462 -0.2298 -0.2768 -0.1667
 7802SOL    HW134868   2.456   0.986   6.528 -0.7120  2.3861 -0.7164
 7802SOL    HW234869   2.430   0.991   6.379 -1.1261  1.5227  0.0721
 7803SOL     OW34870   2.194   4.601   2.712  0.1145  0.4557  0.0948
 7803SOL    HW134871   2.109   4.592   2.755 -0.1802  0.5597 -0.4643
 7803SOL    HW234872   2.199   4.514   2.674 -2.3129  0.2200  0.3163
 7804SOL     OW34873   1.364   2.852   4.010  0.0240  0.1043  0.2911
 7804SOL    HW134874   1.448   2.894   3.988 -0.4401  0.8326 -0.1019
 7804SOL    HW234875   1.330   2.820   3.927 -0.4243 -1.2808  1.0099
 7805SOL     OW34876   1.107   0.494   9.492  0.1658  0.3845  0.0206
 7805SOL    HW134877   1.092   0.400   9.485  0.8123  0.2201  0.8509
 7805SOL    HW234878   1.200   0.499   9.469  0.3026 -2.3578  0.0118
 7806SOL     OW34879   2.670   3.053   6.152 -0.2875 -0.1952  0.2244
 7806SOL    HW134880   2.613   3.037   6.076  0.4959  1.4991 -0.7298
 7806SOL    HW234881   2.685   3.147   6.137 -0.6263  0.0501  1.4147
 7807SOL     OW34882   1.102   4.369   3.661  0.1404  0.3997  0.0797
 7807SOL    HW134883   1.040   4.328   3.600  0.8144 -2.7583  1.4885
 7807SOL    HW234884   1.150   4.425   3.601 -0.8608  1.2702  0.0883
 7808SOL     OW34885   3.680   4.606   3.451 -0.2056  0.4136 -0.4128
 7808SOL    HW134886   3.604   4.580   3.398 -1.7151 -1.1436  2.4934
 7808SOL    HW234887   3.641   4.668   3.513  0.3007 -0.5135  0.8413
 7809SOL     OW34888   1.908   2.398   7.261  0.0412  0.0818 -0.2752
 7809SOL    HW134889   1.896   2.311   7.224 -2.3033  0.7505 -1.0733
 7809SOL    HW234890   1.840   2.418   7.326 -1.8264 -1.6709 -1.6968
 7810SOL     OW34891   4.046   2.767   5.541 -0.3363  0.3811 -0.0355
 7810SOL    HW134892   3.955   2.787   5.520 -0.1022  1.0632 -0.3910
 7810SOL    HW234893   4.045   2.749   5.635 -0.6675 -0.9767 -0.3042
 7811SOL     OW34894   2.466   3.627  17.202 -0.6872  0.3246  0.0901
 7811SOL    HW134895   2.446   3.541  17.165 -0.9349  0.9394 -1.2145
 7811SOL    HW234896   2.488   3.589  17.287 -0.1547  1.1347  0.3130
 7812SOL     OW34897   1.335   2.557  14.488  0.3616  0.2042 -0.0333
 7812SOL    HW134898   1.335   2.562  14.393 -0.4966  2.3799  0.0747
 7812SOL    HW234899   1.243   2.533  14.495  0.4169  0.3821  1.3094
 7813SOL     OW34900   3.618   1.218   6.517  0.6488  0.3166  0.3634
 7813SOL    HW134901   3.710   1.237   6.498  0.6097  0.2297  0.0831
 7813SOL    HW234902   3.620   1.251   6.606  0.2279  0.4784  0.3085
 7814SOL     OW34903   3.119   3.309  15.540 -0.3228  0.1627  0.2291
 7814SOL    HW134904   3.131   3.256  15.461 -1.7387 -0.1807  0.2579
 7814SOL    HW234905   3.047   3.270  15.589 -0.3088 -0.4368 -0.2287
 7815SOL     OW34906   2.399   4.306   6.642 -0.0047 -0.0340 -0.3413
 7815SOL    HW134907   2.351   4.370   6.695  0.7114  0.4829 -0.3123
 7815SOL    HW234908   2.330   4.240   6.641  1.4408 -1.5729  1.9606
 7816SOL     OW34909   2.227   3.640  15.884  0.1908 -0.1648  0.1874
 7816SOL    HW134910   2.223   3.584  15.806  1.9845  2.1075 -1.4988
 7816SOL    HW234911   2.267   3.723  15.863  1.9566 -0.9235  0.5637
 7817SOL     OW34912   3.509   1.577  10.688  0.1824 -0.3570  0.2234
 7817SOL    HW134913   3.482   1.623  10.608  3.4224  0.0498 -0.6465
 7817SOL    HW234914   3.579   1.635  10.718  0.4117 -0.8264  0.5876
 7818SOL     OW34915   2.222   1.143  13.043 -0.0239  0.2030  0.1488
 7818SOL    HW134916   2.150   1.201  13.018 -1.0426 -0.5275  1.3996
 7818SOL    HW234917   2.172   1.064  13.064  1.1243 -0.0509  1.8754
 7819SOL     OW34918   1.463   1.277   3.222 -0.0046 -0.4882 -0.1635
 7819SOL    HW134919   1.440   1.184   3.233 -1.6739  0.1187  1.3965
 7819SOL    HW234920   1.514   1.277   3.141  0.6840 -2.1058  0.2516
 7820SOL     OW34921   4.548   2.655   2.796  0.3237 -0.3078 -0.3487
 7820SOL    HW134922   4.595   2.686   2.719 -1.2292  2.5279 -0.1476
 7820SOL    HW234923   4.522   2.571   2.757 -0.5971 -0.0776 -0.2249
 7821SOL     OW34924   3.148   0.327   8.867 -0.0999 -0.2897  0.0445
 7821SOL    HW134925   3.062   0.286   8.862 -0.8627  1.3879 -0.4955
 7821SOL    HW234926   3.132   0.400   8.808  2.1665 -1.4663 -2.0074
 7822SOL     OW34927   2.065   3.813  10.529  0.6358 -0.3906 -0.0441
 7822SOL    HW134928   2.127   3.743  10.511  0.0760 -0.9864  0.3877
 7822SOL    HW234929   2.011   3.794  10.605  2.0099  1.7897  1.5023
 7823SOL     OW34930   1.169   4.507   8.484  0.4787  0.2742 -0.2987
 7823SOL    HW134931   1.171   4.585   8.428 -2.7028  1.3325  1.0782
 7823SOL    HW234932   1.177   4.553   8.567 -0.7700 -1.8856  0.9952
 7824SOL     OW34933   2.514   0.898   2.865  0.8038 -0.0225 -0.7493
 7824SOL    HW134934   2.510   0.983   2.910 -0.4444 -0.2663 -0.4048
 7824SOL    HW234935   2.570   0.910   2.788  1.2230 -1.8908 -0.7437
 7825SOL     OW34936   1.900   4.102   2.493  0.4878 -0.3223 -0.5114
 7825SOL    HW134937   1.963   4.077   2.560 -1.4972 -0.1691  1.4012
 7825SOL    HW234938   1.834   4.034   2.505  0.0662  0.1404 -0.1840
 7826SOL     OW34939   2.502   4.579   1.773 -0.2881  0.0727  0.3860
 7826SOL    HW134940   2.585   4.533   1.763 -0.1098  0.8988 -1.8159
 7826SOL    HW234941   2.512   4.674   1.765  1.9910 -0.3972 -2.1306
 7827SOL     OW34942   3.197   2.026   7.390  0.6938  0.1053  0.3588
 7827SOL    HW134943   3.291   2.041   7.398  0.3982  1.6395  0.8649
 7827SOL    HW234944   3.203   1.934   7.366  0.7944  0.1791  0.0894
 7828SOL     OW34945   3.857   1.728   5.948 -0.1094  0.0004 -0.3178
 7828SOL    HW134946   3.926   1.663   5.938  0.7916  1.0743 -1.0031
 7828SOL    HW234947   3.914   1.797   5.915  1.6582 -1.7929 -1.0158
 7829SOL     OW34948   2.231   3.537   8.459 -0.0874  0.8401  0.0032
 7829SOL    HW134949   2.153   3.525   8.405  0.1473  1.1376 -0.4024
 7829SOL    HW234950   2.280   3.607   8.416 -0.2351 -1.3175 -3.7512
 7830SOL     OW34951   2.070   3.709   3.084  0.0330 -0.0555  0.5829
 7830SOL    HW134952   2.162   3.700   3.105  0.1200  0.4932  0.4418
 7830SOL    HW234953   2.065   3.626   3.036 -1.0608  0.3363  0.0076
 7831SOL     OW34954   0.602   2.906  16.322 -0.5626  0.8518  0.5517
 7831SOL    HW134955   0.692   2.881  16.300 -1.2642  0.0898 -1.4066
 7831SOL    HW234956   0.580   2.819  16.355  1.2553  0.3522  0.4429
 7832SOL     OW34957   1.612   2.658   4.973 -0.2729 -0.0862  0.5106
 7832SOL    HW134958   1.518   2.671   4.983 -0.5687 -1.3425 -0.7194
 7832SOL    HW234959   1.632   2.697   5.059  0.2430 -0.1543  0.4239
 7833SOL     OW34960   0.451   2.015   3.162  0.2665  0.1458  0.2164
 7833SOL    HW134961   0.523   2.068   3.130  0.6510  0.0019  0.8429
 7833SOL    HW234962   0.448   1.946   3.095  0.7947  1.5463 -1.2565
 7834SOL     OW34963   2.324   3.626   3.078  0.1615  0.4767 -0.4459
 7834SOL    HW134964   2.348   3.591   2.992 -2.6333  0.8443 -1.3663
 7834SOL    HW234965   2.331   3.548   3.133  0.0947  0.1722 -0.8684
 7835SOL     OW34966   4.620   1.993   7.133  0.8328 -0.5758 -0.2101
 7835SOL    HW134967   4.654   2.083   7.138  0.7035 -0.4875 -1.0072
 7835SOL    HW234968   4.651   1.951   7.213  1.1988 -0.5683 -0.3466
 7836SOL     OW34969   3.125   1.588   7.747 -0.0464 -0.1679  0.3048
 7836SOL    HW134970   3.116   1.615   7.656 -0.3153 -1.3962 -0.0275
 7836SOL    HW234971   3.162   1.500   7.741  1.6977  0.7504 -2.3481
 7837SOL     OW34972   2.013   1.634   8.902  0.0184 -0.5734  0.0122
 7837SOL    HW134973   2.073   1.559   8.907  1.4949  0.6271  0.0665
 7837SOL    HW234974   1.985   1.631   8.810  1.4948  3.6209 -0.5705
 7838SOL     OW34975   2.077   1.059   3.302 -0.0730  0.3482  0.5061
 7838SOL    HW134976   2.009   1.052   3.235 -0.3903 -2.8069  1.1346
 7838SOL    HW234977   2.151   1.089   3.249  0.2571  0.8804  1.2732
 7839SOL     OW34978   3.498   0.327   8.757  0.1204 -0.1660  0.1624
 7839SOL    HW134979   3.442   0.251   8.739 -1.4271  1.7734 -3.2940
 7839SOL    HW234980   3.452   0.390   8.700 -0.5374  0.5582  1.4934
 7840SOL     OW34981   3.867   1.917   4.259 -0.4338 -0.2372 -0.5972
 7840SOL    HW134982   3.937   1.860   4.227 -1.2433 -0.4815 -1.9508
 7840SOL    HW234983   3.891   2.000   4.218 -0.9428 -0.5812 -1.6143
 7841SOL     OW34984   4.613   4.260   5.285  0.5425 -0.2291 -0.0238
 7841SOL    HW134985   4.528   4.282   5.322  0.8011 -0.9663  1.0077
 7841SOL    HW234986   4.589   4.198   5.216  0.9745  0.7026 -1.0142
 7842SOL     OW34987   1.772   4.373  10.539  0.0847 -0.0545  0.1774
 7842SOL    HW134988   1.766   4.410  10.452  0.5058 -0.3461  0.0223
 7842SOL    HW234989   1.847   4.314  10.532  0.5851  0.6920 -0.6555
 7843SOL     OW34990   0.652   0.723   8.808 -0.3640  0.2377 -0.1474
 7843SOL    HW134991   0.557   0.717   8.817 -0.4183  0.3438 -0.6880
 7843SOL    HW234992   0.661   0.784   8.735 -1.0318  1.7301  1.0133
 7844SOL     OW34993   2.696   2.623  16.942  0.3460  0.2475  0.1301
 7844SOL    HW134994   2.692   2.596  16.850  2.6899 -0.5329  0.2572
 7844SOL    HW234995   2.786   2.653  16.948  0.0139  1.1404  0.6193
 7845SOL     OW34996   2.534   1.293   9.802 -0.1278  0.1321  0.6109
 7845SOL    HW134997   2.515   1.386   9.789  2.1155  0.3933 -0.9948
 7845SOL    HW234998   2.626   1.296   9.829  0.0805 -2.3712  0.2098
 7846SOL     OW34999   1.599   2.307   6.234 -0.2567 -0.2937  0.8509
 7846SOL    HW135000   1.527   2.328   6.293 -0.9612  0.0452 -0.1368
 7846SOL    HW235001   1.648   2.247   6.290  0.1892 -0.0986  0.6703
 7847SOL     OW35002   2.295   4.470   9.163 -0.4424  0.1136 -0.0891
 7847SOL    HW135003   2.215   4.521   9.175  0.2257  0.8353  1.1690
 7847SOL    HW235004   2.286   4.399   9.226 -0.3210  0.7506  0.6361
 7848SOL     OW35005   2.404   2.501   8.464 -0.1476 -0.1264 -0.5058
 7848SOL    HW135006   2.383   2.425   8.409  0.3151 -0.6885  0.0983
 7848SOL    HW235007   2.330   2.558   8.443 -1.1091 -0.1479  2.8166
 7849SOL     OW35008   3.042   2.929  11.747  0.5278  0.6001 -0.2125
 7849SOL    HW135009   3.105   2.887  11.689 -0.5505 -0.1516 -0.8506
 7849SOL    HW235010   3.054   2.886  11.832 -1.3279  0.6024  0.0603
 7850SOL     OW35011   3.015   0.214   0.036  1.1623  0.1910 -0.2264
 7850SOL    HW135012   3.047   0.158   0.107 -2.0679 -0.3963  0.7488
 7850SOL    HW235013   3.094   0.264   0.016  0.5673  0.8686 -0.9121
 7851SOL     OW35014   2.247   2.206   5.551  0.5259 -0.1046  0.0796
 7851SOL    HW135015   2.262   2.296   5.578 -2.3528  0.5593 -0.5169
 7851SOL    HW235016   2.164   2.221   5.506  0.9338  0.9951 -0.2903
 7852SOL     OW35017   1.903   2.569   2.419  0.2452 -0.2569 -0.4400
 7852SOL    HW135018   1.854   2.651   2.415  1.3170  0.5149  2.2293
 7852SOL    HW235019   1.848   2.520   2.479  1.9655  1.1393  2.2769
 7853SOL     OW35020   3.635   2.723  15.253 -0.3853  0.3390 -0.4288
 7853SOL    HW135021   3.719   2.766  15.270 -0.7880  0.8334  0.2932
 7853SOL    HW235022   3.629   2.722  15.157  0.5793 -0.5342 -0.4805
 7854SOL     OW35023   2.500   3.620   7.931  0.4944 -0.4786  0.1662
 7854SOL    HW135024   2.593   3.620   7.909  0.5692 -1.7509  0.4552
 7854SOL    HW235025   2.496   3.684   8.002  0.5488 -0.6041  0.2815
 7855SOL     OW35026   0.592   2.352   8.862  0.0158  1.1591 -0.0294
 7855SOL    HW135027   0.634   2.316   8.940  0.9217 -3.7496 -2.7645
 7855SOL    HW235028   0.657   2.328   8.796  0.7360  0.4062  0.9477
 7856SOL     OW35029   3.265   4.311   9.989 -0.1727 -0.0448 -0.0831
 7856SOL    HW135030   3.294   4.291  10.078  0.3517 -1.1604 -0.5072
 7856SOL    HW235031   3.340   4.286   9.936  1.2041  0.0109  1.8240
 7857SOL     OW35032   4.045   1.426   5.383 -0.1386  0.3085  0.2231
 7857SOL    HW135033   4.077   1.392   5.466 -0.1936  1.4083  0.6958
 7857SOL    HW235034   4.111   1.487   5.350  0.3903 -1.3733 -1.8682
 7858SOL     OW35035   2.308   1.118   5.911 -0.7874  0.7446 -0.0151
 7858SOL    HW135036   2.299   1.023   5.908  2.0104  0.4425  1.3361
 7858SOL    HW235037   2.330   1.137   5.820  0.6907  1.8211  0.5705
 7859SOL     OW35038   3.166   1.052  14.468 -1.0957  1.0203 -0.5614
 7859SOL    HW135039   3.165   1.007  14.383  1.8391 -1.5589  0.7851
 7859SOL    HW235040   3.261   1.060  14.477 -1.1270  2.6526 -1.5262
 7860SOL     OW35041   3.231   3.596   5.315  0.4458 -0.1415  0.3549
 7860SOL    HW135042   3.202   3.625   5.401  0.6239  0.8266  0.0853
 7860SOL    HW235043   3.218   3.679   5.269 -0.0973  0.7665  2.1720
 7861SOL     OW35044   3.989   0.035   7.878  0.0073  0.0876  0.2282
 7861SOL    HW135045   3.916   0.097   7.884  2.0156  2.5477 -0.9693
 7861SOL    HW235046   3.996   0.014   7.971 -1.6765  0.1274  0.3673
 7862SOL     OW35047   3.258   3.432  16.316  0.3088 -0.7783 -0.1203
 7862SOL    HW135048   3.279   3.497  16.249  1.3011 -0.7648  0.2023
 7862SOL    HW235049   3.163   3.424  16.310  0.0303  2.4308 -0.2043
 7863SOL     OW35050   4.699   2.993   4.736 -0.2592 -0.0615  0.9304
 7863SOL    HW135051   4.705   2.989   4.641  2.1665  0.4266  1.0604
 7863SOL    HW235052   0.047   3.058   4.759 -0.0509 -0.3239  1.0827
 7864SOL     OW35053   2.814   3.718   7.616  0.8936  0.3566  0.8996
 7864SOL    HW135054   2.819   3.688   7.525  0.6309  1.2144  0.6020
 7864SOL    HW235055   2.902   3.692   7.640  1.9700  1.8987 -1.4146
 7865SOL     OW35056   0.014   3.877   8.750  0.0915 -0.3040 -0.2638
 7865SOL    HW135057   0.026   3.809   8.817  0.0810 -1.8394 -1.8357
 7865SOL    HW235058   4.636   3.881   8.750  0.0994 -0.1403 -0.2086
 7866SOL     OW35059   0.492   1.200  14.880  0.1417 -0.9161  0.0752
 7866SOL    HW135060   0.588   1.202  14.877  0.0346  0.9081 -2.2148
 7866SOL    HW235061   0.476   1.107  14.868  1.2036 -0.9410 -1.1591
 7867SOL     OW35062   3.938   4.244   6.941  0.6508 -0.1214  0.3104
 7867SOL    HW135063   3.867   4.278   6.994 -0.0843  0.1142 -0.8161
 7867SOL    HW235064   3.902   4.158   6.918  0.8081 -0.3600  0.9638
 7868SOL     OW35065   1.883   4.150   2.068  0.3397 -0.5231  0.4007
 7868SOL    HW135066   1.970   4.174   2.099 -0.6039  1.8372  1.2733
 7868SOL    HW235067   1.834   4.168   2.149  0.0971 -0.5481  0.2607
 7869SOL     OW35068   3.154   3.897   4.098 -0.3224  0.1613 -0.4823
 7869SOL    HW135069   3.237   3.934   4.128 -1.7945  1.9715  1.4370
 7869SOL    HW235070   3.154   3.811   4.140  1.2581  0.1434 -0.5154
 7870SOL     OW35071   1.251   1.775   7.215  0.4253  0.0951  0.2918
 7870SOL    HW135072   1.203   1.852   7.244  0.6221  0.2806  0.1283
 7870SOL    HW235073   1.338   1.816   7.213  0.1007  0.7809  0.4759
 7871SOL     OW35074   0.914   1.747  12.497 -0.1136 -0.0679 -0.0036
 7871SOL    HW135075   0.962   1.664  12.498 -0.5258 -0.3349 -3.1733
 7871SOL    HW235076   0.951   1.789  12.574 -0.7978  0.6016 -0.0360
 7872SOL     OW35077   1.205   2.576   7.788 -0.5304  0.2008 -0.1052
 7872SOL    HW135078   1.231   2.662   7.822 -0.9127 -0.5724  2.1494
 7872SOL    HW235079   1.178   2.530   7.868 -0.8171  1.3093  0.4468
 7873SOL     OW35080   0.512   3.340   7.683 -0.2480 -0.3507  0.1273
 7873SOL    HW135081   0.501   3.408   7.616 -1.9342  1.5467  2.3042
 7873SOL    HW235082   0.554   3.393   7.751  0.9610  0.5447 -1.3208
 7874SOL     OW35083   1.002   3.681   3.047  0.8708 -0.0637  0.9593
 7874SOL    HW135084   1.019   3.774   3.063 -0.7548  0.2092  1.1573
 7874SOL    HW235085   1.041   3.642   3.125 -0.7136  0.4565  2.0247
 7875SOL     OW35086   0.542   4.416   1.236  0.2154 -0.2893  0.0552
 7875SOL    HW135087   0.589   4.337   1.264  1.9926  0.1085 -1.7952
 7875SOL    HW235088   0.611   4.479   1.215  1.7114 -1.5403  1.2590
 7876SOL     OW35089   3.563   4.658   8.192  0.0806 -0.0202 -0.4063
 7876SOL    HW135090   3.488   4.617   8.150  0.5548  1.1149 -2.3498
 7876SOL    HW235091   3.581   4.605   8.270 -0.3647  0.9999  0.3865
 7877SOL     OW35092   1.162   3.603   9.274  0.1245 -0.1125  0.1541
 7877SOL    HW135093   1.179   3.639   9.361 -0.6236  1.3049 -0.2902
 7877SOL    HW235094   1.099   3.535   9.299  0.9030 -0.4935  1.1107
 7878SOL     OW35095   2.296   0.598   4.614  0.1294  0.1154 -0.2695
 7878SOL    HW135096   2.276   0.612   4.707  1.4995  1.6701 -0.2077
 7878SOL    HW235097   2.269   0.682   4.576  0.9753  0.0376 -1.0460
 7879SOL     OW35098   3.094   4.718   5.873  0.9258  0.0468 -0.2792
 7879SOL    HW135099   3.053   4.665   5.942 -1.7561  0.6940 -1.3872
 7879SOL    HW235100   3.145   0.059   5.928  2.3994 -1.1610 -0.3222
 7880SOL     OW35101   1.795   3.422   8.928 -0.7281  0.1238 -0.0637
 7880SOL    HW135102   1.709   3.400   8.892 -0.4408  0.3503 -0.9059
 7880SOL    HW235103   1.773   3.446   9.018 -1.6309  0.7277 -0.4442
 7881SOL     OW35104   3.603   1.231   5.455  0.4064 -0.2567 -0.1788
 7881SOL    HW135105   3.633   1.148   5.417  1.5667 -0.0685  0.3314
 7881SOL    HW235106   3.625   1.298   5.391 -1.1827  0.4847  0.0561
 7882SOL     OW35107   2.532   1.284  10.717 -0.6945  0.1390  0.0693
 7882SOL    HW135108   2.616   1.241  10.733 -1.5531 -1.2592  0.9294
 7882SOL    HW235109   2.520   1.237  10.635 -0.1883 -1.3094  0.8115
 7883SOL     OW35110   2.432   4.717   1.448 -0.3583 -0.0281  0.4970
 7883SOL    HW135111   2.491   4.704   1.373 -0.6662 -0.4369  0.3229
 7883SOL    HW235112   2.455   0.089   1.472  0.5376 -0.4752  1.2849
 7884SOL     OW35113   0.540   1.670  17.567 -0.2276  0.4622 -0.0521
 7884SOL    HW135114   0.539   1.589  17.618  2.1794  0.0621 -0.6180
 7884SOL    HW235115   0.604   1.720  17.619 -1.5364 -0.5498  2.5089
 7885SOL     OW35116   4.316   2.318   4.501 -0.5162  0.2682  0.0823
 7885SOL    HW135117   4.377   2.366   4.558  0.8918  1.9848 -2.8578
 7885SOL    HW235118   4.371   2.309   4.423 -0.0492  1.5418  0.2650
 7886SOL     OW35119   0.721   1.153   2.866 -0.1437  0.1248 -0.3879
 7886SOL    HW135120   0.751   1.237   2.901  0.5504  1.2885 -3.7266
 7886SOL    HW235121   0.764   1.105   2.937  0.8154  1.3196 -0.1596
 7887SOL     OW35122   2.420   2.089   8.432  0.1994  0.9169  0.1104
 7887SOL    HW135123   2.438   2.012   8.486 -2.2428 -0.1031 -0.5049
 7887SOL    HW235124   2.491   2.146   8.462  1.7151 -0.0785 -1.5639
 7888SOL     OW35125   1.429   1.279   7.279  0.2224  0.3694  0.3227
 7888SOL    HW135126   1.503   1.311   7.330 -2.4024  4.0534  1.8129
 7888SOL    HW235127   1.374   1.256   7.353 -0.4938 -1.5645 -0.8180
 7889SOL     OW35128   2.591   4.021   5.774  0.0241  0.2084  0.3194
 7889SOL    HW135129   2.617   4.062   5.856 -0.2182  0.8454  0.0758
 7889SOL    HW235130   2.511   4.064   5.744  0.1499  0.9350  1.0217
 7890SOL     OW35131   2.942   3.856  17.521 -0.0627  0.1188  0.2717
 7890SOL    HW135132   2.932   3.853  17.616  1.9243  0.9623  0.4838
 7890SOL    HW235133   3.036   3.868  17.518 -0.2358  1.3033 -0.3812
 7891SOL     OW35134   1.807   3.912   4.723 -0.2987 -0.0062  0.4319
 7891SOL    HW135135   1.731   3.969   4.708 -0.2944 -0.1070  0.0218
 7891SOL    HW235136   1.759   3.844   4.770 -0.0559  0.7944  1.8257
 7892SOL     OW35137   0.876   3.369   3.848 -0.0079 -0.2759 -0.0146
 7892SOL    HW135138   0.927   3.437   3.891 -0.0083  0.0721 -0.5642
 7892SOL    HW235139   0.932   3.329   3.781  0.9678 -1.0646  1.2683
 7893SOL     OW35140   4.231   1.067  13.728  0.1004  0.5798 -0.3141
 7893SOL    HW135141   4.300   1.130  13.705  0.4486  0.4402  0.3315
 7893SOL    HW235142   4.254   1.040  13.817  1.9743  4.0200  0.2603
 7894SOL     OW35143   2.461   4.683   3.216 -0.4219 -0.4108 -0.1322
 7894SOL    HW135144   2.471   4.660   3.308  0.6122 -0.2419 -0.1957
 7894SOL    HW235145   2.428   0.054   3.229  1.6887  0.6835 -2.3735
 7895SOL     OW35146   3.007   2.609   1.312 -0.5545 -0.2308  0.3390
 7895SOL    HW135147   2.989   2.567   1.228  0.3972  3.4612 -1.7059
 7895SOL    HW235148   3.073   2.550   1.348  2.2839  2.1089 -1.1352
 7896SOL     OW35149   2.660   1.050  10.004  0.0218 -0.3345  0.1547
 7896SOL    HW135150   2.711   1.035   9.925 -0.3548 -0.6038 -0.0415
 7896SOL    HW235151   2.677   1.141  10.025 -0.7185  0.5040 -2.8225
 7897SOL     OW35152   2.402   3.116   1.973 -0.4904  0.2125 -0.1968
 7897SOL    HW135153   2.373   3.096   2.062  0.7137  1.3529  0.4455
 7897SOL    HW235154   2.463   3.043   1.964  0.3633  0.6823  1.8702
 7898SOL     OW35155   4.418   0.003   4.781  0.1150 -0.1364 -0.3165
 7898SOL    HW135156   4.375   4.711   4.696 -1.4323  0.7283  0.3769
 7898SOL    HW235157   4.342   0.014   4.839 -0.0035 -0.4923 -0.4037
 7899SOL     OW35158   0.294   3.106   9.451 -0.0972  0.1329  0.0725
 7899SOL    HW135159   0.240   3.184   9.438  0.5806  0.6661  0.4366
 7899SOL    HW235160   0.330   3.107   9.362  0.5787  0.0814  0.3480
 7900SOL     OW35161   4.410   0.336   4.974  0.2181  0.3347  0.3423
 7900SOL    HW135162   4.359   0.396   4.920  0.5678  0.5279  0.2270
 7900SOL    HW235163   4.465   0.295   4.907  0.3042 -0.6863  1.0361
 7901SOL     OW35164   4.531   3.413   5.284 -0.3481  0.0100  0.0357
 7901SOL    HW135165   4.593   3.386   5.351 -1.1763  2.5862  1.8089
 7901SOL    HW235166   4.460   3.351   5.302 -0.2979  0.0101  0.2289
 7902SOL     OW35167   3.337   2.356  12.423  0.1243  0.4453  0.0954
 7902SOL    HW135168   3.355   2.377  12.514 -0.7818  0.2885  0.3031
 7902SOL    HW235169   3.270   2.420  12.398  0.3305 -0.2941 -2.3980
 7903SOL     OW35170   3.859   1.824   8.483 -0.0472  0.6518 -0.2375
 7903SOL    HW135171   3.923   1.764   8.445  0.0274  0.6507 -0.1104
 7903SOL    HW235172   3.844   1.760   8.553 -0.6837 -2.4247 -3.1910
 7904SOL     OW35173   0.324   0.692   5.019 -0.3512 -0.5747 -0.4504
 7904SOL    HW135174   0.275   0.659   5.093  0.6835  0.0152  0.5029
 7904SOL    HW235175   0.402   0.636   5.019  1.4673  1.9879  2.4262
 7905SOL     OW35176   4.005   2.357   7.905 -0.3671  0.0579 -0.2420
 7905SOL    HW135177   4.066   2.418   7.947  0.7439 -0.5006 -1.0489
 7905SOL    HW235178   3.926   2.410   7.909  0.4309  1.2648 -0.5375
 7906SOL     OW35179   1.208   2.620   3.088  0.6639 -0.3500  0.2535
 7906SOL    HW135180   1.193   2.540   3.139  0.0559 -0.1351  0.4159
 7906SOL    HW235181   1.281   2.582   3.040  2.4503  3.6040 -0.1510
 7907SOL     OW35182   1.638   3.000   6.788 -0.2792 -0.3224 -0.3500
 7907SOL    HW135183   1.694   2.924   6.803  1.3310  1.3657  2.3741
 7907SOL    HW235184   1.676   3.064   6.848  0.0781  2.1293 -3.1936
 7908SOL     OW35185   1.203   1.946  16.914 -0.2057  0.2330 -0.1408
 7908SOL    HW135186   1.194   1.869  16.971  0.7540  1.2798  1.4359
 7908SOL    HW235187   1.286   1.937  16.868  0.3596  1.3134  0.6558
 7909SOL     OW35188   0.689   2.168   4.041 -0.6048  0.1075 -0.0042
 7909SOL    HW135189   0.605   2.211   4.058  0.0608  1.0037  1.0275
 7909SOL    HW235190   0.691   2.177   3.946 -0.6452 -0.8520 -0.0959
 7910SOL     OW35191   1.194   0.452  12.249  0.1074 -0.1531 -0.1090
 7910SOL    HW135192   1.169   0.395  12.177  1.0881 -1.0256  0.2502
 7910SOL    HW235193   1.249   0.401  12.308 -1.3210  1.0950  2.3056
 7911SOL     OW35194   1.757   3.728   9.468 -0.2643 -0.1568 -0.0816
 7911SOL    HW135195   1.770   3.800   9.529  0.4593 -1.4040  1.2528
 7911SOL    HW235196   1.751   3.771   9.383 -1.4921  1.7624  0.9938
 7912SOL     OW35197   4.286   2.609  10.063 -0.1910 -0.1959  0.8058
 7912SOL    HW135198   4.228   2.682  10.083  1.3250  1.5919 -1.3392
 7912SOL    HW235199   4.229   2.544  10.022  0.8309  0.7949 -2.1910
 7913SOL     OW35200   2.016   3.432   3.639 -0.0487 -0.4030  0.0163
 7913SOL    HW135201   1.945   3.459   3.581 -0.1124  0.7351  0.6383
 7913SOL    HW235202   2.042   3.517   3.675 -0.3034 -0.1285 -0.4550
 7914SOL     OW35203   0.807   4.241   4.295 -0.4534  0.2609 -0.0077
 7914SOL    HW135204   0.788   4.235   4.202  2.0571 -2.4182 -0.3541
 7914SOL    HW235205   0.779   4.153   4.321 -0.6538  0.1362 -0.6442
 7915SOL     OW35206   1.636   1.681   8.600 -0.0302 -0.2463 -0.1795
 7915SOL    HW135207   1.653   1.695   8.693  0.5408  1.5364 -0.5524
 7915SOL    HW235208   1.556   1.734   8.588  0.9368  0.8027 -1.9577
 7916SOL     OW35209   0.875   1.343  10.672 -0.5380 -0.4886 -0.4234
 7916SOL    HW135210   0.953   1.286  10.671 -0.5518 -0.4852 -2.2118
 7916SOL    HW235211   0.844   1.320  10.759 -0.0859 -1.2206 -0.4529
 7917SOL     OW35212   0.118   2.822  16.669  0.6964  0.0834  0.3516
 7917SOL    HW135213   0.147   2.839  16.759 -0.3769  1.9537  0.3225
 7917SOL    HW235214   0.055   2.752  16.682  2.0608 -1.3022 -0.4010
 7918SOL     OW35215   0.009   2.100   1.628  0.3545 -0.1208  0.3042
 7918SOL    HW135216   0.072   2.035   1.656  0.8959 -0.9102 -2.7237
 7918SOL    HW235217   0.017   2.157   1.705  0.5445  0.5666 -0.2183
 7919SOL     OW35218   2.690   0.299  16.345 -0.3820  0.4387  0.1073
 7919SOL    HW135219   2.684   0.214  16.387 -1.2731  1.1169  1.3477
 7919SOL    HW235220   2.605   0.334  16.371 -0.7890 -1.8131  1.7873
 7920SOL     OW35221   0.908   2.379  17.469  0.1687  0.1169  0.1705
 7920SOL    HW135222   0.892   2.398  17.377 -1.5593 -0.2578  0.4079
 7920SOL    HW235223   0.978   2.316  17.449 -0.5297 -0.0672 -1.7127
 7921SOL     OW35224   0.646   4.463   0.171 -0.1051 -0.0214 -0.1854
 7921SOL    HW135225   0.663   4.556   0.164 -1.8069  0.3063  0.0357
 7921SOL    HW235226   0.560   4.467   0.215 -0.2469 -1.0460 -0.3498
 7922SOL     OW35227   2.744   3.361  13.675  0.3348 -0.0662  0.1308
 7922SOL    HW135228   2.732   3.371  13.770 -2.4772  0.2734 -0.2403
 7922SOL    HW235229   2.822   3.306  13.680  0.2240 -0.3416 -1.3226
 7923SOL     OW35230   4.106   0.515   6.383 -0.0974  0.2220  0.1313
 7923SOL    HW135231   4.198   0.512   6.356  0.4431  1.1605  1.8209
 7923SOL    HW235232   4.107   0.609   6.402  0.7809  0.4720 -1.1000
 7924SOL     OW35233   2.430   3.159  17.343  0.3853  0.0493  0.1299
 7924SOL    HW135234   2.395   3.072  17.327 -1.0210  0.4298  1.1169
 7924SOL    HW235235   2.383   3.189  17.421  2.9852  2.8437  0.6360
 7925SOL     OW35236   0.567   3.763   3.466 -0.0797 -0.6692 -0.3049
 7925SOL    HW135237   0.626   3.815   3.521 -1.0169  0.4730 -0.3827
 7925SOL    HW235238   0.592   3.794   3.379 -1.4347 -1.2408 -0.9011
 7926SOL     OW35239   0.954   3.330  15.319 -0.6136 -0.2334  0.6845
 7926SOL    HW135240   0.929   3.422  15.324 -0.2131 -0.0576 -0.6649
 7926SOL    HW235241   0.967   3.310  15.412 -0.3441 -0.9358  0.4952
 7927SOL     OW35242   1.147   1.282   5.000 -0.1258 -0.4796 -0.3368
 7927SOL    HW135243   1.113   1.363   5.037 -0.8180 -1.5494  1.3651
 7927SOL    HW235244   1.213   1.319   4.941 -3.4196  3.0655 -1.8106
 7928SOL     OW35245   4.173   1.414   4.787  0.2524 -0.1348  0.1528
 7928SOL    HW135246   4.229   1.368   4.849  0.4765  0.1011  0.1247
 7928SOL    HW235247   4.243   1.474   4.762  0.8041 -0.8784 -0.0792
 7929SOL     OW35248   0.955   4.505   3.859 -0.4298 -0.1129  0.2867
 7929SOL    HW135249   0.983   4.452   3.784  0.7636  0.0808  0.6003
 7929SOL    HW235250   0.863   4.517   3.835 -0.3874  0.0440  0.2044
 7930SOL     OW35251   4.341   2.601   4.503 -0.1830 -0.5625  0.1185
 7930SOL    HW135252   4.380   2.572   4.585  0.6894  0.5915  0.0956
 7930SOL    HW235253   4.340   2.697   4.506  2.0492 -0.4767 -1.7720
 7931SOL     OW35254   0.699   0.929   3.994  0.3751 -0.1016  0.0023
 7931SOL    HW135255   0.685   0.843   4.034 -1.7937  0.4948  0.5169
 7931SOL    HW235256   0.733   0.978   4.069 -0.8168  1.7086 -0.6541
 7932SOL     OW35257   1.334   2.202   8.016  0.2082  0.5377  0.1779
 7932SOL    HW135258   1.255   2.156   8.043  1.3829 -1.6104 -0.0240
 7932SOL    HW235259   1.336   2.164   7.928 -1.6006  0.6585  0.0790
 7933SOL     OW35260   2.705   1.444   6.333 -0.6437 -0.3053 -0.5883
 7933SOL    HW135261   2.758   1.423   6.410 -0.2472 -0.2638 -0.8492
 7933SOL    HW235262   2.773   1.451   6.266  0.6149 -1.3427  0.5871
 7934SOL     OW35263   1.756   0.456  16.890 -0.6004  0.3828 -0.5047
 7934SOL    HW135264   1.758   0.443  16.985  0.3572  1.2992 -0.4046
 7934SOL    HW235265   1.806   0.383  16.852 -1.2166 -1.7763  2.7967
 7935SOL     OW35266   4.536   3.520   6.035  0.2263 -0.4667 -0.5831
 7935SOL    HW135267   4.495   3.478   5.960 -2.4554  0.2578  0.4541
 7935SOL    HW235268   4.486   3.485   6.110  2.3456 -1.6061  0.3054
 7936SOL     OW35269   2.722   3.296   4.230  0.0013  0.2292  0.1676
 7936SOL    HW135270   2.750   3.212   4.194  2.1105  0.8816  0.2854
 7936SOL    HW235271   2.717   3.348   4.149 -4.1642 -0.4408 -0.0064
 7937SOL     OW35272   3.770   0.967   4.373 -0.1741  0.2074  0.7068
 7937SOL    HW135273   3.755   1.047   4.323 -0.7016 -1.2891 -1.5640
 7937SOL    HW235274   3.854   0.949   4.331  0.6163 -2.0303  3.2637
 7938SOL     OW35275   3.746   4.464   6.739 -0.5593 -0.1802 -0.2437
 7938SOL    HW135276   3.781   4.480   6.827  2.0582  2.4381 -1.7668
 7938SOL    HW235277   3.680   4.396   6.748 -1.2746  0.5806  0.2005
 7939SOL     OW35278   2.414   0.229   3.257  0.3058  0.2863  0.1514
 7939SOL    HW135279   2.503   0.262   3.263  0.9816 -0.9844 -3.1971
 7939SOL    HW235280   2.366   0.280   3.323  0.4265  1.0561 -0.3524
 7940SOL     OW35281   1.144   0.392   6.646 -0.0664  0.0010  0.3074
 7940SOL    HW135282   1.134   0.324   6.712  1.1473  1.0744  1.6075
 7940SOL    HW235283   1.139   0.330   6.574  1.4122  0.4542 -0.1938
 7941SOL     OW35284   2.394   1.414   9.192  0.6384  0.5107  0.3068
 7941SOL    HW135285   2.440   1.483   9.239 -2.0638  3.2817 -1.0546
 7941SOL    HW235286   2.423   1.331   9.229  1.0612  0.8987  0.8344
 7942SOL     OW35287   0.132   4.243   7.389 -0.0643  0.0950 -0.2369
 7942SOL    HW135288   0.128   4.205   7.301  1.3098 -2.5909  0.8441
 7942SOL    HW235289   0.226   4.245   7.407 -0.1648  1.0507  0.1877
 7943SOL     OW35290   1.754   3.354   7.852 -0.7092  0.2968  0.4607
 7943SOL    HW135291   1.848   3.338   7.864 -0.9484 -0.5614  1.1862
 7943SOL    HW235292   1.725   3.263   7.860  0.5898 -0.2024 -0.5143
 7944SOL     OW35293   2.082   1.142   2.605  0.4589 -0.0238  0.1850
 7944SOL    HW135294   2.144   1.185   2.547 -1.6443  1.5118 -0.9469
 7944SOL    HW235295   2.061   1.069   2.548  2.6427 -0.4309 -0.0920
 7945SOL     OW35296   1.741   3.644   4.834  0.3340 -0.0803 -0.3350
 7945SOL    HW135297   1.835   3.638   4.817  0.3389 -3.1001  0.7565
 7945SOL    HW235298   1.715   3.566   4.784  0.2630  1.7585 -3.1590
 7946SOL     OW35299   0.103   1.768   6.824 -0.0437 -0.3609  0.3093
 7946SOL    HW135300   0.025   1.727   6.861 -0.6897  0.2069 -0.4186
 7946SOL    HW235301   0.115   1.706   6.752  0.4242  0.8073 -0.6167
 7947SOL     OW35302   0.565   2.819   8.856 -0.0735  0.1875 -0.0482
 7947SOL    HW135303   0.546   2.894   8.800 -1.8686  0.0864  0.4198
 7947SOL    HW235304   0.611   2.854   8.932  0.2421  1.6630 -0.9189
 7948SOL     OW35305   1.242   2.863  14.905 -0.8037  0.0719 -0.0048
 7948SOL    HW135306   1.157   2.896  14.932 -0.0219  0.6488  1.7448
 7948SOL    HW235307   1.294   2.921  14.960  0.6732 -0.1034 -1.1853
 7949SOL     OW35308   3.105   3.658   7.683  0.0583  1.0959  0.3423
 7949SOL    HW135309   3.099   3.691   7.773  2.3146  0.6296  0.6638
 7949SOL    HW235310   3.196   3.679   7.662  0.0752  0.6907  0.0074
 7950SOL     OW35311   0.333   1.797   3.363 -0.3811  0.6757 -0.3573
 7950SOL    HW135312   0.336   1.890   3.338 -0.4703  0.1532 -2.2798
 7950SOL    HW235313   0.421   1.796   3.401 -0.8700  0.0480  0.7462
 7951SOL     OW35314   1.570   1.511   3.984  0.7284  0.3233 -0.1762
 7951SOL    HW135315   1.647   1.568   3.993  1.2682 -0.3694 -0.4139
 7951SOL    HW235316   1.560   1.542   3.894  0.0415 -0.7089 -0.4454
 7952SOL     OW35317   0.829   0.288   8.826  0.5402 -0.4048  0.0079
 7952SOL    HW135318   0.762   0.322   8.886  0.0103 -2.0593  0.3522
 7952SOL    HW235319   0.825   0.357   8.760 -0.9813 -0.1805  0.3324
 7953SOL     OW35320   2.975   1.595   1.180 -0.2048  0.3490  0.3374
 7953SOL    HW135321   2.983   1.595   1.085 -0.1404  1.5933  0.3544
 7953SOL    HW235322   2.886   1.559   1.186  0.5382 -1.5106  0.1869
 7954SOL     OW35323   3.137   4.626   9.083 -0.2618 -0.1386  0.1470
 7954SOL    HW135324   3.094   4.630   9.169  0.5288  0.5193  0.5094
 7954SOL    HW235325   3.225   4.649   9.115 -0.7672 -0.8547  2.0687
 7955SOL     OW35326   4.075   1.746   4.202  0.2986 -0.2050 -0.2279
 7955SOL    HW135327   4.163   1.752   4.239  1.6888 -0.0207 -3.5803
 7955SOL    HW235328   4.042   1.665   4.240 -0.0123  0.1043  0.1498
 7956SOL     OW35329   1.084   4.383   1.465 -0.0050 -0.8011 -0.2611
 7956SOL    HW135330   1.155   4.445   1.478 -1.4299  0.2218  2.5326
 7956SOL    HW235331   1.031   4.393   1.544  0.0053  1.0776 -0.4944
 7957SOL     OW35332   3.739   1.992   6.322  0.0909  0.1640 -0.3969
 7957SOL    HW135333   3.753   1.918   6.263  0.2313 -0.3226  0.2459
 7957SOL    HW235334   3.648   2.018   6.309 -0.3173 -1.3910 -0.6443
 7958SOL     OW35335   3.033   2.091   4.056 -0.1639 -0.1017 -0.1484
 7958SOL    HW135336   3.120   2.071   4.019 -0.7516  1.0395 -2.1724
 7958SOL    HW235337   3.038   2.184   4.036  0.6603 -0.8203 -3.3370
 7959SOL     OW35338   3.188   2.681   4.884  0.2359 -0.1897 -0.1208
 7959SOL    HW135339   3.162   2.737   4.811 -0.2886 -0.9008 -0.4722
 7959SOL    HW235340   3.186   2.744   4.957 -0.3990  1.0538 -1.2134
 7960SOL     OW35341   0.391   3.261   4.528 -0.3078 -0.2657  0.4538
 7960SOL    HW135342   0.346   3.183   4.562 -0.5141 -0.0446  0.6894
 7960SOL    HW235343   0.343   3.335   4.565  1.5323  1.2535 -0.1810
 7961SOL     OW35344   1.070   3.836   7.946 -0.2541 -0.0522 -0.2589
 7961SOL    HW135345   1.029   3.785   8.016 -1.0776 -1.3498 -1.6779
 7961SOL    HW235346   1.137   3.890   7.987  0.2913  1.9363 -3.7722
 7962SOL     OW35347   3.479   0.897  15.260 -0.0234  0.3257  0.0864
 7962SOL    HW135348   3.483   0.863  15.171  0.2666  0.1642  0.1620
 7962SOL    HW235349   3.478   0.991  15.245  2.4751  0.0626 -1.5846
 7963SOL     OW35350   2.080   1.724  12.550 -0.4964  0.2955 -0.1113
 7963SOL    HW135351   2.139   1.765  12.613 -0.5095 -0.1242  0.1768
 7963SOL    HW235352   2.145   1.731  12.480  0.4571  1.2736  0.8647
 7964SOL     OW35353   3.540   3.275   2.730  0.0447  0.3260  0.4077
 7964SOL    HW135354   3.467   3.336   2.740 -1.1076 -1.1521  1.0663
 7964SOL    HW235355   3.620   3.325   2.715  0.2270  0.1114  0.6596
 7965SOL     OW35356   4.626   3.455   3.357  0.0394 -0.2693 -0.0870
 7965SOL    HW135357   4.681   3.387   3.394 -0.1011 -0.2655  0.1301
 7965SOL    HW235358   4.677   3.469   3.277 -0.0803  0.6839 -0.0039
 7966SOL     OW35359   2.234   1.909  12.923  0.4020 -0.1913  0.0442
 7966SOL    HW135360   2.237   1.831  12.868  2.1393 -0.1806  0.1234
 7966SOL    HW235361   2.256   1.969  12.852 -0.5432 -2.7031 -2.3700
 7967SOL     OW35362   3.752   0.838  17.095 -0.0493  0.1950 -0.2030
 7967SOL    HW135363   3.737   0.880  17.010 -0.6679 -0.2153 -0.2974
 7967SOL    HW235364   3.848   0.834  17.097 -0.0032  1.2268 -0.1194
 7968SOL     OW35365   1.989   1.919   1.409 -0.1533 -0.2608  0.1730
 7968SOL    HW135366   1.955   1.874   1.332 -1.8845  0.7196  0.3638
 7968SOL    HW235367   1.979   2.007   1.372 -0.1058 -0.3955 -0.1594
 7969SOL     OW35368   2.948   1.012   3.829  0.4205 -0.4538 -0.3611
 7969SOL    HW135369   2.961   1.035   3.921 -0.9847  2.7953 -0.9567
 7969SOL    HW235370   2.980   1.094   3.790 -0.3984  0.0546  0.0264
 7970SOL     OW35371   1.280   4.697   4.795 -0.0447  0.6253  0.8309
 7970SOL    HW135372   1.202   4.644   4.781  0.3709  0.0147  0.8016
 7970SOL    HW235373   1.240   0.064   4.809 -2.8957 -0.1113 -2.9293
 7971SOL     OW35374   4.391   1.196   0.501  0.0019  0.3729 -0.2634
 7971SOL    HW135375   4.359   1.284   0.484 -0.8748  0.4237  1.5875
 7971SOL    HW235376   4.409   1.192   0.595 -0.6602 -2.0176 -0.2403
 7972SOL     OW35377   3.055   3.923   3.820 -0.4841  0.8977 -0.8097
 7972SOL    HW135378   3.144   3.916   3.786  0.5430 -1.3191  2.3061
 7972SOL    HW235379   3.084   3.918   3.911 -2.0398  0.9639 -0.3103
 7973SOL     OW35380   3.688   3.279   1.326 -0.2438 -0.1156 -0.3298
 7973SOL    HW135381   3.666   3.353   1.382  3.3048  0.2672  0.5601
 7973SOL    HW235382   3.604   3.258   1.284  0.2189 -3.0202  0.1826
 7974SOL     OW35383   0.254   0.086   7.948 -0.3961  0.0779  0.5798
 7974SOL    HW135384   0.189   0.156   7.946  1.1974  1.5297 -0.4309
 7974SOL    HW235385   0.240   0.051   7.860 -0.3963 -1.6783  1.2948
 7975SOL     OW35386   1.266   1.887  14.054 -0.4474  0.4302 -0.1909
 7975SOL    HW135387   1.334   1.903  14.120 -0.4328 -0.9233  0.1141
 7975SOL    HW235388   1.190   1.869  14.110 -0.1388  0.1360  0.1348
 7976SOL     OW35389   0.886   3.678  17.594 -0.4935  0.2047 -0.4338
 7976SOL    HW135390   0.954   3.610  17.591  0.5182  1.2511 -1.3251
 7976SOL    HW235391   0.865   3.680  17.500 -0.0601  0.2883 -0.5300
 7977SOL     OW35392   0.873   1.577   4.803  0.2706 -0.1473  0.6051
 7977SOL    HW135393   0.792   1.585   4.753  1.9134  4.5080 -1.3028
 7977SOL    HW235394   0.908   1.497   4.764 -0.2784 -0.4824  0.8097
 7978SOL     OW35395   1.717   4.656   5.752  0.2565  0.3394  0.2491
 7978SOL    HW135396   1.730   4.576   5.701 -0.0196  0.0494  0.6354
 7978SOL    HW235397   1.808   4.668   5.780  0.6055 -0.7348 -0.4236
 7979SOL     OW35398   2.332   0.972   4.742  0.1258 -0.2420 -0.0156
 7979SOL    HW135399   2.261   0.982   4.805 -0.9959 -1.0882 -1.1431
 7979SOL    HW235400   2.296   0.924   4.667 -1.9212  1.9952 -0.5002
 7980SOL     OW35401   1.062   0.515  10.325  0.0812  0.4278 -0.6806
 7980SOL    HW135402   0.999   0.576  10.363  1.2192 -0.5920  2.8459
 7980SOL    HW235403   1.032   0.512  10.234 -1.2799 -0.1933 -0.2063
 7981SOL     OW35404   0.517   3.178   5.609 -0.1965  0.5029  0.3850
 7981SOL    HW135405   0.455   3.105   5.607 -0.9684  1.1965 -1.9141
 7981SOL    HW235406   0.599   3.140   5.579 -1.2789 -2.4638  1.1898
 7982SOL     OW35407   3.463   0.053  11.143 -0.2389 -0.6135  0.4011
 7982SOL    HW135408   3.535   0.005  11.102  0.8470  4.4923 -3.6038
 7982SOL    HW235409   3.386   0.021  11.094  1.0475 -1.3855 -1.1145
 7983SOL     OW35410   2.037   4.262   4.438 -0.3084 -0.2346  0.2121
 7983SOL    HW135411   2.122   4.249   4.395 -0.0178  2.8348 -0.1374
 7983SOL    HW235412   2.025   4.353   4.410  1.6870 -0.2970 -0.8717
 7984SOL     OW35413   3.558   0.953   8.325 -0.5519  0.1120  0.5362
 7984SOL    HW135414   3.508   0.872   8.338  0.6797 -0.6888  0.2412
 7984SOL    HW235415   3.534   0.979   8.237  2.5836  2.3406  0.3536
 7985SOL     OW35416   4.268   4.332  12.998  0.0498  0.2274 -0.1572
 7985SOL    HW135417   4.329   4.271  12.958  0.7553  0.1563  1.0108
 7985SOL    HW235418   4.221   4.257  13.036 -2.3356  1.0915 -1.4181
 7986SOL     OW35419   4.493   1.747   2.571 -0.0467  0.2660  0.0180
 7986SOL    HW135420   4.476   1.769   2.662 -0.7885 -0.0039 -0.0542
 7986SOL    HW235421   4.546   1.667   2.573  0.6257  0.7189  0.1874
 7987SOL     OW35422   1.994   0.977   6.872 -0.4088 -0.2931  0.1620
 7987SOL    HW135423   1.906   1.012   6.883 -0.3443 -0.1233  0.1409
 7987SOL    HW235424   1.971   0.918   6.800 -1.9230  0.5408 -0.0441
 7988SOL     OW35425   0.405   3.836   2.778 -0.2510 -0.6183  0.1365
 7988SOL    HW135426   0.337   3.864   2.717  1.3434  2.4932 -0.2128
 7988SOL    HW235427   0.448   3.762   2.735 -3.0744 -2.5364  0.5521
 7989SOL     OW35428   0.232   3.461   2.101 -0.0438 -0.1608  0.0007
 7989SOL    HW135429   0.247   3.552   2.077 -1.5126  0.0793 -0.0129
 7989SOL    HW235430   0.139   3.453   2.079  0.4715  0.7272 -2.5055
 7990SOL     OW35431   4.330   3.825   3.830  0.1049 -0.4948  0.0502
 7990SOL    HW135432   4.294   3.744   3.793 -2.3298  1.0438 -0.9925
 7990SOL    HW235433   4.377   3.861   3.755  2.1710  0.3972  1.8067
 7991SOL     OW35434   2.223   3.697  12.030 -0.2481 -0.2743 -0.3513
 7991SOL    HW135435   2.253   3.642  12.102  2.4880  1.9211  0.2054
 7991SOL    HW235436   2.237   3.781  12.074  1.2012  0.6174 -2.4733
 7992SOL     OW35437   4.240   1.569  14.117 -0.2020 -0.5041  0.5801
 7992SOL    HW135438   4.281   1.629  14.054 -0.8851 -2.3289 -1.5745
 7992SOL    HW235439   4.153   1.563  14.078  0.9765 -2.8033 -1.6731
 7993SOL     OW35440   1.513   4.546   0.442  0.1127 -0.1869 -0.0712
 7993SOL    HW135441   1.435   4.577   0.396  1.1305  2.7477  0.1966
 7993SOL    HW235442   1.489   4.489   0.515 -0.7450 -0.6353 -0.7063
 7994SOL     OW35443   1.339   0.548   0.559 -0.0805 -0.5440  0.4032
 7994SOL    HW135444   1.254   0.579   0.587  0.2455  0.0833  0.6837
 7994SOL    HW235445   1.396   0.619   0.589  3.2204 -3.3832  0.9275
 7995SOL     OW35446   1.460   3.472  15.333  0.4516 -0.1066 -0.2444
 7995SOL    HW135447   1.413   3.408  15.279 -2.4707  0.7781  1.2448
 7995SOL    HW235448   1.395   3.479  15.402 -1.2435 -2.4006 -1.6189
 7996SOL     OW35449   4.655   2.857   1.942  0.2036  0.4638 -0.0278
 7996SOL    HW135450   4.588   2.850   2.009  0.7967 -0.6479  0.4494
 7996SOL    HW235451   4.607   2.813   1.872  1.9615 -0.7718 -0.4536
 7997SOL     OW35452   0.065   2.732   7.237  0.1164 -0.0046  0.6136
 7997SOL    HW135453   0.056   2.656   7.180 -1.2733  1.2226 -0.8203
 7997SOL    HW235454   4.712   2.710   7.296  1.1910 -0.2178  1.8115
 7998SOL     OW35455   0.009   0.416   6.046  0.3481  0.3698  0.3776
 7998SOL    HW135456   0.047   0.428   6.133  0.2256  0.4961  0.4128
 7998SOL    HW235457   0.031   0.497   6.000 -0.7396  0.2218 -0.4239
 7999SOL     OW35458   3.204   3.003   8.376  0.2041 -0.0786 -0.2150
 7999SOL    HW135459   3.260   2.938   8.335 -0.4614 -1.8165  1.6280
 7999SOL    HW235460   3.248   3.038   8.453  0.9663 -1.4160 -0.0642
 8000SOL     OW35461   0.700   4.378   2.123  0.0925  0.3535  0.2227
 8000SOL    HW135462   0.633   4.372   2.055  1.5134 -2.0074 -0.9640
 8000SOL    HW235463   0.741   4.460   2.095  0.9052  0.3161  1.3053
 8001SOL     OW35464   1.791   1.440   8.002 -0.3062 -0.0548  0.4583
 8001SOL    HW135465   1.850   1.424   8.076  0.3952 -1.7586 -0.4649
 8001SOL    HW235466   1.707   1.401   8.026 -1.7899  0.6788 -3.7105
 8002SOL     OW35467   1.398   0.371   9.428  0.0147 -0.1001 -0.4459
 8002SOL    HW135468   1.459   0.360   9.355  0.2899 -2.2516  0.0902
 8002SOL    HW235469   1.454   0.394   9.502  1.9449  0.1827 -1.9811
 8003SOL     OW35470   2.721   1.906   7.328 -0.2483 -0.0888  0.5723
 8003SOL    HW135471   2.782   1.956   7.273 -0.5055 -1.2979 -0.8294
 8003SOL    HW235472   2.723   1.822   7.283  0.9302 -0.2169  0.8641
 8004SOL     OW35473   3.821   3.966   2.544  0.4594 -0.4500 -0.0492
 8004SOL    HW135474   3.730   3.937   2.550  0.6590 -1.3362 -1.5684
 8004SOL    HW235475   3.829   4.029   2.473  1.5103  1.8120  2.0741
 8005SOL     OW35476   4.291   4.417  12.677  0.2157 -0.1430 -0.0642
 8005SOL    HW135477   4.276   4.387  12.767  0.3131 -1.1274 -0.3729
 8005SOL    HW235478   4.381   4.387  12.678 -0.4762 -2.2856 -0.9346
 8006SOL     OW35479   1.312   0.079   5.221  0.1051 -0.6221  0.0064
 8006SOL    HW135480   1.265   0.055   5.301 -1.9827 -0.1753 -1.0752
 8006SOL    HW235481   1.363   4.717   5.209  0.5679 -0.1333 -1.3504
 8007SOL     OW35482   3.324   3.640  16.171  0.2950 -0.3260  0.5105
 8007SOL    HW135483   3.381   3.714  16.190  0.7984 -0.6346  0.1936
 8007SOL    HW235484   3.370   3.600  16.097  2.2136  1.8433  0.5495
 8008SOL     OW35485   3.994   3.629   4.391 -0.0860  0.4348  0.0699
 8008SOL    HW135486   3.911   3.583   4.402  0.2901 -0.6461 -1.4683
 8008SOL    HW235487   4.002   3.661   4.481  2.2733  0.4204 -0.1346
 8009SOL     OW35488   2.936   3.895   0.129 -0.4834 -0.3596 -0.0697
 8009SOL    HW135489   3.026   3.870   0.110 -0.3140 -1.3851  2.0866
 8009SOL    HW235490   2.904   3.829   0.191 -1.2715 -1.6725 -1.8745
 8010SOL     OW35491   0.710   3.328   5.436 -0.5083  0.4069 -0.4134
 8010SOL    HW135492   0.625   3.371   5.432 -0.6437  0.0896 -0.9829
 8010SOL    HW235493   0.759   3.384   5.496 -1.7324  1.4690 -0.4065
 8011SOL     OW35494   3.487   4.269   1.452 -0.1048 -0.4225 -0.5139
 8011SOL    HW135495   3.461   4.358   1.478  1.1542 -0.0741 -0.4378
 8011SOL    HW235496   3.550   4.250   1.521 -0.4273  1.6224  0.3307
 8012SOL     OW35497   2.480   2.100  14.034 -0.7392  0.0701 -0.2031
 8012SOL    HW135498   2.511   2.187  14.008 -1.3115  0.2277 -0.3685
 8012SOL    HW235499   2.522   2.082  14.117  0.2978 -0.5133 -0.8550
 8013SOL     OW35500   3.878   0.024   4.716 -0.9462 -0.7617  0.7426
 8013SOL    HW135501   3.918   4.662   4.684  0.4082 -0.0791  0.7557
 8013SOL    HW235502   3.797   4.705   4.753  1.1551 -3.3194  2.7710
 8014SOL     OW35503   3.204   3.506   3.852  0.8627  0.2421  0.3761
 8014SOL    HW135504   3.203   3.420   3.810  0.8085 -0.5460  1.9885
 8014SOL    HW235505   3.274   3.546   3.800  1.6919 -1.0436  0.5173
 8015SOL     OW35506   1.431   4.573  14.787 -0.1133 -0.0487 -0.4574
 8015SOL    HW135507   1.463   4.623  14.863  0.6951 -2.6103  0.8814
 8015SOL    HW235508   1.338   4.573  14.808 -0.3857 -1.5361 -1.6737
 8016SOL     OW35509   0.763   4.379  15.520 -0.1996 -0.0318  0.1680
 8016SOL    HW135510   0.718   4.458  15.551 -0.0633  0.3996 -0.7422
 8016SOL    HW235511   0.807   4.411  15.442 -0.2059 -0.5208 -0.0344
 8017SOL     OW35512   3.343   1.380  10.298  0.2936  0.2735 -0.3258
 8017SOL    HW135513   3.353   1.471  10.270  1.2067  0.5356  0.8234
 8017SOL    HW235514   3.270   1.355  10.242 -1.3972  1.2811  1.4087
 8018SOL     OW35515   4.348   3.085  14.780 -0.0768 -0.3592  0.1627
 8018SOL    HW135516   4.371   3.149  14.847  0.3907 -2.1214  1.6773
 8018SOL    HW235517   4.343   3.132  14.697  0.6957  3.7607  2.4512
 8019SOL     OW35518   4.662   2.729   8.000 -0.4074  0.4770 -0.3062
 8019SOL    HW135519   4.651   2.819   7.972  0.9957  1.0231  0.9030
 8019SOL    HW235520   0.021   2.740   8.056  0.3969 -2.8044 -0.7482
 8020SOL     OW35521   1.286   0.139  15.001 -0.2462 -0.0968  0.0424
 8020SOL    HW135522   1.280   0.233  15.019  0.4760 -0.4395  2.0758
 8020SOL    HW235523   1.268   0.107  15.089 -1.9625 -2.8833 -1.3231
 8021SOL     OW35524   4.087   4.424   6.780  0.1093 -0.2772  0.1966
 8021SOL    HW135525   4.171   4.459   6.809  1.2495 -2.1452 -0.9159
 8021SOL    HW235526   4.065   4.361   6.849  1.7025  1.0214  1.8994
 8022SOL     OW35527   4.177   2.567   1.275 -0.2479 -0.1371  0.6394
 8022SOL    HW135528   4.123   2.636   1.313 -1.2199 -0.1436 -0.7500
 8022SOL    HW235529   4.113   2.525   1.217  1.0836  1.3544 -1.8977
 8023SOL     OW35530   4.124   1.140   7.057 -0.2154 -0.7370  0.0002
 8023SOL    HW135531   4.098   1.049   7.068 -0.8898 -0.1673  3.1586
 8023SOL    HW235532   4.192   1.140   6.989  1.7398  0.9894  1.9434
 8024SOL     OW35533   1.558   3.424  10.093 -0.0825  0.4584 -0.1541
 8024SOL    HW135534   1.534   3.469  10.174  0.7668  0.3575  0.1489
 8024SOL    HW235535   1.611   3.350  10.122  0.2129  1.0878  0.9126
 8025SOL     OW35536   2.980   3.406   8.404  0.1316  0.5445  0.8097
 8025SOL    HW135537   2.991   3.404   8.309 -1.2772  1.5960  0.6366
 8025SOL    HW235538   3.039   3.333   8.425  1.0898  0.9028 -0.6491
 8026SOL     OW35539   3.946   2.602   3.771 -0.3240 -0.3054  0.7290
 8026SOL    HW135540   3.945   2.693   3.743  3.0553 -0.0325  1.4873
 8026SOL    HW235541   3.881   2.602   3.842 -1.8232 -1.2696 -0.6294
 8027SOL     OW35542   0.257   2.169   3.220 -0.5181 -0.6564 -0.5471
 8027SOL    HW135543   0.334   2.125   3.185 -0.1353 -1.9063  1.9561
 8027SOL    HW235544   0.211   2.189   3.138 -0.7490 -0.6114 -0.4049
 8028SOL     OW35545   2.581   3.019   1.001  0.3458 -0.1930  0.3716
 8028SOL    HW135546   2.618   3.002   1.087  0.8973  1.4180  0.4564
 8028SOL    HW235547   2.550   3.108   1.018 -0.7939 -0.4328 -0.4143
 8029SOL     OW35548   1.645   0.293  15.836  0.0682  0.2318  0.3233
 8029SOL    HW135549   1.605   0.307  15.922 -1.6178  0.8116 -0.5554
 8029SOL    HW235550   1.683   0.206  15.829  0.1686  0.3211 -0.2917
 8030SOL     OW35551   2.333   0.016   4.529  0.6933 -0.4692 -0.1351
 8030SOL    HW135552   2.320   4.693   4.444 -0.8062 -1.2404  0.4714
 8030SOL    HW235553   2.377   0.098   4.508  1.5677 -0.6800  0.8681
 8031SOL     OW35554   0.264   4.518   6.646 -0.1748 -0.8977  0.7843
 8031SOL    HW135555   0.226   4.528   6.734 -2.1153  1.1903 -0.2812
 8031SOL    HW235556   0.208   4.447   6.617  0.0194 -0.6288 -0.2252
 8032SOL     OW35557   3.738   1.089  10.633  0.1250 -0.2463 -0.3537
 8032SOL    HW135558   3.689   1.054  10.708 -1.4186  2.2545 -0.1801
 8032SOL    HW235559   3.815   1.033  10.636  1.8090  2.0409 -2.1206
 8033SOL     OW35560   2.115   4.549   8.294  0.5766 -1.0838 -0.1504
 8033SOL    HW135561   2.162   4.490   8.235 -0.7312 -0.4280 -1.8292
 8033SOL    HW235562   2.195   4.600   8.311  0.9023 -2.6236  2.9935
 8034SOL     OW35563   4.392   1.745  15.081  0.1496  0.3940  0.2620
 8034SOL    HW135564   4.415   1.681  15.014 -0.5893 -0.1612  0.5409
 8034SOL    HW235565   4.338   1.689  15.138 -1.6436  1.4772 -0.3816
 8035SOL     OW35566   3.539   1.532   8.828  0.6316  0.3000  0.4209
 8035SOL    HW135567   3.557   1.593   8.757  1.5079 -1.4503 -0.8715
 8035SOL    HW235568   3.623   1.486   8.834  0.6891  0.7721  3.2103
 8036SOL     OW35569   3.437   2.518   7.561 -0.1573 -0.1395  0.9189
 8036SOL    HW135570   3.431   2.487   7.652 -0.0489  1.5463  1.4895
 8036SOL    HW235571   3.400   2.606   7.565 -0.0550 -0.0781  0.4040
 8037SOL     OW35572   4.070   3.762   4.633  0.5652 -0.7372 -0.6630
 8037SOL    HW135573   4.018   3.840   4.618 -1.3761 -2.1575 -1.2948
 8037SOL    HW235574   4.101   3.781   4.722  0.5788  1.5349 -1.1572
 8038SOL     OW35575   1.695   2.489   8.232  0.0161 -0.1195 -0.6576
 8038SOL    HW135576   1.621   2.500   8.292  1.0845  0.0868  0.6298
 8038SOL    HW235577   1.738   2.410   8.265 -2.2591 -1.0156  0.1332
 8039SOL     OW35578   2.668   3.621   5.254 -0.4162  0.0347  0.0199
 8039SOL    HW135579   2.658   3.656   5.342 -0.1346  3.4498 -1.2948
 8039SOL    HW235580   2.726   3.685   5.213  2.0723 -3.3699 -1.7365
 8040SOL     OW35581   2.575   2.189   2.158  0.6655  0.6446  0.2459
 8040SOL    HW135582   2.534   2.236   2.231 -0.2348 -2.9223  2.0635
 8040SOL    HW235583   2.544   2.243   2.086 -3.0830 -0.8463  0.7322
 8041SOL     OW35584   2.459   1.081   0.562  0.3404  0.5670 -0.6841
 8041SOL    HW135585   2.393   1.037   0.616  0.5529  0.2789 -0.6569
 8041SOL    HW235586   2.412   1.164   0.567  0.1195  0.3885  0.2078
 8042SOL     OW35587   0.261   3.428   6.324 -0.0347  0.1743 -0.8202
 8042SOL    HW135588   0.206   3.402   6.399  0.3212  1.5011 -0.1064
 8042SOL    HW235589   0.335   3.370   6.343  0.0701  0.1287 -1.3892
 8043SOL     OW35590   2.709   2.335  16.326 -0.0433  0.4499  0.2681
 8043SOL    HW135591   2.662   2.342  16.243  1.0128  0.7293 -0.3044
 8043SOL    HW235592   2.675   2.412  16.371  3.7263  0.6774  2.6977
 8044SOL     OW35593   3.321   1.044   5.447  0.5029  0.5505 -0.0290
 8044SOL    HW135594   3.415   1.049   5.432  0.5958  0.1844  0.4134
 8044SOL    HW235595   3.291   1.055   5.357  0.2880  1.9442  0.2174
 8045SOL     OW35596   2.535   4.596   9.275  0.7573  0.1833 -0.0540
 8045SOL    HW135597   2.468   4.660   9.298 -0.1036 -0.7646  0.0705
 8045SOL    HW235598   2.489   4.525   9.229 -1.6126  1.3860  0.4282
 8046SOL     OW35599   1.808   2.770  12.378  0.1517 -0.6239 -0.1907
 8046SOL    HW135600   1.891   2.782  12.423 -0.2655 -0.1620  0.4628
 8046SOL    HW235601   1.758   2.710  12.433  1.6145 -0.7281  1.0152
 8047SOL     OW35602   2.862   2.860  13.915 -0.5209  0.0404  0.3341
 8047SOL    HW135603   2.773   2.864  13.878  0.1451 -1.7989 -1.5209
 8047SOL    HW235604   2.848   2.890  14.005 -0.5853  0.3765  0.2129
 8048SOL     OW35605   3.019   1.896  14.202  0.0329 -0.5214  0.7277
 8048SOL    HW135606   2.926   1.874  14.197  0.4937 -2.1963 -0.6716
 8048SOL    HW235607   3.019   1.983  14.240 -1.9211  0.4339 -1.4585
 8049SOL     OW35608   3.724   3.528   2.121  0.2426  0.5056 -0.7115
 8049SOL    HW135609   3.726   3.461   2.052 -2.1180 -2.1082  1.7427
 8049SOL    HW235610   3.631   3.544   2.108  0.0867 -1.0456 -1.5391
 8050SOL     OW35611   2.700   0.554   7.356  0.4862 -0.3207  0.3738
 8050SOL    HW135612   2.791   0.580   7.364  0.7205 -1.8384  2.6079
 8050SOL    HW235613   2.708   0.477   7.298  1.4559  2.3985 -3.0783
 8051SOL     OW35614   1.764   4.481   4.214  0.3623 -0.0110 -0.2442
 8051SOL    HW135615   1.705   4.555   4.199 -2.0902 -1.8602  0.2057
 8051SOL    HW235616   1.739   4.421   4.144 -1.9313  1.1680 -0.4435
 8052SOL     OW35617   4.350   4.446   8.789  0.5412  0.0742 -0.2963
 8052SOL    HW135618   4.427   4.466   8.736  0.2903 -1.0348 -1.0735
 8052SOL    HW235619   4.323   4.363   8.749  1.6710 -1.2492  1.7366
 8053SOL     OW35620   0.102   2.664   2.919  0.5163 -0.0848  0.1110
 8053SOL    HW135621   0.109   2.574   2.951  1.4349  0.2988  0.9855
 8053SOL    HW235622   0.013   2.660   2.885  0.5844  0.7554 -0.1719
 8054SOL     OW35623   4.487   2.183   8.055  0.6155 -0.1693 -0.2702
 8054SOL    HW135624   4.417   2.215   8.113 -0.9447 -0.6394 -1.8978
 8054SOL    HW235625   4.535   2.127   8.116  0.9434  0.2421 -0.1449
 8055SOL     OW35626   2.114   3.190  13.107 -0.2558  0.6020  0.7059
 8055SOL    HW135627   2.043   3.178  13.170  0.8976  0.3774  1.9600
 8055SOL    HW235628   2.131   3.279  13.136 -4.4752  1.4362  0.6533
 8056SOL     OW35629   2.974   1.270   3.119 -0.7586  0.0653  0.3129
 8056SOL    HW135630   3.012   1.303   3.037 -2.0297 -2.0969 -1.1332
 8056SOL    HW235631   3.020   1.189   3.139  0.3506  0.7044  0.3130
 8057SOL     OW35632   4.695   1.262   7.954 -0.2897 -0.2654  0.2211
 8057SOL    HW135633   0.004   1.170   7.962  1.6330  0.2541 -0.4087
 8057SOL    HW235634   4.626   1.269   8.020 -0.1944  0.1402  0.2778
 8058SOL     OW35635   1.864   2.161   4.891 -0.7947  0.2978 -0.5247
 8058SOL    HW135636   1.796   2.226   4.874 -0.5246  0.9345  0.8069
 8058SOL    HW235637   1.936   2.224   4.904 -2.2192  1.6680  0.7044
 8059SOL     OW35638   1.477   1.923   5.466  0.3070 -0.8104 -0.0988
 8059SOL    HW135639   1.540   1.853   5.449  0.2602 -1.3562  2.0477
 8059SOL    HW235640   1.437   1.898   5.549  0.8494 -2.8275 -0.4513
 8060SOL     OW35641   2.313   1.921   0.192 -0.0379 -0.2120  0.1658
 8060SOL    HW135642   2.271   1.948   0.274  2.2517  0.2091  1.2143
 8060SOL    HW235643   2.363   1.844   0.221  0.2168  0.1614  0.7135
 8061SOL     OW35644   3.861   2.080   5.987 -0.1324  0.4599 -0.1581
 8061SOL    HW135645   3.799   2.152   5.989 -0.0203  0.5547  0.0059
 8061SOL    HW235646   3.922   2.114   6.053  0.6053  0.6305 -0.9254
 8062SOL     OW35647   3.900   2.920   4.686 -0.2271  0.0017  0.0753
 8062SOL    HW135648   3.977   2.867   4.666  0.6905  1.1981  0.4747
 8062SOL    HW235649   3.838   2.882   4.623 -1.4838  3.0277 -0.4832
 8063SOL     OW35650   2.413   1.127  13.571 -0.3427  0.2371  0.1625
 8063SOL    HW135651   2.378   1.216  13.562 -1.4327 -0.4339 -2.2017
 8063SOL    HW235652   2.342   1.098  13.515  1.0187  2.2839 -2.6284
 8064SOL     OW35653   1.096   3.900  12.419  0.2362 -0.0981 -0.2846
 8064SOL    HW135654   1.184   3.934  12.404  0.8974 -1.0200  1.6442
 8064SOL    HW235655   1.047   3.949  12.352 -2.0460  0.2047  1.5952
 8065SOL     OW35656   0.994   4.440   1.728 -0.2808 -0.3342 -0.0082
 8065SOL    HW135657   0.909   4.397   1.733  0.7470 -2.4710 -0.6743
 8065SOL    HW235658   1.042   4.392   1.796 -0.7608 -1.5101 -0.5062
 8066SOL     OW35659   1.398   0.270   7.697  0.5591  0.4975  0.0408
 8066SOL    HW135660   1.323   0.210   7.699 -0.3547  1.6438  0.3827
 8066SOL    HW235661   1.473   0.215   7.676 -0.9281 -1.3982 -0.3309
 8067SOL     OW35662   2.988   3.517  15.729 -0.2607  0.0363 -0.0393
 8067SOL    HW135663   2.910   3.561  15.764 -0.3657  1.0640 -1.5473
 8067SOL    HW235664   2.964   3.424  15.732  0.2727 -0.0034  2.4908
 8068SOL     OW35665   0.975   2.269   7.061  0.2969  0.1481  0.7604
 8068SOL    HW135666   0.967   2.176   7.040  1.1075  0.2555  0.0197
 8068SOL    HW235667   0.919   2.306   6.993  0.4790 -0.8433  0.0848
 8069SOL     OW35668   3.208   1.026  11.470 -0.2853  0.1828  0.0311
 8069SOL    HW135669   3.155   1.056  11.544  1.2508  1.6368  0.5321
 8069SOL    HW235670   3.236   0.943  11.510  0.7960  1.5436  2.1209
 8070SOL     OW35671   1.178   3.063   7.069  0.2958  0.6715 -0.1231
 8070SOL    HW135672   1.273   3.054   7.081  0.7300 -0.2324 -4.2076
 8070SOL    HW235673   1.169   3.116   6.990  0.3047 -0.6119 -0.9895
 8071SOL     OW35674   1.094   0.280  12.843 -0.0942  0.1071 -0.5832
 8071SOL    HW135675   1.042   0.243  12.771  0.9654 -1.4330 -0.5555
 8071SOL    HW235676   1.147   0.206  12.872 -0.9448  0.5129  2.0567
 8072SOL     OW35677   1.188   4.259   4.219 -0.2508  0.4179  0.5666
 8072SOL    HW135678   1.137   4.270   4.299 -0.9445  0.0079  0.1817
 8072SOL    HW235679   1.277   4.268   4.253  0.0220  0.5716 -0.1880
 8073SOL     OW35680   3.515   3.185  15.134 -0.1555 -0.2500 -0.2407
 8073SOL    HW135681   3.424   3.204  15.115 -0.4056 -0.2712  0.9217
 8073SOL    HW235682   3.556   3.228  15.059  1.4987  0.1180  0.8539
 8074SOL     OW35683   4.027   3.893   2.846 -0.6341 -0.4401  0.3896
 8074SOL    HW135684   3.966   3.851   2.786  0.7504  0.4805 -1.6785
 8074SOL    HW235685   4.078   3.937   2.778 -0.1838 -1.7610 -0.1244
 8075SOL     OW35686   0.403   0.673   7.153  0.3365 -0.6039 -0.0163
 8075SOL    HW135687   0.318   0.640   7.125  0.3434 -2.2097  1.8490
 8075SOL    HW235688   0.442   0.697   7.069  1.0228 -1.3361  0.0956
 8076SOL     OW35689   0.409   1.411   6.704 -0.4335 -0.8246 -0.2931
 8076SOL    HW135690   0.475   1.481   6.702 -2.0018  0.6023 -1.4329
 8076SOL    HW235691   0.421   1.366   6.787  2.7304  0.1600 -0.1875
 8077SOL     OW35692   3.720   1.449   2.442  0.3585 -0.1216  0.7195
 8077SOL    HW135693   3.682   1.487   2.521 -1.4548 -2.3201  0.8814
 8077SOL    HW235694   3.740   1.356   2.448  1.7949  0.0162 -1.6617
 8078SOL     OW35695   1.601   3.583   4.505 -0.2922  0.0037  0.5434
 8078SOL    HW135696   1.627   3.675   4.503 -2.1370  0.5376  0.7531
 8078SOL    HW235697   1.605   3.566   4.411 -0.3215  1.8517  0.2108
 8079SOL     OW35698   3.345   0.274  15.159  0.3896  0.5993 -0.2521
 8079SOL    HW135699   3.337   0.367  15.176  0.5362  0.9217 -1.9612
 8079SOL    HW235700   3.289   0.230  15.223  0.9265  0.1507 -0.0897
 8080SOL     OW35701   4.074   2.541   8.271 -0.1926 -0.2734 -0.2042
 8080SOL    HW135702   4.044   2.548   8.181 -2.7610  2.0798  0.8254
 8080SOL    HW235703   4.006   2.489   8.314  0.7629 -1.0665  0.3513
 8081SOL     OW35704   1.049   1.640   7.078  0.1207  0.0380 -0.4468
 8081SOL    HW135705   1.123   1.680   7.123 -0.1959  0.1560 -0.0270
 8081SOL    HW235706   0.978   1.666   7.137  2.5648  1.9815  1.6386
 8082SOL     OW35707   1.095   0.431   0.150 -0.6513 -0.1729 -0.4011
 8082SOL    HW135708   1.180   0.459   0.116 -1.1035 -0.5958 -1.9124
 8082SOL    HW235709   1.074   0.502   0.210  0.0596 -0.1858 -0.1368
 8083SOL     OW35710   0.481   3.760   7.743  0.6319  0.1714 -0.2746
 8083SOL    HW135711   0.528   3.679   7.764  2.0166  0.7339 -1.1530
 8083SOL    HW235712   0.511   3.773   7.653 -1.2045  1.7305 -0.6615
 8084SOL     OW35713   3.682   2.467   1.379  0.7857 -0.5794  0.1602
 8084SOL    HW135714   3.643   2.468   1.467  1.6881 -3.5556  0.6183
 8084SOL    HW235715   3.658   2.385   1.335  0.7917  0.0742 -1.0490
 8085SOL     OW35716   0.581   4.525   2.613 -0.1807  0.4591  0.3752
 8085SOL    HW135717   0.593   4.520   2.708 -0.6527 -1.7088  0.3376
 8085SOL    HW235718   0.504   4.468   2.601  0.1448  0.2599 -0.7551
 8086SOL     OW35719   4.222   1.561  11.871 -0.0560  0.1674 -0.2380
 8086SOL    HW135720   4.234   1.567  11.776 -0.3941 -1.7024 -0.3829
 8086SOL    HW235721   4.175   1.644  11.884 -1.8817 -1.0448  0.7836
 8087SOL     OW35722   4.456   0.336   5.822 -0.5514 -0.1859 -0.2881
 8087SOL    HW135723   4.409   0.381   5.752 -0.6163 -3.1431 -2.1472
 8087SOL    HW235724   4.426   0.383   5.899 -2.4882 -1.9522  0.0347
 8088SOL     OW35725   0.109   0.630   4.673 -0.4692 -0.5084  0.5448
 8088SOL    HW135726   0.131   0.699   4.735 -1.5713 -1.2274  1.7521
 8088SOL    HW235727   0.069   0.559   4.723 -0.1475  0.4757  2.1870
 8089SOL     OW35728   3.705   2.689  16.103 -0.1957 -0.3599  0.2376
 8089SOL    HW135729   3.670   2.695  16.015  0.6819 -0.2468 -0.1037
 8089SOL    HW235730   3.726   2.781  16.117 -0.5599 -0.4122  1.1172
 8090SOL     OW35731   2.859   2.103   6.076  0.1752  0.0506 -0.0454
 8090SOL    HW135732   2.795   2.166   6.110  1.4875  1.7653 -0.7384
 8090SOL    HW235733   2.836   2.021   6.120 -0.8156  0.4652  0.1992
 8091SOL     OW35734   1.118   3.853   6.932 -0.4444  0.2221 -0.6518
 8091SOL    HW135735   1.173   3.786   6.890 -1.2412 -0.1203 -1.1390
 8091SOL    HW235736   1.092   3.913   6.862 -1.4490  0.8763  0.2799
 8092SOL     OW35737   4.491   3.551   7.908  0.6735  0.8569 -0.3229
 8092SOL    HW135738   4.585   3.569   7.915  0.8211  1.2298 -3.5163
 8092SOL    HW235739   4.475   3.607   7.832 -2.1761 -1.5383 -1.4720
 8093SOL     OW35740   2.428   1.289  14.298  0.2536  0.1153 -0.7080
 8093SOL    HW135741   2.451   1.213  14.243 -3.2854 -1.1100 -0.4677
 8093SOL    HW235742   2.506   1.287  14.353  0.1923 -1.7489 -0.6673
 8094SOL     OW35743   0.665   1.397   3.016 -1.1622  0.3740  0.1605
 8094SOL    HW135744   0.637   1.381   3.106  0.9370  0.3651  0.8139
 8094SOL    HW235745   0.616   1.479   3.005 -0.0593  0.9843 -0.2163
 8095SOL     OW35746   2.925   3.441   7.818  0.0117 -0.5448 -0.2155
 8095SOL    HW135747   3.008   3.430   7.772 -1.3938 -0.3161 -2.8318
 8095SOL    HW235748   2.952   3.410   7.904 -0.7379  0.7075  0.4643
 8096SOL     OW35749   3.293   3.513  16.896  0.2146  0.1824  0.0676
 8096SOL    HW135750   3.325   3.432  16.857 -0.5848 -0.0561 -0.0776
 8096SOL    HW235751   3.328   3.511  16.985 -0.2527  4.8870  0.3551
 8097SOL     OW35752   2.091   2.773   3.137 -0.2676  0.3923 -0.6904
 8097SOL    HW135753   2.021   2.837   3.148 -0.4600  0.3331 -1.5350
 8097SOL    HW235754   2.144   2.825   3.077 -0.4753  2.6479  1.0903
 8098SOL     OW35755   1.849   4.599   4.535 -0.0785  0.1800  0.1700
 8098SOL    HW135756   1.761   4.636   4.536 -0.0646  0.2543 -1.6275
 8098SOL    HW235757   1.897   4.641   4.463  2.5791  1.1503  2.4728
 8099SOL     OW35758   3.829   0.476   4.534 -0.2699  0.4622 -0.3122
 8099SOL    HW135759   3.856   0.416   4.603 -0.9003  1.6005  0.9282
 8099SOL    HW235760   3.743   0.438   4.514  0.0249  0.2770 -1.2190
 8100SOL     OW35761   3.551   2.682  15.864 -0.4642  0.0401 -0.0595
 8100SOL    HW135762   3.500   2.762  15.853 -1.8722 -0.8209  0.1682
 8100SOL    HW235763   3.570   2.651  15.776 -3.5010  0.0086 -0.7291
 8101SOL     OW35764   3.106   2.235   5.133  0.2971 -0.3416 -0.2462
 8101SOL    HW135765   3.030   2.179   5.149  0.8975 -1.5473 -1.6475
 8101SOL    HW235766   3.171   2.186   5.183  1.0194  1.3276  0.4701
 8102SOL     OW35767   3.891   1.460   7.509  0.1626 -0.6875  0.2580
 8102SOL    HW135768   3.915   1.435   7.598 -1.2510 -1.7484  0.3529
 8102SOL    HW235769   3.803   1.422   7.502  0.3499 -1.4546  2.0579
 8103SOL     OW35770   1.049   3.895   0.372  0.0283  0.1351 -0.3498
 8103SOL    HW135771   1.000   3.866   0.295 -2.4166  1.5604  0.6677
 8103SOL    HW235772   1.011   3.827   0.429  0.1539  0.1617 -0.2342
 8104SOL     OW35773   1.893   2.955  13.329 -0.3785 -0.2950  0.6680
 8104SOL    HW135774   1.882   2.893  13.257  3.4506  2.3657 -2.2456
 8104SOL    HW235775   1.867   3.032  13.278  1.8286 -0.5985 -0.8862
 8105SOL     OW35776   0.341   1.160   3.641 -0.0566 -0.3466 -0.1718
 8105SOL    HW135777   0.319   1.203   3.558 -2.1369 -0.6529  0.2307
 8105SOL    HW235778   0.267   1.100   3.633  0.7623 -1.1238 -2.0472
 8106SOL     OW35779   4.631   2.397  15.953  0.2956 -0.2975  0.2357
 8106SOL    HW135780   4.635   2.338  16.028 -0.2541  0.5414  0.9262
 8106SOL    HW235781   0.005   2.403  15.929 -0.1355  1.6730 -0.9422
 8107SOL     OW35782   3.735   3.113   7.533 -0.1068  0.6051 -0.3770
 8107SOL    HW135783   3.692   3.084   7.452 -0.3557  0.1005 -0.0674
 8107SOL    HW235784   3.763   3.201   7.509  0.1923  0.3467 -0.9655
 8108SOL     OW35785   0.914   1.486   2.975 -0.0223 -0.7534  0.1290
 8108SOL    HW135786   0.821   1.465   2.969  0.0075 -0.7446 -0.4215
 8108SOL    HW235787   0.937   1.463   3.065  0.5674  1.3989  0.5242
 8109SOL     OW35788   0.065   2.598   5.649 -0.0946  0.7323 -0.7369
 8109SOL    HW135789   4.699   2.561   5.626  0.5880  0.5364 -2.8520
 8109SOL    HW235790   0.048   2.645   5.731  2.0640  1.5782 -0.7714
 8110SOL     OW35791   3.839   4.113   9.541 -0.3016  0.4598  0.3267
 8110SOL    HW135792   3.874   4.153   9.461  3.2459 -1.1423  1.0760
 8110SOL    HW235793   3.900   4.042   9.564 -0.5893 -0.5481 -2.0608
 8111SOL     OW35794   3.342   1.624  16.795  0.0025  0.5493  0.2638
 8111SOL    HW135795   3.293   1.607  16.714  1.7847  1.0222 -0.9176
 8111SOL    HW235796   3.348   1.534  16.827 -0.7981  0.4421  0.1029
 8112SOL     OW35797   1.473   1.740   1.111  0.0635 -0.6951  0.5359
 8112SOL    HW135798   1.526   1.779   1.041 -0.0025 -1.8393 -0.1510
 8112SOL    HW235799   1.535   1.701   1.172 -0.1850  2.1494  2.6252
 8113SOL     OW35800   0.719   3.568  13.512 -0.0714 -0.5049  0.1704
 8113SOL    HW135801   0.696   3.477  13.530 -1.1283 -0.4290 -0.8172
 8113SOL    HW235802   0.727   3.558  13.417  1.7586 -0.0705  0.2768
 8114SOL     OW35803   1.274   2.341   7.038  0.2179 -0.0187 -0.1508
 8114SOL    HW135804   1.302   2.274   6.976 -1.2257  0.6767 -1.5468
 8114SOL    HW235805   1.180   2.328   7.043  0.0463  1.4261  0.3772
 8115SOL     OW35806   0.733   1.206   4.086 -0.2653  0.8445  0.0890
 8115SOL    HW135807   0.681   1.210   4.006 -0.3943  1.6171  0.2120
 8115SOL    HW235808   0.738   1.296   4.120  0.6334  0.2167  1.6177
 8116SOL     OW35809   3.406   2.084   3.415 -0.0349  0.7884 -0.0909
 8116SOL    HW135810   3.409   2.062   3.322 -0.6214  0.3522 -0.0034
 8116SOL    HW235811   3.501   2.076   3.422 -0.0513  1.1898  0.6804
 8117SOL     OW35812   1.944   2.178   1.267 -0.1509 -0.0698 -0.0738
 8117SOL    HW135813   2.006   2.248   1.288 -2.2348  1.6787  0.2885
 8117SOL    HW235814   1.886   2.216   1.201 -1.3814 -2.9047 -0.6316
 8118SOL     OW35815   0.760   3.110   0.238 -0.0317 -0.6174 -0.0396
 8118SOL    HW135816   0.741   3.121   0.145  1.6898  2.0603 -0.0624
 8118SOL    HW235817   0.769   3.015   0.245 -0.1859 -0.6134  0.2207
 8119SOL     OW35818   2.112   3.300   3.891  0.4315 -0.5543  0.0872
 8119SOL    HW135819   2.071   3.341   3.968  3.2228  2.1974  0.0886
 8119SOL    HW235820   2.077   3.350   3.818 -1.1644 -0.3952  0.9416
 8120SOL     OW35821   0.009   0.018  12.985 -0.5018 -0.1925  0.0994
 8120SOL    HW135822   0.078   4.706  12.926  1.3669 -1.3999  2.8782
 8120SOL    HW235823   4.711   0.097  12.934 -0.8074 -2.4503 -3.3369
 8121SOL     OW35824   2.767   2.135   8.455 -0.0468 -0.3574 -0.5123
 8121SOL    HW135825   2.771   2.040   8.463 -1.9486 -0.5042 -1.2247
 8121SOL    HW235826   2.755   2.157   8.548  0.7363  0.9227 -0.7168
 8122SOL     OW35827   4.671   1.038   3.775 -0.6121 -0.3161  0.6226
 8122SOL    HW135828   4.640   1.089   3.850  1.4150 -0.3720  1.5027
 8122SOL    HW235829   4.589   1.007   3.735  0.6989 -1.8698 -0.8845
 8123SOL     OW35830   2.624   3.177  11.480  0.0484 -0.1242 -0.5793
 8123SOL    HW135831   2.691   3.187  11.412 -1.5482 -1.0404 -2.3019
 8123SOL    HW235832   2.584   3.091  11.468 -1.6280  0.6634 -0.6384
 8124SOL     OW35833   4.078   0.436   2.657 -0.5128 -0.6327 -0.1895
 8124SOL    HW135834   4.067   0.517   2.707  1.8453 -0.9782  0.9159
 8124SOL    HW235835   4.005   0.388   2.698 -0.9313 -0.0917 -0.3046
 8125SOL     OW35836   3.149   1.165   8.691  0.0368  0.2528 -0.3377
 8125SOL    HW135837   3.162   1.191   8.600 -1.7735 -1.3888 -1.0607
 8125SOL    HW235838   3.206   1.227   8.736  0.9889 -1.7654  1.2308
 8126SOL     OW35839   2.329   0.552   6.640 -0.4611  0.2990  0.1344
 8126SOL    HW135840   2.238   0.524   6.627 -0.9834  1.4751  1.2665
 8126SOL    HW235841   2.313   0.644   6.616 -0.1990 -0.0650 -1.4479
 8127SOL     OW35842   0.356   0.644  15.310  0.1700 -0.1723  0.2655
 8127SOL    HW135843   0.406   0.582  15.258 -0.8694  1.1743 -2.3514
 8127SOL    HW235844   0.267   0.642  15.275 -0.4039 -1.8589  1.8227
 8128SOL     OW35845   4.175   1.368  15.188 -0.4448  0.0371  0.2925
 8128SOL    HW135846   4.107   1.378  15.121 -0.2752  2.2832  0.4558
 8128SOL    HW235847   4.250   1.343  15.133 -1.4921  1.4824 -1.7974
 8129SOL     OW35848   2.835   4.359   2.232  1.0792 -0.1879 -0.2835
 8129SOL    HW135849   2.747   4.382   2.204  1.6971  1.2673 -1.0651
 8129SOL    HW235850   2.816   4.273   2.270 -0.8909  1.5439  2.5951
 8130SOL     OW35851   2.311   2.681   9.199  0.4723 -0.0245 -0.2569
 8130SOL    HW135852   2.397   2.649   9.228  0.6918 -1.4397 -2.4459
 8130SOL    HW235853   2.343   2.750   9.141  0.0581 -0.0370 -0.4969
 8131SOL     OW35854   4.315   4.427   3.102 -0.1673  0.0699 -0.1170
 8131SOL    HW135855   4.371   4.493   3.063 -0.4868 -0.9864 -2.3671
 8131SOL    HW235856   4.273   4.411   3.018 -0.9631 -1.2147  0.5096
 8132SOL     OW35857   4.352   2.891  14.976  0.1564  0.5360 -0.0438
 8132SOL    HW135858   4.413   2.919  15.043  1.3504  1.2241 -1.4059
 8132SOL    HW235859   4.368   2.956  14.907  0.2008 -0.0495 -0.5783
 8133SOL     OW35860   1.978   0.410   3.136  0.0401 -0.1698  0.5859
 8133SOL    HW135861   2.015   0.485   3.089 -0.9103  0.8257  1.4352
 8133SOL    HW235862   1.920   0.365   3.074  1.3676  3.1060 -2.9945
 8134SOL     OW35863   0.248   2.090   6.113 -0.3416 -0.0338 -0.0909
 8134SOL    HW135864   0.286   2.049   6.036 -0.1067 -1.4854  0.8067
 8134SOL    HW235865   0.248   2.014   6.171  0.2369 -0.6383 -0.9006
 8135SOL     OW35866   2.437   0.612   3.898  0.6457 -0.4771  0.2190
 8135SOL    HW135867   2.387   0.533   3.880 -1.7847  1.1715 -0.2885
 8135SOL    HW235868   2.482   0.630   3.815 -0.0145  1.4162  0.2746
 8136SOL     OW35869   2.772   0.001   4.812 -0.3342 -0.4031  0.1952
 8136SOL    HW135870   2.690   4.679   4.783  0.6528 -1.6363 -0.8518
 8136SOL    HW235871   2.811   4.713   4.725  2.0639 -1.0739  1.3399
 8137SOL     OW35872   1.026   3.085   6.096 -0.4629  0.0384 -0.5460
 8137SOL    HW135873   0.957   3.116   6.154 -0.7263  0.5485 -1.1290
 8137SOL    HW235874   1.040   2.998   6.133 -1.7801 -0.1999 -0.6069
 8138SOL     OW35875   0.494   2.165   4.333 -0.7687 -0.1761  0.5941
 8138SOL    HW135876   0.539   2.143   4.251  0.5182  2.0256  0.7269
 8138SOL    HW235877   0.445   2.243   4.310 -2.1188 -1.6701 -1.6038
 8139SOL     OW35878   1.318   4.261   0.843 -0.2747 -0.2166  0.4686
 8139SOL    HW135879   1.333   4.205   0.767 -4.1463 -1.3900  0.5472
 8139SOL    HW235880   1.304   4.189   0.905  0.5443 -1.3600 -0.6640
 8140SOL     OW35881   0.715   4.011   4.897 -0.3385 -0.2624 -0.0620
 8140SOL    HW135882   0.790   3.955   4.915  0.0605  0.3742  0.2772
 8140SOL    HW235883   0.681   4.031   4.984  1.5386  0.6944  0.4630
 8141SOL     OW35884   4.223   0.894   4.454  0.7406 -0.3292 -0.1422
 8141SOL    HW135885   4.259   0.965   4.400  1.9572  0.3638  1.5838
 8141SOL    HW235886   4.145   0.941   4.482  0.5496 -1.4441  1.1279
 8142SOL     OW35887   4.348   0.631   3.822  0.5320  0.8233  0.2333
 8142SOL    HW135888   4.327   0.587   3.904  0.6882  0.1795 -0.0700
 8142SOL    HW235889   4.304   0.579   3.755  0.6651  3.0650 -1.5916
 8143SOL     OW35890   2.344   1.367  13.420  0.2772 -0.1539 -0.7478
 8143SOL    HW135891   2.393   1.317  13.355  0.7323 -0.8225  0.1094
 8143SOL    HW235892   2.261   1.381  13.375  0.5702 -0.5249 -1.3991
 8144SOL     OW35893   0.762   2.660   6.017  0.7327  0.0110  0.9745
 8144SOL    HW135894   0.707   2.639   5.941  1.8917  2.2550 -0.4955
 8144SOL    HW235895   0.806   2.741   5.993  0.4580  0.6354  2.5839
 8145SOL     OW35896   2.503   0.490   9.478  0.3541  0.2728 -0.5124
 8145SOL    HW135897   2.470   0.414   9.525  1.3045 -0.2215 -0.6594
 8145SOL    HW235898   2.589   0.457   9.451  0.4544 -0.7448  1.0228
 8146SOL     OW35899   3.603   0.801  12.231 -0.2875  0.5787  0.4329
 8146SOL    HW135900   3.551   0.832  12.157  0.9253 -0.7590 -0.9794
 8146SOL    HW235901   3.616   0.878  12.286 -0.5231  0.7089  0.3089
 8147SOL     OW35902   1.947   1.408   7.323  0.2045 -1.2294  0.0906
 8147SOL    HW135903   1.892   1.467   7.375  1.6574  0.2453 -0.0632
 8147SOL    HW235904   1.890   1.336   7.294 -0.0012 -0.7772 -0.6310
 8148SOL     OW35905   3.450   3.997   8.377  0.1537  0.0414 -0.4496
 8148SOL    HW135906   3.403   3.993   8.460  0.6983  0.8216 -0.1123
 8148SOL    HW235907   3.539   3.969   8.395 -0.3674 -0.4500  1.3400
 8149SOL     OW35908   3.611   4.552  11.019  0.0331  0.0512  0.1088
 8149SOL    HW135909   3.675   4.494  10.979  1.0250 -1.5263  3.9797
 8149SOL    HW235910   3.569   4.499  11.087 -1.1323  1.8291  0.7764
 8150SOL     OW35911   3.363   3.186  15.689 -0.2585  0.1467 -0.3183
 8150SOL    HW135912   3.290   3.182  15.626  0.1528  1.1446 -0.8694
 8150SOL    HW235913   3.382   3.280  15.682 -0.0532  0.2043  1.0339
 8151SOL     OW35914   0.465   2.325  11.076  0.7583 -0.4506  0.2753
 8151SOL    HW135915   0.481   2.270  11.153 -0.6599 -0.3226  0.6514
 8151SOL    HW235916   0.405   2.395  11.103 -0.3905 -1.5324  0.4849
 8152SOL     OW35917   0.753   1.115  13.762 -0.0222  0.3423  0.4847
 8152SOL    HW135918   0.754   1.024  13.792 -0.4992 -0.3321 -1.5776
 8152SOL    HW235919   0.679   1.113  13.701 -0.1882 -1.0868  0.7398
 8153SOL     OW35920   0.307   3.512   8.704 -0.1581 -0.2461 -0.1978
 8153SOL    HW135921   0.350   3.449   8.646 -0.6392  1.0301 -1.9419
 8153SOL    HW235922   0.213   3.498   8.691  0.0508 -0.8778 -0.9753
 8154SOL     OW35923   2.336   2.080   9.062 -0.4386  0.2787  0.3548
 8154SOL    HW135924   2.299   2.062   8.975  1.5726 -1.4389 -0.1400
 8154SOL    HW235925   2.260   2.115   9.108 -2.3693 -2.7862 -0.5060
 8155SOL     OW35926   3.708   2.522   5.410  0.1833 -0.5094 -0.3037
 8155SOL    HW135927   3.777   2.588   5.399 -1.1031  1.1174  1.4130
 8155SOL    HW235928   3.755   2.440   5.425  2.0298  0.7134  0.5722
 8156SOL     OW35929   2.167   4.186  15.933  0.1299 -0.6045 -0.5852
 8156SOL    HW135930   2.078   4.200  15.902 -0.8748  1.3724  3.1653
 8156SOL    HW235931   2.199   4.261  15.884 -0.7616 -0.3168 -0.7333
 8157SOL     OW35932   4.330   2.076   2.860  0.4437 -0.8364 -0.0042
 8157SOL    HW135933   4.340   1.984   2.836  1.1382 -1.1647  1.5787
 8157SOL    HW235934   4.418   2.107   2.880  0.4354 -0.6865 -0.2074
 8158SOL     OW35935   3.161   4.585   2.599 -0.2524  0.0573 -0.3287
 8158SOL    HW135936   3.244   4.545   2.625  0.6244  1.5036 -0.8834
 8158SOL    HW235937   3.173   4.611   2.507 -1.1031  0.7512 -0.2372
 8159SOL     OW35938   1.565   3.373   8.453  0.2979 -0.1227  0.5601
 8159SOL    HW135939   1.518   3.455   8.469  0.5131 -0.0557  0.8433
 8159SOL    HW235940   1.532   3.363   8.363  0.0460 -0.4946  0.6933
 8160SOL     OW35941   2.017   4.709  10.894  0.6227 -0.1039 -0.3099
 8160SOL    HW135942   2.056   4.623  10.876 -2.0114 -1.3205 -0.1275
 8160SOL    HW235943   1.987   0.020  10.809  0.4961 -0.9898 -0.5721
 8161SOL     OW35944   1.872   3.465  14.201  0.4315  0.2067  0.3090
 8161SOL    HW135945   1.927   3.454  14.123 -0.0967 -1.5485  0.1821
 8161SOL    HW235946   1.841   3.552  14.178  0.5036  0.8752  2.7624
 8162SOL     OW35947   1.850   1.512  15.197  0.0417  0.3070  0.3004
 8162SOL    HW135948   1.877   1.599  15.224 -1.3810  0.8475 -0.0508
 8162SOL    HW235949   1.864   1.466  15.280 -2.4591  0.4327  0.8001
 8163SOL     OW35950   3.902   1.042   4.781 -0.5215  0.2945 -0.0129
 8163SOL    HW135951   3.810   1.014   4.785 -1.0402  2.0425  0.3098
 8163SOL    HW235952   3.926   1.013   4.870  1.7026  2.8387  0.2082
 8164SOL     OW35953   1.744   4.067   2.839 -0.2665 -0.4670 -0.0281
 8164SOL    HW135954   1.804   4.018   2.782  0.6555  0.5437  0.0475
 8164SOL    HW235955   1.746   4.033   2.928  0.3701  0.9013  0.4785
 8165SOL     OW35956   4.486   4.406   9.253 -0.2071  0.3505 -0.0063
 8165SOL    HW135957   4.407   4.416   9.201  0.1962  0.1204 -0.6661
 8165SOL    HW235958   4.451   4.392   9.340 -0.4198 -1.0916 -0.3269
 8166SOL     OW35959   3.586   2.978  16.795  0.0201 -0.3242 -0.2449
 8166SOL    HW135960   3.660   3.017  16.748 -1.3177  0.6215 -1.5496
 8166SOL    HW235961   3.556   3.059  16.835 -0.0146  0.7676 -2.4527
 8167SOL     OW35962   3.616   1.219   6.787  0.5284 -0.0360 -0.1659
 8167SOL    HW135963   3.570   1.279   6.846 -0.5013 -1.0784  0.1153
 8167SOL    HW235964   3.557   1.143   6.794 -0.0690  0.5059  0.8041
 8168SOL     OW35965   1.482   2.215   4.336  0.2449  0.1357  0.3313
 8168SOL    HW135966   1.514   2.294   4.379 -2.0872  0.1673  1.9767
 8168SOL    HW235967   1.408   2.200   4.395  1.0576 -0.9429  1.0855
 8169SOL     OW35968   1.326   1.135   6.140  0.1445  0.1732 -0.5288
 8169SOL    HW135969   1.294   1.061   6.088  0.6188  0.0285 -0.6121
 8169SOL    HW235970   1.243   1.171   6.172  0.3747  2.0562 -2.0508
 8170SOL     OW35971   1.636   0.427   2.842  0.5604 -0.0415  0.2292
 8170SOL    HW135972   1.711   0.482   2.820  1.5237 -0.8369  1.5081
 8170SOL    HW235973   1.575   0.500   2.852 -0.7581 -0.8477 -2.1908
 8171SOL     OW35974   1.009   0.234   4.107 -0.5368 -0.1117 -0.1141
 8171SOL    HW135975   1.029   0.146   4.075  2.3511  1.5577 -2.9254
 8171SOL    HW235976   0.940   0.257   4.044  0.4673  0.2176 -1.1083
 8172SOL     OW35977   1.560   2.221   5.659  0.1287 -0.1241 -0.2421
 8172SOL    HW135978   1.582   2.190   5.571  0.2917  0.8402 -0.5477
 8172SOL    HW235979   1.643   2.251   5.696 -0.3723 -0.2775  0.9987
 8173SOL     OW35980   0.948   4.373  10.119 -0.3506  0.3714  0.5749
 8173SOL    HW135981   0.942   4.354  10.026  0.4099  1.0745  0.3870
 8173SOL    HW235982   0.915   4.290  10.154 -0.0165 -0.1501 -0.3749
 8174SOL     OW35983   1.276   2.145   4.483 -0.7156 -0.0250 -0.6831
 8174SOL    HW135984   1.221   2.144   4.561  0.1804  1.7485 -0.0290
 8174SOL    HW235985   1.215   2.098   4.427 -0.6436 -1.3681  0.3589
 8175SOL     OW35986   0.927   1.536   2.609  0.2422 -0.4107 -0.3103
 8175SOL    HW135987   0.986   1.467   2.578 -0.2122 -1.0126  0.1524
 8175SOL    HW235988   0.932   1.601   2.539  1.2128 -0.4742 -0.2995
 8176SOL     OW35989   0.429   3.832  13.370  0.2024  0.5205  0.2572
 8176SOL    HW135990   0.432   3.927  13.385 -2.2592  0.4396  1.3302
 8176SOL    HW235991   0.491   3.836  13.297  0.1232  1.1394  0.2233
 8177SOL     OW35992   3.738   3.159   3.431  0.5059 -0.2349 -0.4624
 8177SOL    HW135993   3.692   3.080   3.458  0.1580  0.5127  1.0742
 8177SOL    HW235994   3.669   3.222   3.451 -0.1631  0.4502 -4.9928
 8178SOL     OW35995   1.761   4.574  14.724  0.0584 -0.0625 -0.3167
 8178SOL    HW135996   1.726   4.574  14.813  0.0897 -0.0238 -0.3044
 8178SOL    HW235997   1.737   4.663  14.700 -0.2068 -0.5839 -1.9910
 8179SOL     OW35998   3.089   0.658  17.090 -0.4607  0.1615  0.2395
 8179SOL    HW135999   3.153   0.660  17.161  0.6296  0.1486 -0.7312
 8179SOL    HW236000   3.018   0.714  17.121 -0.7202  0.2671 -0.5451
 8180SOL     OW36001   0.318   0.673  10.072  0.4632 -0.9252  0.2561
 8180SOL    HW136002   0.294   0.611  10.002 -0.6078 -1.0075  0.6914
 8180SOL    HW236003   0.336   0.750  10.019 -4.2467  0.6218  0.9284
 8181SOL     OW36004   4.098   3.127   4.531  0.1507 -0.3543  0.2931
 8181SOL    HW136005   4.094   3.096   4.621  0.2291  1.2600  0.8568
 8181SOL    HW236006   4.012   3.168   4.520  1.3887  2.7296  2.0219
 8182SOL     OW36007   2.895   1.158   7.909 -0.2824  0.2432  0.6282
 8182SOL    HW136008   2.855   1.239   7.878 -1.0870 -0.2726  0.3255
 8182SOL    HW236009   2.826   1.095   7.889  1.6010 -1.2923 -1.0493
 8183SOL     OW36010   4.637   2.614   0.641 -0.2474 -0.7764  0.3105
 8183SOL    HW136011   4.688   2.621   0.560 -1.7870 -3.7893 -0.8967
 8183SOL    HW236012   4.649   2.520   0.657 -0.1949 -1.0638 -1.4469
 8184SOL     OW36013   2.974   4.572   6.825  0.9028 -0.3206  0.5805
 8184SOL    HW136014   2.903   4.512   6.850 -0.0634  0.8221  0.5604
 8184SOL    HW236015   3.017   4.599   6.907 -0.5307  0.2357  1.1508
 8185SOL     OW36016   1.039   3.217   7.338 -0.4239 -0.2388  0.1579
 8185SOL    HW136017   1.129   3.206   7.309  0.1446 -0.8009  2.1121
 8185SOL    HW236018   1.013   3.134   7.379 -1.2625 -0.2140 -0.3323
 8186SOL     OW36019   3.484   1.805   5.766 -1.0489 -0.2004 -0.7257
 8186SOL    HW136020   3.549   1.874   5.774  0.0432 -1.4990  1.5117
 8186SOL    HW236021   3.547   1.738   5.791  0.5214  0.6015 -2.6021
 8187SOL     OW36022   4.193   2.795   6.912  0.5021 -0.4034 -0.5972
 8187SOL    HW136023   4.222   2.706   6.895 -0.0081 -0.5998 -0.4376
 8187SOL    HW236024   4.277   2.840   6.913 -0.5123  1.4562  1.2053
 8188SOL     OW36025   3.223   2.891   7.153  0.2498  0.0701  0.1320
 8188SOL    HW136026   3.237   2.985   7.159  1.7040 -0.0204 -1.8715
 8188SOL    HW236027   3.130   2.883   7.131  0.1211 -0.6570  0.9308
 8189SOL     OW36028   3.244   2.631   6.676 -0.3895  0.0250 -0.0216
 8189SOL    HW136029   3.159   2.655   6.637 -0.5944 -0.8507 -0.1101
 8189SOL    HW236030   3.267   2.710   6.724 -3.5264  0.5097  0.7035
 8190SOL     OW36031   3.288   3.709   2.207 -1.1635 -1.1911  0.2678
 8190SOL    HW136032   3.267   3.799   2.183 -0.8292 -1.0789  0.3923
 8190SOL    HW236033   3.247   3.701   2.294 -2.2633  0.0068 -0.1496
 8191SOL     OW36034   3.083   0.495   0.189 -0.1861  0.4524 -0.2032
 8191SOL    HW136035   3.136   0.472   0.114  0.4826 -0.8756  0.6835
 8191SOL    HW236036   3.131   0.454   0.261 -0.8471  1.1221  0.6346
 8192SOL     OW36037   3.340   3.171  12.498 -0.0476  0.9115  0.8074
 8192SOL    HW136038   3.402   3.195  12.568  1.3990  4.1963 -1.5959
 8192SOL    HW236039   3.301   3.255  12.475  0.6397  0.6693 -1.1899
 8193SOL     OW36040   0.544   1.654   7.652  0.7618  0.7993  0.2291
 8193SOL    HW136041   0.512   1.744   7.660  0.4735  0.6915  0.2816
 8193SOL    HW236042   0.548   1.641   7.557  2.7528  1.2565  0.2652
 8194SOL     OW36043   2.660   0.848  12.168  0.5848 -0.5367 -0.0953
 8194SOL    HW136044   2.573   0.817  12.142  0.6304 -0.3621 -0.4659
 8194SOL    HW236045   2.672   0.848  12.262  0.1083 -0.1153 -0.0343
 8195SOL     OW36046   4.285   1.541  15.722 -0.2292 -0.1249 -0.6688
 8195SOL    HW136047   4.327   1.485  15.787  0.6468 -2.3452 -3.1594
 8195SOL    HW236048   4.196   1.557  15.755  0.2548 -0.3057  0.7194
 8196SOL     OW36049   0.420   3.598  13.212 -0.4361 -0.4986  0.1213
 8196SOL    HW136050   0.409   3.655  13.288  1.8228  0.6965 -0.4536
 8196SOL    HW236051   0.431   3.515  13.260  2.0319 -1.0920 -1.4411
 8197SOL     OW36052   2.790   1.399   4.201  0.6331 -0.1746  0.0706
 8197SOL    HW136053   2.800   1.494   4.209 -1.5123  0.3274 -2.8994
 8197SOL    HW236054   2.877   1.364   4.219  0.0305 -1.8082 -0.1634
 8198SOL     OW36055   2.340   3.578   3.567  0.0119  0.4954 -0.1442
 8198SOL    HW136056   2.375   3.663   3.541  0.0744  1.2881  2.4777
 8198SOL    HW236057   2.295   3.603   3.648  0.0502 -1.3636  0.4605
 8199SOL     OW36058   2.398   2.080   4.486  0.1545 -0.0981  0.3286
 8199SOL    HW136059   2.431   2.046   4.403  1.7824 -1.2242  1.4471
 8199SOL    HW236060   2.368   2.166   4.457 -1.3463 -0.1989  1.5860
 8200SOL     OW36061   0.435   0.761   6.896  0.0731 -0.5629  0.4312
 8200SOL    HW136062   0.508   0.820   6.874  2.1303 -2.3640  2.3756
 8200SOL    HW236063   0.449   0.692   6.832 -0.4197  1.8718 -2.3191
 8201SOL     OW36064   4.209   0.134   9.391  0.4049  0.9794 -0.0796
 8201SOL    HW136065   4.223   0.224   9.418  0.3767  0.8716  0.2956
 8201SOL    HW236066   4.149   0.107   9.462 -0.6401 -0.9495 -1.6842
 8202SOL     OW36067   2.343   3.285   5.911  0.1253 -0.3431 -0.1529
 8202SOL    HW136068   2.369   3.377   5.912 -3.0602  0.5629  1.9500
 8202SOL    HW236069   2.428   3.240   5.915  0.3202  0.2233  2.2067
 8203SOL     OW36070   3.052   4.692   5.128  0.3661  0.4721 -0.1088
 8203SOL    HW136071   3.109   4.693   5.204 -0.0312 -1.2014  0.2180
 8203SOL    HW236072   3.070   0.061   5.095 -0.2753  0.2166 -1.1643
 8204SOL     OW36073   2.582   2.989   3.593  1.2507  0.2628 -0.2641
 8204SOL    HW136074   2.511   3.044   3.626  0.0183 -0.4882 -1.6606
 8204SOL    HW236075   2.623   2.960   3.674  1.6875  1.1180 -0.1788
 8205SOL     OW36076   3.003   2.788   5.891  0.0802  0.3393 -0.1315
 8205SOL    HW136077   3.077   2.834   5.930  0.8538 -0.6258 -0.4744
 8205SOL    HW236078   3.053   2.727   5.838  0.0998  2.8545 -3.0222
 8206SOL     OW36079   1.952   0.929   7.982 -0.4449  0.9159  0.6748
 8206SOL    HW136080   1.949   0.996   8.051 -1.3886  1.3595  0.1975
 8206SOL    HW236081   2.047   0.920   7.977 -0.5662 -0.7433  1.4095
 8207SOL     OW36082   4.068   0.655   7.923 -0.0591  0.0025  0.1313
 8207SOL    HW136083   4.003   0.696   7.866 -0.1209 -0.2061  0.0508
 8207SOL    HW236084   4.043   0.564   7.903 -0.3310 -0.0047  0.5107
 8208SOL     OW36085   2.816   0.280   6.653 -0.0667  0.8068  0.0680
 8208SOL    HW136086   2.829   0.326   6.571 -5.1435  0.3449 -0.9808
 8208SOL    HW236087   2.730   0.319   6.666  0.3704  1.4194  1.1474
 8209SOL     OW36088   3.889   3.282   3.232 -0.6395  0.0923  0.2077
 8209SOL    HW136089   3.960   3.341   3.259 -1.3273  1.3708 -0.7740
 8209SOL    HW236090   3.861   3.242   3.315  1.8853 -0.6361  0.7021
 8210SOL     OW36091   1.484   1.715  12.899 -0.0214 -0.1801 -0.3676
 8210SOL    HW136092   1.414   1.737  12.836 -0.9073  0.4503  0.8442
 8210SOL    HW236093   1.535   1.795  12.894  0.1740 -0.2198  1.1362
 8211SOL     OW36094   4.144   2.437  14.313 -0.1290 -0.5251 -0.2422
 8211SOL    HW136095   4.154   2.466  14.404  0.4534 -0.7390 -0.2407
 8211SOL    HW236096   4.110   2.516  14.271  1.5654  0.1430 -0.3579
 8212SOL     OW36097   2.556   1.210   4.322 -0.2512 -0.3917  0.0038
 8212SOL    HW136098   2.595   1.297   4.316  0.8801 -0.9048 -0.2077
 8212SOL    HW236099   2.528   1.194   4.232  0.1649 -0.1073 -0.1748
 8213SOL     OW36100   0.640   1.732   6.536 -0.0433 -0.1299 -0.4189
 8213SOL    HW136101   0.614   1.822   6.513  0.0387 -0.4796 -1.8977
 8213SOL    HW236102   0.574   1.716   6.602  0.1341 -1.5540 -0.5906
 8214SOL     OW36103   0.034   4.168   7.844 -0.0054  0.2113 -0.0670
 8214SOL    HW136104   0.026   4.128   7.931  1.7537  0.8238  0.3961
 8214SOL    HW236105   0.092   4.243   7.859 -0.4887  0.1064  2.3613
 8215SOL     OW36106   3.649   0.326   3.995  0.4352 -0.1601 -0.2070
 8215SOL    HW136107   3.668   0.340   3.902 -0.8073  2.8310 -0.0341
 8215SOL    HW236108   3.580   0.262   3.981  2.5906 -2.4286 -0.3718
 8216SOL     OW36109   2.722   2.383  17.129  0.0035 -0.8580  0.8233
 8216SOL    HW136110   2.713   2.456  17.068 -1.4249 -2.0174 -0.3432
 8216SOL    HW236111   2.804   2.410  17.171 -0.1749 -1.3892  1.5284
 8217SOL     OW36112   1.465   1.609  13.429 -0.1109 -0.1502 -0.8875
 8217SOL    HW136113   1.390   1.661  13.400 -1.7715 -0.4731  2.8003
 8217SOL    HW236114   1.512   1.677  13.478 -1.5607  1.3089 -1.4970
 8218SOL     OW36115   4.372   4.196   3.828 -0.5402  0.9580  0.2770
 8218SOL    HW136116   4.426   4.119   3.812  1.4959  2.3448  0.4219
 8218SOL    HW236117   4.433   4.270   3.827 -0.6792  1.0963  1.9137
 8219SOL     OW36118   2.418   3.137  16.082  0.2457  0.0827 -0.5115
 8219SOL    HW136119   2.360   3.198  16.037  1.2169  0.8727 -0.7020
 8219SOL    HW236120   2.485   3.195  16.118  1.3222 -1.8952  0.6661
 8220SOL     OW36121   0.728   3.318   7.945  0.5488  0.3740 -0.0556
 8220SOL    HW136122   0.789   3.260   7.900  0.2028  0.2470 -0.3639
 8220SOL    HW236123   0.744   3.398   7.895  2.1636 -0.9741 -1.7172
 8221SOL     OW36124   1.291   1.505   3.688  0.2729 -0.2998  0.1594
 8221SOL    HW136125   1.262   1.470   3.772  0.5781 -1.3763 -0.1858
 8221SOL    HW236126   1.244   1.588   3.683  0.6281 -0.0575  0.7651
 8222SOL     OW36127   2.866   4.205  10.898  0.1175  0.3102  0.3251
 8222SOL    HW136128   2.776   4.215  10.868  1.3388 -1.0907 -3.6911
 8222SOL    HW236129   2.892   4.119  10.866 -0.4777  0.0806  0.4524
 8223SOL     OW36130   1.169   3.700   8.812  0.6196 -0.7042 -0.6497
 8223SOL    HW136131   1.115   3.747   8.875  2.7422  1.3619 -0.3973
 8223SOL    HW236132   1.188   3.615   8.852  1.7798 -0.0722  0.1400
 8224SOL     OW36133   3.192   4.629   2.330 -0.0220  0.1086 -0.0292
 8224SOL    HW136134   3.141   4.627   2.248 -0.9358 -2.6155  0.6072
 8224SOL    HW236135   3.281   4.610   2.302  0.4769  2.0116  0.3136
 8225SOL     OW36136   3.005   0.476   5.661  0.3058 -0.4897 -0.2918
 8225SOL    HW136137   3.088   0.518   5.638  1.0573  0.2336  3.6864
 8225SOL    HW236138   2.994   0.413   5.591 -0.3560  1.8537 -2.2872
 8226SOL     OW36139   0.702   2.038   6.879 -1.0017 -0.3852 -0.5464
 8226SOL    HW136140   0.710   1.956   6.928  2.4222  0.3765  0.1683
 8226SOL    HW236141   0.769   2.013   6.816 -1.6395 -3.5738  0.0095
 8227SOL     OW36142   0.568   0.368   3.972 -0.0396 -0.0790  0.1442
 8227SOL    HW136143   0.480   0.342   3.944 -0.0684 -0.5997  0.7139
 8227SOL    HW236144   0.538   0.411   4.052  2.4739 -1.9859  2.1132
 8228SOL     OW36145   3.767   2.710   1.312  0.6055 -0.2755  0.2737
 8228SOL    HW136146   3.705   2.740   1.245  0.0960 -2.5283 -0.2468
 8228SOL    HW236147   3.735   2.622   1.331  0.8568  0.0119  1.9751
 8229SOL     OW36148   3.374   0.047   6.469 -0.0296 -0.4450 -0.1855
 8229SOL    HW136149   3.312   0.118   6.489 -1.8888 -1.7060 -1.4226
 8229SOL    HW236150   3.451   0.068   6.522  0.1181  1.7223 -1.2606
 8230SOL     OW36151   1.786   4.591   6.321 -0.0684 -0.0903 -0.1698
 8230SOL    HW136152   1.861   4.532   6.329 -0.6233 -0.9554 -1.3009
 8230SOL    HW236153   1.798   4.619   6.231 -1.0370 -1.3547 -0.6965
 8231SOL     OW36154   3.976   3.365  17.484  0.0381  0.7121 -0.1314
 8231SOL    HW136155   4.022   3.449  17.476 -1.4272  1.5877  0.5738
 8231SOL    HW236156   3.996   3.351  17.576 -0.3175 -0.1246 -0.1865
 8232SOL     OW36157   4.485   4.693   5.090  0.2049 -0.1598 -0.6118
 8232SOL    HW136158   4.418   4.625   5.087 -1.7011  1.7197 -0.6413
 8232SOL    HW236159   4.558   4.661   5.038 -0.5080 -0.2080 -1.5718
 8233SOL     OW36160   2.761   1.889  14.170 -0.3944 -0.5899  0.1219
 8233SOL    HW136161   2.703   1.950  14.216 -0.3522 -0.0992 -0.4851
 8233SOL    HW236162   2.709   1.839  14.108 -0.1339 -0.9873  0.2200
 8234SOL     OW36163   1.103   1.063  12.717 -0.1187 -0.0956 -0.1010
 8234SOL    HW136164   1.112   1.006  12.640 -0.2241  1.6543 -1.4069
 8234SOL    HW236165   1.174   1.117  12.684  0.6881 -0.3147  1.2974
 8235SOL     OW36166   3.787   3.351   4.980 -0.7823 -0.5705 -0.6039
 8235SOL    HW136167   3.795   3.327   4.888 -1.7675 -1.0820 -0.5527
 8235SOL    HW236168   3.777   3.446   4.975 -0.8519 -0.4714  1.2592
 8236SOL     OW36169   3.523   0.599   6.032 -0.3241 -0.0837 -0.0939
 8236SOL    HW136170   3.438   0.637   6.012 -1.6811 -2.1662  1.8363
 8236SOL    HW236171   3.588   0.667   6.014  0.4388 -0.7485  0.1193
 8237SOL     OW36172   4.451   1.991   2.454  0.3008 -0.0249 -0.3051
 8237SOL    HW136173   4.492   1.924   2.508  1.1761  2.2192  1.7998
 8237SOL    HW236174   4.437   1.936   2.377  2.2288 -0.5665 -0.2783
 8238SOL     OW36175   3.326   2.623   1.141  0.3174 -0.0094 -0.7236
 8238SOL    HW136176   3.298   2.576   1.063  1.3948 -3.0235  0.6543
 8238SOL    HW236177   3.280   2.574   1.210 -1.0215  1.1932 -0.7701
 8239SOL     OW36178   1.370   1.356   4.098 -0.0342  0.2533 -0.0563
 8239SOL    HW136179   1.414   1.272   4.111 -0.0410  0.4154  0.9866
 8239SOL    HW236180   1.433   1.413   4.054 -1.1178  1.6376  0.1800
 8240SOL     OW36181   0.158   1.608   5.400 -0.0236  0.1374 -0.4656
 8240SOL    HW136182   0.249   1.581   5.384 -0.5145 -0.9790 -1.3263
 8240SOL    HW236183   0.113   1.594   5.317  0.5149  0.9374 -0.8906
 8241SOL     OW36184   1.122   1.491  13.586 -0.2858  0.1907  0.5942
 8241SOL    HW136185   1.096   1.407  13.622 -0.8970  0.7537  1.4626
 8241SOL    HW236186   1.042   1.519  13.542 -0.0168  1.0289  0.6352
 8242SOL     OW36187   2.224   2.192   7.459  0.2090 -0.3968  0.0745
 8242SOL    HW136188   2.161   2.137   7.413  0.5048  0.1535 -0.9982
 8242SOL    HW236189   2.283   2.123   7.489  1.1946  1.8046  3.1884
 8243SOL     OW36190   0.287   0.466   9.858 -0.3495  0.1060  0.0020
 8243SOL    HW136191   0.378   0.456   9.827 -0.2275  0.0092  0.4008
 8243SOL    HW236192   0.256   0.377   9.846  1.7857 -0.2546 -2.8631
 8244SOL     OW36193   1.932   2.700   7.748 -0.0083  0.2106 -0.2091
 8244SOL    HW136194   2.011   2.701   7.693 -0.3540  1.1395 -0.6939
 8244SOL    HW236195   1.911   2.607   7.753 -1.4483  0.4700 -1.5854
 8245SOL     OW36196   0.890   0.363   6.428 -0.1599  0.3899  0.2022
 8245SOL    HW136197   0.967   0.405   6.392 -1.3401  1.5688 -0.9097
 8245SOL    HW236198   0.827   0.411   6.374  0.0037 -0.3363 -0.6325
 8246SOL     OW36199   1.920   0.824   8.814 -0.3437 -0.0008  0.9204
 8246SOL    HW136200   1.951   0.773   8.889 -0.6780  0.5745  1.4493
 8246SOL    HW236201   1.911   0.907   8.860  0.4396  0.2636  0.5914
 8247SOL     OW36202   0.318   4.532  13.121  0.7264  0.4044  0.1762
 8247SOL    HW136203   0.383   4.553  13.054  2.8050 -3.1474  1.0489
 8247SOL    HW236204   0.360   4.453  13.156 -0.1057 -0.2130 -0.2091
 8248SOL     OW36205   2.435   3.624   3.962  0.0428  0.7928 -0.1666
 8248SOL    HW136206   2.372   3.622   3.890 -0.3545  0.2335  0.2062
 8248SOL    HW236207   2.444   3.533   3.990 -1.0684  0.4726 -0.8554
 8249SOL     OW36208   1.876   0.885   0.721 -0.1017 -0.3170 -0.6041
 8249SOL    HW136209   1.925   0.896   0.640  0.8589 -1.8229 -0.2325
 8249SOL    HW236210   1.813   0.957   0.716 -0.0266 -0.1333  1.0508
 8250SOL     OW36211   3.811   2.685   4.310 -0.4054  0.3132 -0.2468
 8250SOL    HW136212   3.819   2.691   4.405 -1.4562  1.5512 -0.2486
 8250SOL    HW236213   3.881   2.736   4.269 -0.9958  1.0603 -0.3145
 8251SOL     OW36214   0.036   3.135   3.666  0.0975 -0.4760  0.4355
 8251SOL    HW136215   4.696   3.184   3.608  0.4192 -0.7891 -0.1654
 8251SOL    HW236216   0.122   3.160   3.632  0.5019 -0.8367  1.2082
 8252SOL     OW36217   1.427   4.696   0.749 -0.4579  0.7994 -0.4157
 8252SOL    HW136218   1.468   0.000   0.832 -1.0344 -1.6139  0.5262
 8252SOL    HW236219   1.353   0.036   0.761  0.4803  1.2092  3.2037
 8253SOL     OW36220   1.522   3.475   7.879  0.4444  0.3949 -0.2596
 8253SOL    HW136221   1.556   3.545   7.934  0.4234  1.4814 -1.6302
 8253SOL    HW236222   1.600   3.422   7.866 -0.4007 -0.1063 -3.4891
 8254SOL     OW36223   3.066   2.807   3.779 -0.2900 -0.2132 -0.1441
 8254SOL    HW136224   3.159   2.786   3.784 -0.7338 -2.2459 -0.5749
 8254SOL    HW236225   3.055   2.792   3.685  1.0993 -1.0154 -0.1647
 8255SOL     OW36226   2.202   1.644   3.478  0.2962  1.2996  0.0453
 8255SOL    HW136227   2.174   1.618   3.391 -0.8883 -2.0694  1.4219
 8255SOL    HW236228   2.297   1.642   3.463  0.0057  2.0590 -1.9142
 8256SOL     OW36229   1.610   2.283   3.653 -0.6646 -0.2004  0.1347
 8256SOL    HW136230   1.525   2.322   3.675  0.1655  0.9442  1.2946
 8256SOL    HW236231   1.583   2.207   3.601  0.0321  0.3360 -1.0029
 8257SOL     OW36232   2.938   0.497   3.967 -0.0550 -0.1115 -0.5689
 8257SOL    HW136233   2.886   0.566   4.009  4.3491  1.1575  2.8690
 8257SOL    HW236234   3.001   0.556   3.927 -1.8594  3.0152  1.1400
 8258SOL     OW36235   0.692   1.824  16.779  0.1086  0.3123 -0.3335
 8258SOL    HW136236   0.642   1.743  16.774 -1.9799  1.5867 -0.1718
 8258SOL    HW236237   0.695   1.846  16.872 -1.3972  0.7804 -0.4016
 8259SOL     OW36238   4.230   4.660  10.425  0.7570 -0.0933  0.4419
 8259SOL    HW136239   4.148   4.614  10.408  0.3737  1.1041 -0.8847
 8259SOL    HW236240   4.243   4.643  10.519  1.3329 -2.7071 -0.1198
 8260SOL     OW36241   2.423   0.531   7.324  0.0030 -0.0097  0.0236
 8260SOL    HW136242   2.359   0.497   7.261  2.9385 -2.9967 -1.3266
 8260SOL    HW236243   2.483   0.574   7.263 -1.4612  0.8053 -0.8648
 8261SOL     OW36244   1.063   1.956  14.544  0.4771 -0.1800 -0.1797
 8261SOL    HW136245   1.008   2.002  14.608  0.8786 -2.4880  1.8094
 8261SOL    HW236246   1.093   2.027  14.488  0.9067  0.1465  0.4637
 8262SOL     OW36247   0.615   4.468   8.042  0.1158 -0.1387  0.6656
 8262SOL    HW136248   0.577   4.418   7.970 -1.7791 -0.4226  1.8481
 8262SOL    HW236249   0.534   4.513   8.066 -1.4063 -2.8547  0.6079
 8263SOL     OW36250   0.434   0.142   4.776 -0.0907 -0.2304  0.1958
 8263SOL    HW136251   0.528   0.148   4.791 -0.1388 -1.8344  1.1396
 8263SOL    HW236252   0.404   0.051   4.770  2.1621 -1.0500  1.2360
 8264SOL     OW36253   1.565   2.870  12.662  0.4819 -0.0067  0.7158
 8264SOL    HW136254   1.607   2.814  12.597 -0.6219 -0.5300  0.4654
 8264SOL    HW236255   1.619   2.948  12.650  0.8160 -0.6374 -1.7124
 8265SOL     OW36256   1.138   1.569   2.823 -0.2344 -0.6812 -0.4684
 8265SOL    HW136257   1.112   1.498   2.881  0.9272 -0.2943  0.5151
 8265SOL    HW236258   1.058   1.572   2.770 -1.2839  1.6438  1.2184
 8266SOL     OW36259   0.433   3.125   4.143 -0.2707 -0.2067 -0.4243
 8266SOL    HW136260   0.378   3.202   4.159  0.8643  0.4016  0.5970
 8266SOL    HW236261   0.499   3.135   4.212  0.8575  0.9179 -1.6662
 8267SOL     OW36262   1.733   1.169  13.385 -0.6983 -0.0622  0.0036
 8267SOL    HW136263   1.644   1.202  13.397 -1.0433 -0.7593 -0.6196
 8267SOL    HW236264   1.758   1.224  13.311  1.6171 -0.0082  0.8115
 8268SOL     OW36265   3.585   0.624  13.830  0.4015  0.3399  0.4870
 8268SOL    HW136266   3.502   0.630  13.878 -0.6873 -2.3281 -1.0732
 8268SOL    HW236267   3.626   0.552  13.877  1.8582  0.4847 -0.5487
 8269SOL     OW36268   2.293   3.786  17.350  0.3185 -0.0652 -0.2932
 8269SOL    HW136269   2.354   3.860  17.350  0.0703  0.1443  1.2749
 8269SOL    HW236270   2.330   3.722  17.290  0.1397 -1.8500  1.5127
 8270SOL     OW36271   1.540   0.131   5.808 -0.0741  0.4119  0.4035
 8270SOL    HW136272   1.571   0.219   5.786  3.0332 -0.2867  1.9026
 8270SOL    HW236273   1.611   0.072   5.782 -0.7597 -0.2175 -0.0340
 8271SOL     OW36274   1.122   0.352  11.123  0.3132 -0.1644 -0.0664
 8271SOL    HW136275   1.108   0.437  11.165 -0.7319 -1.7093  2.6940
 8271SOL    HW236276   1.142   0.300  11.201  1.9227 -1.9096 -1.6481
 8272SOL     OW36277   0.795   2.428   6.875  0.1762 -0.4486 -0.4467
 8272SOL    HW136278   0.789   2.506   6.930  1.5408 -0.3116 -0.5050
 8272SOL    HW236279   0.704   2.399   6.884  0.2924 -1.0192 -1.1473
 8273SOL     OW36280   0.782   3.903  12.048 -0.2955  0.1179  0.7238
 8273SOL    HW136281   0.702   3.943  12.013 -1.0419 -1.1667  0.9582
 8273SOL    HW236282   0.818   3.868  11.966 -1.6065 -0.8822  0.5736
 8274SOL     OW36283   2.510   1.570   9.403 -0.2985 -0.0294  0.0143
 8274SOL    HW136284   2.557   1.548   9.484 -2.7600 -0.2552  1.3658
 8274SOL    HW236285   2.558   1.646   9.370  0.1199 -0.7850 -1.1001
 8275SOL     OW36286   2.881   2.667  14.110 -0.5297 -0.3595  0.1242
 8275SOL    HW136287   2.921   2.753  14.121 -0.2896 -0.3113 -1.0964
 8275SOL    HW236288   2.795   2.674  14.153  0.3057  1.3384  1.4879
 8276SOL     OW36289   2.430   4.084   4.969  0.7007  0.1618  0.2068
 8276SOL    HW136290   2.461   4.173   4.953 -0.3043  0.8411  1.9859
 8276SOL    HW236291   2.500   4.024   4.942 -0.9113 -2.0263  0.8923
 8277SOL     OW36292   0.603   3.111   4.409 -0.2838  0.0706 -0.0487
 8277SOL    HW136293   0.675   3.170   4.433 -1.8661  1.1690  1.9451
 8277SOL    HW236294   0.532   3.172   4.428  1.2895  2.0309 -0.4497
 8278SOL     OW36295   4.005   0.629  11.338  0.3333  0.1506  0.0656
 8278SOL    HW136296   4.012   0.533  11.335 -0.4940  0.0788  0.4060
 8278SOL    HW236297   4.082   0.663  11.384  0.5245  2.2611 -1.8289
 8279SOL     OW36298   3.737   2.975   9.842 -0.2058  0.2917  0.8988
 8279SOL    HW136299   3.821   2.989   9.884  0.0929 -1.6819  0.9698
 8279SOL    HW236300   3.698   3.062   9.851 -2.4667 -0.8588  2.2071
 8280SOL     OW36301   3.061   1.932   5.967 -0.4672 -0.0192  0.3302
 8280SOL    HW136302   3.021   2.015   5.992 -1.5131 -0.6930  0.9070
 8280SOL    HW236303   3.081   1.942   5.874 -0.5713  1.3989  0.4576
 8281SOL     OW36304   3.345   3.078   6.324 -0.1768 -0.3946  0.3937
 8281SOL    HW136305   3.363   3.107   6.413  1.1526 -1.4959  0.4905
 8281SOL    HW236306   3.316   2.988   6.340  3.9441 -1.8851 -0.5425
 8282SOL     OW36307   2.140   1.061  10.579  0.4370 -0.1419 -0.3863
 8282SOL    HW136308   2.178   1.067  10.491  1.6221 -0.8616  0.0837
 8282SOL    HW236309   2.046   1.054  10.566  0.3933 -0.2476  0.0121
 8283SOL     OW36310   2.655   0.992   0.386 -0.0074 -0.5323  0.2966
 8283SOL    HW136311   2.662   0.909   0.434  0.7165  0.0198  1.1459
 8283SOL    HW236312   2.594   1.036   0.445  0.1009  0.5550 -0.4148
 8284SOL     OW36313   2.476   4.322   6.264  0.2993 -0.2436 -0.4621
 8284SOL    HW136314   2.565   4.341   6.234  0.8943  1.4280  2.2985
 8284SOL    HW236315   2.420   4.337   6.188  0.6555 -2.3446 -1.1444
 8285SOL     OW36316   1.967   3.204  17.497 -0.2474 -0.3443 -0.0463
 8285SOL    HW136317   1.909   3.266  17.541 -0.2302 -1.9697  2.2607
 8285SOL    HW236318   1.967   3.135  17.563 -1.0045  1.4035  1.7887
 8286SOL     OW36319   0.501   1.312  14.521  0.1697  0.2475 -0.1623
 8286SOL    HW136320   0.455   1.363  14.588 -0.5746 -0.8135  0.1361
 8286SOL    HW236321   0.500   1.368  14.444  0.7871  0.4404 -0.0341
 8287SOL     OW36322   2.389   4.063   8.791  0.1385  0.7293 -0.6840
 8287SOL    HW136323   2.409   3.982   8.838 -0.0886  0.6269 -0.7652
 8287SOL    HW236324   2.439   4.043   8.712  2.9505 -0.3523  1.3506
 8288SOL     OW36325   0.504   1.231   6.896  0.8841  0.4119  0.3199
 8288SOL    HW136326   0.461   1.194   6.974 -1.8739  1.1132 -0.8537
 8288SOL    HW236327   0.589   1.255   6.933  0.7011  2.1033 -0.3643
 8289SOL     OW36328   1.671   2.054   1.278  0.0555  0.3553 -0.2449
 8289SOL    HW136329   1.747   2.049   1.336 -0.3536 -1.3113  0.1408
 8289SOL    HW236330   1.711   2.066   1.192 -1.3449  1.2541 -0.7685
 8290SOL     OW36331   1.623   1.838   7.722  0.2460  0.2226 -0.0298
 8290SOL    HW136332   1.716   1.853   7.703 -0.2156  1.8802 -0.9741
 8290SOL    HW236333   1.580   1.912   7.681  0.0744  1.6343  2.6947
 8291SOL     OW36334   2.347   1.517   5.090 -0.3366 -0.1638 -0.5193
 8291SOL    HW136335   2.438   1.502   5.113 -0.7813 -3.0241 -0.6976
 8291SOL    HW236336   2.305   1.522   5.176 -1.9547  0.8555 -1.3671
 8292SOL     OW36337   2.731   4.455  15.462 -0.2204  0.3053  0.4675
 8292SOL    HW136338   2.770   4.543  15.461  0.2420  0.0610 -3.5812
 8292SOL    HW236339   2.648   4.471  15.508 -1.3629  0.4010 -1.5958
 8293SOL     OW36340   2.109   1.253  11.128 -0.1281 -0.2268 -0.0012
 8293SOL    HW136341   2.188   1.199  11.122 -0.6710 -1.0713  0.4264
 8293SOL    HW236342   2.102   1.268  11.223  1.3647  0.7629 -0.0416
 8294SOL     OW36343   2.819   3.347  13.134 -0.3919 -0.0641  0.3266
 8294SOL    HW136344   2.893   3.358  13.194  1.4356 -2.1799 -1.5716
 8294SOL    HW236345   2.819   3.256  13.106  0.4079  0.8010 -2.4906
 8295SOL     OW36346   4.183   1.936   3.807  0.4604  0.0411  0.7953
 8295SOL    HW136347   4.248   1.942   3.737  1.1618  1.5945  1.5860
 8295SOL    HW236348   4.174   2.025   3.839 -2.0254 -0.4596  1.4428
 8296SOL     OW36349   3.278   2.662  10.739  0.1762 -0.1888 -0.2578
 8296SOL    HW136350   3.269   2.578  10.783 -0.4233 -0.3450 -0.6698
 8296SOL    HW236351   3.207   2.719  10.770 -0.7774 -1.4273 -0.1428
 8297SOL     OW36352   1.463   4.546   5.155  0.0726  0.3784  0.0102
 8297SOL    HW136353   1.502   4.553   5.067 -0.6331 -0.5839 -0.3827
 8297SOL    HW236354   1.459   4.452   5.172  0.5231  0.9649  3.2883
 8298SOL     OW36355   4.566   2.315   5.136 -0.6400 -0.1655 -0.3077
 8298SOL    HW136356   4.540   2.226   5.110  1.3470 -0.1869 -2.1925
 8298SOL    HW236357   4.649   2.285   5.174 -0.8343  0.0314  0.2692
 8299SOL     OW36358   1.789   2.975   4.900  0.4769 -0.3785  0.5048
 8299SOL    HW136359   1.846   2.953   4.973  0.7357  0.1558  0.4646
 8299SOL    HW236360   1.791   2.893   4.851 -0.5578  0.0904 -0.3484
 8300SOL     OW36361   4.289   1.015   5.885  0.1736 -0.0250 -0.8457
 8300SOL    HW136362   4.298   1.093   5.940  0.1600 -0.1079 -0.7277
 8300SOL    HW236363   4.280   0.949   5.953 -1.2471 -0.2071 -1.2178
 8301SOL     OW36364   0.351   0.133   8.544 -0.1859  0.1407 -0.4218
 8301SOL    HW136365   0.407   0.187   8.600 -1.0136  2.1998 -1.5925
 8301SOL    HW236366   0.412   0.116   8.472  0.8242  2.1139 -0.0113
 8302SOL     OW36367   3.875   2.000   2.432 -0.3654  0.0551  0.3838
 8302SOL    HW136368   3.929   1.941   2.486  1.9390  1.7855 -0.0217
 8302SOL    HW236369   3.931   2.072   2.403 -2.3987  1.5905  0.3113
 8303SOL     OW36370   0.044   4.412   5.455 -0.3266 -0.6228  0.5396
 8303SOL    HW136371   0.096   4.484   5.419 -0.9902 -0.1114  0.6037
 8303SOL    HW236372   0.012   4.370   5.375 -3.4089 -0.8383  1.8650
 8304SOL     OW36373   2.207   2.290   6.533  0.1658 -0.3102 -0.4404
 8304SOL    HW136374   2.136   2.259   6.591  0.3447 -1.0701 -0.6243
 8304SOL    HW236375   2.200   2.228   6.460 -2.4125  1.3685 -1.6470
 8305SOL     OW36376   4.170   3.194  13.883 -0.6535  0.7132 -0.2970
 8305SOL    HW136377   4.085   3.150  13.874 -0.8624  1.3854 -1.6902
 8305SOL    HW236378   4.205   3.190  13.794  1.6524  1.4247  0.6052
 8306SOL     OW36379   1.735   2.684   5.816 -0.0857 -0.0090  0.1706
 8306SOL    HW136380   1.790   2.762   5.814 -0.3098  0.1412 -0.1960
 8306SOL    HW236381   1.793   2.631   5.872 -1.4578 -1.9394 -0.2292
 8307SOL     OW36382   2.715   1.848   0.773 -0.0116  0.6185 -0.1128
 8307SOL    HW136383   2.738   1.908   0.702  0.0146 -0.8456 -1.3339
 8307SOL    HW236384   2.714   1.914   0.843  1.3883 -1.0960  1.5295
 8308SOL     OW36385   1.545   1.280   7.043  0.0005  0.2656  0.4478
 8308SOL    HW136386   1.494   1.266   7.123 -3.2110 -1.1424 -1.8435
 8308SOL    HW236387   1.472   1.301   6.984 -0.4405  3.6272  2.1964
 8309SOL     OW36388   2.225   2.677   4.427  0.3413  0.0598 -0.0835
 8309SOL    HW136389   2.227   2.652   4.519  4.0733 -0.6421 -0.3759
 8309SOL    HW236390   2.132   2.703   4.426  0.0216 -1.0772  0.0426
 8310SOL     OW36391   2.819   2.893   1.833 -0.3502  0.6996 -0.0114
 8310SOL    HW136392   2.848   2.984   1.844 -2.6284  1.6597 -1.7518
 8310SOL    HW236393   2.825   2.857   1.921  3.3802  0.9548 -0.1916
 8311SOL     OW36394   3.353   0.381   2.782  0.7045  0.2791  0.0120
 8311SOL    HW136395   3.441   0.417   2.786  0.5446  1.1496 -3.6544
 8311SOL    HW236396   3.343   0.362   2.688 -2.0537  1.4413  0.0659
 8312SOL     OW36397   0.178   2.713   9.062  0.0144  0.5301  0.0656
 8312SOL    HW136398   0.222   2.729   9.146  0.8232  3.0773 -0.8606
 8312SOL    HW236399   0.199   2.620   9.063  1.1015  0.7675 -1.7570
 8313SOL     OW36400   4.384   0.291  13.435 -0.5084  0.7578 -0.3138
 8313SOL    HW136401   4.378   0.196  13.442 -2.1210  0.8293 -0.6191
 8313SOL    HW236402   4.308   0.317  13.383  0.1856  1.4042 -1.0106
 8314SOL     OW36403   3.283   1.034   5.199 -0.1223  0.9485 -0.0794
 8314SOL    HW136404   3.351   0.992   5.148 -1.6821 -1.1760 -0.4159
 8314SOL    HW236405   3.205   1.026   5.144 -0.6265  0.3936  0.7060
 8315SOL     OW36406   1.831   3.303   0.790 -0.3478  0.8139 -0.2024
 8315SOL    HW136407   1.918   3.342   0.782  1.0790 -2.5821 -1.1872
 8315SOL    HW236408   1.787   3.318   0.706  2.3549  1.4830 -1.4957
 8316SOL     OW36409   2.390   0.788   3.569 -0.1988 -0.1300 -0.3633
 8316SOL    HW136410   2.426   0.708   3.530 -0.0839  0.4651 -1.4735
 8316SOL    HW236411   2.446   0.845   3.517  0.1642  0.6124  0.8255
 8317SOL     OW36412   3.913   0.063   2.667  0.0746 -0.0692 -0.7575
 8317SOL    HW136413   3.918   0.118   2.745 -1.4927 -0.3700 -0.4375
 8317SOL    HW236414   3.879   4.699   2.702 -2.3232  0.7450 -1.1305
 8318SOL     OW36415   1.911   1.091  15.199 -0.9135  0.0111 -0.2467
 8318SOL    HW136416   1.941   1.140  15.123  1.4547 -1.0898 -0.0257
 8318SOL    HW236417   1.839   1.037  15.167  0.6560 -2.5080  0.4964
 8319SOL     OW36418   2.103   2.805   4.943  0.2602  0.0652 -0.2442
 8319SOL    HW136419   2.034   2.824   5.007  0.9009 -1.3406  0.8683
 8319SOL    HW236420   2.128   2.714   4.963  2.0683  0.6036 -0.0771
 8320SOL     OW36421   4.042   1.581   8.528 -0.3502 -0.3345  0.5965
 8320SOL    HW136422   4.107   1.615   8.467 -2.4409 -1.1743 -2.0794
 8320SOL    HW236423   4.082   1.501   8.562 -0.0863 -0.0076  1.0599
 8321SOL     OW36424   2.838   4.335   1.660 -0.3208  0.2785 -0.2302
 8321SOL    HW136425   2.908   4.288   1.614  1.6811  2.0346  1.0462
 8321SOL    HW236426   2.771   4.267   1.651 -1.6662  1.8413 -2.1906
 8322SOL     OW36427   2.856   2.822   2.482 -0.4542  0.0332  0.1530
 8322SOL    HW136428   2.885   2.907   2.514 -0.7337  0.6442 -1.2181
 8322SOL    HW236429   2.921   2.803   2.416  0.5135  0.9703  0.8437
 8323SOL     OW36430   2.347   0.109  12.870 -0.4467 -0.7357  0.2040
 8323SOL    HW136431   2.410   0.050  12.912  0.3215  0.1280  0.2648
 8323SOL    HW236432   2.263   0.098  12.913  0.0260 -0.4389  1.1964
 8324SOL     OW36433   0.793   3.918   3.452 -0.1439  0.1026 -0.2884
 8324SOL    HW136434   0.828   3.987   3.509 -0.9157 -1.9704  2.6688
 8324SOL    HW236435   0.879   3.883   3.427 -1.9729 -3.4446 -1.5216
 8325SOL     OW36436   3.510   4.528  15.926  0.1989  0.1386  0.5814
 8325SOL    HW136437   3.535   4.524  16.018 -1.4633 -0.0831  1.0111
 8325SOL    HW236438   3.592   4.533  15.876  0.3191  0.5859  0.8238
 8326SOL     OW36439   2.131   1.357   4.533  0.1195 -0.3121  0.0361
 8326SOL    HW136440   2.186   1.282   4.512  2.2008  2.1235 -3.1292
 8326SOL    HW236441   2.186   1.428   4.500 -2.8130  0.8337 -2.3313
 8327SOL     OW36442   2.746   3.316   6.097 -0.0007 -0.7362  0.1077
 8327SOL    HW136443   2.758   3.406   6.065 -1.3864 -0.6805 -0.2445
 8327SOL    HW236444   2.805   3.316   6.173  0.5608  2.3364 -0.2989
 8328SOL     OW36445   2.651   2.967   5.505 -0.1325 -0.1168 -0.2023
 8328SOL    HW136446   2.690   2.885   5.474 -0.7084  0.1426 -1.6193
 8328SOL    HW236447   2.733   3.004   5.537 -0.3186  0.4954 -0.4363
 8329SOL     OW36448   3.612   0.456   3.087  0.7778  0.0114 -0.0300
 8329SOL    HW136449   3.632   0.497   3.003  0.3230 -0.4297 -0.3580
 8329SOL    HW236450   3.522   0.482   3.106  0.1847 -0.3742 -2.3362
 8330SOL     OW36451   1.795   1.805  13.111  0.5433  0.2413  0.7689
 8330SOL    HW136452   1.853   1.859  13.058  2.2380 -2.0919  0.2782
 8330SOL    HW236453   1.743   1.881  13.139  0.5612  0.2007  0.9116
 8331SOL     OW36454   4.486   1.573   7.352  0.4821  0.0835  0.2818
 8331SOL    HW136455   4.402   1.555   7.309  1.1134  1.0429 -1.3580
 8331SOL    HW236456   4.529   1.627   7.286  0.2118  0.0648  0.0888
 8332SOL     OW36457   1.335   3.944   2.703 -0.0376  0.5886  0.8705
 8332SOL    HW136458   1.323   3.908   2.615 -1.3027  0.1644  1.2091
 8332SOL    HW236459   1.246   3.976   2.718  0.5428  1.8279  1.6670
 8333SOL     OW36460   2.238   2.299   1.169 -0.2341 -0.1598  0.0363
 8333SOL    HW136461   2.317   2.288   1.116  1.2530  0.3367  2.1350
 8333SOL    HW236462   2.218   2.391   1.151  1.3010  0.2288  0.2598
 8334SOL     OW36463   2.554   0.977  15.106  0.0298 -0.0824 -0.2587
 8334SOL    HW136464   2.623   0.955  15.043 -0.8108 -0.4920 -1.0401
 8334SOL    HW236465   2.490   0.908  15.088 -3.0244  2.2163  1.7992
 8335SOL     OW36466   2.901   0.494   3.383  0.1107  0.0950  0.3101
 8335SOL    HW136467   2.973   0.471   3.324 -0.8421  3.3042 -2.0848
 8335SOL    HW236468   2.828   0.477   3.324  1.2261  1.0369 -1.3336
 8336SOL     OW36469   3.252   2.485   1.379 -0.0008  0.5563 -0.1305
 8336SOL    HW136470   3.301   2.403   1.387 -1.0675 -0.1549 -0.9653
 8336SOL    HW236471   3.243   2.516   1.469  3.1824 -3.4430  1.5886
 8337SOL     OW36472   2.034   0.773  15.730  0.3160  0.3300  0.5591
 8337SOL    HW136473   2.083   0.855  15.716 -0.3057  0.9545  2.0744
 8337SOL    HW236474   1.947   0.810  15.740  0.1775 -0.5957  2.7488
 8338SOL     OW36475   4.236   4.343  16.616 -0.2395  0.2729 -0.0245
 8338SOL    HW136476   4.272   4.367  16.531 -0.7692  2.2454  0.3024
 8338SOL    HW236477   4.142   4.350  16.599  0.3646 -1.0266 -3.7991
 8339SOL     OW36478   2.639   0.938   7.008  0.2523 -0.6231 -0.4427
 8339SOL    HW136479   2.708   0.876   6.983  0.0692 -0.9572 -0.1047
 8339SOL    HW236480   2.681   1.014   6.968 -0.7263 -0.9835 -2.1427
 8340SOL     OW36481   1.448   2.181  15.846  0.2256  0.2052  0.1177
 8340SOL    HW136482   1.503   2.128  15.903  0.1924 -0.6192 -0.5939
 8340SOL    HW236483   1.505   2.247  15.809 -0.7598  0.1592 -1.5191
 8341SOL     OW36484   1.092   0.842   5.135  0.1793 -0.3107  0.1100
 8341SOL    HW136485   1.086   0.813   5.226 -0.7606  2.9411  1.0950
 8341SOL    HW236486   1.125   0.766   5.087  0.4861  0.1266 -0.3817
 8342SOL     OW36487   4.139   1.002  12.847 -0.6197 -0.4047  0.2014
 8342SOL    HW136488   4.109   1.037  12.931  0.4300 -0.5755  0.6373
 8342SOL    HW236489   4.228   1.034  12.836 -0.3695 -1.1688 -0.0305
 8343SOL     OW36490   3.094   1.584   8.306 -0.3300  0.0593 -0.2066
 8343SOL    HW136491   3.068   1.674   8.324 -0.5321 -0.1821  0.6679
 8343SOL    HW236492   3.064   1.576   8.215 -0.3389  3.0621 -0.4729
 8344SOL     OW36493   0.904   2.214   0.998 -0.1463  0.0222 -0.2778
 8344SOL    HW136494   0.901   2.182   1.088  1.7545 -0.6063 -0.4180
 8344SOL    HW236495   0.821   2.260   0.992 -0.1998  0.0232  0.4720
 8345SOL     OW36496   4.148   0.959   6.214 -0.6308 -0.0983 -0.2601
 8345SOL    HW136497   4.090   0.934   6.141 -1.3312 -0.1305  0.3118
 8345SOL    HW236498   4.125   0.900   6.285  4.6215  0.2596  1.7414
 8346SOL     OW36499   1.647   2.761  14.368 -0.3703 -0.5285  0.0415
 8346SOL    HW136500   1.645   2.714  14.285 -0.0193  1.5085 -1.1170
 8346SOL    HW236501   1.741   2.779  14.365 -0.7698  0.9182 -3.4310
 8347SOL     OW36502   0.893   3.638   5.459 -0.0454  0.2130  0.1692
 8347SOL    HW136503   0.840   3.588   5.520 -0.8229  0.7997 -0.0315
 8347SOL    HW236504   0.861   3.725   5.482 -1.7728 -0.8004  1.5561
 8348SOL     OW36505   1.492   1.551   9.032 -0.3408  0.1374 -0.5762
 8348SOL    HW136506   1.397   1.563   9.023 -0.7636 -2.6237  0.3858
 8348SOL    HW236507   1.522   1.635   8.996  0.5581 -0.2962 -0.8339
 8349SOL     OW36508   4.129   2.841  15.374  0.7022  0.0790 -0.5469
 8349SOL    HW136509   4.161   2.832  15.464  0.0315 -2.5879 -0.5684
 8349SOL    HW236510   4.193   2.795  15.319  0.1657 -1.2523 -0.0565
 8350SOL     OW36511   2.635   4.494   7.514  0.9623  0.3976  0.0013
 8350SOL    HW136512   2.562   4.446   7.552  0.1825  0.6623 -1.1479
 8350SOL    HW236513   2.606   4.512   7.424 -0.1256 -1.7210 -0.0552
 8351SOL     OW36514   3.437   0.870  11.018  0.0596 -0.1776 -0.1724
 8351SOL    HW136515   3.399   0.860  11.105 -0.6136  2.9334 -0.1290
 8351SOL    HW236516   3.357   0.873  10.966 -0.1087 -2.1750 -0.0442
 8352SOL     OW36517   4.076   2.398   3.439 -0.4029 -0.0292  0.5105
 8352SOL    HW136518   4.153   2.384   3.385  0.2368  0.2203  1.3488
 8352SOL    HW236519   4.109   2.446   3.515  1.3257 -0.0723 -0.2247
 8353SOL     OW36520   3.919   2.580  15.151 -0.2913 -0.0468 -0.0994
 8353SOL    HW136521   3.951   2.549  15.236  1.1600  1.2860 -0.1452
 8353SOL    HW236522   3.907   2.674  15.165  1.2102  0.4764 -2.2015
 8354SOL     OW36523   3.191   2.194   1.601 -0.1957 -0.3832  0.4797
 8354SOL    HW136524   3.135   2.208   1.524  1.2012 -1.5605 -0.7551
 8354SOL    HW236525   3.231   2.108   1.588  0.6299  0.0663  0.0784
 8355SOL     OW36526   2.997   1.993   2.174  0.1318 -0.0749 -0.0730
 8355SOL    HW136527   3.058   1.920   2.184  0.1013  0.0814  1.1693
 8355SOL    HW236528   2.969   2.021   2.261 -1.2648 -2.2833  0.1929
 8356SOL     OW36529   4.488   4.273   7.825 -0.6008 -0.3337  0.3194
 8356SOL    HW136530   4.512   4.296   7.915 -1.2466  2.5192 -0.2522
 8356SOL    HW236531   4.572   4.233   7.802 -1.4137 -0.0106 -3.2096
 8357SOL     OW36532   0.243   2.392   4.209 -0.0463 -0.1824 -0.1975
 8357SOL    HW136533   0.233   2.488   4.206  1.4656  0.0523  1.9587
 8357SOL    HW236534   0.253   2.379   4.303  0.9751  0.0196 -0.2706
 8358SOL     OW36535   3.813   4.692  17.264  0.4390  0.2742  0.0639
 8358SOL    HW136536   3.794   4.695  17.358 -0.5491  0.7427 -0.1559
 8358SOL    HW236537   3.836   0.064  17.243 -1.2322  0.6907  0.0700
 8359SOL     OW36538   0.456   4.433  16.941 -0.1077  0.1387  0.0423
 8359SOL    HW136539   0.515   4.507  16.957  0.1965 -0.0179 -0.3718
 8359SOL    HW236540   0.486   4.400  16.857  0.4395  0.1698  0.2234
 8360SOL     OW36541   3.943   1.121   0.592 -0.6468 -0.2451  0.1400
 8360SOL    HW136542   4.015   1.183   0.602  0.5566 -1.7279  0.7118
 8360SOL    HW236543   3.947   1.070   0.673 -2.7976 -0.3854  0.1482
 8361SOL     OW36544   2.322   0.698   2.885  0.2680 -0.7694 -0.1014
 8361SOL    HW136545   2.374   0.777   2.897 -0.8100 -0.1032  0.1919
 8361SOL    HW236546   2.390   0.633   2.870  2.2849  1.6421 -1.3562
 8362SOL     OW36547   3.885   4.661   6.931  0.8374 -0.0502  0.0401
 8362SOL    HW136548   3.950   0.004   6.896  2.3567 -0.5743  1.9613
 8362SOL    HW236549   3.934   4.639   7.010  1.5168  0.4837 -0.2319
 8363SOL     OW36550   1.369   4.507   5.569  0.4801 -0.3928  0.3841
 8363SOL    HW136551   1.334   4.550   5.647 -1.2406  2.2144 -1.8048
 8363SOL    HW236552   1.408   4.586   5.530 -2.8356  0.7250 -0.7022
 8364SOL     OW36553   2.517   1.945  17.601 -0.2515 -0.2325 -0.3789
 8364SOL    HW136554   2.607   1.974  17.587 -1.0258  1.4040 -1.9046
 8364SOL    HW236555   2.487   1.879  17.537 -2.0554  0.4152 -0.2039
 8365SOL     OW36556   4.444   2.970   3.867 -0.2326 -0.3804  0.3100
 8365SOL    HW136557   4.371   2.978   3.929  0.2651 -0.4396  0.9027
 8365SOL    HW236558   4.421   3.033   3.798  0.3279 -0.2129  0.2726
 8366SOL     OW36559   0.637   0.319   1.336  0.1412 -0.1397 -0.6115
 8366SOL    HW136560   0.686   0.401   1.334  1.1031 -0.6608  1.1870
 8366SOL    HW236561   0.546   0.347   1.340  0.6852  1.3098  1.4607
 8367SOL     OW36562   1.854   4.384  14.205 -0.1498  0.6077 -0.3558
 8367SOL    HW136563   1.807   4.326  14.146 -2.1024  0.5020  1.3304
 8367SOL    HW236564   1.890   4.443  14.139  1.5366  1.1838  1.0845
 8368SOL     OW36565   4.443   2.952   6.476  0.4832  0.5762  0.0609
 8368SOL    HW136566   4.348   2.950   6.485  0.3257  0.0140 -1.7186
 8368SOL    HW236567   4.445   3.047   6.477  1.6278  0.5763 -1.7926
 8369SOL     OW36568   0.915   2.359   8.011 -0.1409  0.2331  0.3625
 8369SOL    HW136569   0.864   2.316   7.944  0.3076 -0.2002  0.2994
 8369SOL    HW236570   0.896   2.451   7.992 -0.7822 -0.1543 -0.8016
 8370SOL     OW36571   0.948   3.406   2.737  0.1986  0.1947 -0.2182
 8370SOL    HW136572   0.877   3.449   2.784 -1.8770  0.1720 -3.3530
 8370SOL    HW236573   0.999   3.481   2.705  3.6440 -2.0552  0.0304
 8371SOL     OW36574   0.919   0.866   3.278 -0.1609  0.2523 -0.2779
 8371SOL    HW136575   0.968   0.814   3.214  0.9925  2.1670 -0.9431
 8371SOL    HW236576   0.874   0.799   3.329 -0.3522 -0.2304 -1.0857
 8372SOL     OW36577   1.542   1.332   8.024 -0.7377  0.2609 -0.0183
 8372SOL    HW136578   1.471   1.391   7.998 -3.3847 -3.6295 -1.6533
 8372SOL    HW236579   1.538   1.275   7.946 -0.3003 -1.1915  1.0193
 8373SOL     OW36580   1.751   0.700   3.735  0.3913  0.1087 -0.3030
 8373SOL    HW136581   1.768   0.616   3.693 -0.8097 -0.5565  0.5538
 8373SOL    HW236582   1.683   0.680   3.800 -0.7411  1.3917 -1.0912
 8374SOL     OW36583   1.143   3.124  14.086 -0.4234 -0.1600  0.0341
 8374SOL    HW136584   1.118   3.113  13.994 -1.8893 -0.4530  0.4638
 8374SOL    HW236585   1.113   3.214  14.099 -0.4167 -0.3735  1.4501
 8375SOL     OW36586   0.891   4.348   4.668  0.0990 -0.0447 -0.2058
 8375SOL    HW136587   0.806   4.385   4.647 -0.0012  0.1699  0.5872
 8375SOL    HW236588   0.869   4.314   4.755  0.2899  0.3807  0.0099
 8376SOL     OW36589   0.082   2.916   1.468  0.1630  0.3969  0.3865
 8376SOL    HW136590   0.117   2.940   1.382  2.4662 -0.7617  0.9993
 8376SOL    HW236591   0.121   2.982   1.525  0.8107 -0.1682  0.6044
 8377SOL     OW36592   1.140   4.400   8.053 -0.1503  0.0399 -0.0614
 8377SOL    HW136593   1.122   4.482   8.100 -3.0882 -1.7031  1.8380
 8377SOL    HW236594   1.140   4.342   8.129 -0.5263 -0.9087 -0.7931
 8378SOL     OW36595   3.243   1.024  15.358  0.9442 -0.3463  0.3203
 8378SOL    HW136596   3.167   0.990  15.404 -0.1403  0.6756 -0.7226
 8378SOL    HW236597   3.225   1.114  15.330  2.0864 -0.3819 -0.5160
 8379SOL     OW36598   1.716   3.105   8.781  0.2146  0.0028 -0.2566
 8379SOL    HW136599   1.695   3.196   8.758 -1.2749 -0.1354  0.5956
 8379SOL    HW236600   1.654   3.063   8.722 -0.3301  1.9283 -1.0439
 8380SOL     OW36601   2.508   4.166   9.608 -0.5014 -0.0183 -0.2039
 8380SOL    HW136602   2.561   4.231   9.654  1.7394 -0.8869 -1.5780
 8380SOL    HW236603   2.516   4.192   9.517  0.3208  0.8697  0.1241
 8381SOL     OW36604   1.181   3.614   7.805  0.8628 -0.1735 -0.0617
 8381SOL    HW136605   1.127   3.692   7.820 -0.1559 -1.3541  2.4656
 8381SOL    HW236606   1.254   3.659   7.762 -0.7977 -0.1299 -2.9026
 8382SOL     OW36607   4.677   4.395   7.622  0.0374 -0.2040  0.2150
 8382SOL    HW136608   0.020   4.345   7.568  1.2185  0.6684  0.7523
 8382SOL    HW236609   0.019   4.401   7.696  0.6918  1.4379 -0.4463
 8383SOL     OW36610   2.175   0.896   6.315  0.0188  0.0596  0.0829
 8383SOL    HW136611   2.247   0.931   6.368  2.0213 -0.8159 -2.0219
 8383SOL    HW236612   2.106   0.916   6.378  2.0492  2.2757  1.5887
 8384SOL     OW36613   3.314   3.440  14.264  0.0691 -0.5489 -0.3462
 8384SOL    HW136614   3.259   3.451  14.341  0.4457 -1.2069  0.0224
 8384SOL    HW236615   3.284   3.357  14.226  0.1524 -0.8088  0.1543
 8385SOL     OW36616   1.198   4.552   2.106 -0.0324  0.2289 -0.2918
 8385SOL    HW136617   1.257   4.612   2.151  1.1174 -0.8717 -0.3271
 8385SOL    HW236618   1.120   4.603   2.085 -2.4979 -2.9828  1.1639
 8386SOL     OW36619   4.665   3.965   2.698  0.9961 -0.0983 -0.5204
 8386SOL    HW136620   4.659   3.874   2.727 -1.4022 -0.1291 -1.0784
 8386SOL    HW236621   0.024   3.949   2.644  0.4233 -0.5800 -1.2003
 8387SOL     OW36622   2.804   0.160  16.637  0.2301  0.1777  0.0978
 8387SOL    HW136623   2.879   0.102  16.649 -0.3885 -0.4433  0.9409
 8387SOL    HW236624   2.743   0.104  16.591 -0.2680 -1.2695  2.5090
 8388SOL     OW36625   0.582   0.151  13.236  0.5202  0.7601  0.1903
 8388SOL    HW136626   0.515   0.183  13.296  0.9650  0.6589  0.7446
 8388SOL    HW236627   0.611   0.237  13.205  2.4038  0.3726  0.8966
 8389SOL     OW36628   1.173   2.439  14.880 -0.1565  0.3340 -0.2171
 8389SOL    HW136629   1.098   2.496  14.861 -2.1957 -1.6788  1.8070
 8389SOL    HW236630   1.185   2.399  14.794 -2.4940 -0.9778  0.0426
 8390SOL     OW36631   3.415   1.073   7.454 -0.1783 -0.2719 -0.3484
 8390SOL    HW136632   3.443   1.108   7.539  0.3414 -0.4053 -0.4666
 8390SOL    HW236633   3.379   0.990   7.486 -1.3628 -0.5496 -2.4314
 8391SOL     OW36634   3.541   3.552   8.441  0.0142 -0.9730 -0.8448
 8391SOL    HW136635   3.514   3.613   8.509 -1.1007 -0.0523 -2.1093
 8391SOL    HW236636   3.630   3.583   8.423 -0.2833  0.5102  0.2138
 8392SOL     OW36637   1.623   0.235  12.721  0.0283 -0.1175  0.0254
 8392SOL    HW136638   1.627   0.312  12.665 -1.4574  0.0096  0.1036
 8392SOL    HW236639   1.663   0.173  12.660  0.7900  0.7955 -0.3854
 8393SOL     OW36640   3.370   1.583   0.364 -0.3310  0.3750  0.0503
 8393SOL    HW136641   3.277   1.567   0.345  0.7636 -2.4130 -3.0452
 8393SOL    HW236642   3.391   1.512   0.425 -0.4215 -0.0524 -0.4185
 8394SOL     OW36643   4.428   1.827   3.678 -0.4740 -0.2391 -0.4095
 8394SOL    HW136644   4.494   1.895   3.669  0.4105 -0.9400  0.6565
 8394SOL    HW236645   4.478   1.756   3.636 -0.3521 -1.7254  2.2348
 8395SOL     OW36646   1.353   3.338   2.138  0.0699 -0.5447  0.5987
 8395SOL    HW136647   1.302   3.395   2.197  0.0297  0.0308  0.0099
 8395SOL    HW236648   1.299   3.260   2.140  0.6168 -0.8933  2.3211
 8396SOL     OW36649   3.152   1.486   5.885 -0.2346  0.0486 -0.3571
 8396SOL    HW136650   3.159   1.549   5.957  3.2723 -0.1418 -0.5162
 8396SOL    HW236651   3.230   1.432   5.892 -0.2944  0.0048 -0.0399
 8397SOL     OW36652   2.852   0.283   4.619 -0.9112  0.2080  0.2543
 8397SOL    HW136653   2.777   0.232   4.589 -0.9921  1.7099 -2.1811
 8397SOL    HW236654   2.815   0.366   4.588  1.5873  1.1108 -0.3354
 8398SOL     OW36655   1.742   1.408   6.230 -0.0267  0.2260 -0.3064
 8398SOL    HW136656   1.784   1.440   6.150 -1.5576  2.0670 -0.3761
 8398SOL    HW236657   1.708   1.327   6.190  0.5459 -1.0023  1.7208
 8399SOL     OW36658   0.434   2.275   4.058 -0.2867 -0.5428  0.0762
 8399SOL    HW136659   0.442   2.347   3.995 -1.5831 -0.3739  0.1102
 8399SOL    HW236660   0.359   2.312   4.103  1.8560  4.1676 -0.2340
 8400SOL     OW36661   2.718   3.015   7.772 -0.4763 -0.1516 -0.2014
 8400SOL    HW136662   2.755   2.991   7.687  1.6116  2.5716 -0.0435
 8400SOL    HW236663   2.791   3.059   7.816  1.7051 -1.7449 -2.1803
 8401SOL     OW36664   4.450   2.757  12.896 -0.2350 -0.2460 -0.2820
 8401SOL    HW136665   4.435   2.678  12.948 -0.3491 -1.2205 -1.7905
 8401SOL    HW236666   4.460   2.715  12.810  0.3178 -0.9171  0.1107
 8402SOL     OW36667   4.462   0.110   0.801 -0.1700 -0.4084 -0.0897
 8402SOL    HW136668   4.392   0.070   0.852 -1.2494 -0.8401 -1.9163
 8402SOL    HW236669   4.541   0.056   0.809  0.4121  0.5816  0.9219
 8403SOL     OW36670   1.629   0.174   9.660  0.1302 -0.1827 -0.2678
 8403SOL    HW136671   1.605   0.265   9.644 -1.1060 -0.4373  0.1214
 8403SOL    HW236672   1.703   0.188   9.719  2.3480  2.7444 -3.7756
 8404SOL     OW36673   4.073   1.274  16.457  0.6996  0.1303 -0.3087
 8404SOL    HW136674   4.119   1.210  16.511 -1.9086  0.2971  2.1165
 8404SOL    HW236675   3.985   1.236  16.465  0.4271  0.9070  0.4052
 8405SOL     OW36676   2.466   0.617  12.318  0.5579  0.4393 -0.2132
 8405SOL    HW136677   2.446   0.698  12.364 -0.9805  0.5146 -1.0339
 8405SOL    HW236678   2.557   0.609  12.348  0.8217  2.0296 -0.5889
 8406SOL     OW36679   0.623   2.778   0.836 -0.1080 -0.8109 -0.1965
 8406SOL    HW136680   0.595   2.689   0.856  0.5819 -1.3014 -1.4247
 8406SOL    HW236681   0.662   2.767   0.749 -1.2631 -1.6655 -0.6142
 8407SOL     OW36682   3.789   0.373  14.187  0.3664 -0.2834  0.4001
 8407SOL    HW136683   3.819   0.444  14.130  0.3543 -2.5933 -2.4562
 8407SOL    HW236684   3.869   0.352  14.235 -0.3504 -1.9080  0.8939
 8408SOL     OW36685   0.128   3.284  14.988  0.2859  0.3878 -0.6337
 8408SOL    HW136686   0.177   3.332  15.055 -0.8095  0.6331 -0.0070
 8408SOL    HW236687   0.045   3.331  14.987  0.0926  0.1806  4.3804
 8409SOL     OW36688   2.909   0.191   3.405 -0.0840  0.1158 -0.0853
 8409SOL    HW136689   2.971   0.217   3.472 -0.9580  0.8246  0.4594
 8409SOL    HW236690   2.963   0.119   3.372  0.5120  1.5668 -2.2929
 8410SOL     OW36691   3.459   1.900  14.245 -0.2674 -0.4471  0.0038
 8410SOL    HW136692   3.441   1.898  14.339 -0.4128 -1.5181 -0.0497
 8410SOL    HW236693   3.526   1.832  14.240 -0.3023 -0.2781 -2.5826
 8411SOL     OW36694   0.037   3.719   8.035  0.3039 -0.1306 -0.0990
 8411SOL    HW136695   0.062   3.811   8.039  1.9646 -0.6132  0.4693
 8411SOL    HW236696   0.089   3.691   7.960  0.8368 -2.2491  1.0464
 8412SOL     OW36697   3.287   0.787  11.585  0.1438  0.1307  0.1188
 8412SOL    HW136698   3.336   0.793  11.667  0.4788 -0.9034 -0.0077
 8412SOL    HW236699   3.240   0.708  11.608 -1.1649  0.3969 -1.6836
 8413SOL     OW36700   2.661   2.813   2.748  0.6911  0.2764  0.6416
 8413SOL    HW136701   2.672   2.907   2.735 -1.9289  0.5308  0.2696
 8413SOL    HW236702   2.740   2.792   2.797  1.1485 -1.4599 -0.8295
 8414SOL     OW36703   3.515   3.190  13.125 -0.5187 -0.0055 -0.0314
 8414SOL    HW136704   3.479   3.117  13.074 -2.6306  0.8495  0.2180
 8414SOL    HW236705   3.553   3.231  13.047 -0.2703 -0.0824  0.0498
 8415SOL     OW36706   3.752   2.029   3.145 -0.0814 -0.6450  0.3967
 8415SOL    HW136707   3.752   2.045   3.239 -2.2846 -0.5206  0.3734
 8415SOL    HW236708   3.846   2.029   3.129 -0.3287 -0.0444 -1.0603
 8416SOL     OW36709   0.981   2.927   9.316  0.0485 -0.3097  0.6323
 8416SOL    HW136710   0.956   2.835   9.310 -0.6791 -0.1320  1.0175
 8416SOL    HW236711   1.013   2.929   9.406 -0.2886 -0.2047  0.7469
 8417SOL     OW36712   2.313   3.451  11.171 -0.3522 -0.6564 -0.1521
 8417SOL    HW136713   2.392   3.405  11.198  0.0826 -0.2474 -0.7360
 8417SOL    HW236714   2.272   3.390  11.110  0.6589 -0.5543 -0.9407
 8418SOL     OW36715   2.397   2.501   8.752  0.5746  0.2330 -0.2860
 8418SOL    HW136716   2.389   2.508   8.657  2.5238 -1.4476 -0.5558
 8418SOL    HW236717   2.383   2.591   8.780 -1.6300 -0.3632  0.5744
 8419SOL     OW36718   1.895   3.136  15.153  0.8596 -0.0497 -0.0981
 8419SOL    HW136719   1.981   3.137  15.195  0.1793  0.8568  1.2623
 8419SOL    HW236720   1.904   3.082  15.075 -1.2972  1.1293 -1.1796
 8420SOL     OW36721   1.847   0.920   3.573  0.3284  0.0726  0.3671
 8420SOL    HW136722   1.814   0.851   3.632  0.3031  0.8745  1.3052
 8420SOL    HW236723   1.766   0.964   3.547  1.1589  1.6073  0.4101
 8421SOL     OW36724   4.049   0.334   4.967  0.0106 -0.1252 -0.2533
 8421SOL    HW136725   4.117   0.382   4.918 -0.4287 -1.5899 -2.2980
 8421SOL    HW236726   4.092   0.254   4.998 -0.3228 -0.1071  0.2535
 8422SOL     OW36727   3.431   2.810   0.459  0.4658  0.4837  0.0188
 8422SOL    HW136728   3.376   2.754   0.514 -0.5341 -1.2446 -2.7072
 8422SOL    HW236729   3.366   2.840   0.396 -0.2419  1.4289  1.1958
 8423SOL     OW36730   3.120   1.365   6.247  0.4934  0.1599 -0.3116
 8423SOL    HW136731   3.029   1.393   6.238  0.2842 -0.6587 -0.7382
 8423SOL    HW236732   3.158   1.453   6.237 -2.0879  1.3890  0.7748
 8424SOL     OW36733   2.364   2.098  12.756  0.0128  0.6153 -0.3164
 8424SOL    HW136734   2.420   2.175  12.765 -0.4706  0.9143  0.2400
 8424SOL    HW236735   2.292   2.122  12.698  0.5658  1.2790 -0.7295
 8425SOL     OW36736   4.562   2.735   5.862 -0.4550 -0.0116  0.1080
 8425SOL    HW136737   4.597   2.753   5.949 -0.7168 -1.3980  0.4960
 8425SOL    HW236738   4.550   2.641   5.871 -0.2621 -0.0664 -0.1929
 8426SOL     OW36739   2.474   1.299   6.369 -0.3790  0.5950  0.1266
 8426SOL    HW136740   2.546   1.358   6.348 -1.1161  0.6456 -2.3143
 8426SOL    HW236741   2.496   1.227   6.309  1.6315  1.3185  0.0306
 8427SOL     OW36742   2.683   3.597  14.294 -0.0940  0.8018  0.6386
 8427SOL    HW136743   2.696   3.611  14.388  1.7363  2.5387  0.1283
 8427SOL    HW236744   2.769   3.565  14.270 -1.2460 -0.2280 -2.0847
 8428SOL     OW36745   3.003   2.285   5.754 -0.2271 -0.3793  0.4592
 8428SOL    HW136746   2.982   2.211   5.811 -0.5644 -0.8699 -0.3003
 8428SOL    HW236747   2.992   2.352   5.821 -1.7804 -1.1441  0.9805
 8429SOL     OW36748   3.692   0.552  16.904  0.0556 -0.1413 -0.2671
 8429SOL    HW136749   3.764   0.604  16.938  0.6794 -0.3961 -1.1918
 8429SOL    HW236750   3.710   0.565  16.811 -1.6616  0.1529 -0.5518
 8430SOL     OW36751   0.899   0.690   7.458 -0.1844 -0.5253  0.3395
 8430SOL    HW136752   0.967   0.662   7.520 -1.1742  0.2854  1.7843
 8430SOL    HW236753   0.896   0.785   7.470  1.1295  0.1331 -4.4873
 8431SOL     OW36754   4.128   2.257   1.997 -0.1049  1.1402  0.3825
 8431SOL    HW136755   4.096   2.309   1.924  0.6322 -0.9732 -1.4546
 8431SOL    HW236756   4.153   2.176   1.952  0.1123  1.3840  0.0645
 8432SOL     OW36757   0.251   1.166   6.702 -0.7306  0.0909  0.0098
 8432SOL    HW136758   0.225   1.103   6.770 -1.1335  0.7046  0.4274
 8432SOL    HW236759   0.234   1.248   6.748  0.5847 -0.0830  0.8053
 8433SOL     OW36760   3.152   1.322   3.938 -0.3901  0.0416 -0.3204
 8433SOL    HW136761   3.075   1.333   3.882 -0.8643 -0.3145  0.2611
 8433SOL    HW236762   3.188   1.238   3.911 -0.2239 -0.3944  1.2635
 8434SOL     OW36763   2.787   1.425   9.049 -0.7266 -0.2929 -0.2247
 8434SOL    HW136764   2.718   1.470   9.000 -0.3060 -1.5820 -2.0160
 8434SOL    HW236765   2.871   1.447   9.009  0.6117 -0.0457  2.7737
 8435SOL     OW36766   3.788   2.310  10.582 -0.4528 -0.0797  0.1964
 8435SOL    HW136767   3.790   2.405  10.570  1.8847  0.1282  2.0748
 8435SOL    HW236768   3.808   2.298  10.675 -3.0665 -1.9815  0.5072
 8436SOL     OW36769   4.122   1.461   6.986 -0.0779  0.1882  0.5809
 8436SOL    HW136770   4.048   1.506   6.946 -1.9408 -1.1396  2.4958
 8436SOL    HW236771   4.090   1.414   7.064  1.1676 -1.8900 -0.1641
 8437SOL     OW36772   3.169   0.878   7.904  0.4589  0.0225 -0.1596
 8437SOL    HW136773   3.126   0.804   7.861 -1.8624  0.8235  0.7706
 8437SOL    HW236774   3.169   0.836   7.990 -1.9045  0.9615  0.3076
 8438SOL     OW36775   2.541   0.119  15.960  0.0544 -0.0416  0.0481
 8438SOL    HW136776   2.461   0.080  15.995  0.2271 -0.4354 -0.0017
 8438SOL    HW236777   2.565   0.183  16.027  3.8412  0.3964 -1.7065
 8439SOL     OW36778   3.644   2.218   3.976  0.2226  0.1122  0.3390
 8439SOL    HW136779   3.613   2.309   3.973  1.2469  0.4191 -1.0803
 8439SOL    HW236780   3.724   2.218   3.924 -0.4260  0.0458 -0.6689
 8440SOL     OW36781   2.584   1.210   7.219 -0.3474 -0.8487 -0.0048
 8440SOL    HW136782   2.673   1.246   7.214 -0.4357 -0.8817 -1.5660
 8440SOL    HW236783   2.521   1.282   7.221 -2.2657 -2.5881  2.1479
 8441SOL     OW36784   1.415   0.255   5.527  0.3072  0.0355 -0.5159
 8441SOL    HW136785   1.464   0.173   5.540 -0.0231  0.1007  1.1626
 8441SOL    HW236786   1.469   0.321   5.570  1.1138 -2.0371  1.7110
 8442SOL     OW36787   0.407   3.281   7.321  0.0230  0.3923 -0.1948
 8442SOL    HW136788   0.473   3.340   7.284  0.9653 -0.2933  0.3822
 8442SOL    HW236789   0.368   3.315   7.402  0.3339 -0.1284  0.1754
 8443SOL     OW36790   4.089   2.207   0.169 -0.4306  0.4741  0.0051
 8443SOL    HW136791   4.141   2.245   0.241 -0.1036 -0.9314  0.5037
 8443SOL    HW236792   3.996   2.228   0.179 -0.7287 -1.9935  2.3130
 8444SOL     OW36793   2.171   1.287   3.131 -0.1769 -0.0307  0.6490
 8444SOL    HW136794   2.092   1.318   3.089 -0.1229 -2.2271 -1.0457
 8444SOL    HW236795   2.239   1.352   3.112 -0.0815  0.1401  1.5673
 8445SOL     OW36796   0.078   4.193   3.194  0.3037 -0.2201 -0.7129
 8445SOL    HW136797   0.012   4.128   3.219  0.7280  0.1956  1.4424
 8445SOL    HW236798   0.031   4.276   3.197 -0.1184 -0.4869 -0.1071
 8446SOL     OW36799   2.797   4.716   6.646  0.2509 -0.2329 -0.1655
 8446SOL    HW136800   2.873   4.680   6.691  0.8912  2.4321  0.9088
 8446SOL    HW236801   2.812   0.092   6.635  0.2407 -0.4265 -1.8513
 8447SOL     OW36802   0.846   2.770   6.382  0.0635  0.2496 -0.1405
 8447SOL    HW136803   0.808   2.806   6.463 -1.0648  1.7598 -1.3498
 8447SOL    HW236804   0.809   2.682   6.378  0.2886  0.1647 -0.2885
 8448SOL     OW36805   4.461   2.945   2.419  0.2047 -0.0476  0.3492
 8448SOL    HW136806   4.511   3.022   2.445  0.1672  0.2857 -0.5614
 8448SOL    HW236807   4.384   2.962   2.473 -0.8185 -1.0098 -0.7943
 8449SOL     OW36808   0.651   0.537   3.128 -0.1072  0.2530  0.5428
 8449SOL    HW136809   0.571   0.489   3.151 -0.8805  1.4293  0.2825
 8449SOL    HW236810   0.609   0.618   3.100 -1.7420 -0.9489 -0.5493
 8450SOL     OW36811   2.744   0.620   2.836  0.3452  0.3956  0.2984
 8450SOL    HW136812   2.797   0.594   2.761  1.1357 -2.3278  1.8044
 8450SOL    HW236813   2.654   0.611   2.804  0.2709  0.3751  0.5114
 8451SOL     OW36814   1.391   0.554   5.371 -0.0412 -0.2607 -0.6238
 8451SOL    HW136815   1.443   0.585   5.296 -2.4060  1.4880 -1.5491
 8451SOL    HW236816   1.384   0.465   5.338 -0.2792 -0.9674  1.3613
 8452SOL     OW36817   1.110   0.654   7.600 -0.2426  0.3887 -0.0128
 8452SOL    HW136818   1.082   0.589   7.664  0.0683 -0.8146 -1.0714
 8452SOL    HW236819   1.170   0.696   7.661 -0.5891  0.4902  0.2556
 8453SOL     OW36820   2.693   4.061  17.030  0.0624  0.1748 -0.7344
 8453SOL    HW136821   2.726   4.025  17.113 -0.2817 -0.0276 -0.6838
 8453SOL    HW236822   2.633   3.992  17.002 -1.1598  1.1036 -0.3964
 8454SOL     OW36823   3.969   3.928   6.908 -0.7049 -0.1359  0.2226
 8454SOL    HW136824   4.063   3.919   6.920 -0.9566  1.2389  3.0729
 8454SOL    HW236825   3.936   3.889   6.989 -0.6488 -0.3665  0.1343
 8455SOL     OW36826   1.252   3.438   6.924  0.1249  0.1547  0.1219
 8455SOL    HW136827   1.297   3.441   7.009  2.7830 -0.8804 -1.2433
 8455SOL    HW236828   1.290   3.355   6.895  0.7445 -0.3789  2.4355
 8456SOL     OW36829   2.996   2.650  17.029 -0.4429 -0.2399 -0.2169
 8456SOL    HW136830   3.003   2.576  17.091  1.0256  0.7269  0.7818
 8456SOL    HW236831   3.084   2.673  17.001  0.6202 -1.1115  2.4092
 8457SOL     OW36832   1.551   4.344  13.291  0.6223 -0.4818 -0.0642
 8457SOL    HW136833   1.591   4.300  13.216 -0.6674 -0.8060 -0.5583
 8457SOL    HW236834   1.504   4.419  13.255 -1.2234 -2.1846 -1.1916
 8458SOL     OW36835   4.204   4.346   6.153 -0.3453 -0.2498  0.3634
 8458SOL    HW136836   4.129   4.292   6.178  0.1941  0.3095  3.2019
 8458SOL    HW236837   4.160   4.427   6.128 -0.8372 -0.7894 -0.5077
 8459SOL     OW36838   2.747   2.025   6.369  0.1067  0.1253 -0.0655
 8459SOL    HW136839   2.789   1.948   6.331 -0.4524 -0.5637  0.7148
 8459SOL    HW236840   2.828   2.071   6.391  0.2700  0.6857 -1.8476
 8460SOL     OW36841   1.994   3.580   4.772 -0.1091 -0.1172 -0.1964
 8460SOL    HW136842   2.013   3.645   4.705  0.2628  0.8024  0.8002
 8460SOL    HW236843   2.051   3.505   4.751 -0.3020 -0.0260 -1.0655
 8461SOL     OW36844   0.552   3.518   7.476 -0.1223  0.1661 -0.0047
 8461SOL    HW136845   0.613   3.508   7.404 -0.9868  0.4774 -0.7873
 8461SOL    HW236846   0.557   3.609   7.506  1.1541 -0.3336  1.2650
 8462SOL     OW36847   4.322   1.283   6.052 -0.4694  1.0400  0.5218
 8462SOL    HW136848   4.368   1.288   6.135  1.1402 -1.2930 -0.2388
 8462SOL    HW236849   4.231   1.270   6.079 -1.2280  0.2183 -2.4072
 8463SOL     OW36850   0.758   3.556   0.110 -0.0622 -0.3370 -0.3622
 8463SOL    HW136851   0.839   3.531   0.155 -0.3676 -0.1486  0.2969
 8463SOL    HW236852   0.784   3.605   0.032  0.4477  1.3728  0.8820
 8464SOL     OW36853   0.111   3.471   5.713 -0.2233 -0.5386 -0.1322
 8464SOL    HW136854   0.161   3.416   5.773  1.6021  1.3757  0.1007
 8464SOL    HW236855   0.029   3.421   5.717 -0.2256 -0.7788 -3.2057
 8465SOL     OW36856   4.193   4.481   0.299 -0.5074  0.1589  0.7067
 8465SOL    HW136857   4.246   4.479   0.379 -0.0141  0.8501  0.3998
 8465SOL    HW236858   4.238   4.544   0.242 -0.3313  1.9783  2.8675
 8466SOL     OW36859   3.041   3.480   0.275 -0.3357  0.7366 -0.2688
 8466SOL    HW136860   3.001   3.468   0.189 -1.6057  2.0390  0.1407
 8466SOL    HW236861   3.123   3.432   0.265 -1.2185 -0.8841  0.3580
 8467SOL     OW36862   0.499   0.923   4.358 -0.3416  0.0785  0.2853
 8467SOL    HW136863   0.484   0.962   4.272  2.3676  3.0159  1.1265
 8467SOL    HW236864   0.518   1.004   4.404 -2.7372  0.9912 -0.3674
 8468SOL     OW36865   0.885   4.704   3.571  0.4596 -0.1416  0.2787
 8468SOL    HW136866   0.834   4.647   3.629 -0.7131  1.8212  1.1812
 8468SOL    HW236867   0.868   0.074   3.604 -2.6046  0.0075 -1.7706
 8469SOL     OW36868   0.377   4.707   0.087  0.0305  0.1864 -0.6520
 8469SOL    HW136869   0.383   4.634   0.149  2.0411  1.5737  0.8184
 8469SOL    HW236870   0.294   0.027   0.114  1.6378  0.8129  3.3814
 8470SOL     OW36871   0.620   3.895  13.194  0.0680  0.2288  0.5025
 8470SOL    HW136872   0.708   3.857  13.197 -0.9112 -2.1112  0.1199
 8470SOL    HW236873   0.592   3.884  13.103  1.8191 -0.3411  0.0430
 8471SOL     OW36874   4.162   0.253  14.821  0.2282 -0.2147  0.2055
 8471SOL    HW136875   4.128   0.169  14.854 -0.6040  0.3506  0.7734
 8471SOL    HW236876   4.218   0.280  14.894 -0.9161 -1.4479  1.5448
 8472SOL     OW36877   0.903   2.392   5.105 -0.8597  0.3074  0.4263
 8472SOL    HW136878   0.840   2.450   5.147 -0.4942  1.2034 -0.2570
 8472SOL    HW236879   0.888   2.312   5.155  0.7009 -0.1694  0.1386
 8473SOL     OW36880   4.388   0.325   0.041  0.1347  0.1887  0.0613
 8473SOL    HW136881   4.296   0.312   0.067  0.0545  0.7464  0.0637
 8473SOL    HW236882   4.438   0.290   0.114 -0.0491 -0.9780 -0.3722
 8474SOL     OW36883   2.498   3.289  11.988  0.2198  0.0781 -0.1685
 8474SOL    HW136884   2.487   3.382  11.969  0.7598 -0.2410 -2.0282
 8474SOL    HW236885   2.543   3.270  11.905  0.7887  0.8817 -0.0480
 8475SOL     OW36886   0.087   4.467   0.793 -0.1699 -0.2155  0.4493
 8475SOL    HW136887   0.091   4.409   0.868 -1.1711  1.1061  1.5323
 8475SOL    HW236888   0.175   4.458   0.757  0.0454 -4.0244  1.9533
 8476SOL     OW36889   4.714   1.727   8.270 -0.5157 -0.2214  0.2829
 8476SOL    HW136890   0.071   1.685   8.229 -0.7728 -1.2375  0.8312
 8476SOL    HW236891   0.020   1.735   8.363 -0.8056  1.4095  0.2160
 8477SOL     OW36892   0.459   2.240   9.288  0.3023  0.3279 -0.0929
 8477SOL    HW136893   0.442   2.320   9.337  1.4708  0.3461  0.2826
 8477SOL    HW236894   0.394   2.175   9.315 -1.1933  1.9429  0.1803
 8478SOL     OW36895   1.700   3.047  10.910  0.8698  0.3464  0.3021
 8478SOL    HW136896   1.674   3.021  10.998  1.1012  0.3158  0.3633
 8478SOL    HW236897   1.615   3.078  10.882  0.3920 -3.2155 -2.2073
 8479SOL     OW36898   1.055   1.950   7.932 -0.0006 -0.5805  0.1443
 8479SOL    HW136899   0.996   1.982   7.864 -1.2378  0.2155  1.5745
 8479SOL    HW236900   1.083   1.869   7.889 -1.5385 -0.9557 -0.1632
 8480SOL     OW36901   4.411   3.879   2.281 -0.5734  0.6189 -0.1804
 8480SOL    HW136902   4.434   3.966   2.248  3.5951 -0.9564 -1.3890
 8480SOL    HW236903   4.491   3.837   2.313 -1.1188 -1.2326 -1.2551
 8481SOL     OW36904   4.004   2.696  15.946 -0.1181 -0.8282  0.2699
 8481SOL    HW136905   4.074   2.733  16.000 -1.3491  1.6201  0.1726
 8481SOL    HW236906   3.926   2.709  15.999  0.1526  0.0479  0.4594
 8482SOL     OW36907   0.474   3.195   3.400 -0.2239 -0.4293 -0.8580
 8482SOL    HW136908   0.422   3.256   3.348 -0.9923 -0.8501 -0.5820
 8482SOL    HW236909   0.551   3.250   3.389  0.6986 -1.0320  2.6909
 8483SOL     OW36910   1.620   4.392  15.876 -0.3905  0.4506 -0.2304
 8483SOL    HW136911   1.577   4.369  15.794 -0.6250 -0.9458  0.2946
 8483SOL    HW236912   1.555   4.358  15.937 -0.7493 -0.9143 -1.3884
 8484SOL     OW36913   1.440   1.136  11.169  0.5574  0.4238  0.5953
 8484SOL    HW136914   1.380   1.211  11.173 -1.6857 -1.4114  1.1725
 8484SOL    HW236915   1.519   1.190  11.167  1.3072 -0.6834  0.4157
 8485SOL     OW36916   0.977   2.191  15.742  0.1371 -0.4290 -0.0048
 8485SOL    HW136917   1.057   2.228  15.778  0.9426 -1.7058 -0.4905
 8485SOL    HW236918   0.925   2.180  15.822  3.3600  3.5212  2.6177
 8486SOL     OW36919   4.588   2.865  11.517  0.2145  0.0228  0.1934
 8486SOL    HW136920   4.624   2.784  11.481  0.9386  0.3191  0.2368
 8486SOL    HW236921   4.518   2.885  11.456 -0.7360 -1.0209  0.9513
 8487SOL     OW36922   1.801   0.506   3.989 -0.1737  0.0036 -0.6857
 8487SOL    HW136923   1.783   0.417   4.021  0.0018  0.4345  0.6359
 8487SOL    HW236924   1.715   0.546   3.995 -0.3882 -0.5550 -0.0041
 8488SOL     OW36925   1.267   3.968   8.083 -0.0024  0.3195  0.0209
 8488SOL    HW136926   1.303   3.956   8.171  1.1155 -0.6784 -0.5659
 8488SOL    HW236927   1.211   4.041   8.110 -0.8058 -1.0701  2.0979
 8489SOL     OW36928   3.809   1.814   7.952  0.1382  0.6110  0.5730
 8489SOL    HW136929   3.786   1.722   7.938 -0.7432  1.1100 -1.1888
 8489SOL    HW236930   3.771   1.825   8.040  1.3710 -0.8558  1.2882
 8490SOL     OW36931   2.521   4.486  14.698  0.0444  0.6958 -0.1554
 8490SOL    HW136932   2.429   4.510  14.684 -0.1310 -0.1081 -0.3595
 8490SOL    HW236933   2.524   4.398  14.660 -0.3991  0.4428  0.3938
 8491SOL     OW36934   0.063   1.051  16.746 -0.2465  0.1918 -0.4699
 8491SOL    HW136935   0.010   1.109  16.800  0.9349  0.0044  0.8824
 8491SOL    HW236936   0.089   1.113  16.678  0.4866 -1.0720 -1.3528
 8492SOL     OW36937   2.523   2.628   0.545  0.2107  0.5924 -0.0994
 8492SOL    HW136938   2.442   2.625   0.596  0.9721 -0.1509  1.0557
 8492SOL    HW236939   2.530   2.724   0.541 -0.5163  0.6133 -0.8706
 8493SOL     OW36940   0.648   4.153   5.862 -0.0583 -0.3010 -0.0099
 8493SOL    HW136941   0.737   4.130   5.833  0.4131  2.1328 -0.4553
 8493SOL    HW236942   0.635   4.231   5.809 -0.3165 -1.2833 -1.3984
 8494SOL     OW36943   3.572   4.520   6.034 -0.3740 -0.4338 -1.0558
 8494SOL    HW136944   3.496   4.562   6.075  0.0052  0.8760 -1.7334
 8494SOL    HW236945   3.533   4.501   5.948  1.6709 -2.0032 -1.6454
 8495SOL     OW36946   1.494   0.364   9.962  0.0403 -0.5553  0.0208
 8495SOL    HW136947   1.444   0.377  10.042 -0.8577 -2.0159 -0.3121
 8495SOL    HW236948   1.421   0.347   9.903 -0.2997  1.1802 -0.0440
 8496SOL     OW36949   2.200   2.474   7.752 -0.0602  0.0900 -0.1730
 8496SOL    HW136950   2.106   2.455   7.763  0.6252 -2.2547  1.6405
 8496SOL    HW236951   2.198   2.465   7.656  0.2201 -1.0957 -0.0696
 8497SOL     OW36952   1.633   2.411  15.951 -0.0210 -0.6193  0.1506
 8497SOL    HW136953   1.725   2.389  15.936  0.4605  0.6495  1.1618
 8497SOL    HW236954   1.636   2.418  16.047 -0.8292  1.4110  0.0421
 8498SOL     OW36955   2.793   1.396   1.170  0.0758 -0.0653 -0.2428
 8498SOL    HW136956   2.768   1.439   1.088  0.7579  0.2076 -0.3071
 8498SOL    HW236957   2.774   1.303   1.154 -1.9478  0.4335 -0.7531
 8499SOL     OW36958   1.828   4.110   7.503 -0.1222 -0.5742 -0.1269
 8499SOL    HW136959   1.809   4.046   7.571  0.0893  0.5265  0.9635
 8499SOL    HW236960   1.762   4.083   7.439  1.7119 -0.6905 -1.9768
 8500SOL     OW36961   1.090   4.537   0.650  0.0883  0.1560 -0.8922
 8500SOL    HW136962   1.055   4.609   0.598  0.3017  0.5184 -0.5298
 8500SOL    HW236963   1.178   4.573   0.660  0.4999 -0.9553 -0.4916
 8501SOL     OW36964   1.196   2.845  14.100 -0.5046 -0.3347 -0.0921
 8501SOL    HW136965   1.136   2.820  14.029 -1.7887  2.9652 -0.1570
 8501SOL    HW236966   1.219   2.935  14.078  1.6746 -1.1851 -1.3053
 8502SOL     OW36967   2.825   0.683   8.072  0.6949  0.6649  0.2270
 8502SOL    HW136968   2.735   0.651   8.077  1.0600 -0.2250  1.0879
 8502SOL    HW236969   2.871   0.599   8.063  1.7222  0.8264  3.9049
 8503SOL     OW36970   1.933   2.979   0.004 -0.4086  0.6562  0.1643
 8503SOL    HW136971   1.927   3.046   0.073  0.9954 -1.3909  2.2543
 8503SOL    HW236972   1.994   2.916   0.042 -0.3282  1.3276  1.1553
 8504SOL     OW36973   3.626   3.726   1.863 -0.2473 -0.3685  0.1478
 8504SOL    HW136974   3.649   3.659   1.927 -0.1405 -1.5874 -1.1532
 8504SOL    HW236975   3.714   3.755   1.841  0.4788 -2.1763  0.7043
 8505SOL     OW36976   2.300   2.736   0.721  0.1832  0.1510 -0.0185
 8505SOL    HW136977   2.326   2.773   0.805  3.1999  0.2014 -0.9993
 8505SOL    HW236978   2.204   2.734   0.729  0.1857  0.4734  0.1168
 8506SOL     OW36979   0.347   1.099   6.442 -0.6511 -0.0595 -0.2904
 8506SOL    HW136980   0.317   1.008   6.435 -0.2675 -0.0414 -2.0448
 8506SOL    HW236981   0.317   1.125   6.529  1.6372  1.3483  0.0935
 8507SOL     OW36982   2.560   3.232  14.376  0.8984 -0.8103  0.3296
 8507SOL    HW136983   2.485   3.287  14.401  1.9894  1.0668 -0.5289
 8507SOL    HW236984   2.646   3.269  14.396  1.2286 -1.0638 -0.6453
 8508SOL     OW36985   2.861   1.688   5.933 -0.2791  0.5010  0.2887
 8508SOL    HW136986   2.885   1.672   5.841 -0.5776  2.1890 -0.0770
 8508SOL    HW236987   2.935   1.744   5.957  0.6741 -1.0204  0.8883
 8509SOL     OW36988   0.819   4.008   6.265 -0.3527  0.3014  0.0008
 8509SOL    HW136989   0.876   3.935   6.242  0.1083  0.7008 -0.1233
 8509SOL    HW236990   0.740   3.990   6.214 -0.3193 -0.3608  0.1903
 8510SOL     OW36991   3.691   3.568  16.685  0.5214  0.5986 -0.1269
 8510SOL    HW136992   3.622   3.561  16.619  0.9404  0.0385 -0.5008
 8510SOL    HW236993   3.682   3.480  16.721  0.1413  0.2852 -1.0006
 8511SOL     OW36994   1.565   0.663   3.915 -0.3243 -0.0753 -0.4252
 8511SOL    HW136995   1.474   0.649   3.888 -0.3327 -1.9482  0.5968
 8511SOL    HW236996   1.553   0.695   4.004  0.5056 -2.4130  0.5401
 8512SOL     OW36997   0.284   4.325   0.557 -0.2318  0.2970  0.5768
 8512SOL    HW136998   0.378   4.326   0.537 -0.3780 -0.3430 -0.1362
 8512SOL    HW236999   0.259   4.414   0.530  3.1410  0.6764 -1.2601
 8513SOL     OW37000   4.087   2.671   4.944  0.0970 -0.5427  0.0878
 8513SOL    HW137001   4.042   2.701   4.865  1.4237 -0.2799 -0.5539
 8513SOL    HW237002   4.105   2.584   4.909  2.9867 -0.3708  1.1397
 8514SOL     OW37003   4.590   2.110  16.869 -0.1278 -0.2846  0.6055
 8514SOL    HW137004   4.502   2.137  16.846  0.7686  2.3255  0.2543
 8514SOL    HW237005   4.623   2.070  16.788 -0.4089  0.1793  0.2616
 8515SOL     OW37006   0.091   3.539   5.183 -0.5259 -0.1014  0.6881
 8515SOL    HW137007   0.125   3.601   5.248  0.3457  1.3914 -1.1776
 8515SOL    HW237008   0.043   3.477   5.237  1.3497 -2.6267 -0.5493
 8516SOL     OW37009   4.433   3.432   2.212  0.0200 -0.4507 -0.7102
 8516SOL    HW137010   4.521   3.442   2.175 -0.5387 -1.7640 -2.4107
 8516SOL    HW237011   4.397   3.520   2.219 -0.4383 -0.6982  0.0687
 8517SOL     OW37012   2.809   4.534   5.740  0.0363 -0.3717  0.3452
 8517SOL    HW137013   2.815   4.624   5.707  2.5868 -0.6978 -0.0995
 8517SOL    HW237014   2.758   4.561   5.816 -0.6919 -2.3842  0.5624
 8518SOL     OW37015   1.701   4.536  17.509  0.4404 -1.2564 -0.0473
 8518SOL    HW137016   1.646   4.568  17.581 -0.2111 -1.2622 -0.5372
 8518SOL    HW237017   1.717   4.444  17.530  2.2944 -0.9243 -0.0152
 8519SOL     OW37018   0.119   0.090   8.686 -0.2091  0.1689 -0.5320
 8519SOL    HW137019   0.044   0.077   8.628 -0.6086 -1.2561  0.3125
 8519SOL    HW237020   0.196   0.088   8.629 -0.1984  0.0445 -0.5120
 8520SOL     OW37021   1.396   1.782   9.253  1.1155  0.3138 -0.1944
 8520SOL    HW137022   1.406   1.740   9.338  2.3796  0.2075 -0.3981
 8520SOL    HW237023   1.478   1.763   9.207  0.0090 -1.0544 -1.6133
 8521SOL     OW37024   3.227   0.554  11.329  0.0426  0.0411  0.0757
 8521SOL    HW137025   3.265   0.468  11.310  1.0303  0.5587 -0.2277
 8521SOL    HW237026   3.197   0.547  11.420 -2.9624 -0.5875 -0.9478
 8522SOL     OW37027   0.449   1.900   2.872 -0.4252 -0.1813  0.6196
 8522SOL    HW137028   0.363   1.862   2.853 -0.6965  0.3324  0.8238
 8522SOL    HW237029   0.496   1.846   2.808 -1.1927  2.0685 -1.8227
 8523SOL     OW37030   1.369   1.566   5.432 -0.6721  0.3029 -0.3777
 8523SOL    HW137031   1.395   1.626   5.502 -1.6813  1.5232 -1.0458
 8523SOL    HW237032   1.326   1.494   5.479  1.1813 -0.0021  0.8581
 8524SOL     OW37033   1.046   0.238   8.179  0.3138 -0.4025 -0.3627
 8524SOL    HW137034   0.975   0.281   8.131 -0.0371 -0.0569  0.4680
 8524SOL    HW237035   1.118   0.288   8.142 -1.3977  2.5775  0.3086
 8525SOL     OW37036   3.139   1.060   4.192  0.2207  0.0530  0.5236
 8525SOL    HW137037   3.122   1.144   4.235  0.4712  0.1898  0.3563
 8525SOL    HW237038   3.057   1.054   4.143  0.1633 -0.0837  0.6382
 8526SOL     OW37039   4.225   0.943   8.333 -0.3035 -0.2067  0.4870
 8526SOL    HW137040   4.156   0.971   8.394 -0.6077 -1.9782  0.9496
 8526SOL    HW237041   4.183   0.952   8.247 -0.5491  0.2079  0.6502
 8527SOL     OW37042   3.436   3.243   3.295  0.6535  0.4316 -0.0236
 8527SOL    HW137043   3.378   3.268   3.224  0.9563  1.2297  0.0073
 8527SOL    HW237044   3.497   3.195   3.239 -1.1569 -1.9161  0.0245
 8528SOL     OW37045   4.627   4.626   7.445 -0.5882 -0.2326  0.5437
 8528SOL    HW137046   4.680   4.590   7.374 -0.7826  1.9035 -0.6531
 8528SOL    HW237047   4.624   4.550   7.504 -1.0516 -1.1571 -0.6610
 8529SOL     OW37048   1.965   3.239  13.339  0.0932  0.4541 -0.0379
 8529SOL    HW137049   1.997   3.176  13.404 -0.9014 -1.2522 -1.1944
 8529SOL    HW237050   1.958   3.316  13.394 -0.3799  0.7425 -0.5045
 8530SOL     OW37051   1.317   0.212   4.174  0.6069  0.6015 -0.0506
 8530SOL    HW137052   1.225   0.213   4.147  0.1928 -0.9040  1.3253
 8530SOL    HW237053   1.363   0.230   4.092 -1.0502  2.6939 -0.5093
 8531SOL     OW37054   1.943   1.029   9.474 -0.2579 -0.3909  0.4727
 8531SOL    HW137055   2.022   1.081   9.487 -0.3384 -0.1378 -0.0261
 8531SOL    HW237056   1.879   1.098   9.494 -1.0051 -0.7870 -0.5221
 8532SOL     OW37057   1.124   2.814   1.544 -0.3808  0.2430 -0.1704
 8532SOL    HW137058   1.189   2.744   1.554  0.4171  1.1579  1.0939
 8532SOL    HW237059   1.155   2.852   1.462  0.7692  0.2208  0.2558
 8533SOL     OW37060   1.755   0.637   4.308 -0.0725  0.2233  0.1228
 8533SOL    HW137061   1.750   0.680   4.394  1.0292  3.2926 -1.3279
 8533SOL    HW237062   1.813   0.698   4.263 -0.7922  0.2060 -0.8270
 8534SOL     OW37063   4.256   1.532  11.150 -0.2646 -0.8865 -0.0069
 8534SOL    HW137064   4.305   1.605  11.114  0.5093 -0.7518  1.3105
 8534SOL    HW237065   4.243   1.574  11.235 -2.2254  0.3898 -0.9447
 8535SOL     OW37066   0.718   2.343  11.897  0.1295 -0.1391  0.9293
 8535SOL    HW137067   0.736   2.405  11.826 -0.5426 -1.2022 -0.1811
 8535SOL    HW237068   0.760   2.259  11.878 -0.1707 -0.1117  0.1361
 8536SOL     OW37069   4.008   0.602   8.245  0.0625  0.3557  0.1528
 8536SOL    HW137070   3.979   0.597   8.154 -1.0157 -1.2291  0.5875
 8536SOL    HW237071   4.098   0.572   8.236  0.0543  0.4827 -0.3399
 8537SOL     OW37072   4.201   1.557  13.787  0.0421 -0.5578 -0.5830
 8537SOL    HW137073   4.133   1.490  13.785  1.3182 -1.8048 -2.0031
 8537SOL    HW237074   4.271   1.513  13.835  0.4863  0.5058 -0.2496
 8538SOL     OW37075   3.197   0.666   2.896 -0.4500  0.0204 -0.4551
 8538SOL    HW137076   3.233   0.682   2.808 -0.6788  1.2352 -0.3226
 8538SOL    HW237077   3.152   0.583   2.877  2.0144 -1.6560  1.0742
 8539SOL     OW37078   0.738   4.218  11.545  0.0845  0.4038  0.2113
 8539SOL    HW137079   0.831   4.194  11.542  0.0581  0.4324 -0.6797
 8539SOL    HW237080   0.715   4.176  11.463  0.4698 -1.8044  1.2462
 8540SOL     OW37081   1.038   1.466   1.971  0.1906 -0.2389  0.1083
 8540SOL    HW137082   1.010   1.387   1.925  3.0978 -0.4451 -1.2843
 8540SOL    HW237083   0.970   1.526   1.939 -0.1573 -1.5267 -1.5702
 8541SOL     OW37084   2.760   1.525   1.574 -0.1496 -0.2750 -0.0498
 8541SOL    HW137085   2.832   1.476   1.534 -0.4209 -1.3949  0.8524
 8541SOL    HW237086   2.685   1.466   1.569 -1.5344  1.5595 -0.9589
 8542SOL     OW37087   2.639   3.394   7.429  0.2483  0.0254 -0.5205
 8542SOL    HW137088   2.696   3.321   7.451  0.5729  1.3004  2.8909
 8542SOL    HW237089   2.560   3.351   7.395  1.0153  0.9689 -3.4529
 8543SOL     OW37090   2.866   1.318   7.229  0.2844  0.1337  0.0731
 8543SOL    HW137091   2.912   1.235   7.214 -1.7031 -0.6494 -1.6702
 8543SOL    HW237092   2.856   1.359   7.144 -2.2040 -0.2783  0.1482
 8544SOL     OW37093   0.127   4.090  10.382 -0.9687  0.1882 -0.5406
 8544SOL    HW137094   0.193   4.156  10.358 -0.5280  0.2434  0.8597
 8544SOL    HW237095   0.057   4.103  10.317 -2.4109  0.7459  1.1372
 8545SOL     OW37096   1.797   1.144  10.680  0.0883  0.8180  0.0768
 8545SOL    HW137097   1.837   1.123  10.764 -1.4972 -1.2274  0.3150
 8545SOL    HW237098   1.798   1.239  10.692  0.6338  0.7033  0.8864
 8546SOL     OW37099   2.448   4.278   7.651  0.2788  0.1785  0.2506
 8546SOL    HW137100   2.469   4.230   7.571 -0.9787 -0.9126  0.5691
 8546SOL    HW237101   2.377   4.231   7.696  1.1318 -2.0121 -0.6603
 8547SOL     OW37102   0.658   4.491  17.205  0.1908  0.4731 -0.0153
 8547SOL    HW137103   0.728   4.514  17.266 -1.3632  1.1693  1.5048
 8547SOL    HW237104   0.631   4.575  17.168 -2.5194 -0.3163  0.1893
 8548SOL     OW37105   4.048   1.909   5.873  0.2114 -0.1839 -0.1510
 8548SOL    HW137106   4.016   1.986   5.921 -0.0304 -0.6702  0.4761
 8548SOL    HW237107   4.050   1.933   5.781 -0.4046 -2.9808 -0.8771
 8549SOL     OW37108   1.788   2.658   6.534  1.0343 -0.2965  0.3847
 8549SOL    HW137109   1.873   2.621   6.555  1.2049 -0.2331 -0.1750
 8549SOL    HW237110   1.797   2.650   6.439  0.9116  2.3172  0.1393
 8550SOL     OW37111   0.807   2.462  10.590  0.6537 -0.0598  0.2060
 8550SOL    HW137112   0.845   2.377  10.568  1.6447 -0.0903  2.0155
 8550SOL    HW237113   0.748   2.473  10.516  1.2451 -0.5940 -0.3441
 8551SOL     OW37114   0.002   4.146  12.182 -0.0437  0.0796 -0.9034
 8551SOL    HW137115   0.019   4.053  12.195 -0.3770  0.6266  3.4593
 8551SOL    HW237116   0.002   4.139  12.086  1.2273  0.3420 -0.9215
 8552SOL     OW37117   0.170   2.112   7.000 -0.4343 -0.3864 -0.0658
 8552SOL    HW137118   0.223   2.032   6.995 -1.6560 -1.2064  0.0202
 8552SOL    HW237119   0.079   2.090   6.984 -0.0307 -2.0429 -0.0906
 8553SOL     OW37120   4.250   2.142  10.426 -0.2545 -0.2606 -0.1376
 8553SOL    HW137121   4.281   2.062  10.469  1.0570  1.2151  1.6082
 8553SOL    HW237122   4.281   2.211  10.484  0.5681 -1.7983  1.2461
 8554SOL     OW37123   1.535   1.249   4.545  0.4671  0.0359  0.0544
 8554SOL    HW137124   1.550   1.213   4.632  1.1296 -0.3023 -0.2025
 8554SOL    HW237125   1.455   1.301   4.556 -0.1848 -1.1138  0.6788
 8555SOL     OW37126   2.554   2.027   1.725 -0.1711 -0.4540 -0.1400
 8555SOL    HW137127   2.510   2.111   1.732  1.9495  0.9681 -3.4419
 8555SOL    HW237128   2.504   1.987   1.796 -1.1308  0.8307 -0.1039
 8556SOL     OW37129   2.726   0.880  16.170 -0.1573 -0.4094  0.7406
 8556SOL    HW137130   2.755   0.878  16.079 -0.6735 -1.4741  0.6062
 8556SOL    HW237131   2.764   0.959  16.210  1.0914  1.3891 -4.0374
 8557SOL     OW37132   0.607   4.663   7.751  0.2863  0.0417 -0.1638
 8557SOL    HW137133   0.638   0.030   7.719  2.6375 -0.9933 -0.6602
 8557SOL    HW237134   0.691   4.630   7.782  0.6717  1.0471 -0.1421
 8558SOL     OW37135   4.396   4.402  10.658  0.3671  0.4083 -0.0399
 8558SOL    HW137136   4.396   4.334  10.725  2.1717  1.1319  0.6780
 8558SOL    HW237137   4.345   4.474  10.694  1.4425  0.0978  2.0912
 8559SOL     OW37138   3.037   4.162   9.920  0.1112 -0.2172  0.2232
 8559SOL    HW137139   3.105   4.228   9.929 -0.2770  0.0057  1.5750
 8559SOL    HW237140   3.094   4.087   9.906 -2.4290 -2.1342  0.0704
 8560SOL     OW37141   4.547   1.195  14.536 -0.0755  0.2876  0.2445
 8560SOL    HW137142   4.466   1.242  14.558  1.5311  2.2403  1.8869
 8560SOL    HW237143   4.570   1.151  14.618  0.8398 -0.1913 -0.2794
 8561SOL     OW37144   4.449   2.022   8.894 -0.1136  0.0769 -0.3993
 8561SOL    HW137145   4.426   2.077   8.819  1.1649  0.8168 -0.2472
 8561SOL    HW237146   4.453   2.082   8.969 -0.7642  0.3375 -0.5729
 8562SOL     OW37147   3.599   2.885   6.224  0.6508 -0.1243  0.0611
 8562SOL    HW137148   3.510   2.910   6.200  0.4163  1.5231  2.7416
 8562SOL    HW237149   3.594   2.795   6.258  0.5049 -0.3289 -0.5044
 8563SOL     OW37150   1.854   1.718   0.782 -0.1307  0.5483 -0.6629
 8563SOL    HW137151   1.814   1.706   0.696 -0.7867 -0.5852 -0.1902
 8563SOL    HW237152   1.836   1.643   0.839  0.2932 -0.1620 -1.4731
 8564SOL     OW37153   1.189   4.399   9.266  0.0008 -0.1491 -0.2147
 8564SOL    HW137154   1.251   4.472   9.275 -0.2819  0.0836 -0.1167
 8564SOL    HW237155   1.236   4.334   9.214  0.5097  1.2431 -1.5094
 8565SOL     OW37156   4.345   1.629  15.466 -0.0275 -0.6741  0.2030
 8565SOL    HW137157   4.298   1.591  15.541  1.7547 -0.7298  1.2994
 8565SOL    HW237158   4.290   1.601  15.393 -1.3415 -0.3631  1.0779
 8566SOL     OW37159   0.058   3.703  16.565  0.2163  0.1840 -0.4925
 8566SOL    HW137160   0.107   3.644  16.507 -0.6935 -0.1214 -0.9548
 8566SOL    HW237161   0.016   3.647  16.630  3.1140 -2.1519 -0.5957
 8567SOL     OW37162   4.260   4.235   1.873 -0.2668  0.4019  0.7225
 8567SOL    HW137163   4.315   4.300   1.917  1.7821 -0.2631 -0.8646
 8567SOL    HW237164   4.248   4.166   1.938 -0.1292 -0.7011 -0.4173
 8568SOL     OW37165   1.563   1.836   4.860 -0.0629 -0.3474 -0.5604
 8568SOL    HW137166   1.520   1.867   4.940  0.0386 -1.2568 -0.1526
 8568SOL    HW237167   1.647   1.880   4.869  0.4694 -1.7755  1.3343
 8569SOL     OW37168   1.986   3.463   0.188  0.1815 -0.0474  0.1261
 8569SOL    HW137169   2.009   3.483   0.097  0.3509 -0.6676  0.0326
 8569SOL    HW237170   1.914   3.401   0.176 -1.2707  1.6065  0.2348
 8570SOL     OW37171   2.746   0.391  13.221  0.4758 -0.1494  0.0773
 8570SOL    HW137172   2.700   0.454  13.277 -0.5098  1.1546 -2.1995
 8570SOL    HW237173   2.817   0.358  13.276  0.6526 -0.3803 -0.2856
 8571SOL     OW37174   2.413   1.534   1.258 -0.2859 -0.3072  0.1144
 8571SOL    HW137175   2.414   1.442   1.285  4.1033  0.0652  1.1056
 8571SOL    HW237176   2.375   1.576   1.335 -1.8722 -1.1401 -0.2019
 8572SOL     OW37177   2.212   0.585   6.056  0.3633 -0.1212 -0.3975
 8572SOL    HW137178   2.236   0.520   5.990  1.3202 -0.1346 -0.0415
 8572SOL    HW237179   2.235   0.542   6.138  0.2205  1.8202  0.6519
 8573SOL     OW37180   3.678   3.492   1.517  0.3274 -0.2558  0.1818
 8573SOL    HW137181   3.742   3.559   1.492 -0.3543  0.1728 -0.4431
 8573SOL    HW237182   3.603   3.552   1.526  0.4720 -0.0406 -0.0246
 8574SOL     OW37183   2.463   2.607  17.327 -0.2720  0.2537 -0.1003
 8574SOL    HW137184   2.444   2.694  17.363 -0.4543  0.4400 -0.6296
 8574SOL    HW237185   2.444   2.557  17.406  0.0370  0.6100  0.1994
 8575SOL     OW37186   1.715   0.411  16.578 -0.1045 -0.2808 -0.3706
 8575SOL    HW137187   1.741   0.368  16.659  0.8371  0.0112 -0.5066
 8575SOL    HW237188   1.647   0.354  16.543 -1.1425  0.3254  0.6579
 8576SOL     OW37189   3.224   2.849  14.083 -0.0664  0.3505 -0.6183
 8576SOL    HW137190   3.216   2.777  14.145  1.9340  1.1779  0.5788
 8576SOL    HW237191   3.147   2.899  14.109 -1.3115 -1.4044 -0.9694
 8577SOL     OW37192   1.297   3.475   3.573  0.3119 -0.3787 -0.2444
 8577SOL    HW137193   1.203   3.478   3.595  0.2400 -1.3294 -0.4444
 8577SOL    HW237194   1.332   3.496   3.660  2.2663  0.5408 -1.2720
 8578SOL     OW37195   0.749   0.914   7.947 -0.5398 -0.4729 -0.1354
 8578SOL    HW137196   0.844   0.913   7.942 -0.6009  0.5850 -1.3362
 8578SOL    HW237197   0.733   0.819   7.943  0.8515 -0.6508 -1.3856
 8579SOL     OW37198   2.005   2.703   1.235  0.9698  0.1739 -0.2945
 8579SOL    HW137199   1.958   2.757   1.298  2.8959  1.3568  0.1298
 8579SOL    HW237200   2.023   2.775   1.175  0.5193  0.5418  0.0175
 8580SOL     OW37201   0.374   3.225   1.854  0.2567 -0.2231 -0.3123
 8580SOL    HW137202   0.442   3.198   1.793  2.4621  1.2275  1.5140
 8580SOL    HW237203   0.397   3.169   1.928 -1.6614  2.2740  2.1845
 8581SOL     OW37204   2.848   1.201   5.657 -0.0622 -0.0897 -0.1369
 8581SOL    HW137205   2.883   1.289   5.665  1.2223 -0.7446  1.4947
 8581SOL    HW237206   2.927   1.155   5.631 -1.3530 -2.1750 -0.4330
 8582SOL     OW37207   2.920   4.059   5.670 -0.4555  0.9359  0.0661
 8582SOL    HW137208   2.987   4.006   5.626 -1.0652  0.9108 -0.8403
 8582SOL    HW237209   2.842   4.049   5.616  0.5556 -1.6267 -0.8953
 8583SOL     OW37210   1.501   1.142   3.701 -0.2719  0.3336  0.7758
 8583SOL    HW137211   1.514   1.123   3.609  1.7493  1.7400  0.7859
 8583SOL    HW237212   1.527   1.232   3.683 -1.9333  0.7440  0.4372
 8584SOL     OW37213   0.071   3.303  10.598  0.3446  0.9333  0.0371
 8584SOL    HW137214   0.017   3.297  10.677 -1.2806 -0.6565 -1.1797
 8584SOL    HW237215   0.014   3.329  10.526  1.1050 -0.6314 -1.1209
 8585SOL     OW37216   1.806   4.699   6.078  0.4958  0.2325  0.2534
 8585SOL    HW137217   1.760   0.061   6.100 -0.0963  0.6811 -2.6559
 8585SOL    HW237218   1.864   0.009   6.007  0.7577 -0.5175  0.1648
 8586SOL     OW37219   0.595   4.640   3.584 -0.1869 -0.2724 -0.2299
 8586SOL    HW137220   0.630   4.622   3.496  2.9170 -2.3673  1.4543
 8586SOL    HW237221   0.530   4.706   3.559 -0.8381 -0.2378  1.6060
 8587SOL     OW37222   0.461   4.668  12.700 -0.0275  0.2012  0.1506
 8587SOL    HW137223   0.515   4.664  12.779  0.2650 -2.4512 -0.1713
 8587SOL    HW237224   0.496   0.023  12.649 -1.5463 -0.1305 -1.3771
 8588SOL     OW37225   3.033   2.153   6.977 -0.0659  0.0935  0.3120
 8588SOL    HW137226   2.985   2.223   6.933 -0.0009 -1.1832 -1.7776
 8588SOL    HW237227   2.954   2.102   6.996 -0.3913  0.0192 -1.2858
 8589SOL     OW37228   3.504   1.986  12.152  0.9325  0.1438 -0.1404
 8589SOL    HW137229   3.474   2.006  12.240 -1.8021 -1.4320 -0.7219
 8589SOL    HW237230   3.569   2.056  12.147 -0.6372  1.5321 -1.1958
 8590SOL     OW37231   0.128   3.072   7.696  0.0094 -0.5894 -0.2101
 8590SOL    HW137232   0.195   3.005   7.709 -0.8562 -1.6606 -1.4061
 8590SOL    HW237233   0.055   3.023   7.659  0.4314 -1.1563 -0.2830
 8591SOL     OW37234   2.153   3.142  13.551 -0.5359 -0.1182  0.6954
 8591SOL    HW137235   2.217   3.105  13.489 -0.6400  0.8841 -0.0241
 8591SOL    HW237236   2.207   3.218  13.574  0.6190 -0.9411  0.7331
 8592SOL     OW37237   0.091   4.176   2.093 -0.2322  0.1501 -0.1594
 8592SOL    HW137238   0.139   4.225   2.026 -0.2645  1.3917  0.7241
 8592SOL    HW237239   0.134   4.186   2.178 -0.7298  1.1026 -0.0207
 8593SOL     OW37240   4.321   3.032   6.021  0.5355  0.1917  0.7381
 8593SOL    HW137241   4.250   2.993   6.071 -1.1633  1.9869 -0.2586
 8593SOL    HW237242   4.299   3.125   6.028  1.4330  0.4660 -0.0558
 8594SOL     OW37243   0.171   4.264   9.058 -0.0948  0.7986  0.2198
 8594SOL    HW137244   0.226   4.327   9.105 -0.5306  0.8520  0.6524
 8594SOL    HW237245   0.116   4.233   9.130 -0.6773  1.0422 -0.1197
 8595SOL     OW37246   0.139   4.293   5.864 -0.0165 -0.2425 -0.5994
 8595SOL    HW137247   0.193   4.345   5.923 -1.0976  1.8237 -1.4215
 8595SOL    HW237248   0.074   4.275   5.932  0.5703 -0.2580 -0.0464
 8596SOL     OW37249   2.707   0.405   7.975  0.0208 -0.1224 -0.3757
 8596SOL    HW137250   2.678   0.336   7.915 -0.7380  0.0269 -0.1807
 8596SOL    HW237251   2.633   0.466   7.970  0.5358  0.3421 -2.2865
 8597SOL     OW37252   3.536   3.923   4.994 -0.0467 -0.4317  0.2932
 8597SOL    HW137253   3.513   3.840   5.037 -3.0339 -0.4177 -1.2415
 8597SOL    HW237254   3.612   3.890   4.946 -0.4377  0.7034 -1.0943
 8598SOL     OW37255   4.606   3.044  12.210  0.0014 -0.1311 -0.1859
 8598SOL    HW137256   4.601   2.984  12.136  0.2535 -0.0801 -0.2458
 8598SOL    HW237257   4.700   3.062  12.213  0.2799 -2.3517  4.1301
 8599SOL     OW37258   1.899   4.557   2.805 -0.3718 -0.1903 -0.4663
 8599SOL    HW137259   1.919   4.550   2.898 -1.1992 -1.3880 -0.3747
 8599SOL    HW237260   1.854   4.472   2.804  1.1207 -0.9929 -0.4163
 8600SOL     OW37261   4.312   1.318   4.999  0.0844 -0.2481  0.2258
 8600SOL    HW137262   4.297   1.258   5.072  1.8909 -1.3915 -0.3311
 8600SOL    HW237263   4.392   1.364   5.025 -0.0315  1.0881 -1.7241
 8601SOL     OW37264   1.466   4.700   1.019  0.2641  0.4319  0.2225
 8601SOL    HW137265   1.552   4.662   1.035 -0.6943 -1.2950  1.1867
 8601SOL    HW237266   1.406   4.629   0.998 -0.9013  0.9164  1.9430
 8602SOL     OW37267   0.012   1.058   9.034  0.3528 -0.3899  0.3754
 8602SOL    HW137268   0.068   1.119   8.985  2.6330 -3.7512 -1.1598
 8602SOL    HW237269   4.715   1.107   9.115 -0.8461  0.2364 -0.2257
 8603SOL     OW37270   0.034   3.067   4.154  0.1687  0.2373  0.2567
 8603SOL    HW137271   0.088   3.087   4.077  0.8314 -2.2856  0.0798
 8603SOL    HW237272   0.034   3.154   4.194 -0.6863 -0.0727  0.9270
 8604SOL     OW37273   4.453   3.951  12.433 -0.2645 -0.0023 -0.1061
 8604SOL    HW137274   4.474   4.028  12.381 -2.0289  1.2778  1.0925
 8604SOL    HW237275   4.366   3.933  12.398  0.3484 -0.9258 -1.1616
 8605SOL     OW37276   1.679   2.214   4.093  0.1212  0.6496 -0.3214
 8605SOL    HW137277   1.624   2.287   4.065 -0.8845  0.1097  0.2639
 8605SOL    HW237278   1.643   2.192   4.179  0.7472 -0.0569 -0.2402
 8606SOL     OW37279   2.376   2.315   0.131  0.5799  0.5247 -0.2594
 8606SOL    HW137280   2.294   2.362   0.116  1.3822  2.2965  0.9042
 8606SOL    HW237281   2.351   2.230   0.095  1.2272 -1.2384  3.4318
 8607SOL     OW37282   4.557   2.348   8.902 -0.0106  0.3847  0.0440
 8607SOL    HW137283   4.557   2.284   8.973  0.0725  0.8749  0.4800
 8607SOL    HW237284   4.599   2.292   8.836  1.2502  2.0646 -0.6022
 8608SOL     OW37285   2.399   0.636  10.972  0.4406 -0.1793  0.0389
 8608SOL    HW137286   2.442   0.721  10.959  1.6029 -0.5483  1.5444
 8608SOL    HW237287   2.475   0.595  11.014 -0.4791 -0.9711  0.9124
 8609SOL     OW37288   1.692   0.273   4.444 -0.1593  0.1113 -0.7341
 8609SOL    HW137289   1.608   0.303   4.410 -0.1345 -0.1856 -1.0548
 8609SOL    HW237290   1.669   0.196   4.496  1.4324 -0.9915 -1.6796
 8610SOL     OW37291   3.041   4.197   9.622  0.6276 -0.3382 -0.5542
 8610SOL    HW137292   3.007   4.157   9.542 -0.7230 -1.2293  0.4491
 8610SOL    HW237293   3.028   4.123   9.683 -1.1213 -0.8596 -1.5614
 8611SOL     OW37294   2.938   0.506   7.712  0.6692 -0.0359  0.0249
 8611SOL    HW137295   2.951   0.487   7.805  1.4142 -0.7719 -0.2326
 8611SOL    HW237296   2.857   0.557   7.702  1.3309  0.3184 -3.4546
 8612SOL     OW37297   3.181   0.669  14.357 -0.1622  0.1467 -0.5205
 8612SOL    HW137298   3.264   0.692  14.315 -0.5531 -0.2330 -1.4858
 8612SOL    HW237299   3.132   0.642  14.280 -1.5453 -0.2041  0.4854
 8613SOL     OW37300   4.307   3.965   1.558 -0.5019  0.3580  0.2886
 8613SOL    HW137301   4.323   3.907   1.633  0.8804  0.8464  0.3799
 8613SOL    HW237302   4.312   3.905   1.483 -0.6507  2.2539 -1.2227
 8614SOL     OW37303   1.629   4.186   7.841  0.6646 -0.4083 -0.1499
 8614SOL    HW137304   1.573   4.263   7.855  2.9892  1.3707 -0.6221
 8614SOL    HW237305   1.713   4.223   7.869 -0.2363  1.3011  0.3264
 8615SOL     OW37306   0.366   2.177   7.573 -0.3928  0.1826  0.9517
 8615SOL    HW137307   0.324   2.119   7.510  0.7833 -0.4913  0.8001
 8615SOL    HW237308   0.436   2.122   7.607 -1.7434 -2.6943 -0.9220
 8616SOL     OW37309   3.488   2.693   5.469 -0.0411 -0.5921  0.4423
 8616SOL    HW137310   3.549   2.636   5.423 -0.5135 -0.4023 -0.4223
 8616SOL    HW237311   3.403   2.692   5.425  1.2986  0.9496 -2.1482
 8617SOL     OW37312   1.455   2.616   8.402 -0.0076 -0.3776  0.3639
 8617SOL    HW137313   1.397   2.619   8.326 -1.3623  1.4798  1.4702
 8617SOL    HW237314   1.395   2.564   8.454 -2.5047  1.1516 -0.9738
 8618SOL     OW37315   1.148   0.403   7.427 -0.1469 -0.1144  0.4070
 8618SOL    HW137316   1.170   0.449   7.346  2.0636  0.8678  1.5792
 8618SOL    HW237317   1.098   0.469   7.475  0.1733 -0.6593  1.4848
 8619SOL     OW37318   0.326   0.635   0.581 -0.3428  0.2401 -0.3248
 8619SOL    HW137319   0.261   0.572   0.611 -2.7519  4.3010  3.0054
 8619SOL    HW237320   0.298   0.710   0.634  1.7858 -0.1106  1.3184
 8620SOL     OW37321   4.407   4.385   6.654 -0.1447  0.3070  0.0361
 8620SOL    HW137322   4.494   4.415   6.627 -0.2566  0.1452 -0.4935
 8620SOL    HW237323   4.400   4.427   6.741 -1.0741  2.0399 -0.8672
 8621SOL     OW37324   2.012   0.281  16.265 -0.5119 -0.2595  0.2275
 8621SOL    HW137325   2.086   0.286  16.204 -0.6489  1.0889  0.1682
 8621SOL    HW237326   2.046   0.340  16.333 -2.3628  0.1007  0.8320
 8622SOL     OW37327   3.804   1.505   5.462  0.6744 -0.1132  0.1659
 8622SOL    HW137328   3.827   1.578   5.404 -1.3554  0.2508 -0.1808
 8622SOL    HW237329   3.882   1.451   5.448  0.1250 -1.1761  1.1546
 8623SOL     OW37330   0.833   0.807   5.314  0.2023  0.3156 -0.7594
 8623SOL    HW137331   0.913   0.827   5.363 -0.7366 -1.0783  1.3372
 8623SOL    HW237332   0.768   0.804   5.384  0.3985 -0.2811 -0.6080
 8624SOL     OW37333   2.255   3.619   8.135 -0.0897 -0.3515  0.2060
 8624SOL    HW137334   2.317   3.658   8.197 -0.5640 -2.1634  1.8545
 8624SOL    HW237335   2.176   3.620   8.189  0.4331  0.1211  0.9765
 8625SOL     OW37336   0.718   3.862   1.092  0.3797 -0.4128 -0.0864
 8625SOL    HW137337   0.739   3.770   1.107  0.1106 -0.3825  0.4626
 8625SOL    HW237338   0.782   3.885   1.024 -0.9855  3.2778 -0.0843
 8626SOL     OW37339   3.102   0.343   2.513 -0.6294  0.0367  0.3954
 8626SOL    HW137340   3.144   0.312   2.433  2.2258  1.3969  1.3649
 8626SOL    HW237341   3.052   0.271   2.550 -1.9752 -0.0130 -1.4818
 8627SOL     OW37342   2.508   2.353   1.067  0.2769  0.4102 -0.2969
 8627SOL    HW137343   2.536   2.438   1.033 -1.4751  0.2019 -2.3160
 8627SOL    HW237344   2.571   2.343   1.138 -1.1357 -0.9682  0.7670
 8628SOL     OW37345   2.969   2.835   0.843 -0.2851 -0.1668  0.3732
 8628SOL    HW137346   2.992   2.744   0.825  0.3474 -0.0131  0.4250
 8628SOL    HW237347   2.933   2.853   0.756 -1.7748 -1.2662  0.7659
 8629SOL     OW37348   3.828   0.892  13.446 -0.0475 -0.0766  0.2614
 8629SOL    HW137349   3.895   0.902  13.378 -0.8452  1.7399 -0.2549
 8629SOL    HW237350   3.852   0.967  13.500  2.5266  1.6943 -3.3009
 8630SOL     OW37351   4.663   0.201   7.707  0.1547  0.6802  0.4717
 8630SOL    HW137352   0.029   0.156   7.713 -0.0263 -0.0762 -2.5737
 8630SOL    HW237353   4.602   0.127   7.710  1.2499 -0.3357 -2.2526
 8631SOL     OW37354   4.707   2.378   8.255 -0.6123 -0.2305  0.8791
 8631SOL    HW137355   4.644   2.445   8.231 -1.1982  0.2978  3.9178
 8631SOL    HW237356   4.643   2.320   8.294 -0.0726 -0.2796  1.6834
 8632SOL     OW37357   1.980   0.453   9.711 -0.1378  0.0011 -0.4773
 8632SOL    HW137358   1.939   0.402   9.641 -1.1544  0.5272 -0.2604
 8632SOL    HW237359   2.064   0.465   9.666 -0.1930  5.2874  0.8419
 8633SOL     OW37360   3.980   2.412   4.133 -0.2144 -0.4812  0.1161
 8633SOL    HW137361   3.984   2.494   4.085  0.8079  0.0247  1.0859
 8633SOL    HW237362   3.993   2.443   4.223 -0.2532  1.9344 -0.7274
 8634SOL     OW37363   4.546   0.396  10.355 -0.0880  0.6029  0.1697
 8634SOL    HW137364   4.527   0.470  10.413 -2.2034 -1.4732  2.1221
 8634SOL    HW237365   4.484   0.332  10.390  0.5633 -0.0342  0.1525
 8635SOL     OW37366   3.794   2.256   8.147 -0.2206 -0.0021 -0.2741
 8635SOL    HW137367   3.852   2.249   8.222 -0.9038  0.0027  0.2482
 8635SOL    HW237368   3.837   2.321   8.091 -0.2667 -0.0822 -0.4033
 8636SOL     OW37369   0.550   4.665   4.480  0.3445  0.0632 -0.1827
 8636SOL    HW137370   0.555   4.602   4.408  0.2876  0.9601 -0.9869
 8636SOL    HW237371   0.456   4.673   4.496  0.2808  2.0766 -1.5231
 8637SOL     OW37372   0.887   4.239   1.267 -0.0777 -0.0986  0.2894
 8637SOL    HW137373   0.944   4.215   1.194  1.3485  2.7438  0.5058
 8637SOL    HW237374   0.941   4.287   1.330 -3.2020  0.1650  2.7835
 8638SOL     OW37375   2.799   0.718   9.444  0.2416 -0.6657 -0.2249
 8638SOL    HW137376   2.762   0.638   9.407 -1.8496  0.5608 -0.7706
 8638SOL    HW237377   2.810   0.684   9.533 -0.5229  1.3357  0.6427
 8639SOL     OW37378   1.050   4.055   2.198  0.3217 -0.2120 -0.3096
 8639SOL    HW137379   1.092   4.141   2.199  0.4645 -0.3064  2.1368
 8639SOL    HW237380   0.998   4.060   2.118 -1.2081  1.3855  0.7982
 8640SOL     OW37381   3.630   3.577   0.639  0.0379  0.2070  0.5166
 8640SOL    HW137382   3.555   3.551   0.587  1.8636 -1.9803 -1.0359
 8640SOL    HW237383   3.619   3.524   0.718  2.1853 -0.8907  0.0731
 8641SOL     OW37384   3.044   2.179   9.235  0.1791  0.0436  0.1403
 8641SOL    HW137385   2.973   2.167   9.172 -0.0202  1.0509  0.1808
 8641SOL    HW237386   3.015   2.110   9.295  1.7176  0.0066  0.8174
 8642SOL     OW37387   0.953   2.907   5.621  0.5264  0.5443  0.1148
 8642SOL    HW137388   0.913   2.986   5.584  0.7985 -0.2116 -1.7393
 8642SOL    HW237389   1.018   2.938   5.684  0.5343 -1.0616  0.8767
 8643SOL     OW37390   1.319   0.614  12.970 -0.3429  0.1908 -0.2723
 8643SOL    HW137391   1.256   0.684  12.954  0.1991  0.7876  0.1891
 8643SOL    HW237392   1.398   0.651  12.930  0.6416 -1.6166  0.0074
 8644SOL     OW37393   1.739   2.747  10.796 -0.4153  0.1758 -0.0347
 8644SOL    HW137394   1.805   2.814  10.777  0.6467 -1.8463 -3.4292
 8644SOL    HW237395   1.737   2.701  10.712 -1.7885  0.1721 -0.0087
 8645SOL     OW37396   0.070   1.805   5.149 -0.3585 -0.0200  0.2987
 8645SOL    HW137397   0.137   1.739   5.130 -0.2338 -0.0703  0.8896
 8645SOL    HW237398   0.036   1.801   5.060  2.0977 -0.6415 -0.6247
 8646SOL     OW37399   2.280   2.482  12.545 -0.0520  0.4033 -0.0066
 8646SOL    HW137400   2.209   2.454  12.487 -1.1885 -0.4199  1.7571
 8646SOL    HW237401   2.249   2.425  12.616 -1.9555  1.8421  0.3111
 8647SOL     OW37402   4.188   4.121   0.865  0.3598  0.4124 -0.9920
 8647SOL    HW137403   4.265   4.133   0.810  0.5145 -1.2866 -1.1408
 8647SOL    HW237404   4.157   4.032   0.853 -2.0014  0.7513  2.5541
 8648SOL     OW37405   0.782   2.027   2.814 -0.3439  0.4983  0.2615
 8648SOL    HW137406   0.760   2.074   2.734 -0.0621  1.2692  0.6346
 8648SOL    HW237407   0.795   1.940   2.775 -0.4634  0.5662  0.0721
 8649SOL     OW37408   1.379   2.069   7.771 -0.2908 -0.7112  0.0189
 8649SOL    HW137409   1.448   2.133   7.750  0.7145 -1.3851  1.2218
 8649SOL    HW237410   1.362   2.019   7.692 -1.6422 -1.6041  0.8908
 8650SOL     OW37411   3.373   3.287   1.964 -0.6864 -0.3624  0.6995
 8650SOL    HW137412   3.287   3.314   1.932  0.6881  2.5910 -0.5480
 8650SOL    HW237413   3.421   3.275   1.881 -2.5284  1.5225 -0.6408
 8651SOL     OW37414   3.777   0.532  15.168  0.1675 -0.3375 -0.2315
 8651SOL    HW137415   3.829   0.457  15.139  2.0092  1.3538 -1.2567
 8651SOL    HW237416   3.698   0.516  15.118  0.2919  1.7631 -1.0933
 8652SOL     OW37417   1.557   0.986   2.234 -0.4525 -0.2601 -0.8712
 8652SOL    HW137418   1.572   0.892   2.244 -0.9122 -0.1053  1.3275
 8652SOL    HW237419   1.508   0.987   2.317  1.3357 -0.6858  0.1858
 8653SOL     OW37420   3.995   0.431  15.606 -0.0882  0.1054  0.3481
 8653SOL    HW137421   4.039   0.442  15.522  0.3788  0.6299  0.6574
 8653SOL    HW237422   3.908   0.469  15.593  0.7454  0.9595 -2.6436
 8654SOL     OW37423   2.344   0.514   6.337 -1.0909 -0.2235  0.5107
 8654SOL    HW137424   2.257   0.525   6.377  0.2175  2.6343  2.5825
 8654SOL    HW237425   2.338   0.423   6.308  0.8158  0.1883 -1.1299
 8655SOL     OW37426   2.277   3.874  12.214  0.6017 -0.4737 -0.4594
 8655SOL    HW137427   2.238   3.865  12.301 -0.5562  1.5826 -0.7570
 8655SOL    HW237428   2.372   3.876  12.229  0.5363 -2.0879  0.2446
 8656SOL     OW37429   0.601   3.290   4.839  0.0659 -0.1747 -0.4057
 8656SOL    HW137430   0.630   3.372   4.798  1.6131  0.4649  1.9937
 8656SOL    HW237431   0.640   3.222   4.784  1.2296 -0.3984  0.7085
 8657SOL     OW37432   0.273   2.785  13.284 -0.6974 -0.6405  0.0764
 8657SOL    HW137433   0.361   2.817  13.304  0.2396 -3.4525  0.5203
 8657SOL    HW237434   0.221   2.865  13.283  0.4393  0.1307  2.7830
 8658SOL     OW37435   2.794   1.422   9.783  0.2767 -0.2718 -0.4627
 8658SOL    HW137436   2.783   1.516   9.798  3.4206  0.3151 -1.8918
 8658SOL    HW237437   2.825   1.388   9.866 -0.5197 -0.1745 -0.1252
 8659SOL     OW37438   2.423   4.578   6.559 -0.4257 -0.0277  0.7094
 8659SOL    HW137439   2.406   4.485   6.548  3.7325 -0.7905  0.7504
 8659SOL    HW237440   2.344   4.620   6.523  0.4428 -0.3471 -1.6004
 8660SOL     OW37441   4.528   3.968   1.894  0.3688  0.1863 -0.3928
 8660SOL    HW137442   4.516   4.047   1.841  1.0508  0.6016  0.0727
 8660SOL    HW237443   4.480   3.908   1.838  1.3048 -1.6318  0.7290
 8661SOL     OW37444   1.777   2.484  12.822 -0.1732  0.4222  0.1843
 8661SOL    HW137445   1.784   2.424  12.896 -0.5269  1.7018  1.2512
 8661SOL    HW237446   1.708   2.444  12.768 -0.6592 -0.2958  1.3514
 8662SOL     OW37447   0.645   1.536  15.574  0.1187  0.5809  0.5130
 8662SOL    HW137448   0.613   1.533  15.664  0.0379  1.1611  0.5073
 8662SOL    HW237449   0.581   1.595  15.532 -0.4914  0.9638  1.9701
 8663SOL     OW37450   2.204   1.766   4.021  0.2157  0.2972 -0.9115
 8663SOL    HW137451   2.276   1.703   4.015 -0.3074 -0.4183  0.2491
 8663SOL    HW237452   2.179   1.782   3.930 -3.0847 -1.1505 -0.2573
 8664SOL     OW37453   0.391   0.988   0.586  0.3364  0.2437 -0.1288
 8664SOL    HW137454   0.437   1.030   0.659 -1.2172  0.3854  0.7575
 8664SOL    HW237455   0.361   0.905   0.622 -1.4462  1.1466  0.4826
 8665SOL     OW37456   1.938   0.116  16.505 -0.4041 -0.5569  0.3123
 8665SOL    HW137457   1.911   0.042  16.451 -1.3727 -0.9000  1.2740
 8665SOL    HW237458   1.931   0.190  16.446 -1.5859 -0.0038  1.1527
 8666SOL     OW37459   2.729   1.130   3.173 -0.1002  0.1198 -0.1102
 8666SOL    HW137460   2.809   1.177   3.147 -0.3178 -0.3631 -1.6061
 8666SOL    HW237461   2.675   1.138   3.095 -0.3369 -1.3067 -0.0823
 8667SOL     OW37462   0.435   2.463  16.954 -0.2520  0.1753 -0.2312
 8667SOL    HW137463   0.370   2.404  16.918 -0.6730 -0.0661  0.9280
 8667SOL    HW237464   0.368   2.530  16.968 -0.5253 -0.8666  3.5672
 8668SOL     OW37465   3.366   1.852   2.965  0.0876 -0.3603 -0.1989
 8668SOL    HW137466   3.322   1.890   2.889  0.0443  0.3102  0.1573
 8668SOL    HW237467   3.431   1.794   2.925  0.3233 -0.5066  0.3957
 8669SOL     OW37468   2.254   2.584   1.172  0.1178  0.3384  0.3272
 8669SOL    HW137469   2.179   2.638   1.198 -0.3794  0.9445 -2.3966
 8669SOL    HW237470   2.311   2.578   1.249  0.5333 -1.1978 -0.1022
 8670SOL     OW37471   4.269   0.383   5.429  0.3847 -0.8233  0.1117
 8670SOL    HW137472   4.291   0.360   5.519  0.9182 -0.4758  0.0697
 8670SOL    HW237473   4.182   0.422   5.438  0.1122 -0.9862 -1.7229
 8671SOL     OW37474   2.861   4.441   7.660 -0.0889 -0.1119 -0.2744
 8671SOL    HW137475   2.800   4.394   7.716 -1.6812  0.6560 -1.3448
 8671SOL    HW237476   2.800   4.485   7.600 -1.3416 -0.2599  0.8831
 8672SOL     OW37477   3.146   2.750   1.487  0.3713  0.2187 -0.4984
 8672SOL    HW137478   3.083   2.721   1.420 -2.9356  1.2189  2.1752
 8672SOL    HW237479   3.094   2.779   1.561  1.2244 -0.9215  0.5438
 8673SOL     OW37480   1.190   4.179  10.044 -0.7919  0.0203 -0.2163
 8673SOL    HW137481   1.212   4.213  10.131 -0.3196  1.5715 -0.9400
 8673SOL    HW237482   1.105   4.137  10.058 -0.6493 -0.5155 -0.9672
 8674SOL     OW37483   1.949   0.235  15.268  0.7488  0.4214  0.1793
 8674SOL    HW137484   2.035   0.253  15.307  0.4146 -0.3518  1.2990
 8674SOL    HW237485   1.959   0.141  15.252  1.1082  0.4809  0.0424
 8675SOL     OW37486   0.971   1.707   8.630  0.0842 -0.1882 -0.4867
 8675SOL    HW137487   0.930   1.762   8.563  3.7122 -0.7463 -3.2269
 8675SOL    HW237488   1.025   1.770   8.679 -0.0257 -2.6179  2.7586
 8676SOL     OW37489   3.779   3.527  11.141 -0.2820 -0.6274  0.0621
 8676SOL    HW137490   3.721   3.593  11.177  1.0609  0.7348 -0.3060
 8676SOL    HW237491   3.715   3.464  11.108 -0.3092 -0.7485  0.3451
 8677SOL     OW37492   4.093   3.888   3.104  0.1988  0.8659 -0.0374
 8677SOL    HW137493   4.075   3.876   3.010  0.8494 -1.3919  0.1273
 8677SOL    HW237494   4.025   3.832   3.142  1.5307 -2.1766 -2.0551
 8678SOL     OW37495   1.768   1.234  15.391  0.1871 -0.4867 -0.1147
 8678SOL    HW137496   1.800   1.180  15.319 -1.5627  0.5108 -1.6331
 8678SOL    HW237497   1.843   1.284  15.423  0.6083 -0.3000 -1.4000
 8679SOL     OW37498   0.943   2.474   7.466 -0.3064  0.3008  0.4626
 8679SOL    HW137499   0.855   2.507   7.482 -0.5033 -0.4034  0.8191
 8679SOL    HW237500   0.997   2.553   7.474  2.0355 -1.5505  3.1416
 8680SOL     OW37501   4.442   3.656   0.042 -0.6177 -0.3391  0.1424
 8680SOL    HW137502   4.449   3.597  17.643 -2.4644 -0.8931  0.3963
 8680SOL    HW237503   4.533   3.646   0.072 -0.6442  1.5482  0.8356
 8681SOL     OW37504   4.233   0.245   3.457  0.2095 -0.1911 -0.0104
 8681SOL    HW137505   4.167   0.218   3.522  1.4005  2.5614  2.3505
 8681SOL    HW237506   4.192   0.326   3.427  1.0882 -0.6869 -2.5226
 8682SOL     OW37507   3.832   2.383   3.896  0.1110 -0.0758 -0.3694
 8682SOL    HW137508   3.887   2.398   3.819  0.6434  0.9827  0.2182
 8682SOL    HW237509   3.891   2.355   3.966  0.5079  2.7322  0.4022
 8683SOL     OW37510   1.112   2.184   3.524 -0.5504 -0.3164  0.0780
 8683SOL    HW137511   1.191   2.230   3.494 -1.4211  1.8188  1.0466
 8683SOL    HW237512   1.040   2.247   3.513 -1.0760 -1.0768 -0.7780
 8684SOL     OW37513   0.869   2.324   4.368  0.5655 -0.2834 -0.2280
 8684SOL    HW137514   0.899   2.345   4.456 -1.6729  1.4905  0.1083
 8684SOL    HW237515   0.903   2.235   4.362  0.3812 -0.4384  1.0555
 8685SOL     OW37516   0.618   3.157   8.308 -0.1293 -0.1489 -0.3856
 8685SOL    HW137517   0.707   3.129   8.288  0.8024  1.9419  0.7550
 8685SOL    HW237518   0.606   3.103   8.386  1.5623 -1.8151 -1.2847
 8686SOL     OW37519   0.288   1.823   8.817 -0.1186  0.2194 -0.0102
 8686SOL    HW137520   0.239   1.742   8.799  0.0763 -0.2015  1.3479
 8686SOL    HW237521   0.352   1.810   8.886  1.2944  1.9682 -1.0023
 8687SOL     OW37522   1.361   3.560   4.073 -0.0829  0.3806 -0.3836
 8687SOL    HW137523   1.296   3.567   4.143 -0.8846 -4.5151 -0.6303
 8687SOL    HW237524   1.305   3.503   4.020 -1.2987  0.9210  0.3235
 8688SOL     OW37525   1.383   1.387  16.658  0.2728 -0.2564  0.1802
 8688SOL    HW137526   1.382   1.395  16.563  1.6638  2.0185  0.3367
 8688SOL    HW237527   1.404   1.473  16.696 -1.0300  0.0078  0.3202
 8689SOL     OW37528   4.481   1.517   2.883  0.3439  0.5944 -0.2150
 8689SOL    HW137529   4.544   1.467   2.935 -1.5950 -0.5929  1.0147
 8689SOL    HW237530   4.440   1.563   2.956  2.2183  2.5870 -0.4203
 8690SOL     OW37531   4.262   0.509   8.217 -0.4050 -0.0670 -0.3322
 8690SOL    HW137532   4.242   0.433   8.273 -0.9605  0.4997  0.2413
 8690SOL    HW237533   4.354   0.492   8.196 -0.5093 -0.6975 -0.2807
 8691SOL     OW37534   0.071   1.667   4.287 -0.2547 -0.2633  0.1677
 8691SOL    HW137535   0.165   1.682   4.276 -0.6637  1.4949 -0.9523
 8691SOL    HW237536   0.038   1.740   4.234  1.3839 -0.5695 -1.2991
 8692SOL     OW37537   4.312   2.868   4.502  0.1576 -0.3459  0.0589
 8692SOL    HW137538   4.355   2.912   4.575 -0.6253  0.9163 -0.2386
 8692SOL    HW237539   4.296   2.935   4.436 -1.3923 -1.0928 -0.3500
 8693SOL     OW37540   1.377   2.335   2.690 -0.1542  0.0608 -0.5153
 8693SOL    HW137541   1.387   2.333   2.595  1.5501  0.2901 -0.3402
 8693SOL    HW237542   1.368   2.243   2.716 -0.9854  0.5586  0.9984
 8694SOL     OW37543   0.106   4.568   8.055 -0.6760  0.4189  0.0588
 8694SOL    HW137544   0.108   4.567   8.151 -0.6282  0.1189  0.0546
 8694SOL    HW237545   0.128   4.660   8.042 -1.7862  0.7808  0.6916
 8695SOL     OW37546   3.115   3.564  10.788  0.9627 -0.0934  0.3396
 8695SOL    HW137547   3.180   3.635  10.789 -0.8194  1.6127 -3.6659
 8695SOL    HW237548   3.054   3.607  10.728  0.4198 -1.1140  0.1654
 8696SOL     OW37549   1.053   2.934  12.572  0.0247 -0.0088 -0.7796
 8696SOL    HW137550   1.068   2.975  12.486 -1.0638 -0.1171 -1.0195
 8696SOL    HW237551   1.039   3.005  12.635  0.2250 -1.5362  0.9675
 8697SOL     OW37552   3.363   2.504   9.706  0.1100 -0.5404 -0.2046
 8697SOL    HW137553   3.289   2.494   9.647 -1.0211 -2.0859  1.4623
 8697SOL    HW237554   3.413   2.425   9.685 -0.5943 -1.2352  0.7176
 8698SOL     OW37555   1.014   4.656   5.114  0.1643  0.3838  0.4895
 8698SOL    HW137556   0.963   4.604   5.051 -1.5726  1.4198  1.0285
 8698SOL    HW237557   1.028   0.026   5.081 -2.0543  1.2560  1.8908
 8699SOL     OW37558   2.473   0.474   4.389 -0.6376 -0.2456 -0.3268
 8699SOL    HW137559   2.474   0.468   4.294  1.6488 -0.8964 -0.2793
 8699SOL    HW237560   2.382   0.495   4.411 -0.8580 -1.3564 -0.1348
 8700SOL     OW37561   0.853   4.423   7.313  0.4434  0.3817 -0.5433
 8700SOL    HW137562   0.763   4.446   7.333  0.8251  0.4116  1.1666
 8700SOL    HW237563   0.897   4.503   7.287  0.4450  0.9964  1.3286
 8701SOL     OW37564   0.695   2.945   3.331  0.4322  0.1849  0.4534
 8701SOL    HW137565   0.738   2.860   3.322 -0.3183 -0.2388  0.8444
 8701SOL    HW237566   0.772   3.001   3.331  0.3802  0.2612 -0.6861
 8702SOL     OW37567   2.281   4.451   8.093 -0.3339 -0.2721 -0.3924
 8702SOL    HW137568   2.269   4.366   8.049  1.7699 -0.6117 -0.3054
 8702SOL    HW237569   2.370   4.470   8.065 -0.4336 -0.4567 -0.8385
 8703SOL     OW37570   3.132   2.273   0.020 -0.4073  0.4045 -0.2335
 8703SOL    HW137571   3.226   2.289   0.017 -0.1811 -1.1883 -1.3549
 8703SOL    HW237572   3.142   2.181  17.672  0.7677  0.8494 -1.4272
 8704SOL     OW37573   0.104   0.587   0.966 -0.0922  0.4647 -0.1008
 8704SOL    HW137574   0.190   0.628   0.975 -0.9196  2.5003 -1.4512
 8704SOL    HW237575   0.101   0.550   0.878 -2.5018  0.6115 -0.0813
 8705SOL     OW37576   2.580   0.078   1.226  0.0610  0.3620  0.1425
 8705SOL    HW137577   2.579   0.037   1.139 -3.0885  0.5873  0.0789
 8705SOL    HW237578   2.671   0.071   1.257  1.6271  2.2301 -4.0071
 8706SOL     OW37579   0.298   2.152   0.164 -0.5456  0.6473 -0.6347
 8706SOL    HW137580   0.229   2.149   0.231  1.0020 -0.3044  0.9032
 8706SOL    HW237581   0.367   2.195   0.215 -0.0460 -1.6504  0.6148
 8707SOL     OW37582   1.067   2.339   3.796 -0.0264 -0.0178  0.4488
 8707SOL    HW137583   1.029   2.426   3.783  2.3813  0.9699  0.0476
 8707SOL    HW237584   1.042   2.320   3.886 -1.3258 -0.8300 -0.0640
 8708SOL     OW37585   4.594   3.728   2.447 -0.0033 -0.1281  0.0232
 8708SOL    HW137586   4.668   3.731   2.385 -0.3264  3.1221 -0.2322
 8708SOL    HW237587   4.638   3.695   2.525 -2.1148  0.4853  1.4541
 8709SOL     OW37588   1.372   0.996   8.737  0.5226  0.2171  0.2335
 8709SOL    HW137589   1.353   0.974   8.828  2.0044 -0.4649  0.3672
 8709SOL    HW237590   1.464   1.012   8.753  0.4896  0.1073  0.5312
 8710SOL     OW37591   2.924   1.546   2.575 -0.2732 -0.5049  0.2016
 8710SOL    HW137592   2.985   1.558   2.647 -0.7322  0.3767  0.4380
 8710SOL    HW237593   2.943   1.618   2.515  0.1329 -0.3895  0.4720
 8711SOL     OW37594   2.290   3.404  13.636 -0.3862 -0.2774  0.0658
 8711SOL    HW137595   2.274   3.364  13.721  1.6518 -1.0454  0.1022
 8711SOL    HW237596   2.332   3.488  13.655  1.1935 -0.7883 -1.1282
 8712SOL     OW37597   0.543   0.180   5.086  0.1550 -0.1053 -0.5324
 8712SOL    HW137598   0.618   0.205   5.031  0.1949 -1.0883 -0.9126
 8712SOL    HW237599   0.509   0.268   5.104 -1.2483 -0.6912 -0.3130
 8713SOL     OW37600   0.281   3.874  12.096 -0.3623 -0.4760 -0.3601
 8713SOL    HW137601   0.234   3.841  12.020 -1.2223 -0.3663  0.1234
 8713SOL    HW237602   0.219   3.858  12.167  1.5416 -0.5829  1.2669
 8714SOL     OW37603   3.911   3.850   1.868  0.0479  0.0180  0.1888
 8714SOL    HW137604   3.941   3.901   1.793  0.2509 -1.6294 -0.8340
 8714SOL    HW237605   3.983   3.787   1.869  0.5757  0.6149  0.1343
 8715SOL     OW37606   1.587   3.086   0.963 -0.1616 -0.5477 -0.2184
 8715SOL    HW137607   1.667   3.126   0.928  1.3166 -1.5918  1.9689
 8715SOL    HW237608   1.559   3.159   1.017  0.0528 -1.4600  1.1338
 8716SOL     OW37609   0.831   1.938   4.114 -0.3415 -0.3268  0.1027
 8716SOL    HW137610   0.845   1.906   4.025  1.8433 -1.7312  0.9440
 8716SOL    HW237611   0.779   2.018   4.106  0.0285 -0.0506  0.4479
 8717SOL     OW37612   3.032   2.581   4.524  0.0256  0.2250 -0.2675
 8717SOL    HW137613   2.974   2.635   4.577 -0.0416  0.8273 -0.9553
 8717SOL    HW237614   3.000   2.494   4.546  3.8826 -1.5737 -1.6874
 8718SOL     OW37615   0.086   4.314  17.085  0.2225  1.0036  0.7874
 8718SOL    HW137616   0.143   4.371  17.136  0.1670  3.5602 -2.0037
 8718SOL    HW237617   0.150   4.290  17.018  0.6026  0.2943  1.4144
 8719SOL     OW37618   1.656   2.646  10.481  0.0680  0.1467 -0.5826
 8719SOL    HW137619   1.677   2.555  10.503 -1.7159 -0.8017 -2.7680
 8719SOL    HW237620   1.581   2.633  10.423  0.7291  1.7584 -1.7871
 8720SOL     OW37621   1.488   3.595  13.874 -0.1692  0.8741 -0.0948
 8720SOL    HW137622   1.497   3.513  13.825  0.3186  0.3954  0.7953
 8720SOL    HW237623   1.577   3.606  13.906 -0.4634 -0.0867  1.0473
 8721SOL     OW37624   0.831   2.773  16.262 -0.0263 -0.0175 -0.6646
 8721SOL    HW137625   0.869   2.685  16.263 -1.3480 -0.5888 -0.5944
 8721SOL    HW237626   0.898   2.835  16.292  0.6820 -1.8139  1.4844
 8722SOL     OW37627   4.518   3.679  14.655  0.2099  0.0116  0.5669
 8722SOL    HW137628   4.434   3.633  14.654  0.8965 -1.3569  3.9302
 8722SOL    HW237629   4.557   3.641  14.576 -0.1102 -1.4430  1.1126
 8723SOL     OW37630   1.330   2.058   2.744 -0.0245  0.0964  0.1078
 8723SOL    HW137631   1.321   2.011   2.661 -3.7539  0.1996  0.4592
 8723SOL    HW237632   1.274   2.011   2.805 -0.0123 -0.2640 -0.1594
 8724SOL     OW37633   3.827   0.168   4.264  0.1010  0.2665  0.2234
 8724SOL    HW137634   3.778   0.124   4.194 -0.5220  0.8393  0.3053
 8724SOL    HW237635   3.772   0.246   4.277  0.2131  0.5160 -0.7838
 8725SOL     OW37636   1.716   3.809   6.419  0.1008 -0.5921  0.2538
 8725SOL    HW137637   1.689   3.798   6.328 -1.5850  1.1147  0.5675
 8725SOL    HW237638   1.627   3.824   6.449 -0.6787 -2.5324 -1.1179
 8726SOL     OW37639   1.216   1.639   3.334 -0.0997  0.1272  0.3934
 8726SOL    HW137640   1.307   1.611   3.349  0.1391  0.9596  0.4835
 8726SOL    HW237641   1.227   1.724   3.291  0.7270 -0.4094 -0.4631
 8727SOL     OW37642   3.653   2.970   7.764  0.6375 -1.0402 -0.5228
 8727SOL    HW137643   3.690   3.013   7.687  0.3443  2.1996  1.1465
 8727SOL    HW237644   3.672   2.879   7.739  0.0746 -1.1340 -0.6212
 8728SOL     OW37645   3.128   1.833   8.401  0.1451  0.1016  0.3052
 8728SOL    HW137646   3.170   1.811   8.484  1.0904  1.5033  0.1993
 8728SOL    HW237647   3.112   1.927   8.409  2.1374  0.1718  3.4417
 8729SOL     OW37648   0.806   4.242  12.858  0.0109  0.1570  0.1884
 8729SOL    HW137649   0.711   4.251  12.864  0.0969  1.0511  0.2471
 8729SOL    HW237650   0.812   4.165  12.801 -1.9069 -0.3803  0.7243
 8730SOL     OW37651   0.994   0.499  15.474  0.3412 -0.0366  0.4074
 8730SOL    HW137652   0.935   0.574  15.477 -1.3816 -1.5328  3.9269
 8730SOL    HW237653   0.940   0.426  15.444  1.3834 -0.2965 -0.8422
 8731SOL     OW37654   4.591   0.044   7.020  0.2031 -0.1378  0.4961
 8731SOL    HW137655   4.624   0.026   6.932  0.5866 -1.0117  0.8157
 8731SOL    HW237656   4.671   0.050   7.072 -0.7890 -2.2305  2.2993
 8732SOL     OW37657   1.110   3.270  17.458 -0.9270 -0.2352  0.1180
 8732SOL    HW137658   1.078   3.338  17.400  0.7356  0.0276 -0.4962
 8732SOL    HW237659   1.080   3.294  17.545 -0.2484  0.5386  0.1314
 8733SOL     OW37660   3.237   3.183  14.182 -0.3153  0.2682  0.2290
 8733SOL    HW137661   3.160   3.128  14.168 -0.9420  0.8969  1.2142
 8733SOL    HW237662   3.268   3.153  14.267  1.6377  2.8175  0.4355
 8734SOL     OW37663   0.688   2.651   1.796  0.1483 -0.1889  0.6212
 8734SOL    HW137664   0.777   2.656   1.761 -0.3060  2.2034 -0.1665
 8734SOL    HW237665   0.700   2.715   1.867  0.8575 -0.4015  0.6920
 8735SOL     OW37666   2.986   3.308  13.350  0.2656  0.1631  0.1027
 8735SOL    HW137667   2.983   3.313  13.445  0.4237 -0.6882  0.1487
 8735SOL    HW237668   2.998   3.403  13.340  0.3495  0.3147  1.7360
 8736SOL     OW37669   2.406   1.720   3.065 -0.1161  0.1768 -0.3107
 8736SOL    HW137670   2.418   1.770   2.984 -0.6561 -0.2866 -0.6719
 8736SOL    HW237671   2.495   1.732   3.098 -0.5866 -1.3535  1.5118
 8737SOL     OW37672   3.289   0.959   1.990  0.1963 -0.5713  0.1166
 8737SOL    HW137673   3.230   0.900   2.037  0.6086  0.2330  1.6362
 8737SOL    HW237674   3.327   1.021   2.052  0.6289  0.9551 -1.6757
 8738SOL     OW37675   3.851   3.587   0.491  0.0510 -0.3507  0.4147
 8738SOL    HW137676   3.900   3.540   0.558  2.8103 -1.3625 -2.3069
 8738SOL    HW237677   3.768   3.603   0.536 -0.1028  1.6776 -0.5863
 8739SOL     OW37678   1.741   1.080   6.940  0.5776 -0.4474  0.2256
 8739SOL    HW137679   1.693   1.002   6.967  2.0532 -0.5957  2.4039
 8739SOL    HW237680   1.682   1.141   6.985 -0.7234 -0.6599 -1.1784
 8740SOL     OW37681   2.111   3.913   5.160 -0.2806 -0.5903 -0.2239
 8740SOL    HW137682   2.115   3.934   5.067  1.2357 -3.0308 -0.6750
 8740SOL    HW237683   2.169   3.837   5.164 -2.2296 -2.0701  0.0177
 8741SOL     OW37684   0.812   0.018  15.409  0.5055  0.0328 -0.0611
 8741SOL    HW137685   0.765   4.695  15.481  0.0302 -1.4758 -1.2239
 8741SOL    HW237686   0.821   0.112  15.424  2.0513  0.1394 -1.5806
 8742SOL     OW37687   3.230   0.013  11.310  0.3980 -0.0120 -0.2441
 8742SOL    HW137688   3.258   4.672  11.241 -1.8474 -0.8205 -0.4630
 8742SOL    HW237689   3.143   4.703  11.337  1.8556 -1.8795  2.4495
 8743SOL     OW37690   2.940   2.968   1.068  0.4304  0.4889  0.0199
 8743SOL    HW137691   2.904   2.888   1.107  2.4355  0.3270  1.5426
 8743SOL    HW237692   2.971   2.927   0.988 -2.8033 -0.8491 -0.5438
 8744SOL     OW37693   0.084   1.258   6.143  0.5844  0.0416 -0.4718
 8744SOL    HW137694   0.058   1.315   6.215 -2.4247 -2.2455  0.2830
 8744SOL    HW237695   0.101   1.174   6.187 -2.7610 -0.6958 -0.5744
 8745SOL     OW37696   4.179   1.807   8.335  0.0877  0.5816 -0.1783
 8745SOL    HW137697   4.249   1.759   8.292  0.8847 -0.3296  2.1411
 8745SOL    HW237698   4.152   1.860   8.260  0.1184 -1.2054 -1.4498
 8746SOL     OW37699   2.792   2.612   2.016  0.4347  0.2365  0.8789
 8746SOL    HW137700   2.801   2.691   2.069  0.3337 -0.2288  1.5754
 8746SOL    HW237701   2.727   2.567   2.069 -0.7616  1.0286  0.1051
 8747SOL     OW37702   0.493   4.400   9.407  0.0493  0.1279  0.5644
 8747SOL    HW137703   0.582   4.378   9.379 -1.0669 -1.4640 -1.7793
 8747SOL    HW237704   0.486   4.357   9.492 -0.4689 -0.6330  0.1381
 8748SOL     OW37705   3.330   1.056   1.354  0.3557  0.3908 -0.0460
 8748SOL    HW137706   3.241   1.023   1.341 -0.9540  3.9916 -0.1251
 8748SOL    HW237707   3.376   0.976   1.378  0.6419  0.9638  1.3243
 8749SOL     OW37708   0.005   0.734   7.760  0.2408  0.3565  0.1870
 8749SOL    HW137709   4.712   0.645   7.727 -4.3172  0.6324  0.9656
 8749SOL    HW237710   0.098   0.730   7.780  0.0323 -0.2492  1.0231
 8750SOL     OW37711   1.779   1.244   7.210  0.3324 -0.0912 -0.0905
 8750SOL    HW137712   1.771   1.149   7.222  0.3841  0.2345  2.4190
 8750SOL    HW237713   1.703   1.253   7.152  0.2248 -0.3849  0.0048
 8751SOL     OW37714   2.639   4.000   8.639  0.1589 -0.5980 -0.3041
 8751SOL    HW137715   2.689   3.986   8.719  1.4469 -2.2650 -1.3939
 8751SOL    HW237716   2.633   3.911   8.605  0.5698  0.2949 -2.7894
 8752SOL     OW37717   2.784   2.492   3.637  0.0794 -0.1026 -0.1947
 8752SOL    HW137718   2.693   2.508   3.609  0.1407  2.8020  1.2812
 8752SOL    HW237719   2.774   2.400   3.661 -1.9183  0.1981  0.1438
 8753SOL     OW37720   3.875   1.430   5.808 -0.1534  0.1046 -0.0421
 8753SOL    HW137721   3.924   1.457   5.886  0.3190 -0.6513 -0.0797
 8753SOL    HW237722   3.944   1.392   5.753 -0.4834 -0.0909 -0.3216
 8754SOL     OW37723   0.762   3.417   8.811 -0.0224  0.2208  0.7038
 8754SOL    HW137724   0.764   3.429   8.716 -1.2804  0.2845  0.6814
 8754SOL    HW237725   0.715   3.334   8.813 -0.5002  0.4639 -0.0401
 8755SOL     OW37726   2.473   4.016   2.235  0.1264 -0.2402 -0.7226
 8755SOL    HW137727   2.430   3.937   2.201 -1.5464 -0.1163  1.1553
 8755SOL    HW237728   2.563   3.985   2.246  0.0549 -0.3814 -0.5432
 8756SOL     OW37729   1.460   3.946   6.864 -0.0610  0.1146  0.7754
 8756SOL    HW137730   1.485   3.896   6.941 -1.7883 -0.1737  1.1430
 8756SOL    HW237731   1.382   3.898   6.837  0.4323 -0.5092  0.4746
 8757SOL     OW37732   1.895   0.615   7.616  0.1236  0.0932 -0.6616
 8757SOL    HW137733   1.884   0.654   7.703 -1.4009 -0.1828 -0.7298
 8757SOL    HW237734   1.967   0.669   7.583 -0.3288 -0.2525 -2.1811
 8758SOL     OW37735   3.955   2.880   4.153  0.1607  0.2577  0.2046
 8758SOL    HW137736   3.906   2.944   4.102  0.2945 -0.3850 -0.7306
 8758SOL    HW237737   3.992   2.940   4.217 -1.5003 -0.1016  1.5073
 8759SOL     OW37738   0.107   0.158  15.813 -0.8086 -0.3298 -0.7866
 8759SOL    HW137739   0.028   0.206  15.836 -0.8404 -0.7136 -0.0859
 8759SOL    HW237740   0.134   0.212  15.739 -0.3102  0.2489 -0.1908
 8760SOL     OW37741   3.394   2.921  14.281  0.0302 -0.3253 -0.2167
 8760SOL    HW137742   3.477   2.890  14.247 -1.3952 -2.2089 -1.9806
 8760SOL    HW237743   3.333   2.901  14.210 -1.9656  1.0303  1.0945
 8761SOL     OW37744   1.912   4.605   3.884  1.3202  0.6625 -0.8184
 8761SOL    HW137745   1.830   4.654   3.877 -0.1524 -1.4647  1.6029
 8761SOL    HW237746   1.880   4.525   3.843  0.9952  0.3602  0.0440
 8762SOL     OW37747   1.643   0.321   3.106  0.1584  0.6346  0.1985
 8762SOL    HW137748   1.580   0.362   3.165  1.3885  0.6676  1.4865
 8762SOL    HW237749   1.601   0.346   3.024 -0.8171 -0.2549  0.4231
 8763SOL     OW37750   1.607   1.271   7.601 -0.4160  0.1047  0.3512
 8763SOL    HW137751   1.575   1.358   7.624  0.5905  0.4802  0.3261
 8763SOL    HW237752   1.686   1.262   7.654  0.2162 -1.1052 -0.7921
 8764SOL     OW37753   0.330   3.474   8.960  0.4195  0.6227 -0.4426
 8764SOL    HW137754   0.339   3.382   8.934 -0.5208  0.9232 -1.8124
 8764SOL    HW237755   0.316   3.516   8.875  1.5544 -1.0786 -1.4685
 8765SOL     OW37756   0.618   2.939   9.566 -0.0052  0.4087  0.0025
 8765SOL    HW137757   0.675   3.016   9.560  0.9891 -0.1820  1.6566
 8765SOL    HW237758   0.586   2.929   9.477 -0.3679  1.9749 -0.0424
 8766SOL     OW37759   4.177   0.439   6.665 -0.4525  0.3179  0.3765
 8766SOL    HW137760   4.174   0.345   6.646  0.7743  0.2745  0.3928
 8766SOL    HW237761   4.120   0.469   6.594  0.0860  0.4645  0.0034
 8767SOL     OW37762   2.402   1.244   9.556 -0.1822  0.2067  0.5028
 8767SOL    HW137763   2.469   1.244   9.625 -1.2836  0.2832  1.5659
 8767SOL    HW237764   2.438   1.175   9.499  0.7788  1.7892 -0.8039
 8768SOL     OW37765   0.593   1.240   6.389  0.2230 -0.3110  0.4092
 8768SOL    HW137766   0.624   1.177   6.323  1.4770  2.8784 -2.0633
 8768SOL    HW237767   0.514   1.191   6.410  0.3453 -0.4248  0.6014
 8769SOL     OW37768   0.498   2.379  13.678 -0.1007 -0.4274 -0.1626
 8769SOL    HW137769   0.554   2.399  13.752 -1.3841 -1.8283  1.1912
 8769SOL    HW237770   0.504   2.455  13.621  0.2428  1.1663  2.0222
 8770SOL     OW37771   0.242   3.903  16.299 -0.2013  0.8067  0.5539
 8770SOL    HW137772   0.199   3.888  16.383  1.8071 -0.8033  1.2884
 8770SOL    HW237773   0.284   3.987  16.318 -0.5950  1.1513 -0.0853
 8771SOL     OW37774   0.816   0.004   4.534  0.2824  0.4244  0.0629
 8771SOL    HW137775   0.722   4.713   4.518  0.3015  0.6743 -0.1980
 8771SOL    HW237776   0.850   4.662   4.467 -0.0073 -0.6328  0.8662
 8772SOL     OW37777   3.454   2.932  15.027 -0.1718 -0.0816 -0.4077
 8772SOL    HW137778   3.482   3.005  15.082  1.4818 -0.3810 -0.8593
 8772SOL    HW237779   3.540   2.900  14.999  0.1417  0.1124  0.3272
 8773SOL     OW37780   4.295   3.053   3.645 -0.2410 -0.0643  0.3869
 8773SOL    HW137781   4.199   3.062   3.642 -0.2419 -0.8052 -1.5103
 8773SOL    HW237782   4.309   2.959   3.629 -0.6655 -0.1680  0.6222
 8774SOL     OW37783   3.137   0.230   5.113 -0.2447 -0.1529  0.5254
 8774SOL    HW137784   3.049   0.249   5.146 -0.0383 -0.9226  1.5108
 8774SOL    HW237785   3.183   0.297   5.164 -1.6613  1.4149 -0.2527
 8775SOL     OW37786   0.709   2.785   7.547 -0.6274  0.1713  0.3674
 8775SOL    HW137787   0.669   2.848   7.606  0.9378  0.2249  1.3679
 8775SOL    HW237788   0.794   2.764   7.584 -0.4284 -1.1026 -0.7749
 8776SOL     OW37789   4.088   2.474   9.906 -0.6962 -0.1229 -0.3949
 8776SOL    HW137790   4.054   2.436   9.824  1.0571 -0.1305 -1.1120
 8776SOL    HW237791   4.007   2.509   9.943  0.7325  2.1830  0.5373
 8777SOL     OW37792   0.022   2.458   8.634  0.7582  0.4117 -0.8513
 8777SOL    HW137793   0.038   2.510   8.713  0.9804  0.5722 -1.0023
 8777SOL    HW237794   4.700   2.528   8.582  0.9432  1.2431  0.1216
 8778SOL     OW37795   3.198   1.729  14.405  0.0155  0.7043  0.2354
 8778SOL    HW137796   3.293   1.741  14.406 -0.2038  2.6518 -1.6009
 8778SOL    HW237797   3.172   1.797  14.342 -0.8080  1.1983  1.1058
 8779SOL     OW37798   1.587   2.086   4.738 -0.1264 -0.1427 -0.4360
 8779SOL    HW137799   1.548   2.069   4.823  2.5607  1.4952  1.1321
 8779SOL    HW237800   1.564   2.009   4.686  0.2499 -0.7083  0.2444
 8780SOL     OW37801   2.909   2.974   9.784  0.2665 -0.1992  0.1743
 8780SOL    HW137802   2.907   3.038   9.713 -1.6178 -1.0622 -0.5641
 8780SOL    HW237803   2.938   2.901   9.729  2.1628  1.7118 -1.3485
 8781SOL     OW37804   3.972   2.447   6.663 -0.6543 -0.5915 -0.1476
 8781SOL    HW137805   3.903   2.503   6.699  0.8414  0.7622  0.6109
 8781SOL    HW237806   3.979   2.466   6.570 -0.2504  0.9117  0.1833
 8782SOL     OW37807   3.792   0.554   6.412  0.2772  0.0936  0.1079
 8782SOL    HW137808   3.802   0.480   6.472  0.7232 -1.3351 -1.7401
 8782SOL    HW237809   3.827   0.513   6.333 -0.7137  1.0991 -0.8414
 8783SOL     OW37810   2.718   2.489   7.301 -0.6618 -0.1934  0.0782
 8783SOL    HW137811   2.767   2.419   7.343 -1.8785 -1.8414 -1.2053
 8783SOL    HW237812   2.780   2.537   7.246  0.5656 -0.0134  1.6416
 8784SOL     OW37813   0.242   0.951   8.356 -0.1797 -0.0210 -0.1518
 8784SOL    HW137814   0.188   0.993   8.290  2.2937  2.5942 -0.5132
 8784SOL    HW237815   0.200   0.970   8.440 -2.4735 -3.4812 -0.5583
 8785SOL     OW37816   3.315   3.568   8.305 -0.0695 -0.2849  0.5533
 8785SOL    HW137817   3.312   3.645   8.248  1.7116 -0.6368 -0.0385
 8785SOL    HW237818   3.408   3.571   8.328 -0.4069  0.2840  1.8067
 8786SOL     OW37819   0.821   4.553   4.887 -0.7336  0.5985  0.0390
 8786SOL    HW137820   0.752   4.528   4.825 -0.4932 -1.8114  0.7555
 8786SOL    HW237821   0.798   4.645   4.901 -0.5092  0.3764  1.8477
 8787SOL     OW37822   2.590   1.773   0.146 -0.4617  0.2300  0.3033
 8787SOL    HW137823   2.562   1.809   0.062 -0.9043  0.7723  0.6828
 8787SOL    HW237824   2.677   1.810   0.161 -0.4119  0.2369  0.0067
 8788SOL     OW37825   1.331   2.804   3.285  0.0386 -0.6696  0.3041
 8788SOL    HW137826   1.372   2.761   3.210  1.6932  1.3528  0.0406
 8788SOL    HW237827   1.249   2.757   3.300 -0.7789  1.0325  1.2166
 8789SOL     OW37828   2.718   4.155   5.063  0.4309  0.7895  0.3155
 8789SOL    HW137829   2.730   4.112   4.978 -1.1130  0.1464  0.4390
 8789SOL    HW237830   2.807   4.173   5.094  0.5777  0.4069  0.1152
 8790SOL     OW37831   0.690   1.535   5.738  0.1164 -0.0955  0.5093
 8790SOL    HW137832   0.726   1.573   5.658 -0.2533 -0.5372  0.1281
 8790SOL    HW237833   0.747   1.553   5.812 -0.0160  1.2274  0.2885
 8791SOL     OW37834   4.304   0.861   5.344 -0.5199  0.0054 -0.0468
 8791SOL    HW137835   4.224   0.809   5.332  0.0486 -0.6891 -0.8518
 8791SOL    HW237836   4.266   0.938   5.387  0.2032 -0.0466  0.6827
 8792SOL     OW37837   1.220   0.167  11.330  0.2434 -0.0595  0.9747
 8792SOL    HW137838   1.239   0.084  11.373  2.9375  0.1488  0.1426
 8792SOL    HW237839   1.273   0.148  11.253 -2.3535  3.5712 -1.7336
 8793SOL     OW37840   0.522   2.902   2.946 -0.4205  0.4296  0.2081
 8793SOL    HW137841   0.571   2.926   2.868 -2.6365 -0.8089 -1.5658
 8793SOL    HW237842   0.429   2.900   2.922 -0.5036  1.6341  0.4127
 8794SOL     OW37843   3.076   2.264   7.383  0.2955 -0.2502 -0.1828
 8794SOL    HW137844   3.154   2.257   7.438 -2.2221 -1.2336  3.2803
 8794SOL    HW237845   3.073   2.178   7.340  1.2616 -0.7963  0.8513
 8795SOL     OW37846   1.725   0.396   7.645 -0.9050  0.4520  0.0489
 8795SOL    HW137847   1.811   0.435   7.631 -0.8750 -0.2093 -1.5865
 8795SOL    HW237848   1.699   0.421   7.734  0.2844  0.9723  0.2384
 8796SOL     OW37849   1.452   0.266   6.364  0.1787  0.3138  0.1027
 8796SOL    HW137850   1.465   0.325   6.438  0.1402  0.0350  0.3280
 8796SOL    HW237851   1.369   0.305   6.336 -1.3214 -1.3651  2.2375
 8797SOL     OW37852   3.073   3.687  14.546  0.0399  0.4011 -0.2489
 8797SOL    HW137853   3.074   3.682  14.451  0.7108 -0.4811 -0.1910
 8797SOL    HW237854   3.143   3.624  14.564 -1.6027 -0.7824  2.0176
 8798SOL     OW37855   0.976   4.250  13.068 -0.7077  0.7859  0.2844
 8798SOL    HW137856   0.964   4.156  13.077  1.5151  0.5159  0.5217
 8798SOL    HW237857   0.917   4.272  12.996 -2.8417 -1.0752  1.4516
 8799SOL     OW37858   0.201   3.954   4.925  0.7117  0.2998  0.1130
 8799SOL    HW137859   0.237   3.928   4.840  0.9067 -1.5008  0.7627
 8799SOL    HW237860   0.162   3.869   4.944  1.0016  0.1766  0.1532
 8800SOL     OW37861   3.000   3.963   1.007 -0.1334  0.5948  0.3714
 8800SOL    HW137862   3.032   3.999   0.924  0.0831  0.0630  0.2207
 8800SOL    HW237863   2.911   3.936   0.984  0.2601 -1.6943  1.5357
 8801SOL     OW37864   2.188   2.935   4.118 -0.3794 -0.6883 -0.3346
 8801SOL    HW137865   2.225   2.968   4.200  1.1951 -1.2194 -0.8328
 8801SOL    HW237866   2.137   2.857   4.143  2.4033 -2.2610  0.4197
 8802SOL     OW37867   2.486   2.659   6.922 -0.1061  0.2688  0.2228
 8802SOL    HW137868   2.415   2.716   6.951 -0.1166  0.7060 -0.6642
 8802SOL    HW237869   2.470   2.646   6.829  2.8444  2.3779 -0.5421
 8803SOL     OW37870   2.941   3.984   8.400 -0.0182 -0.3697  0.0622
 8803SOL    HW137871   3.001   4.053   8.373  0.8043 -0.5195  1.5169
 8803SOL    HW237872   2.994   3.921   8.448 -0.4390 -0.0501  0.9476
 8804SOL     OW37873   3.316   2.201   6.951  0.0336 -0.4796 -0.1874
 8804SOL    HW137874   3.228   2.168   6.973 -0.0570 -0.8379 -1.1094
 8804SOL    HW237875   3.292   2.289   6.922  0.1167 -0.0471  1.0316
 8805SOL     OW37876   2.344   2.999   1.621 -0.6994  0.3222 -0.1092
 8805SOL    HW137877   2.354   2.959   1.535  1.0708  1.0825 -0.2329
 8805SOL    HW237878   2.420   2.961   1.665 -0.5148  0.3752 -0.3846
 8806SOL     OW37879   0.433   1.396   4.766 -0.4289 -0.1428 -0.3906
 8806SOL    HW137880   0.517   1.350   4.765 -1.4839 -2.0890 -0.0070
 8806SOL    HW237881   0.464   1.486   4.752 -0.0529 -0.3208 -0.7028
 8807SOL     OW37882   3.187   1.410   6.987  0.5482  0.2957 -0.0110
 8807SOL    HW137883   3.098   1.412   7.021  0.6774  0.0257  0.3474
 8807SOL    HW237884   3.190   1.489   6.933 -1.9563  1.3356  1.3711
 8808SOL     OW37885   2.228   1.422  11.623  0.0874  0.1042  0.5175
 8808SOL    HW137886   2.217   1.409  11.528 -2.5321  1.3430  0.6679
 8808SOL    HW237887   2.138   1.437  11.650 -0.4872 -1.3088 -0.5885
 8809SOL     OW37888   0.259   3.856   5.676 -0.0173  0.2582 -0.7347
 8809SOL    HW137889   0.178   3.835   5.722 -0.5985 -0.2004 -1.9699
 8809SOL    HW237890   0.298   3.921   5.734 -0.2685  0.3732 -0.6961
 8810SOL     OW37891   0.644   4.550  11.058  0.1072  0.1466  0.4864
 8810SOL    HW137892   0.668   4.640  11.077  1.7603  0.2011 -1.8092
 8810SOL    HW237893   0.705   4.513  11.122 -0.6076 -1.0838  0.4730
 8811SOL     OW37894   0.521   2.762   4.648  0.1290  0.3852  0.2298
 8811SOL    HW137895   0.555   2.762   4.737  2.9347 -1.0345 -0.8423
 8811SOL    HW237896   0.500   2.669   4.642  0.3651  0.3636 -0.3030
 8812SOL     OW37897   3.831   2.287   0.215  0.3963 -0.6416 -0.2247
 8812SOL    HW137898   3.803   2.334   0.136  0.9321  3.1482  1.8436
 8812SOL    HW237899   3.746   2.246   0.234 -0.4722  2.3558  2.3508
 8813SOL     OW37900   2.958   1.898  17.477 -0.2529 -0.4670 -0.3137
 8813SOL    HW137901   2.981   1.814  17.516 -0.4013  0.7025  2.2528
 8813SOL    HW237902   3.046   1.934  17.477 -0.3442 -0.2431 -0.2970
 8814SOL     OW37903   1.113   2.805   7.169 -0.0524 -0.0312 -0.7321
 8814SOL    HW137904   1.106   2.886   7.119  1.5038 -0.8586 -2.2908
 8814SOL    HW237905   1.094   2.743   7.099  2.8836 -1.4569 -0.3088
 8815SOL     OW37906   3.374   2.593   3.242 -0.2728 -0.5967 -0.0992
 8815SOL    HW137907   3.403   2.563   3.156  0.3474 -0.8410  0.1999
 8815SOL    HW237908   3.279   2.581   3.243 -0.4516  0.8516 -0.0303
 8816SOL     OW37909   1.224   1.140   9.571  0.4681 -0.0145  0.1213
 8816SOL    HW137910   1.252   1.226   9.603  3.2263  0.1666 -2.7817
 8816SOL    HW237911   1.135   1.136   9.607  0.7189  0.5497  0.7948
 8817SOL     OW37912   2.361   4.304   6.020  0.2996 -0.6355  0.4872
 8817SOL    HW137913   2.326   4.222   5.985  1.0437 -1.0158  0.6462
 8817SOL    HW237914   2.411   4.330   5.943  0.7994 -2.6981  0.1058
 8818SOL     OW37915   4.294   1.878   5.579  0.3605 -0.3129 -0.3169
 8818SOL    HW137916   4.261   1.800   5.624 -1.3146  1.7850  2.1117
 8818SOL    HW237917   4.212   1.919   5.553  0.3292  0.5371  1.1206
 8819SOL     OW37918   2.702   4.548   5.020  0.4089  0.0933  0.8850
 8819SOL    HW137919   2.752   4.559   5.101  2.1914  0.5646 -0.2699
 8819SOL    HW237920   2.698   4.636   4.983  1.4941 -0.0948  0.3217
 8820SOL     OW37921   3.069   3.522   4.921  0.1670 -0.3611  0.1777
 8820SOL    HW137922   3.009   3.514   4.995 -1.2321  0.4055 -0.8648
 8820SOL    HW237923   3.025   3.485   4.845  1.9785  1.4123 -1.7485
 8821SOL     OW37924   2.144   2.465   0.928  0.4647 -0.2644 -0.5571
 8821SOL    HW137925   2.124   2.543   0.878  1.4837 -0.6598 -1.5860
 8821SOL    HW237926   2.212   2.508   0.980 -1.4298  2.7405 -0.5518
 8822SOL     OW37927   3.433   3.312   8.512  0.4342 -0.6455  0.3209
 8822SOL    HW137928   3.485   3.392   8.504 -1.7239  0.7160  0.1587
 8822SOL    HW237929   3.342   3.338   8.499  0.8648  1.1288  0.8442
 8823SOL     OW37930   2.696   3.246   2.288 -0.8079 -0.1675  0.1154
 8823SOL    HW137931   2.610   3.283   2.268 -0.7909 -1.0062 -1.4751
 8823SOL    HW237932   2.762   3.316   2.289 -0.7818 -0.1325 -3.7730
 8824SOL     OW37933   0.252   1.810   6.165 -0.1337  0.1167 -0.2884
 8824SOL    HW137934   0.200   1.736   6.134  0.3787 -0.4217  0.1338
 8824SOL    HW237935   0.313   1.814   6.092  1.3737 -0.6688  0.9092
 8825SOL     OW37936   3.979   0.916   2.681  0.9047  0.2356  0.3115
 8825SOL    HW137937   3.991   0.890   2.590  0.1078 -0.3884  0.3793
 8825SOL    HW237938   4.016   1.004   2.681 -0.1845  0.6980  0.3386
 8826SOL     OW37939   4.398   2.931   5.014 -0.0145 -0.0832 -0.5734
 8826SOL    HW137940   4.340   2.876   5.067  2.3965 -1.8819  0.2048
 8826SOL    HW237941   4.436   2.985   5.084  0.8287 -1.2607 -0.1287
 8827SOL     OW37942   2.361   2.916   7.234 -0.3606 -0.1997  0.3329
 8827SOL    HW137943   2.273   2.954   7.230 -0.3619 -0.1496  0.7811
 8827SOL    HW237944   2.395   2.925   7.323  1.1299  1.8547 -0.4451
 8828SOL     OW37945   3.574   2.991  14.546  0.3384  0.1707 -0.0783
 8828SOL    HW137946   3.623   2.950  14.475  1.8302 -0.0235  1.0643
 8828SOL    HW237947   3.504   2.930  14.565  0.8230 -0.4563 -0.3203
 8829SOL     OW37948   1.683   2.752   3.730 -0.0686 -1.2758 -0.1445
 8829SOL    HW137949   1.773   2.771   3.704 -1.2864  0.0681 -3.3075
 8829SOL    HW237950   1.707   2.673   3.778  2.7539  2.4562  4.7137
 8830SOL     OW37951   3.450   3.973   5.681  0.7206  0.2218 -0.1056
 8830SOL    HW137952   3.504   3.986   5.758  1.5178 -3.1377 -0.1323
 8830SOL    HW237953   3.432   4.064   5.655  0.9456  0.1566 -0.4883
 8831SOL     OW37954   1.219   4.642   8.727  0.1647  0.3202  0.4207
 8831SOL    HW137955   1.266   4.610   8.804 -2.2700 -0.1678  1.7051
 8831SOL    HW237956   1.181   0.009   8.747 -1.1406 -0.3839  0.9502
 8832SOL     OW37957   4.443   2.330   0.839 -0.2450  0.2524  0.4903
 8832SOL    HW137958   4.369   2.379   0.803  0.4354  2.1653  1.6705
 8832SOL    HW237959   4.408   2.245   0.865  0.8292 -0.1646  0.6016
 8833SOL     OW37960   1.147   4.245  12.146 -0.0494 -0.8126 -0.2993
 8833SOL    HW137961   1.128   4.260  12.239 -0.2396 -2.8957  0.0025
 8833SOL    HW237962   1.122   4.155  12.129 -0.5006 -0.7230 -0.1033
 8834SOL     OW37963   0.195   0.140   2.627 -0.6081 -0.5988  0.4688
 8834SOL    HW137964   0.112   0.187   2.621  0.1282  0.5294 -1.2770
 8834SOL    HW237965   0.171   0.048   2.632  1.4182 -1.1593 -0.0744
 8835SOL     OW37966   1.078   1.503   6.449  0.0120 -0.0891  0.4398
 8835SOL    HW137967   1.068   1.563   6.374 -2.0895 -0.9265  0.0670
 8835SOL    HW237968   1.038   1.570   6.503  0.5523  1.1243 -0.6556
 8836SOL     OW37969   0.671   3.124   8.762  0.7912 -0.2235 -0.2459
 8836SOL    HW137970   0.659   3.068   8.685 -1.8340 -0.3612  0.2516
 8836SOL    HW237971   0.766   3.132   8.761  0.7805 -0.2037 -1.0578
 8837SOL     OW37972   2.229   3.171   7.969 -0.1096 -0.3857  0.1127
 8837SOL    HW137973   2.321   3.154   7.951  0.4809  0.9025  1.9145
 8837SOL    HW237974   2.228   3.156   8.064 -0.3549  3.9553  0.7914
 8838SOL     OW37975   2.506   2.515   4.952  0.0276  0.0646 -0.1573
 8838SOL    HW137976   2.483   2.422   4.958 -0.7710  0.1698 -1.8093
 8838SOL    HW237977   2.567   2.522   5.026 -1.9826 -2.6932  1.7625
 8839SOL     OW37978   2.378   3.194   4.293 -0.0612 -0.5711  0.0433
 8839SOL    HW137979   2.309   3.137   4.328  0.8541 -0.6624  1.6922
 8839SOL    HW237980   2.360   3.278   4.336  0.0028 -0.2984 -0.4615
 8840SOL     OW37981   4.027   2.000   5.117 -0.9106 -0.2237 -0.5639
 8840SOL    HW137982   3.934   1.991   5.096 -1.5523  2.4414  1.1850
 8840SOL    HW237983   4.040   1.921   5.168  0.9794  1.4370  1.5227
 8841SOL     OW37984   1.879   2.310  11.821 -0.4226 -0.1327 -0.1411
 8841SOL    HW137985   1.927   2.373  11.768  1.6433 -2.2429 -0.7990
 8841SOL    HW237986   1.882   2.250  11.747  1.2681  0.4023 -0.5041
 8842SOL     OW37987   1.909   1.932   7.545  0.3529 -0.2778  0.6791
 8842SOL    HW137988   1.832   1.986   7.524 -1.0960 -1.5192  2.7404
 8842SOL    HW237989   1.919   1.948   7.639  1.8880  2.0933  0.1021
 8843SOL     OW37990   0.966   2.556  10.851 -0.0156  0.2180  0.2166
 8843SOL    HW137991   0.905   2.549  10.778  1.1482 -3.9852 -0.3736
 8843SOL    HW237992   0.945   2.641  10.889  1.7267 -0.1494  2.0173
 8844SOL     OW37993   2.241   0.214   4.320 -0.5212  0.0109 -0.3984
 8844SOL    HW137994   2.223   0.248   4.408  0.3135 -2.5746  0.7488
 8844SOL    HW237995   2.293   0.285   4.282 -0.8800  0.8219  0.5992
 8845SOL     OW37996   3.479   1.775   7.725 -0.1192 -0.2560  0.0673
 8845SOL    HW137997   3.517   1.853   7.685  2.1767 -2.8341 -2.6924
 8845SOL    HW237998   3.508   1.786   7.816  1.1742 -2.0921 -0.1405
 8846SOL     OW37999   3.410   0.032  14.778  0.5227 -0.1839 -0.3922
 8846SOL    HW138000   3.472   0.081  14.832  1.1539 -1.0593 -0.3229
 8846SOL    HW238001   3.359   0.107  14.749  0.4155 -0.2956 -0.4918
 8847SOL     OW38002   3.587   3.916  10.936 -0.3814  0.4440 -0.6052
 8847SOL    HW138003   3.531   3.991  10.919  2.1630  2.5977  0.5264
 8847SOL    HW238004   3.564   3.872  10.854  0.3463 -0.1828 -0.4765
 8848SOL     OW38005   3.409   4.044   3.418 -0.2020  0.1095  0.4256
 8848SOL    HW138006   3.475   4.088   3.471  0.8411 -0.8062 -0.1152
 8848SOL    HW238007   3.396   4.110   3.349  0.8845 -1.0513 -0.8902
 8849SOL     OW38008   1.862   2.879  14.594 -0.6699  0.1019  0.3575
 8849SOL    HW138009   1.889   2.788  14.589  0.8879  0.5592  0.3057
 8849SOL    HW238010   1.798   2.878  14.665  0.1911  0.8025  1.1418
 8850SOL     OW38011   2.456   1.763   0.642  0.1260 -0.1398 -0.4872
 8850SOL    HW138012   2.405   1.711   0.704  0.3354  1.0238  0.6573
 8850SOL    HW238013   2.534   1.785   0.693 -0.7397  0.4879  0.5572
 8851SOL     OW38014   3.778   3.740   1.411 -0.1591 -0.6884 -0.0281
 8851SOL    HW138015   3.708   3.711   1.352 -0.1778 -0.0141 -0.3377
 8851SOL    HW238016   3.859   3.750   1.360 -0.6343  0.5903 -0.5397
 8852SOL     OW38017   4.149   3.562   5.458 -0.2560  0.1979 -0.4389
 8852SOL    HW138018   4.185   3.488   5.411  0.1655  1.0563 -1.4743
 8852SOL    HW238019   4.074   3.538   5.512 -0.6069  0.5843 -0.7510
 8853SOL     OW38020   0.904   3.461   7.776 -0.4856  0.2100  0.2020
 8853SOL    HW138021   0.899   3.425   7.687  0.8504 -0.8649  0.5672
 8853SOL    HW238022   0.999   3.453   7.784 -0.4557  0.4527  0.0973
 8854SOL     OW38023   2.225   0.106  11.052  1.0688 -0.1458 -0.4293
 8854SOL    HW138024   2.171   0.093  11.130  1.3514  4.8580  0.6124
 8854SOL    HW238025   2.162   0.091  10.981 -0.5423 -2.5451  1.5050
 8855SOL     OW38026   1.869   0.156   7.745 -0.1927  0.2318 -0.1388
 8855SOL    HW138027   1.904   0.240   7.715 -0.0559  0.4212  0.5515
 8855SOL    HW238028   1.818   0.189   7.818 -1.0465 -0.9157 -0.2147
 8856SOL     OW38029   1.988   1.740   9.605 -0.3198  0.2647  0.3891
 8856SOL    HW138030   2.003   1.799   9.679 -0.3941  3.6174 -2.2910
 8856SOL    HW238031   2.081   1.733   9.584 -1.0564 -0.6065 -2.5866
 8857SOL     OW38032   1.881   1.837   3.510 -0.0120 -0.3718  0.0262
 8857SOL    HW138033   1.856   1.929   3.520 -1.0893 -0.5928 -0.6637
 8857SOL    HW238034   1.883   1.825   3.415 -0.7181  0.1335 -0.0584
 8858SOL     OW38035   0.804   2.326   5.876 -0.6283 -0.1812  0.1054
 8858SOL    HW138036   0.734   2.387   5.853  0.6913  1.1679 -0.3034
 8858SOL    HW238037   0.854   2.314   5.795 -3.8950 -2.4361 -1.5842
 8859SOL     OW38038   2.630   2.574   3.024 -0.1744 -0.2273 -0.3571
 8859SOL    HW138039   2.651   2.511   2.955  1.1710  2.3894 -2.2890
 8859SOL    HW238040   2.697   2.640   3.012 -0.1736  0.1012  1.4007
 8860SOL     OW38041   3.801   0.567   5.896  0.0441 -0.3961 -0.2422
 8860SOL    HW138042   3.724   0.541   5.844 -0.5032 -2.2311  1.4579
 8860SOL    HW238043   3.769   0.654   5.918  0.1008  0.1043 -2.1617
 8861SOL     OW38044   0.198   4.331  10.270 -0.5419 -0.0751 -0.1064
 8861SOL    HW138045   0.110   4.354  10.300 -0.3394  1.2451 -0.4796
 8861SOL    HW238046   0.188   4.317  10.176 -0.1026 -1.2375  0.0256
 8862SOL     OW38047   2.252   1.080  13.347 -0.0568 -0.4055  0.6422
 8862SOL    HW138048   2.219   1.018  13.282 -0.2470 -0.3285  0.6661
 8862SOL    HW238049   2.202   1.158  13.326  2.1661  0.0878 -2.8565
 8863SOL     OW38050   3.066   1.018  14.730  0.3326  0.7279 -0.1899
 8863SOL    HW138051   3.111   1.033  14.647  0.6990 -0.8331 -0.2600
 8863SOL    HW238052   3.006   1.093  14.730  0.2566  0.6640 -0.7495
 8864SOL     OW38053   0.909   4.236   7.030 -0.5561 -0.0962  0.1501
 8864SOL    HW138054   0.885   4.328   7.043  0.2452  0.0843  0.3310
 8864SOL    HW238055   0.965   4.252   6.954 -0.2429  0.8196  0.5685
 8865SOL     OW38056   4.568   0.065  13.630 -0.2138  0.3264 -0.1888
 8865SOL    HW138057   4.543   0.090  13.719 -0.1731 -0.6517  0.1019
 8865SOL    HW238058   4.485   0.037  13.591 -1.0019 -0.1593  1.8509
 8866SOL     OW38059   0.332   1.884   6.999 -0.2178  0.1408 -0.0780
 8866SOL    HW138060   0.380   1.825   7.058  0.1980  0.2081 -0.3497
 8866SOL    HW238061   0.297   1.818   6.939  0.6087 -1.1757  0.8845
 8867SOL     OW38062   4.696   0.843   8.397 -0.0020 -0.0976 -0.3528
 8867SOL    HW138063   4.618   0.874   8.352  0.6312  0.1028 -1.3095
 8867SOL    HW238064   0.006   0.916   8.452  0.6495 -0.8451  0.3148
 8868SOL     OW38065   4.650   0.630   8.571  0.3478 -0.6129 -0.2229
 8868SOL    HW138066   4.576   0.677   8.532  1.9053  3.4717  1.7659
 8868SOL    HW238067   0.005   0.647   8.511  0.2568 -2.1131 -0.7499
 8869SOL     OW38068   1.627   1.044   8.861 -0.0424 -0.4874  0.4062
 8869SOL    HW138069   1.659   1.074   8.776 -2.4890 -0.3595 -0.4482
 8869SOL    HW238070   1.712   1.042   8.905  0.7444 -3.4399 -1.2041
 8870SOL     OW38071   2.334   0.358   0.094 -0.6000 -0.2369  0.3996
 8870SOL    HW138072   2.388   0.283   0.067  1.7061  2.1302 -1.4987
 8870SOL    HW238073   2.384   0.412   0.154 -0.3311  1.1631 -1.0841
 8871SOL     OW38074   3.796   3.656   8.383  0.0595  0.1058 -0.3307
 8871SOL    HW138075   3.802   3.747   8.411  0.8769  0.7085 -2.4874
 8871SOL    HW238076   3.877   3.632   8.339  0.4734  0.9890 -0.0408
 8872SOL     OW38077   0.287   1.315   9.226 -0.8132  0.4272  0.2756
 8872SOL    HW138078   0.285   1.273   9.313 -0.2199  0.1178  0.1407
 8872SOL    HW238079   0.381   1.300   9.214 -1.0224  1.4340 -2.6281
 8873SOL     OW38080   4.105   1.463   2.960 -0.4066  0.3726  0.4370
 8873SOL    HW138081   4.142   1.516   2.889  2.5360 -0.8941  0.9897
 8873SOL    HW238082   4.094   1.374   2.925 -0.2801 -0.0894  1.5725
 8874SOL     OW38083   2.775   1.935  17.204 -0.0254 -0.0085  0.4014
 8874SOL    HW138084   2.766   1.841  17.215  0.6406 -0.2455 -1.1153
 8874SOL    HW238085   2.857   1.951  17.251 -0.3940 -1.3109  1.5028
 8875SOL     OW38086   1.207   3.797  12.708 -0.0706 -0.3187 -0.6754
 8875SOL    HW138087   1.165   3.831  12.629 -2.4089  2.1349  1.6265
 8875SOL    HW238088   1.140   3.833  12.766  0.4753 -1.8307  0.9090
 8876SOL     OW38089   2.425   1.564   6.752  0.0154  0.2003 -0.1417
 8876SOL    HW138090   2.407   1.478   6.714 -2.2764  0.4531  0.3496
 8876SOL    HW238091   2.396   1.550   6.842  2.5408  3.3352  1.1425
 8877SOL     OW38092   4.139   2.073   9.512  0.4420 -0.0617  0.4462
 8877SOL    HW138093   4.120   2.101   9.602  0.5165 -1.7612  0.9802
 8877SOL    HW238094   4.075   2.002   9.511 -0.1570  0.4731  0.6414
 8878SOL     OW38095   0.549   1.247   9.191  0.4523  0.1855 -0.1205
 8878SOL    HW138096   0.633   1.223   9.231 -0.7092 -1.1905  1.5231
 8878SOL    HW238097   0.524   1.192   9.117  1.8347  0.0179 -0.4542
 8879SOL     OW38098   4.160   1.153  10.554  0.0056 -1.0828 -0.6273
 8879SOL    HW138099   4.134   1.136  10.463  1.4462  0.1769 -1.2636
 8879SOL    HW238100   4.073   1.184  10.580  0.4163 -0.2578 -0.2710
 8880SOL     OW38101   4.121   2.170  15.799 -0.2055  0.1641 -0.3010
 8880SOL    HW138102   4.027   2.150  15.798 -0.5773  2.0535 -1.9850
 8880SOL    HW238103   4.146   2.144  15.888  0.1122  0.2260 -0.3732
 8881SOL     OW38104   0.928   3.256   3.163 -0.4221  0.3139  0.2044
 8881SOL    HW138105   0.882   3.194   3.107 -2.2767  1.3344  0.5687
 8881SOL    HW238106   0.971   3.297   3.088 -2.6854  0.5028 -0.9796
 8882SOL     OW38107   2.341   3.793  14.366  0.1478  0.0173 -0.0542
 8882SOL    HW138108   2.259   3.831  14.333 -0.1606  0.8199  1.6311
 8882SOL    HW238109   2.322   3.707  14.330  1.7355 -1.4230  2.5715
 8883SOL     OW38110   3.313   1.896   4.192 -0.0648 -0.0600 -0.5154
 8883SOL    HW138111   3.274   1.917   4.277  0.5628 -0.4938 -0.1240
 8883SOL    HW238112   3.356   1.977   4.167 -0.4687  0.2851 -0.0876
 8884SOL     OW38113   2.277   4.553   1.603  0.2536 -0.0264  0.2543
 8884SOL    HW138114   2.334   4.613   1.555  0.7785 -0.3863  0.4297
 8884SOL    HW238115   2.340   4.532   1.672  0.3191  1.1793  0.5631
 8885SOL     OW38116   3.873   3.566   5.238  0.2319  0.0482  0.2417
 8885SOL    HW138117   3.903   3.478   5.263  1.0621 -0.1374 -1.4270
 8885SOL    HW238118   3.805   3.565   5.305 -1.8978  3.6225 -1.9047
 8886SOL     OW38119   2.698   3.855   8.328 -0.0469 -0.4793  0.2036
 8886SOL    HW138120   2.775   3.903   8.359 -0.1068 -0.4923  0.3717
 8886SOL    HW238121   2.677   3.906   8.250  0.2642 -0.9707 -0.2019
 8887SOL     OW38122   0.044   2.590   6.671  0.0456 -0.2628  0.4325
 8887SOL    HW138123   0.015   2.663   6.618  0.0547  0.0252  0.8250
 8887SOL    HW238124   0.139   2.596   6.663  0.0901 -0.5707  0.6961
 8888SOL     OW38125   1.045   1.173  11.926 -0.7632 -0.0001  0.2071
 8888SOL    HW138126   0.961   1.178  11.882 -0.6155  0.8562  0.0235
 8888SOL    HW238127   1.001   1.155  12.009  2.1295  0.3012  1.8381
 8889SOL     OW38128   3.122   4.060   7.914 -0.7294  0.0477  0.0685
 8889SOL    HW138129   3.083   3.985   7.869 -2.2644  0.0338  1.4016
 8889SOL    HW238130   3.049   4.110   7.953 -1.2929 -0.6860 -0.0485
 8890SOL     OW38131   4.089   0.954   0.434  0.3260 -0.2768 -0.6368
 8890SOL    HW138132   4.074   0.963   0.340  0.3475  0.4415 -0.5729
 8890SOL    HW238133   4.055   1.042   0.450  0.7462  0.0000 -1.2883
 8891SOL     OW38134   2.210   3.769  14.062  0.0945 -0.5798  0.0205
 8891SOL    HW138135   2.177   3.822  14.134  0.9741 -1.3552  1.0112
 8891SOL    HW238136   2.150   3.785  13.990  0.9195  2.3550  0.0160
 8892SOL     OW38137   0.844   4.548   4.301  0.4182  0.1507 -0.1488
 8892SOL    HW138138   0.864   4.457   4.325  2.7105  1.2049  1.8764
 8892SOL    HW238139   0.750   4.533   4.299  0.3277  0.8822 -1.3681
 8893SOL     OW38140   1.896   1.434   6.456 -0.4490  0.2565 -0.5218
 8893SOL    HW138141   1.835   1.428   6.383  0.0685  0.3007 -0.9595
 8893SOL    HW238142   1.917   1.527   6.462  1.9159 -0.2068 -1.5507
 8894SOL     OW38143   3.643   0.196  15.709  0.7121 -0.4056  0.3960
 8894SOL    HW138144   3.629   0.173  15.617  1.7376 -0.6427  0.2983
 8894SOL    HW238145   3.730   0.161  15.729  1.0542  1.2625  1.8322
 8895SOL     OW38146   2.581   2.212   7.032  0.0838 -0.6174 -0.0905
 8895SOL    HW138147   2.530   2.178   7.105  1.2637  0.8021  1.4095
 8895SOL    HW238148   2.544   2.300   7.017 -0.8570 -1.0317 -0.1912
 8896SOL     OW38149   0.917   1.945  16.298 -0.0916 -0.1801 -0.2929
 8896SOL    HW138150   0.934   1.966  16.390  0.9718 -1.5299 -0.1832
 8896SOL    HW238151   0.893   2.031  16.262 -0.1008 -0.5479 -1.1701
 8897SOL     OW38152   3.467   3.716   2.753  0.5489  0.4437 -0.3226
 8897SOL    HW138153   3.469   3.802   2.713  2.8049  0.0743 -0.9916
 8897SOL    HW238154   3.390   3.728   2.809  2.2611  0.2526  2.0480
 8898SOL     OW38155   3.039   0.024   8.801  1.2680  0.3906 -0.3771
 8898SOL    HW138156   3.014   0.080   8.727 -0.0167  2.7206  1.7951
 8898SOL    HW238157   2.973   0.056   8.863  1.8901  1.4206 -0.2579
 8899SOL     OW38158   1.718   2.922   8.344  0.1598  0.2299 -0.3934
 8899SOL    HW138159   1.744   2.903   8.434  0.8042 -0.5582 -0.7530
 8899SOL    HW238160   1.754   2.847   8.296 -1.1897  0.3167 -1.5449
 8900SOL     OW38161   3.008   2.674   0.377  0.0343  0.0969  0.0948
 8900SOL    HW138162   3.004   2.582   0.402 -0.7527  0.4381  1.2220
 8900SOL    HW238163   3.078   2.704   0.436 -0.1354 -1.4051  1.0600
 8901SOL     OW38164   2.125   0.994   3.570 -0.4000  0.6175 -0.1960
 8901SOL    HW138165   2.031   0.977   3.579 -0.7803  1.5140 -2.4306
 8901SOL    HW238166   2.126   1.017   3.477  0.7169  2.4513  0.2683
 8902SOL     OW38167   2.675   3.618  13.938 -0.1396  0.0456  0.2731
 8902SOL    HW138168   2.608   3.622  14.006 -0.3377  2.1923 -0.0213
 8902SOL    HW238169   2.694   3.525  13.934 -0.6115  0.0703 -2.3145
 8903SOL     OW38170   4.341   4.363  10.100 -0.4558 -0.0333 -0.6378
 8903SOL    HW138171   4.423   4.337  10.058 -0.4962 -0.5797 -0.3893
 8903SOL    HW238172   4.346   4.326  10.188 -0.8486 -0.0184 -0.6105
 8904SOL     OW38173   1.232   0.353  16.084  0.6057  0.4463  0.1801
 8904SOL    HW138174   1.258   0.389  16.168  0.1087  0.6540  0.2443
 8904SOL    HW238175   1.314   0.311  16.058  1.7397  2.0227  1.2431
 8905SOL     OW38176   3.928   1.644   2.446  0.1693  0.3471 -0.3647
 8905SOL    HW138177   3.975   1.595   2.514 -1.6015 -1.5715 -0.5383
 8905SOL    HW238178   3.845   1.596   2.447  0.3743 -0.0111 -0.4958
 8906SOL     OW38179   3.609   1.827   3.710 -0.0395  0.0829 -0.0247
 8906SOL    HW138180   3.543   1.790   3.651  1.2212 -0.0327 -1.3647
 8906SOL    HW238181   3.605   1.756   3.775  0.5189 -0.1786 -0.2813
 8907SOL     OW38182   2.084   3.419   5.043 -0.0959  0.3136 -0.0033
 8907SOL    HW138183   2.057   3.494   4.989  0.7860 -0.5960 -1.6840
 8907SOL    HW238184   2.003   3.420   5.094  0.1894 -0.8041  0.4587
 8908SOL     OW38185   0.693   1.463  15.086  0.1702  0.0441  0.0737
 8908SOL    HW138186   0.773   1.427  15.047  0.5473  1.9322 -0.9155
 8908SOL    HW238187   0.659   1.510  15.009 -1.6972 -1.0563  0.2334
 8909SOL     OW38188   3.497   0.847   3.527 -0.0717  0.2191  0.2288
 8909SOL    HW138189   3.493   0.785   3.454  1.3516  1.1375 -0.6133
 8909SOL    HW238190   3.475   0.928   3.482 -1.7090 -0.2256  0.2121
 8910SOL     OW38191   4.525   2.902   6.953 -0.2645 -0.1206  0.0753
 8910SOL    HW138192   4.596   2.931   6.896  0.6006  2.8306  2.6352
 8910SOL    HW238193   4.468   2.979   6.947  2.7479  1.9666 -1.6487
 8911SOL     OW38194   1.173   1.695   4.214  0.2609  0.8330 -0.3824
 8911SOL    HW138195   1.261   1.698   4.253  0.5067 -1.1058 -0.7906
 8911SOL    HW238196   1.143   1.786   4.224  3.2199  1.5474  1.9529
 8912SOL     OW38197   0.675   1.967   9.183  0.7520  0.2232  0.2226
 8912SOL    HW138198   0.704   1.963   9.274  1.8692 -1.3826 -0.1950
 8912SOL    HW238199   0.632   1.882   9.185  2.2737 -0.5416  0.3092
 8913SOL     OW38200   0.692   2.121   3.035 -0.2189 -0.2118 -0.4400
 8913SOL    HW138201   0.705   2.082   2.948 -1.0528 -0.8827 -0.2631
 8913SOL    HW238202   0.681   2.213   3.014 -3.0855 -0.3601  0.4630
 8914SOL     OW38203   1.699   2.399  10.537 -0.4036  0.1100 -0.3452
 8914SOL    HW138204   1.744   2.378  10.618  1.4335  0.3248 -1.3089
 8914SOL    HW238205   1.663   2.313  10.517 -1.7851 -0.2042  3.5780
 8915SOL     OW38206   4.560   2.421   6.987 -0.1212  0.4305  0.2093
 8915SOL    HW138207   4.570   2.394   6.896  0.7817 -0.7573  0.6531
 8915SOL    HW238208   4.510   2.342   7.008  2.2969 -1.0252  0.6538
 8916SOL     OW38209   2.423   0.735   7.566  0.2207 -0.0892  0.1112
 8916SOL    HW138210   2.451   0.826   7.552 -0.6802  0.3953  1.4877
 8916SOL    HW238211   2.337   0.751   7.604  0.1273 -0.2431 -0.0374
 8917SOL     OW38212   4.573   1.383   8.756  0.3266 -0.1655  0.2351
 8917SOL    HW138213   4.551   1.291   8.742 -0.3151 -0.2031  1.5614
 8917SOL    HW238214   4.525   1.405   8.835  0.2787 -2.2700  0.7890
 8918SOL     OW38215   0.750   4.306   1.740 -1.1270  0.0652  0.3749
 8918SOL    HW138216   0.698   4.322   1.818 -1.0213 -1.5811  0.7696
 8918SOL    HW238217   0.677   4.297   1.678  0.9068  1.0108 -2.1706
 8919SOL     OW38218   0.988   0.564   6.967 -0.1039  0.5746 -0.2668
 8919SOL    HW138219   1.070   0.568   6.917  0.2574  1.6982  0.4248
 8919SOL    HW238220   0.964   0.653   6.992  2.2918  0.6565  1.7321
 8920SOL     OW38221   3.554   0.830   8.012  0.0178 -0.3811 -0.4594
 8920SOL    HW138222   3.503   0.764   7.965 -2.2753  1.6164 -0.8326
 8920SOL    HW238223   3.557   0.906   7.953  0.3297  1.6453  2.2090
 8921SOL     OW38224   1.702   4.175   3.679  0.0939  0.1276 -0.4193
 8921SOL    HW138225   1.686   4.230   3.756 -1.4287 -1.7432  0.5934
 8921SOL    HW238226   1.614   4.148   3.653 -0.1249  0.0030  0.4367
 8922SOL     OW38227   2.718   2.126   2.679 -0.1849  0.5692  0.1254
 8922SOL    HW138228   2.729   2.097   2.588 -0.2203 -0.9736  0.6226
 8922SOL    HW238229   2.633   2.169   2.668 -0.4796  0.2237  1.0638
 8923SOL     OW38230   1.001   4.212  14.248 -0.4414  0.0315  0.3013
 8923SOL    HW138231   1.019   4.305  14.232 -0.1759 -0.0157  0.3253
 8923SOL    HW238232   0.922   4.226  14.301 -0.5092 -3.6757  1.1335
 8924SOL     OW38233   2.696   0.818   8.534 -0.0242  0.4351  0.1685
 8924SOL    HW138234   2.653   0.855   8.457  0.3863  1.5153  0.4613
 8924SOL    HW238235   2.783   0.855   8.524 -0.2863  1.0171  0.0412
 8925SOL     OW38236   1.959   1.829  13.532  0.0899 -0.2333  0.2780
 8925SOL    HW138237   1.973   1.856  13.623  0.9725 -1.1072  0.3876
 8925SOL    HW238238   2.044   1.811  13.492  1.3688  2.3049  1.7937
 8926SOL     OW38239   0.761   2.729   9.071 -0.1746 -0.0794  0.3305
 8926SOL    HW138240   0.809   2.669   9.014  1.0239  0.7327  0.4760
 8926SOL    HW238241   0.799   2.815   9.053  1.1217 -0.6678  0.2951
 8927SOL     OW38242   2.582   1.792  12.209 -0.1686 -0.5532  0.5542
 8927SOL    HW138243   2.605   1.744  12.130  0.5858 -0.2684  0.6035
 8927SOL    HW238244   2.490   1.767  12.212 -0.9978  2.2940 -1.3413
 8928SOL     OW38245   0.602   0.113   5.358  0.6622 -0.1571 -0.1547
 8928SOL    HW138246   0.625   0.206   5.357 -0.7373  0.1927 -0.8548
 8928SOL    HW238247   0.599   0.097   5.263  1.1565 -1.2419  0.0119
 8929SOL     OW38248   3.056   2.999  16.441 -0.0557 -0.0137 -0.5663
 8929SOL    HW138249   3.092   2.913  16.464  0.2573 -0.4026 -2.5211
 8929SOL    HW238250   3.093   3.053  16.511  0.9798  1.2563 -2.0988
 8930SOL     OW38251   2.711   4.490   6.487  0.8101  0.1960  0.4044
 8930SOL    HW138252   2.669   4.417   6.532  1.0473 -0.3355 -0.2246
 8930SOL    HW238253   2.723   4.563   6.548  2.3234  0.3114 -0.0070
 8931SOL     OW38254   4.043   4.508  17.554  0.3255 -0.0690 -0.4501
 8931SOL    HW138255   4.096   4.588  17.561 -1.2336  1.1906 -3.0744
 8931SOL    HW238256   4.079   4.464  17.477 -2.8870 -2.0917 -0.7848
 8932SOL     OW38257   3.363   3.749   7.741  0.5065 -0.0826 -0.1479
 8932SOL    HW138258   3.450   3.783   7.763 -0.2817  1.5442  0.4751
 8932SOL    HW238259   3.361   3.677   7.804  1.1491  1.0436  1.1521
 8933SOL     OW38260   4.385   2.747   1.466 -0.2531 -0.1087 -0.1800
 8933SOL    HW138261   4.333   2.667   1.463  0.3711 -0.4889 -1.0095
 8933SOL    HW238262   4.385   2.776   1.374 -3.2439  2.8610  0.7435
 8934SOL     OW38263   3.734   2.016   5.063 -0.6472  0.2526 -0.1711
 8934SOL    HW138264   3.676   1.940   5.064 -1.0746  0.5823  0.9619
 8934SOL    HW238265   3.675   2.085   5.033  1.4896  1.3964 -1.7227
 8935SOL     OW38266   2.241   2.243   5.248 -0.4760 -0.1018  0.2179
 8935SOL    HW138267   2.257   2.149   5.244  0.5286  0.0964 -0.4577
 8935SOL    HW238268   2.152   2.261   5.218 -1.3998 -1.7645  2.0030
 8936SOL     OW38269   2.178   0.018   7.556 -0.0363  0.1955 -0.0580
 8936SOL    HW138270   2.133   0.031   7.472  0.9641 -3.7397 -1.1954
 8936SOL    HW238271   2.177   0.105   7.598  1.3284  0.7244 -1.1137
 8937SOL     OW38272   2.966   0.173  12.357  0.5426 -0.3954  0.4266
 8937SOL    HW138273   3.050   0.128  12.349  0.5938 -0.1820 -0.2264
 8937SOL    HW238274   2.918   0.130  12.286  3.2613 -0.2164 -1.5310
 8938SOL     OW38275   2.076   3.662   2.686  0.3496  0.7271 -0.3382
 8938SOL    HW138276   2.160   3.682   2.644  1.4299  1.6123  2.2097
 8938SOL    HW238277   2.015   3.645   2.615 -0.4450  0.4822  0.3975
 8939SOL     OW38278   4.420   1.977   5.796  0.0716 -0.0534  0.4721
 8939SOL    HW138279   4.478   1.901   5.804  0.4094  0.1199 -0.3330
 8939SOL    HW238280   4.361   1.949   5.726  0.9358  0.7631 -0.5976
 8940SOL     OW38281   1.670   1.763  11.326  0.0124  0.2289 -0.0608
 8940SOL    HW138282   1.593   1.807  11.362 -1.1377 -1.3402 -0.6234
 8940SOL    HW238283   1.672   1.799  11.237 -0.0485  0.1381 -0.0981
 8941SOL     OW38284   3.494   1.937  10.641 -0.0917 -0.5303 -0.3201
 8941SOL    HW138285   3.402   1.925  10.617 -0.2136  2.2496 -1.2766
 8941SOL    HW238286   3.511   2.025  10.608  0.4650 -0.3349  0.4856
 8942SOL     OW38287   3.397   0.542   0.185 -0.2257 -0.5407  0.2469
 8942SOL    HW138288   3.356   0.457   0.203  0.6222 -1.1504 -0.6834
 8942SOL    HW238289   3.382   0.587   0.268 -2.1612  0.4215 -0.6380
 8943SOL     OW38290   3.410   4.701   7.459 -0.1746 -0.2314 -0.4104
 8943SOL    HW138291   3.383   4.613   7.484 -0.3635  0.9192  3.3695
 8943SOL    HW238292   3.477   4.718   7.525  1.8525  1.6233 -2.9489
 8944SOL     OW38293   1.259   1.147   7.481  0.0714  0.0646 -0.1223
 8944SOL    HW138294   1.173   1.166   7.519 -0.1846 -0.7727 -0.2708
 8944SOL    HW238295   1.306   1.089   7.542 -1.3533 -0.8313  0.1282
 8945SOL     OW38296   4.598   0.379  15.642 -0.3868 -0.3412  0.0097
 8945SOL    HW138297   4.693   0.374  15.639 -0.3793 -0.8093  0.9784
 8945SOL    HW238298   4.577   0.347  15.730  0.8776 -1.6572 -0.1828
 8946SOL     OW38299   3.372   0.809   4.917  0.0294  0.0210  0.1780
 8946SOL    HW138300   3.341   0.751   4.847  1.3983 -0.6992  0.1603
 8946SOL    HW238301   3.293   0.859   4.934  0.1286 -0.4524  2.0023
 8947SOL     OW38302   2.401   4.503   0.799  0.3167  0.0742 -0.4918
 8947SOL    HW138303   2.465   4.458   0.854  0.0960 -0.2824 -0.5307
 8947SOL    HW238304   2.459   4.545   0.736 -0.5573  1.6093 -0.2771
 8948SOL     OW38305   1.006   0.168  13.877 -0.0890 -0.3564 -0.0626
 8948SOL    HW138306   1.077   0.174  13.813  0.9807  0.6016  1.2222
 8948SOL    HW238307   0.984   0.261  13.879  1.0135 -0.0884 -0.4839
 8949SOL     OW38308   3.775   0.630   2.890 -0.0764  0.5579 -0.4573
 8949SOL    HW138309   3.788   0.718   2.925 -1.4703  0.1080  1.1744
 8949SOL    HW238310   3.778   0.642   2.795  2.2618  1.9095 -0.2036
 8950SOL     OW38311   2.198   4.182   9.063 -0.3959 -0.1919  0.0279
 8950SOL    HW138312   2.242   4.223   8.988 -1.1678  1.2620  0.3581
 8950SOL    HW238313   2.276   4.155   9.112 -0.2281  0.6409  0.2287
 8951SOL     OW38314   4.360   0.489   4.061  0.1318  0.1394  0.3524
 8951SOL    HW138315   4.363   0.550   4.134 -0.7903 -2.2729  2.3767
 8951SOL    HW238316   4.292   0.433   4.099 -0.2838 -0.2678 -0.9758
 8952SOL     OW38317   3.064   2.905   5.501 -0.2940 -0.0321 -0.1905
 8952SOL    HW138318   3.151   2.911   5.541  0.4036  1.2558 -1.9103
 8952SOL    HW238319   3.001   2.915   5.572 -1.5134 -0.6767 -1.1757
 8953SOL     OW38320   0.313   3.687  16.158 -0.2659 -0.1767 -0.5003
 8953SOL    HW138321   0.317   3.610  16.214 -0.2317  0.1141 -0.1073
 8953SOL    HW238322   0.290   3.759  16.216  3.6904 -0.5777  1.5388
 8954SOL     OW38323   1.121   1.639   1.637 -0.1170 -0.4281 -0.1487
 8954SOL    HW138324   1.107   1.683   1.553  0.6992  0.1695  0.0233
 8954SOL    HW238325   1.040   1.649   1.687 -0.5533 -0.3506 -0.8720
 8955SOL     OW38326   0.256   2.464   2.227  0.2101  0.2678 -0.6997
 8955SOL    HW138327   0.259   2.538   2.167  2.0606  0.9182  0.1964
 8955SOL    HW238328   0.317   2.402   2.186  0.6453  1.1392 -1.3694
 8956SOL     OW38329   1.285   0.919  10.390  0.3297  0.1692  0.1418
 8956SOL    HW138330   1.229   0.977  10.441  0.3788 -0.1450  0.5533
 8956SOL    HW238331   1.253   0.835  10.425 -1.1259  1.2918  1.5040
 8957SOL     OW38332   1.875   3.216   3.247  0.3463  0.1657  0.8638
 8957SOL    HW138333   1.853   3.309   3.238 -0.1537 -0.2857 -2.5110
 8957SOL    HW238334   1.788   3.188   3.219  0.4304 -0.3725  1.1463
 8958SOL     OW38335   4.071   1.069   2.407 -0.1613 -0.1200 -0.1599
 8958SOL    HW138336   4.062   0.974   2.411 -1.8473  0.1008  1.4327
 8958SOL    HW238337   4.091   1.091   2.498  1.2768  1.1478 -0.7772
 8959SOL     OW38338   1.623   0.095   0.573 -0.1281  0.0753 -0.3459
 8959SOL    HW138339   1.554   0.053   0.624 -1.4860  0.0748 -2.1941
 8959SOL    HW238340   1.611   0.049   0.490  1.0614 -1.5676  0.3839
 8960SOL     OW38341   3.343   3.103  12.025  0.3601 -0.3585  0.0835
 8960SOL    HW138342   3.367   3.039  11.958 -0.8620  0.6334 -1.2833
 8960SOL    HW238343   3.380   3.055  12.099  0.1591 -0.7851 -0.0914
 8961SOL     OW38344   0.858   2.013   3.246 -0.3090 -0.3135 -0.0175
 8961SOL    HW138345   0.801   2.000   3.170 -1.1230 -2.3415  0.9228
 8961SOL    HW238346   0.853   2.107   3.264  0.8697 -0.5214  1.3671
 8962SOL     OW38347   2.758   4.559   8.829 -0.2253  0.0564 -0.4915
 8962SOL    HW138348   2.764   4.601   8.915  1.1235 -2.3738  0.6071
 8962SOL    HW238349   2.833   4.499   8.836 -0.9603 -0.8946 -0.8106
 8963SOL     OW38350   4.670   2.981   7.185 -0.3890 -0.1677  1.0139
 8963SOL    HW138351   4.712   2.896   7.197  0.6225  0.1459 -0.3207
 8963SOL    HW238352   4.623   2.955   7.105  1.2804  1.3434 -0.4546
 8964SOL     OW38353   2.780   4.183   4.105  0.2382  0.3199  0.2316
 8964SOL    HW138354   2.802   4.267   4.146 -2.3695  0.8733  0.5305
 8964SOL    HW238355   2.836   4.120   4.150  0.9059  0.1668 -0.8136
 8965SOL     OW38356   4.005   3.966   4.406 -0.0417 -0.4204 -0.4722
 8965SOL    HW138357   3.936   3.924   4.353 -0.5326 -1.1343  0.7217
 8965SOL    HW238358   3.956   4.026   4.462  0.2244  0.8895 -1.6510
 8966SOL     OW38359   4.348   1.171  16.952 -0.5525 -0.3741  0.0754
 8966SOL    HW138360   4.380   1.154  17.040  1.3509  0.7792 -0.4014
 8966SOL    HW238361   4.347   1.267  16.946 -0.5868 -0.2907  1.3588
 8967SOL     OW38362   1.606   3.540   7.632  0.1965  0.2250 -0.2741
 8967SOL    HW138363   1.529   3.555   7.688  0.7593  1.1599  0.2573
 8967SOL    HW238364   1.672   3.494   7.683 -1.4096 -0.5495  1.1185
 8968SOL     OW38365   3.394   1.158   2.199 -0.2863  0.1899  0.6269
 8968SOL    HW138366   3.480   1.152   2.156 -0.1857 -2.0532  1.1717
 8968SOL    HW238367   3.406   1.099   2.273 -0.7785  0.6016  1.0344
 8969SOL     OW38368   4.445   4.029   8.862 -0.0672 -0.2075  0.0543
 8969SOL    HW138369   4.375   4.070   8.812  1.7732 -0.3792 -2.6366
 8969SOL    HW238370   4.456   3.956   8.802  1.4684  0.9387 -1.0550
 8970SOL     OW38371   1.384   2.002   3.497 -0.4294  0.2540 -0.9582
 8970SOL    HW138372   1.362   1.992   3.590  2.5901 -0.5271 -0.3228
 8970SOL    HW238373   1.428   1.917   3.492  0.1998  0.4561  0.9109
 8971SOL     OW38374   4.483   4.230   6.331  0.7552 -0.2992  0.1104
 8971SOL    HW138375   4.450   4.187   6.253  0.7476  2.0323 -1.1746
 8971SOL    HW238376   4.456   4.162   6.393  0.4810  0.9952  1.4181
 8972SOL     OW38377   4.698   1.456   8.474 -0.7739  0.6055 -0.1888
 8972SOL    HW138378   4.636   1.446   8.547 -0.1895  1.7405  0.4638
 8972SOL    HW238379   4.706   1.550   8.485  1.2844  0.3180  0.8018
 8973SOL     OW38380   4.243   2.025  11.164  0.0761  0.2502 -0.1308
 8973SOL    HW138381   4.300   1.990  11.095  1.0409  0.6302  0.4840
 8973SOL    HW238382   4.181   1.952  11.170 -1.0163  1.1850 -0.1012
 8974SOL     OW38383   1.757   1.861  15.829  0.6143 -0.0263 -0.0008
 8974SOL    HW138384   1.695   1.913  15.882  0.8839 -1.0667  1.3365
 8974SOL    HW238385   1.834   1.919  15.832 -0.4058  1.3416 -0.1252
 8975SOL     OW38386   4.338   4.029   9.337 -0.3298  0.7588 -0.2464
 8975SOL    HW138387   4.392   4.046   9.259  1.3001 -1.5644  0.3849
 8975SOL    HW238388   4.255   4.065   9.306 -1.2413 -0.9820  0.2078
 8976SOL     OW38389   0.184   2.740  10.730  0.6867  0.2766 -0.2239
 8976SOL    HW138390   0.126   2.817  10.734 -1.2139 -1.1388 -0.7595
 8976SOL    HW238391   0.128   2.668  10.702 -0.5725  1.5447 -0.9886
 8977SOL     OW38392   1.070   1.461   6.872  0.4130 -0.6781 -0.0191
 8977SOL    HW138393   1.058   1.527   6.940  0.6139 -0.9097  0.2374
 8977SOL    HW238394   0.980   1.433   6.857  0.6391 -1.0661 -0.6386
 8978SOL     OW38395   4.462   0.693   4.663  0.0927 -0.3894  0.6590
 8978SOL    HW138396   4.461   0.655   4.751 -1.3710 -1.7637  0.0397
 8978SOL    HW238397   4.401   0.765   4.678 -1.0050 -0.6580 -2.4724
 8979SOL     OW38398   3.846   0.680  12.825  0.5474 -0.3218 -0.5967
 8979SOL    HW138399   3.936   0.712  12.813  0.3627  0.4221  0.0419
 8979SOL    HW238400   3.841   0.656  12.918  0.9618  4.8782  0.7533
 8980SOL     OW38401   1.831   1.859   4.662  0.2924  0.1288 -0.5622
 8980SOL    HW138402   1.759   1.857   4.599 -2.3625  0.9861  2.4708
 8980SOL    HW238403   1.904   1.866   4.599 -1.2571  1.1100 -2.2474
 8981SOL     OW38404   2.899   3.855   6.313  1.0520 -0.7828  0.5899
 8981SOL    HW138405   2.923   3.855   6.406 -0.4856  3.8746  0.9843
 8981SOL    HW238406   2.857   3.941   6.310 -1.7348 -2.1532  0.1313
 8982SOL     OW38407   0.583   4.048   5.310 -0.0676 -0.2496  0.4424
 8982SOL    HW138408   0.566   4.089   5.395 -0.5719 -0.5072  0.4697
 8982SOL    HW238409   0.672   4.081   5.296  0.1041 -0.4446  1.0571
 8983SOL     OW38410   1.413   4.393  17.447  0.1498 -0.1481  0.6441
 8983SOL    HW138411   1.453   4.480  17.457  0.2521 -0.2876  1.4651
 8983SOL    HW238412   1.479   4.334  17.484  0.8799  0.2982  0.0616
 8984SOL     OW38413   0.260   2.250   8.800 -0.5589  0.1714  0.0478
 8984SOL    HW138414   0.252   2.176   8.739  1.9077 -2.3735  2.8301
 8984SOL    HW238415   0.259   2.191   8.876  1.8205 -0.9622 -0.8035
 8985SOL     OW38416   0.781   3.648   2.011  0.3225  1.0109  0.7014
 8985SOL    HW138417   0.810   3.669   1.923  0.5135  2.5945  1.1541
 8985SOL    HW238418   0.686   3.655   2.002  0.0695 -2.4541  0.5206
 8986SOL     OW38419   2.042   3.301   8.830 -0.3587 -0.8004 -0.5392
 8986SOL    HW138420   1.960   3.341   8.859 -0.3895 -1.1003 -0.2230
 8986SOL    HW238421   2.087   3.378   8.793  0.5283 -0.5671  1.0542
 8987SOL     OW38422   3.666   3.773   4.429  0.1341 -0.3181  0.2845
 8987SOL    HW138423   3.718   3.693   4.435 -1.2528 -1.1948  0.6720
 8987SOL    HW238424   3.676   3.794   4.336  0.3538 -0.5172  0.2647
 8988SOL     OW38425   0.602   1.106   2.224 -0.4909 -0.1558 -0.4996
 8988SOL    HW138426   0.548   1.165   2.170  0.3364  0.7329 -0.3410
 8988SOL    HW238427   0.614   1.154   2.305 -1.4368 -1.4456  0.4063
 8989SOL     OW38428   2.206   3.237   1.648 -0.4847 -0.0418  0.1459
 8989SOL    HW138429   2.241   3.148   1.649 -0.3007  0.0316  0.2424
 8989SOL    HW238430   2.292   3.279   1.645 -1.0390  0.9755 -1.5168
 8990SOL     OW38431   4.708   2.608   3.786  0.4228  0.0799  0.3378
 8990SOL    HW138432   4.698   2.696   3.823 -1.1982 -0.6283  1.5510
 8990SOL    HW238433   0.067   2.608   3.729 -0.7179 -0.8335 -1.2311
 8991SOL     OW38434   3.588   3.063   5.265 -0.6626 -0.2227 -0.3475
 8991SOL    HW138435   3.572   3.079   5.172  1.7798  0.8373 -0.5653
 8991SOL    HW238436   3.649   2.989   5.261 -1.7514 -1.0976 -0.7539
 8992SOL     OW38437   2.847   2.141  12.265 -0.2805  0.3859  0.0809
 8992SOL    HW138438   2.936   2.164  12.290  0.9811 -2.2109 -1.9399
 8992SOL    HW238439   2.853   2.051  12.231  0.3028 -0.0360  1.3229
 8993SOL     OW38440   1.108   0.107  15.199  0.3964  0.5083  0.2810
 8993SOL    HW138441   1.028   0.155  15.221 -1.0365 -2.1328  0.8304
 8993SOL    HW238442   1.077   0.017  15.208  1.7405 -0.1508 -1.9121
 8994SOL     OW38443   2.609   3.276   3.362 -0.8442  0.1436 -0.3728
 8994SOL    HW138444   2.601   3.275   3.458 -0.9688  0.4332 -0.3825
 8994SOL    HW238445   2.530   3.231   3.332  0.5913 -2.3374 -0.3912
 8995SOL     OW38446   0.417   1.235  17.506 -0.3670 -0.3058 -0.0695
 8995SOL    HW138447   0.460   1.187  17.576  0.4445 -2.1298 -1.8152
 8995SOL    HW238448   0.494   1.266  17.459 -0.2586  0.2880  0.5006
 8996SOL     OW38449   4.020   2.736   5.813  0.3238  0.5261  0.0102
 8996SOL    HW138450   3.968   2.672   5.861 -1.1027  0.8056 -1.1591
 8996SOL    HW238451   4.107   2.725   5.851  0.7426 -0.8720 -1.3438
 8997SOL     OW38452   2.619   3.276   1.203  0.2377 -0.0519  0.0165
 8997SOL    HW138453   2.641   3.369   1.205  2.0522 -0.4711 -0.5488
 8997SOL    HW238454   2.700   3.234   1.231  0.7511  0.3883 -0.7960
 8998SOL     OW38455   2.085   1.376  12.117 -0.0857  0.1884 -0.5291
 8998SOL    HW138456   2.098   1.314  12.188 -0.9478 -0.3922 -0.8854
 8998SOL    HW238457   2.034   1.325  12.055 -2.8567  1.1875  0.9317
 8999SOL     OW38458   1.251   4.674  16.837 -0.0232 -0.8228 -0.1828
 8999SOL    HW138459   1.166   4.679  16.795  0.4491 -2.4470 -1.3364
 8999SOL    HW238460   1.306   0.002  16.774 -1.9136  0.6932 -0.7036
 9000SOL     OW38461   3.034   2.199   1.359  0.3378 -0.2627  0.1279
 9000SOL    HW138462   3.079   2.197   1.275  0.8393  1.3781  0.3462
 9000SOL    HW238463   2.996   2.111   1.361 -1.1883  0.4526  3.7431
 9001SOL     OW38464   2.880   3.569  17.166  0.1593 -0.5662  0.6844
 9001SOL    HW138465   2.835   3.643  17.126  1.6785 -0.0119  0.0142
 9001SOL    HW238466   2.824   3.493  17.148 -0.0266 -0.1324 -0.5617
 9002SOL     OW38467   3.069   1.103   6.194  0.2196 -0.1394 -0.1209
 9002SOL    HW138468   3.108   1.188   6.215 -0.9554  0.0111  1.4929
 9002SOL    HW238469   2.978   1.127   6.178  0.4782  0.0844 -1.2179
 9003SOL     OW38470   0.067   1.244   5.008 -0.1604 -0.0310  0.5113
 9003SOL    HW138471   4.710   1.294   4.977  1.6311  2.8301  0.7757
 9003SOL    HW238472   0.026   1.158   5.020  2.4878 -1.4397 -0.5938
 9004SOL     OW38473   1.601   3.502   2.430 -0.4388  0.5244 -0.1041
 9004SOL    HW138474   1.556   3.534   2.352 -0.0204 -1.2766 -1.0838
 9004SOL    HW238475   1.590   3.408   2.410 -2.0004  0.1876  2.3731
 9005SOL     OW38476   0.092   3.007  17.213  0.2144 -0.2585 -0.2316
 9005SOL    HW138477   0.150   3.080  17.191 -0.2747  0.3693  0.6310
 9005SOL    HW238478   0.150   2.944  17.256  1.1005 -0.5813 -1.8628
 9006SOL     OW38479   4.298   2.558   6.818 -0.1633  0.4780 -0.5026
 9006SOL    HW138480   4.277   2.469   6.848 -0.2317  0.5794 -0.2444
 9006SOL    HW238481   4.295   2.543   6.724  1.5697  3.4659 -1.0355
 9007SOL     OW38482   3.559   3.664   6.189  0.2888 -0.5115  0.0117
 9007SOL    HW138483   3.630   3.708   6.237 -0.6605  1.4538 -0.3694
 9007SOL    HW238484   3.494   3.718   6.234 -2.1904 -1.6043 -2.2744
 9008SOL     OW38485   3.232   3.721   0.286  0.0352  0.2804 -0.1797
 9008SOL    HW138486   3.175   3.667   0.341  0.6151 -0.8445 -0.6713
 9008SOL    HW238487   3.203   3.694   0.199 -0.1350 -0.5612  0.1307
 9009SOL     OW38488   3.401   0.636   5.153 -0.4882 -0.8666  0.2435
 9009SOL    HW138489   3.419   0.720   5.111 -0.8459 -0.2026  1.4149
 9009SOL    HW238490   3.365   0.584   5.081 -2.4552 -0.9422  1.2608
 9010SOL     OW38491   3.858   2.871   8.133  0.1429  0.6712 -0.6601
 9010SOL    HW138492   3.820   2.820   8.061 -0.1814  0.4138 -0.3038
 9010SOL    HW238493   3.779   2.909   8.171 -0.6247  0.8703 -2.4372
 9011SOL     OW38494   2.307   0.890  12.400  0.4624 -0.4375  0.1884
 9011SOL    HW138495   2.327   0.957  12.335  1.4237 -0.1976  0.7285
 9011SOL    HW238496   2.273   0.819  12.346 -1.5168 -0.5528  1.5934
 9012SOL     OW38497   3.893   2.339   8.409 -0.4606 -1.0491  0.5332
 9012SOL    HW138498   3.855   2.262   8.452 -3.0446 -1.4600 -2.4831
 9012SOL    HW238499   3.821   2.401   8.408  0.6255  0.2098  0.6099
 9013SOL     OW38500   3.583   3.468  14.188  0.1247 -0.6086  0.5029
 9013SOL    HW138501   3.595   3.522  14.267 -3.3026 -0.1657  0.6945
 9013SOL    HW238502   3.495   3.437  14.207  0.1533  0.9845  3.3048
 9014SOL     OW38503   1.268   4.047   1.022  0.5267  0.4920  0.2611
 9014SOL    HW138504   1.239   3.963   0.985 -0.1684  0.5530  0.6631
 9014SOL    HW238505   1.252   4.027   1.115  0.8673  2.3345  0.7121
 9015SOL     OW38506   2.555   4.450   2.180  0.3853 -0.2403 -0.1016
 9015SOL    HW138507   2.534   4.380   2.242  1.7979 -0.0701  0.5678
 9015SOL    HW238508   2.473   4.469   2.133  0.9049  2.0136 -0.1045
 9016SOL     OW38509   3.733   1.189   7.268  0.0891 -0.3761 -0.6353
 9016SOL    HW138510   3.686   1.107   7.279  0.5965 -0.6306 -0.3828
 9016SOL    HW238511   3.726   1.224   7.357  0.8498  0.3948 -0.8716
 9017SOL     OW38512   3.660   3.325  12.904 -0.3639 -0.1630  0.0835
 9017SOL    HW138513   3.742   3.316  12.952 -0.0876 -0.6810 -0.4868
 9017SOL    HW238514   3.639   3.418  12.893  0.1497  0.0991  1.4064
 9018SOL     OW38515   1.593   0.928  11.217 -0.2043 -0.3646 -0.0719
 9018SOL    HW138516   1.612   0.886  11.134 -1.0464 -2.4652  0.7884
 9018SOL    HW238517   1.524   0.988  11.189 -1.0958 -0.9057  0.9587
 9019SOL     OW38518   1.613   1.255   4.869  0.5471 -0.0995  0.9770
 9019SOL    HW138519   1.587   1.166   4.895  2.2087 -0.5463  1.1400
 9019SOL    HW238520   1.619   1.293   4.957 -1.0484 -1.4524  1.6781
 9020SOL     OW38521   2.997   2.009   9.958  0.7411 -0.5788  0.3162
 9020SOL    HW138522   2.925   1.997   9.896  0.1972  1.0085  0.6430
 9020SOL    HW238523   2.989   1.933  10.016 -1.7696  0.8680  1.8705
 9021SOL     OW38524   0.349   1.175  10.257 -0.4539  0.0067 -0.5329
 9021SOL    HW138525   0.332   1.104  10.319  0.3993  0.6137  0.3952
 9021SOL    HW238526   0.264   1.221  10.251 -0.7913 -0.5045  0.3305
 9022SOL     OW38527   0.186   3.459   9.748  0.3205  0.1249 -0.0965
 9022SOL    HW138528   0.222   3.547   9.731  0.6150  0.1005  0.4182
 9022SOL    HW238529   0.111   3.486   9.801  1.3073 -0.1869  1.4639
 9023SOL     OW38530   2.626   2.104   1.449  0.6307  0.1226  0.4408
 9023SOL    HW138531   2.561   2.173   1.434  0.8807  0.3472  0.3845
 9023SOL    HW238532   2.596   2.077   1.536 -0.3633 -0.0515  0.0448
 9024SOL     OW38533   1.727   1.763   1.476  0.2002 -0.2927  0.4580
 9024SOL    HW138534   1.818   1.788   1.490  0.6026 -0.5514 -1.6687
 9024SOL    HW238535   1.736   1.668   1.473 -1.2049 -0.3925 -0.8288
 9025SOL     OW38536   0.368   1.421   6.436  0.4852  0.1715 -0.0411
 9025SOL    HW138537   0.412   1.336   6.436 -0.5432 -0.3734 -1.4551
 9025SOL    HW238538   0.349   1.444   6.527  1.0991  1.5753 -0.2622
 9026SOL     OW38539   3.012   3.673   5.812  0.4005  0.4137 -0.2811
 9026SOL    HW138540   2.985   3.586   5.843 -1.6135  1.0625 -0.2071
 9026SOL    HW238541   2.940   3.694   5.753 -0.4764 -1.0519  0.2418
 9027SOL     OW38542   1.762   0.329   1.101 -0.4575 -0.1168 -0.3075
 9027SOL    HW138543   1.696   0.396   1.087 -1.9382 -1.7276 -1.0908
 9027SOL    HW238544   1.811   0.373   1.170 -1.6390 -1.3692  1.3084
 9028SOL     OW38545   0.274   2.344   4.498 -0.2042 -0.4011  0.9014
 9028SOL    HW138546   0.211   2.324   4.567  1.2340 -1.1723  1.9861
 9028SOL    HW238547   0.316   2.258   4.503  0.0592 -0.2771  0.8069
 9029SOL     OW38548   0.094   2.918  16.954  0.2203  0.6587 -0.3286
 9029SOL    HW138549   0.006   2.955  16.950 -0.5738 -1.2850 -0.8277
 9029SOL    HW238550   0.116   2.937  17.045  2.8869 -0.3510 -0.7604
 9030SOL     OW38551   3.874   2.079  14.605 -0.1237  0.3306 -0.5809
 9030SOL    HW138552   3.919   2.071  14.521 -1.1999 -1.0353 -1.0336
 9030SOL    HW238553   3.863   2.174  14.606 -3.0009  0.0167 -2.3877
 9031SOL     OW38554   4.586   1.574  12.901  0.1456  0.1365 -0.2593
 9031SOL    HW138555   4.590   1.523  12.820 -1.2271 -1.5986  0.7501
 9031SOL    HW238556   4.656   1.638  12.889  0.1586  0.3246  0.8626
 9032SOL     OW38557   1.930   2.925   5.141 -0.8649 -0.4794  0.1880
 9032SOL    HW138558   2.014   2.946   5.182 -0.1913 -0.4576 -1.2102
 9032SOL    HW238559   1.880   2.999   5.174 -0.0307 -0.9279  2.4958
 9033SOL     OW38560   3.772   3.106  16.644 -0.5090 -0.1763  0.2653
 9033SOL    HW138561   3.741   3.162  16.572  0.1266 -0.1780 -0.0118
 9033SOL    HW238562   3.843   3.066  16.594 -1.6177 -1.2687 -0.4337
 9034SOL     OW38563   2.605   1.516   4.597  0.2028  0.3672  0.1140
 9034SOL    HW138564   2.583   1.519   4.690 -1.8724 -0.8252 -0.3315
 9034SOL    HW238565   2.677   1.453   4.600  1.3625  1.6587 -0.7711
 9035SOL     OW38566   4.257   3.705  10.569 -0.2031  0.4063 -0.6081
 9035SOL    HW138567   4.334   3.746  10.608 -1.4595  2.7964 -0.6693
 9035SOL    HW238568   4.296   3.639  10.512 -1.7781 -2.7073  1.9147
 9036SOL     OW38569   3.400   1.399  16.018 -0.0062  0.2069 -0.4391
 9036SOL    HW138570   3.379   1.305  16.011  2.8275 -0.4025 -0.6752
 9036SOL    HW238571   3.316   1.444  16.007 -0.2156 -0.3991 -1.3406
 9037SOL     OW38572   1.382   4.502   4.161 -0.7563  0.3298 -0.8116
 9037SOL    HW138573   1.310   4.539   4.212 -0.4866 -1.7021  1.0573
 9037SOL    HW238574   1.417   4.437   4.223  0.0022  0.1916 -1.3850
 9038SOL     OW38575   4.491   3.931  17.653 -0.3845 -0.5205  0.0974
 9038SOL    HW138576   4.558   3.949   0.043 -1.6561 -0.8787  1.4902
 9038SOL    HW238577   4.457   3.850   0.016  0.1510 -1.9821 -2.4948
 9039SOL     OW38578   3.260   2.290   7.645  0.3333  0.7305  0.5172
 9039SOL    HW138579   3.292   2.275   7.735 -2.9198 -3.5383  0.9867
 9039SOL    HW238580   3.176   2.244   7.651  0.6189  0.1496  0.0927
 9040SOL     OW38581   4.586   2.918   5.240  0.0028  0.3071  0.3920
 9040SOL    HW138582   4.588   2.842   5.182  1.4068  1.2542 -0.8083
 9040SOL    HW238583   4.652   2.968   5.191  0.7383  0.2675  1.3350
 9041SOL     OW38584   3.374   1.423   4.048  0.0695  0.3046  0.0069
 9041SOL    HW138585   3.301   1.374   4.012 -0.2176  0.3055  0.5807
 9041SOL    HW238586   3.325   1.503   4.068  1.0184  1.3789 -1.9703
 9042SOL     OW38587   0.102   3.804   6.858 -0.0631  0.3121  0.3553
 9042SOL    HW138588   0.107   3.897   6.880  1.2906  0.1631  0.6941
 9042SOL    HW238589   0.190   3.781   6.887  0.1714  0.4437 -0.2585
 9043SOL     OW38590   4.484   1.262   6.277 -0.2613 -0.3869 -0.2844
 9043SOL    HW138591   4.435   1.336   6.312  0.3937  0.7924 -1.8217
 9043SOL    HW238592   4.505   1.211   6.354  0.1494 -0.0216 -0.1538
 9044SOL     OW38593   2.384   3.559   5.920  0.1721  0.4183 -0.0772
 9044SOL    HW138594   2.292   3.578   5.938  0.1316  0.7597 -0.6572
 9044SOL    HW238595   2.426   3.633   5.964 -1.2079 -0.0298  2.0038
 9045SOL     OW38596   4.073   1.954   8.123 -0.0432  0.5884  0.8559
 9045SOL    HW138597   3.980   1.957   8.148 -0.3698 -2.4115 -0.0615
 9045SOL    HW238598   4.066   2.009   8.045 -0.5591 -0.6040  0.0645
 9046SOL     OW38599   1.608   2.979   5.895  0.1864 -0.3373 -0.2221
 9046SOL    HW138600   1.699   2.970   5.867 -0.5061 -2.4443 -1.7883
 9046SOL    HW238601   1.613   2.935   5.979 -0.2508  1.6905  0.8704
 9047SOL     OW38602   3.855   2.121   5.415 -0.2017 -0.1099 -0.2066
 9047SOL    HW138603   3.910   2.196   5.437 -2.1997  1.3899 -0.3078
 9047SOL    HW238604   3.793   2.160   5.354 -0.7565 -0.3838  0.1794
 9048SOL     OW38605   1.176   2.877  15.546  0.1460  0.0504  0.5231
 9048SOL    HW138606   1.123   2.907  15.620  0.2798  0.1014  0.5973
 9048SOL    HW238607   1.174   2.955  15.490  0.4810 -0.3181 -0.0065
 9049SOL     OW38608   0.621   4.542  16.380 -0.0936 -0.7953 -0.2501
 9049SOL    HW138609   0.657   4.612  16.434 -0.5252  1.0451 -2.3533
 9049SOL    HW238610   0.542   4.581  16.344  0.3076  1.1417  0.9985
 9050SOL     OW38611   4.153   0.398   8.749 -0.0417  0.0356 -0.1686
 9050SOL    HW138612   4.127   0.313   8.714 -0.2224 -0.0011  0.0579
 9050SOL    HW238613   4.238   0.414   8.707  0.2813 -0.8086  0.1668
 9051SOL     OW38614   4.582   0.248   8.774 -0.2474  0.2795  0.3587
 9051SOL    HW138615   4.535   0.196   8.839  1.6138  0.3573  1.7617
 9051SOL    HW238616   4.586   0.188   8.700  0.5470 -1.6564  1.9874
 9052SOL     OW38617   1.385   2.511   9.071  0.2155 -0.5075  0.3341
 9052SOL    HW138618   1.345   2.587   9.113 -0.3181 -0.5057 -0.1869
 9052SOL    HW238619   1.321   2.447   9.102  0.3507 -1.5778 -1.6339
 9053SOL     OW38620   0.054   0.083   4.277 -0.1696 -0.6218 -0.0907
 9053SOL    HW138621   0.106   0.121   4.348 -0.1239  0.5476 -0.7532
 9053SOL    HW238622   4.718   0.158   4.254 -0.5888 -1.0285 -0.4403
 9054SOL     OW38623   3.963   3.024   1.967  0.5865 -0.2462  0.3384
 9054SOL    HW138624   3.923   2.995   1.885  1.3272  0.5579 -0.3060
 9054SOL    HW238625   4.003   3.105   1.934  0.3105  0.3852  1.5339
 9055SOL     OW38626   2.998   0.678  11.182 -0.9998 -0.6313  0.0837
 9055SOL    HW138627   3.031   0.643  11.265 -3.1948 -1.0266  0.8034
 9055SOL    HW238628   3.057   0.748  11.154 -1.8561 -0.5943 -1.6166
 9056SOL     OW38629   4.133   0.101   4.165 -0.1928  0.4938 -0.4455
 9056SOL    HW138630   4.202   0.044   4.198 -1.8749 -0.3381  1.7054
 9056SOL    HW238631   4.056   0.058   4.205 -1.1945  1.9248 -0.8302
 9057SOL     OW38632   1.117   1.195   3.576  0.2358 -0.4574 -0.3625
 9057SOL    HW138633   1.064   1.268   3.608  2.6578  1.1472 -0.0347
 9057SOL    HW238634   1.123   1.225   3.485  2.0388  0.3002  0.0224
 9058SOL     OW38635   4.578   3.941   5.234  0.2885 -0.3897  0.0033
 9058SOL    HW138636   4.614   3.956   5.321 -0.6836  2.9859 -0.1558
 9058SOL    HW238637   4.556   3.848   5.245  0.4075 -0.6572 -1.9613
 9059SOL     OW38638   3.778   3.420   7.549 -0.3420  0.0789 -0.8544
 9059SOL    HW138639   3.861   3.391   7.510 -0.2699 -0.1821 -0.5058
 9059SOL    HW238640   3.730   3.457   7.476 -0.3010  0.0834 -0.8794
 9060SOL     OW38641   4.264   4.430   9.058 -0.2673  0.3174 -0.2901
 9060SOL    HW138642   4.271   4.430   8.963  1.3305 -1.2431 -0.1660
 9060SOL    HW238643   4.243   4.522   9.075  1.4217  1.0358 -2.1563
 9061SOL     OW38644   1.981   1.316   4.085 -0.4399 -0.2548 -0.5068
 9061SOL    HW138645   1.993   1.280   3.997  0.5066 -1.8714  0.2773
 9061SOL    HW238646   2.068   1.355   4.099 -0.7491  0.4336 -0.4924
 9062SOL     OW38647   1.701   3.993   0.503 -0.0472  0.1383 -0.2334
 9062SOL    HW138648   1.617   3.951   0.521 -0.3178  1.2521  1.0278
 9062SOL    HW238649   1.760   3.947   0.564 -0.6766 -1.3110 -0.7068
 9063SOL     OW38650   3.318   0.060   3.764  0.0281  0.1967 -0.0929
 9063SOL    HW138651   3.363   4.694   3.773 -0.2286 -0.0562 -1.1986
 9063SOL    HW238652   3.225   0.038   3.756 -0.0921  0.4131  0.6939
 9064SOL     OW38653   0.932   2.079   1.236 -0.4095  0.2416  0.0737
 9064SOL    HW138654   0.853   2.033   1.263 -0.3241 -0.2855 -0.5668
 9064SOL    HW238655   0.984   2.091   1.316 -2.0142  1.2844  0.9506
 9065SOL     OW38656   1.884   0.245   2.911 -0.2391  0.4021 -0.1816
 9065SOL    HW138657   1.918   0.204   2.832 -1.4207 -1.4263  0.2396
 9065SOL    HW238658   1.801   0.286   2.886 -1.2133 -0.3729  1.7240
 9066SOL     OW38659   1.332   2.800   8.825  0.4166  0.0384 -0.0187
 9066SOL    HW138660   1.382   2.865   8.874 -1.8135  2.1417 -0.5459
 9066SOL    HW238661   1.387   2.785   8.748  0.3557  0.3195 -0.1156
 9067SOL     OW38662   3.334   3.865  16.896  0.4364  0.4880 -0.2163
 9067SOL    HW138663   3.404   3.834  16.839  0.4424 -0.7397  0.4655
 9067SOL    HW238664   3.262   3.812  16.863  0.7156  0.9652 -1.5972
 9068SOL     OW38665   1.591   2.128  12.748 -0.7116 -0.3514 -0.9263
 9068SOL    HW138666   1.573   2.113  12.841 -0.9953  2.6595 -0.4885
 9068SOL    HW238667   1.635   2.046  12.728 -0.8315 -1.0225  1.4818
 9069SOL     OW38668   0.983   2.575  14.486  0.5838 -0.0794 -0.4403
 9069SOL    HW138669   1.006   2.617  14.569  0.1177  1.6531 -1.1808
 9069SOL    HW238670   1.030   2.632  14.425  0.7066 -0.9172 -1.1308
 9070SOL     OW38671   4.099   2.689   6.350 -0.1640 -0.0936  1.3731
 9070SOL    HW138672   4.119   2.736   6.430  0.2131  1.1248  0.5668
 9070SOL    HW238673   4.018   2.642   6.372  1.2869 -2.9306  0.6701
 9071SOL     OW38674   1.363   4.494   7.271 -0.3604  0.3585  0.3260
 9071SOL    HW138675   1.274   4.512   7.241  0.4659  3.1318 -0.5428
 9071SOL    HW238676   1.364   4.558   7.342  3.5312 -0.3760  0.9116
 9072SOL     OW38677   2.633   3.157  14.121 -0.4135 -0.1215 -0.4513
 9072SOL    HW138678   2.604   3.179  14.210 -0.6683 -0.9543 -0.3360
 9072SOL    HW238679   2.693   3.084  14.134 -0.4819 -0.2596 -0.9199
 9073SOL     OW38680   4.281   3.544   1.279  0.3819  0.1541 -0.0854
 9073SOL    HW138681   4.330   3.609   1.228 -1.1688  1.7450  0.4596
 9073SOL    HW238682   4.232   3.499   1.211  1.5690 -1.5332  0.1860
 9074SOL     OW38683   3.348   0.844   1.755 -0.1193 -0.7535  0.1238
 9074SOL    HW138684   3.321   0.879   1.840 -1.8502  3.6778 -2.2800
 9074SOL    HW238685   3.443   0.856   1.752 -0.3936  0.6784 -2.0322
 9075SOL     OW38686   1.844   0.022   3.481  0.2919  0.1794  0.1728
 9075SOL    HW138687   1.815   0.094   3.424  5.6489  1.4704 -0.8888
 9075SOL    HW238688   1.901   0.066   3.543  2.1859  2.4891 -3.1795
 9076SOL     OW38689   0.632   2.599   8.728 -0.1544  0.2304 -0.6337
 9076SOL    HW138690   0.716   2.564   8.757  0.2729  1.7573 -0.0494
 9076SOL    HW238691   0.608   2.666   8.792  1.8283  1.5228 -1.2341
 9077SOL     OW38692   2.098   3.782   6.680  0.2849  0.5446 -0.2499
 9077SOL    HW138693   2.054   3.711   6.727  0.7159  0.7881  0.5201
 9077SOL    HW238694   2.045   3.776   6.600 -1.1522  1.7389  0.6060
 9078SOL     OW38695   1.136   0.673   6.706 -0.4785 -0.2832 -0.1438
 9078SOL    HW138696   1.141   0.578   6.701 -2.2432 -0.5962  3.8974
 9078SOL    HW238697   1.043   0.689   6.720 -0.4903 -0.6134  0.1483
 9079SOL     OW38698   2.409   4.389   9.758  0.5237 -0.2343  0.4656
 9079SOL    HW138699   2.503   4.387   9.776  0.4853 -0.8524  0.5885
 9079SOL    HW238700   2.382   4.463   9.704 -0.1821 -0.8273  0.0177
 9080SOL     OW38701   0.874   3.516  12.109  0.0361 -0.2196 -0.4184
 9080SOL    HW138702   0.869   3.451  12.180 -0.0164  0.2348 -0.0086
 9080SOL    HW238703   0.844   3.592  12.158  0.1034 -1.7661  2.0203
 9081SOL     OW38704   0.092   3.940   6.395  0.3967 -0.2277 -0.4881
 9081SOL    HW138705   0.024   3.873   6.391  0.4591 -0.4438  2.3441
 9081SOL    HW238706   0.074   3.961   6.303  0.4323 -0.6207 -0.5840
 9082SOL     OW38707   3.208   0.290  12.491 -0.2890  0.0419 -0.3059
 9082SOL    HW138708   3.209   0.200  12.458 -3.3859 -0.1722  0.1769
 9082SOL    HW238709   3.259   0.271  12.570  1.7679  1.4290 -1.3151
 9083SOL     OW38710   1.880   2.054   6.085 -0.6976 -0.2101  0.6739
 9083SOL    HW138711   1.874   2.139   6.129  0.5191  0.2556 -0.0863
 9083SOL    HW238712   1.862   1.995   6.158 -0.4255 -1.0083  0.0949
 9084SOL     OW38713   1.318   3.932   0.340  0.1629 -0.2170 -0.0057
 9084SOL    HW138714   1.320   3.854   0.284  1.3438 -0.1946 -0.0057
 9084SOL    HW238715   1.226   3.930   0.364 -0.3799  0.7326 -2.0022
 9085SOL     OW38716   3.736   0.805   6.003 -0.7154 -0.3484  0.0171
 9085SOL    HW138717   3.696   0.890   6.018  1.7192  0.4936  1.7682
 9085SOL    HW238718   3.787   0.784   6.081 -0.2582  2.3376  0.4389
 9086SOL     OW38719   3.964   1.021  17.119  0.2581  0.0632 -0.5127
 9086SOL    HW138720   3.981   1.111  17.092 -0.1360  0.7901  1.6367
 9086SOL    HW238721   3.938   1.035  17.211  0.0434 -2.9762 -0.1071
 9087SOL     OW38722   0.040   0.061   2.981 -0.4343 -0.5217  0.3267
 9087SOL    HW138723   0.129   0.096   2.978 -0.6209 -0.0897 -0.2062
 9087SOL    HW238724   4.714   0.141   2.953 -0.2307 -1.3880 -2.4877
 9088SOL     OW38725   1.682   1.486   4.317  0.1034 -0.4167 -0.0037
 9088SOL    HW138726   1.698   1.421   4.248  1.4800 -1.2475  1.1014
 9088SOL    HW238727   1.750   1.450   4.374 -0.8958 -0.4870  1.1300
 9089SOL     OW38728   0.755   3.259  17.644 -0.2161  0.2512  0.5132
 9089SOL    HW138729   0.687   3.249  17.577 -1.7579 -0.0793  2.1538
 9089SOL    HW238730   0.711   3.294   0.045 -0.6310 -0.8540  0.7726
 9090SOL     OW38731   1.773   0.426   5.469 -0.2533 -0.4645 -0.2663
 9090SOL    HW138732   1.864   0.405   5.485  0.0130 -0.6525 -1.9925
 9090SOL    HW238733   1.767   0.522   5.475  1.6161 -0.3789  0.1531
 9091SOL     OW38734   4.654   4.103   3.498 -0.1131  0.2223 -0.0512
 9091SOL    HW138735   4.569   4.132   3.532 -0.5410 -0.1294 -0.8249
 9091SOL    HW238736   4.711   4.150   3.560 -0.7956  0.2204  0.5815
 9092SOL     OW38737   3.418   0.357   7.683 -0.3601  0.0813  0.1465
 9092SOL    HW138738   3.360   0.383   7.754  0.0359  3.3162 -0.7161
 9092SOL    HW238739   3.452   0.270   7.702 -2.1252 -0.3175  1.4560
 9093SOL     OW38740   4.275   2.646   5.989 -0.3974 -0.0132 -0.8004
 9093SOL    HW138741   4.325   2.599   5.922 -0.0814  1.3783 -1.5393
 9093SOL    HW238742   4.327   2.721   6.015 -2.1978 -0.0349  2.8350
 9094SOL     OW38743   4.096   1.830   4.572 -0.5528  1.3043 -0.1934
 9094SOL    HW138744   4.140   1.798   4.494 -0.6150  3.0748 -0.9573
 9094SOL    HW238745   4.157   1.828   4.645  0.2417 -0.2663 -0.9079
 9095SOL     OW38746   1.862   3.783  14.500 -0.3602  0.3300 -0.2907
 9095SOL    HW138747   1.821   3.697  14.507 -0.3411  0.4570  1.4528
 9095SOL    HW238748   1.867   3.808  14.408  0.0510  0.0632 -0.3405
 9096SOL     OW38749   0.623   3.384   7.222 -0.1355 -0.0044 -0.0525
 9096SOL    HW138750   0.670   3.467   7.219 -2.0044  1.0828  0.9992
 9096SOL    HW238751   0.687   3.315   7.205  0.0675  0.4870 -1.2647
 9097SOL     OW38752   1.633   1.033   3.157  0.4710  0.2254 -0.2894
 9097SOL    HW138753   1.574   1.033   3.082  0.6084 -1.8277 -0.4040
 9097SOL    HW238754   1.711   0.985   3.130 -0.2120 -2.0774  1.8006
 9098SOL     OW38755   1.285   0.631   4.343 -0.5692  0.0988 -0.4113
 9098SOL    HW138756   1.284   0.725   4.361  3.5706 -0.1666  1.1822
 9098SOL    HW238757   1.192   0.609   4.341 -0.5267  0.0033 -1.2005
 9099SOL     OW38758   0.867   0.930   6.015 -0.2267  0.1545  0.3299
 9099SOL    HW138759   0.928   0.866   6.053 -0.9588 -0.2436  0.8528
 9099SOL    HW238760   0.926   0.975   5.955 -2.9115  1.5830 -1.2121
 9100SOL     OW38761   3.276   0.601   4.049  0.2980  0.0946 -0.7592
 9100SOL    HW138762   3.217   0.661   4.003  0.8718  0.7972 -0.5768
 9100SOL    HW238763   3.246   0.515   4.019  0.8658 -0.3861  0.0550
 9101SOL     OW38764   3.025   1.680   5.576 -0.2916  0.3721  0.2219
 9101SOL    HW138765   3.033   1.704   5.484  0.0014 -0.7391 -0.0362
 9101SOL    HW238766   3.116   1.696   5.603  0.2817 -2.7933  0.0713
 9102SOL     OW38767   2.583   3.884   6.503 -0.4736  0.3421  0.5518
 9102SOL    HW138768   2.627   3.889   6.588  0.2893  0.6055  0.1377
 9102SOL    HW238769   2.525   3.808   6.507  1.2383 -1.1780 -3.5685
 9103SOL     OW38770   2.166   4.366   4.085  0.7539  0.0348  0.1979
 9103SOL    HW138771   2.082   4.331   4.055 -0.0455  0.6111  1.7748
 9103SOL    HW238772   2.143   4.445   4.133  0.5399  0.0456  0.0761
 9104SOL     OW38773   1.883   4.267   5.046  0.1363  0.5842 -0.1041
 9104SOL    HW138774   1.852   4.197   5.104 -1.5376  0.5427 -1.0627
 9104SOL    HW238775   1.844   4.248   4.961  0.6568 -1.3881  0.0958
 9105SOL     OW38776   3.362   2.025   5.699 -0.3650 -0.0098  0.4812
 9105SOL    HW138777   3.437   2.065   5.655 -0.3347  1.7588  2.1668
 9105SOL    HW238778   3.402   1.953   5.748 -2.3666 -0.2280  1.7810
 9106SOL     OW38779   0.007   1.977   6.672 -0.1171 -0.6197 -0.9795
 9106SOL    HW138780   0.073   1.977   6.603 -0.3043 -2.5085 -1.1765
 9106SOL    HW238781   0.041   1.909   6.730 -1.3000 -1.3294 -1.1184
 9107SOL     OW38782   4.279   3.042  16.179 -0.3463  0.1594 -0.4095
 9107SOL    HW138783   4.318   3.129  16.184 -0.6374  0.2007  1.1009
 9107SOL    HW238784   4.335   2.988  16.236 -1.1308 -1.3695 -1.0819
 9108SOL     OW38785   3.999   4.518   4.644  0.1310 -0.0133  0.0043
 9108SOL    HW138786   3.963   4.442   4.598  0.4089  0.0787 -0.3684
 9108SOL    HW238787   4.070   4.535   4.582 -1.5258 -1.7075 -2.3473
 9109SOL     OW38788   3.788   0.860   1.373  0.0578 -0.2839 -0.1225
 9109SOL    HW138789   3.829   0.790   1.322 -3.4133 -2.0482 -0.4896
 9109SOL    HW238790   3.848   0.935   1.376 -0.8503  0.4423 -0.2769
 9110SOL     OW38791   0.986   2.705   4.354  0.4896 -0.4370  0.5270
 9110SOL    HW138792   1.020   2.749   4.432  0.2305  0.0645  0.3579
 9110SOL    HW238793   0.896   2.733   4.368  0.5676 -0.4565  1.0730
 9111SOL     OW38794   0.064   3.341   4.295  0.1060  0.1373 -0.0151
 9111SOL    HW138795   0.060   3.325   4.390 -0.6975 -1.3622 -0.3037
 9111SOL    HW238796   0.003   3.415   4.300  0.6756  0.8121 -3.5690
 9112SOL     OW38797   0.370   2.823   6.077 -0.3593 -0.1107 -0.0598
 9112SOL    HW138798   0.444   2.799   6.133 -0.9311 -2.4045 -0.2601
 9112SOL    HW238799   0.422   2.857   6.005 -2.4098  1.3168 -0.8610
 9113SOL     OW38800   2.709   3.202   3.012 -0.0978 -0.1581  0.3060
 9113SOL    HW138801   2.770   3.218   2.940 -0.8603 -2.6475 -0.8925
 9113SOL    HW238802   2.762   3.239   3.083  0.0785  0.7476 -0.3017
 9114SOL     OW38803   1.379   3.614  10.258  0.5108 -0.7018 -0.7238
 9114SOL    HW138804   1.284   3.614  10.247  0.2901 -3.4932  1.2332
 9114SOL    HW238805   1.383   3.677  10.330  1.1640 -1.4562 -0.1093
 9115SOL     OW38806   1.636   2.220   7.747  0.1512  0.8550 -0.0601
 9115SOL    HW138807   1.714   2.186   7.792 -0.2779  0.9241  0.7269
 9115SOL    HW238808   1.628   2.295   7.806 -1.0200  1.3930 -0.9146
 9116SOL     OW38809   4.273   1.687   7.186  0.6023  0.0797 -0.1463
 9116SOL    HW138810   4.226   1.605   7.169  0.2385  0.5780 -1.6233
 9116SOL    HW238811   4.286   1.712   7.094  2.1691 -0.1183  0.0280
 9117SOL     OW38812   1.998   2.754  11.615  0.1498 -0.0851  0.1808
 9117SOL    HW138813   2.026   2.798  11.695 -2.3083 -0.6186  1.3363
 9117SOL    HW238814   1.904   2.745  11.631  0.3119 -2.1876 -0.0384
 9118SOL     OW38815   3.445   3.875   5.385  0.3624 -0.4769  1.0201
 9118SOL    HW138816   3.426   3.966   5.365  1.6443 -0.5562 -0.5614
 9118SOL    HW238817   3.394   3.864   5.465 -1.2085  2.1222  0.3672
 9119SOL     OW38818   1.387   0.259   7.139  0.0210  0.1409  0.0668
 9119SOL    HW138819   1.362   0.347   7.169 -1.5214 -0.5477  0.7943
 9119SOL    HW238820   1.483   0.266   7.141 -0.1364  3.4967 -2.6945
 9120SOL     OW38821   0.516   0.386   6.043  0.5963 -0.1391 -0.1014
 9120SOL    HW138822   0.603   0.391   6.082  0.5754 -0.9129  0.0468
 9120SOL    HW238823   0.546   0.353   5.958  1.8139  0.0858  0.2366
 9121SOL     OW38824   0.148   4.594   0.324 -0.1281 -0.2780 -0.2158
 9121SOL    HW138825   0.106   4.623   0.243 -2.0215  1.5900  1.3953
 9121SOL    HW238826   0.087   4.633   0.387  0.1502  0.9656 -0.7153
 9122SOL     OW38827   3.901   0.251   2.876  0.0291 -0.1190  0.0221
 9122SOL    HW138828   3.872   0.206   2.956 -1.4646  0.2854 -0.2858
 9122SOL    HW238829   3.911   0.340   2.910 -0.0339 -0.6764  1.5120
 9123SOL     OW38830   1.295   1.957   8.944  0.0595  0.2771 -0.7960
 9123SOL    HW138831   1.264   2.004   9.022  1.0173 -0.3739 -0.0256
 9123SOL    HW238832   1.354   2.022   8.908  2.1887 -0.8947  0.6139
 9124SOL     OW38833   4.642   0.757  13.021 -0.0747 -0.2180  0.3273
 9124SOL    HW138834   4.614   0.748  13.111  0.9064  1.7671  0.8412
 9124SOL    HW238835   4.718   0.699  13.029 -1.1378 -1.4920  1.0150
 9125SOL     OW38836   1.428   1.377   2.077 -0.4371  0.0321  0.3367
 9125SOL    HW138837   1.424   1.428   1.996 -2.3862  1.0227  1.0639
 9125SOL    HW238838   1.439   1.289   2.039 -0.4555  0.0240  0.3495
 9126SOL     OW38839   2.740   2.196   9.927  0.3806 -0.0807 -0.3245
 9126SOL    HW138840   2.726   2.107   9.894 -1.4130  0.0043  0.2096
 9126SOL    HW238841   2.730   2.251   9.849 -2.2703 -0.7357 -0.4624
 9127SOL     OW38842   2.578   2.907   6.789  0.1576  0.2528  0.4967
 9127SOL    HW138843   2.649   2.894   6.727  0.6459 -2.1166  1.5710
 9127SOL    HW238844   2.507   2.955   6.746 -0.3979  0.1022  1.2598
 9128SOL     OW38845   0.593   4.319  10.057  0.1222  0.1616  0.5241
 9128SOL    HW138846   0.658   4.305   9.987 -0.4459 -0.5356  0.1376
 9128SOL    HW238847   0.607   4.412  10.076  0.8963  0.0867  0.3193
 9129SOL     OW38848   4.108   1.936   2.046  0.0040 -0.1484 -0.1467
 9129SOL    HW138849   4.185   1.970   2.000  0.8746 -0.2002  1.2689
 9129SOL    HW238850   4.065   1.882   1.980  2.3881  0.1378 -1.9606
 9130SOL     OW38851   3.380   4.442   8.989  0.7830 -0.5883  0.0530
 9130SOL    HW138852   3.302   4.452   9.044 -0.1150 -0.3591 -1.2598
 9130SOL    HW238853   3.365   4.355   8.951  0.0841 -1.0028  1.3129
 9131SOL     OW38854   3.959   3.488   7.951 -0.3065  0.7196  0.5383
 9131SOL    HW138855   3.928   3.454   8.035  0.8591 -0.7942  0.3492
 9131SOL    HW238856   3.979   3.413   7.895  0.3268  2.8004 -2.0043
 9132SOL     OW38857   3.046   1.632  17.548  0.4705  0.4716  0.6346
 9132SOL    HW138858   2.991   1.622  17.626 -0.3611  0.8969  0.1005
 9132SOL    HW238859   3.096   1.551  17.553 -2.2737 -1.1858  1.2211
 9133SOL     OW38860   0.897   2.511  12.018 -0.1745  0.4116  0.1775
 9133SOL    HW138861   0.838   2.446  11.981  0.5311  0.6990 -1.4772
 9133SOL    HW238862   0.829   2.571  12.048 -0.6435 -0.5799  1.0780
 9134SOL     OW38863   4.672   1.367   7.221 -0.1039  0.2203  0.1378
 9134SOL    HW138864   4.658   1.323   7.138 -0.7049  1.1800 -0.2783
 9134SOL    HW238865   4.589   1.416   7.229  0.3661  1.2079 -1.0209
 9135SOL     OW38866   2.244   1.077   4.001 -0.9468 -0.1854  0.1391
 9135SOL    HW138867   2.163   1.109   3.961 -0.1317 -1.4334 -2.5080
 9135SOL    HW238868   2.280   1.024   3.929  0.1354 -0.4407  0.8619
 9136SOL     OW38869   0.621   4.291   6.920  0.2867  0.3155 -0.7407
 9136SOL    HW138870   0.662   4.373   6.949 -0.9301  0.2754  1.1436
 9136SOL    HW238871   0.566   4.331   6.853 -0.3377 -0.7488 -0.8646
 9137SOL     OW38872   2.040   4.323   6.980 -0.0409 -0.2009  0.0424
 9137SOL    HW138873   2.063   4.324   7.073 -1.0582 -1.9451  0.3011
 9137SOL    HW238874   1.955   4.280   6.977 -0.7756  1.4796 -3.0470
 9138SOL     OW38875   3.138   1.896   7.080 -0.2220  0.0045  0.0051
 9138SOL    HW138876   3.223   1.902   7.036 -0.5305 -3.9191 -1.1368
 9138SOL    HW238877   3.093   1.979   7.062 -2.2186 -1.3511 -1.2278
 9139SOL     OW38878   0.069   2.253   7.530  0.5628 -0.3318  0.2244
 9139SOL    HW138879   0.144   2.224   7.582  0.7684  0.7861  0.5370
 9139SOL    HW238880   0.010   2.178   7.534  0.6396 -0.3556  0.9913
 9140SOL     OW38881   3.605   4.718   3.683  0.5769  0.8701  0.0810
 9140SOL    HW138882   3.552   0.063   3.731 -1.5301 -1.0321  0.2722
 9140SOL    HW238883   3.687   0.004   3.732  0.2157  1.6192  0.6090
 9141SOL     OW38884   2.901   2.180  15.402  0.2783 -0.1745 -0.0188
 9141SOL    HW138885   2.933   2.093  15.424  1.4960  0.6295  1.3883
 9141SOL    HW238886   2.958   2.230  15.461 -0.6065  2.3432 -1.2780
 9142SOL     OW38887   1.040   0.817   8.304 -0.1121  0.5263 -0.0800
 9142SOL    HW138888   1.125   0.844   8.270 -0.5240  0.7019 -0.9798
 9142SOL    HW238889   0.980   0.828   8.230  1.3240  2.4651 -0.9669
 9143SOL     OW38890   0.977   2.885   3.285 -0.0774 -0.5975 -0.4693
 9143SOL    HW138891   1.043   2.849   3.225  0.6917  1.9597 -1.1381
 9143SOL    HW238892   0.967   2.802   3.332 -0.8452 -0.4851 -0.4295
 9144SOL     OW38893   0.053   4.321  15.250  0.2134 -0.2986 -0.2969
 9144SOL    HW138894   0.133   4.313  15.199  0.0398 -1.3151 -0.4034
 9144SOL    HW238895   0.009   4.401  15.221  1.4918  0.4177 -0.2414
 9145SOL     OW38896   2.460   1.655   3.426 -0.0120  0.0864  0.5465
 9145SOL    HW138897   2.473   1.664   3.332 -0.4653  0.0122  0.4805
 9145SOL    HW238898   2.532   1.594   3.443 -0.6125 -0.9841 -0.8320
 9146SOL     OW38899   2.324   3.771   4.860 -0.2968  0.6917  0.2835
 9146SOL    HW138900   2.256   3.826   4.899  0.4266  1.2573  0.7439
 9146SOL    HW238901   2.348   3.714   4.932  2.3823  0.2393 -0.9657
 9147SOL     OW38902   4.671   1.702   0.542  0.2801 -0.0407  0.2782
 9147SOL    HW138903   4.584   1.697   0.582  0.3870  0.8169  0.6189
 9147SOL    HW238904   4.703   1.613   0.557  1.2890  0.2095 -0.3761
 9148SOL     OW38905   3.905   3.822   7.151 -0.1580  0.2172  0.2354
 9148SOL    HW138906   3.818   3.801   7.186  0.5524 -1.5736  0.9266
 9148SOL    HW238907   3.934   3.897   7.203  1.1101 -0.5458  0.6267
 9149SOL     OW38908   1.065   4.089   3.758  0.8218  0.1832 -0.0608
 9149SOL    HW138909   1.086   4.051   3.843  1.9836 -0.6817 -0.7404
 9149SOL    HW238910   1.075   4.183   3.774  2.0710  0.1134 -0.4410
 9150SOL     OW38911   4.026   3.010   3.213 -0.4118  0.4706 -0.4896
 9150SOL    HW138912   3.945   3.058   3.195 -1.4504 -1.8476 -2.1140
 9150SOL    HW238913   4.062   3.026   3.125 -0.4288  0.7784 -0.4410
 9151SOL     OW38914   1.809   2.953   4.313 -0.0746 -0.0120 -0.2707
 9151SOL    HW138915   1.835   3.013   4.243  2.0201  0.2941  0.7862
 9151SOL    HW238916   1.815   2.868   4.268  1.4982 -0.2733  0.4449
 9152SOL     OW38917   2.091   0.653   3.029 -0.2206  0.2799  0.0776
 9152SOL    HW138918   2.044   0.702   2.962 -1.1520 -0.0607  0.4813
 9152SOL    HW238919   2.181   0.653   2.997 -0.5871 -1.0890 -0.9881
 9153SOL     OW38920   4.679   1.191   9.265 -0.0805 -0.2195  0.2703
 9153SOL    HW138921   4.599   1.143   9.286 -0.3208  0.4288  0.8176
 9153SOL    HW238922   4.715   1.188   9.354  2.8814  1.0141 -0.9022
 9154SOL     OW38923   2.002   0.454  16.484 -0.2519 -0.4166  0.2067
 9154SOL    HW138924   2.059   0.500  16.547  0.6774  0.2326 -1.1052
 9154SOL    HW238925   1.938   0.430  16.550 -0.5559 -0.3226 -0.0564
 9155SOL     OW38926   2.122   3.467  17.357 -0.2076  0.6349 -0.3080
 9155SOL    HW138927   2.129   3.540  17.296  0.2166  0.6867 -0.2022
 9155SOL    HW238928   2.130   3.395  17.294 -0.7872 -0.9357  1.4272
 9156SOL     OW38929   0.105   3.263   9.938  0.3706 -0.3721 -0.0242
 9156SOL    HW138930   0.127   3.320   9.864 -0.1734  0.0842  0.1621
 9156SOL    HW238931   0.092   3.333  10.001  0.0710  0.3217 -0.8458
 9157SOL     OW38932   1.839   3.240   0.122 -0.5990 -0.0652  0.0665
 9157SOL    HW138933   1.751   3.229   0.158 -0.0538 -0.8683  1.1387
 9157SOL    HW238934   1.818   3.291   0.043 -1.1670  0.9418  0.8740
 9158SOL     OW38935   3.305   3.450  15.725 -0.7070  0.1816 -0.1346
 9158SOL    HW138936   3.273   3.536  15.752  2.2814  0.8955  1.0594
 9158SOL    HW238937   3.261   3.436  15.641  1.1017  1.0508 -1.2198
 9159SOL     OW38938   3.202   0.750   7.289  0.2135 -0.8015 -0.3729
 9159SOL    HW138939   3.225   0.771   7.199  0.6628 -1.4254 -0.4003
 9159SOL    HW238940   3.286   0.727   7.328  0.5538 -0.5073 -0.9381
 9160SOL     OW38941   2.842   2.054   4.277  0.2625 -0.0921  0.2398
 9160SOL    HW138942   2.912   2.101   4.230  0.5604  0.1616  0.9356
 9160SOL    HW238943   2.768   2.086   4.226 -0.3885  0.0464  1.2645
 9161SOL     OW38944   3.375   1.313   9.704  0.1833 -0.6307  0.2514
 9161SOL    HW138945   3.434   1.282   9.635 -0.0535 -1.1891  0.2962
 9161SOL    HW238946   3.423   1.280   9.780 -1.0202 -0.6276  1.0043
 9162SOL     OW38947   2.455   4.455   5.796  0.2192  0.0176 -0.3942
 9162SOL    HW138948   2.408   4.526   5.842  0.4007 -0.3699  0.3942
 9162SOL    HW238949   2.512   4.508   5.741  0.7631  0.8540  0.9789
 9163SOL     OW38950   2.311   2.493   5.554 -0.4111 -0.5674 -0.0053
 9163SOL    HW138951   2.237   2.534   5.599 -0.8879 -1.0804 -0.3148
 9163SOL    HW238952   2.360   2.463   5.631  1.1162  0.3699 -0.6119
 9164SOL     OW38953   1.203   3.371   3.982  0.0242  0.4985 -0.0885
 9164SOL    HW138954   1.152   3.342   4.059  2.6223  0.9260  1.7848
 9164SOL    HW238955   1.163   3.317   3.915  0.9106 -1.0397  0.6233
 9165SOL     OW38956   3.240   0.415  17.379  0.7150 -0.1994 -0.1121
 9165SOL    HW138957   3.160   0.411  17.327  3.3467  0.0500 -4.2214
 9165SOL    HW238958   3.288   0.489  17.340 -0.6230  0.8700  0.2874
 9166SOL     OW38959   0.416   3.260  12.315  0.2170 -0.1078 -0.4634
 9166SOL    HW138960   0.478   3.329  12.293  1.2128 -1.0469 -0.6305
 9166SOL    HW238961   0.477   3.204  12.363 -0.5827  1.3784  2.2578
 9167SOL     OW38962   3.922   3.807  11.793  0.6185  0.0843  0.2856
 9167SOL    HW138963   3.885   3.889  11.761 -0.4410 -1.0292 -1.3661
 9167SOL    HW238964   3.900   3.822  11.885 -3.3030 -1.1358 -0.4132
 9168SOL     OW38965   4.027   1.715  13.608  0.3152 -0.0633  0.1661
 9168SOL    HW138966   3.954   1.716  13.670  0.8539 -0.4412  0.8083
 9168SOL    HW238967   4.090   1.670  13.664  0.0700  1.3204  1.5454
 9169SOL     OW38968   1.803   1.870   2.435 -0.7230 -0.6919 -0.0661
 9169SOL    HW138969   1.831   1.783   2.465  1.3059  0.5868  1.7771
 9169SOL    HW238970   1.740   1.893   2.503 -0.9137  1.7536 -1.0887
 9170SOL     OW38971   1.110   4.260   3.213  0.0741 -0.2872 -0.1502
 9170SOL    HW138972   1.154   4.217   3.139 -1.9254 -1.2695 -0.7762
 9170SOL    HW238973   1.026   4.267   3.168  0.2810  1.8723 -0.2280
 9171SOL     OW38974   3.066   1.092   4.723 -0.3449 -0.0568 -0.2926
 9171SOL    HW138975   3.100   1.166   4.674  2.5726 -1.4532 -0.3284
 9171SOL    HW238976   2.971   1.107   4.726 -0.4202 -0.4385 -0.7711
 9172SOL     OW38977   4.200   3.601   3.727 -0.6921  0.2024 -0.1226
 9172SOL    HW138978   4.128   3.564   3.677 -1.2315  0.2797  0.5913
 9172SOL    HW238979   4.196   3.534   3.794  0.7523 -1.5547 -1.8169
 9173SOL     OW38980   1.022   3.361   3.414  0.6464  0.0556  0.2918
 9173SOL    HW138981   1.012   3.318   3.329 -0.0821 -0.5135  0.6701
 9173SOL    HW238982   1.042   3.289   3.474  0.4243  0.8383  1.3080
 9174SOL     OW38983   3.614   1.874  10.311  0.0122 -0.5554 -0.3647
 9174SOL    HW138984   3.589   1.964  10.333 -2.2066 -1.1849 -0.3463
 9174SOL    HW238985   3.697   1.875  10.359 -1.6991 -1.9443  2.6180
 9175SOL     OW38986   1.273   0.874   8.016 -0.1379 -0.8134  0.0017
 9175SOL    HW138987   1.318   0.827   8.085  0.8510 -0.1635 -0.1905
 9175SOL    HW238988   1.266   0.965   8.044  1.7842 -0.8515  0.6597
 9176SOL     OW38989   3.578   1.073   8.802 -0.1292 -0.0474  0.0927
 9176SOL    HW138990   3.641   1.026   8.857 -0.3695  1.7279  1.8463
 9176SOL    HW238991   3.506   1.091   8.861 -1.5511 -0.9339 -1.3661
 9177SOL     OW38992   0.676   3.959   1.946  0.3547  0.8166  0.1992
 9177SOL    HW138993   0.686   3.864   1.949 -0.6838  0.7239  0.5528
 9177SOL    HW238994   0.581   3.959   1.935 -0.0116  0.9565  3.4233
 9178SOL     OW38995   0.333   1.133  15.899 -0.5753  0.8090 -0.0214
 9178SOL    HW138996   0.352   1.170  15.813 -2.4207  2.5578  0.3245
 9178SOL    HW238997   0.367   1.204  15.953  2.6855  0.7414 -1.9654
 9179SOL     OW38998   1.509   3.251   4.018  0.4412  0.0252  0.0304
 9179SOL    HW138999   1.558   3.173   3.990 -0.0957  0.2215 -1.4632
 9179SOL    HW239000   1.453   3.246   3.941  1.7178 -2.2412 -0.7606
 9180SOL     OW39001   1.404   0.768   3.123 -0.1290 -0.4132  0.2140
 9180SOL    HW139002   1.383   0.841   3.181  0.1169  0.2291 -0.5084
 9180SOL    HW239003   1.341   0.799   3.058 -0.9838  1.6503  2.0229
 9181SOL     OW39004   1.655   2.036   5.955 -0.1662 -0.1126  0.4598
 9181SOL    HW139005   1.633   2.129   5.947 -0.2545 -0.3039 -1.5366
 9181SOL    HW239006   1.746   2.040   5.984 -0.5559 -2.1647  1.9501
 9182SOL     OW39007   1.884   3.455   5.223 -0.0295  0.0637 -0.1003
 9182SOL    HW139008   1.789   3.464   5.215  0.3489  3.2015 -1.3000
 9182SOL    HW239009   1.910   3.547   5.217 -1.7162  0.6114  0.9870
 9183SOL     OW39010   2.437   2.025   6.717  0.5873 -0.0495  0.0828
 9183SOL    HW139011   2.419   1.955   6.655 -1.0555  0.3265  0.1385
 9183SOL    HW239012   2.382   1.995   6.789  0.2093  2.8391  1.0324
 9184SOL     OW39013   1.445   3.038   9.017  0.0506 -0.0061 -0.7250
 9184SOL    HW139014   1.468   3.130   9.033 -0.7168 -0.0429  0.5750
 9184SOL    HW239015   1.350   3.032   9.032  0.0589  0.0960 -0.6290
 9185SOL     OW39016   2.526   2.488   7.119  0.4742 -0.7121 -0.6047
 9185SOL    HW139017   2.601   2.490   7.178  1.6853  2.9406 -2.2282
 9185SOL    HW239018   2.520   2.575   7.079  0.0328 -0.4933 -0.0619
 9186SOL     OW39019   2.492   1.331   8.562 -0.2510 -0.0808 -0.0612
 9186SOL    HW139020   2.544   1.408   8.540 -0.1894 -0.3732 -0.9172
 9186SOL    HW239021   2.491   1.285   8.479 -0.1336 -1.6056  0.7773
 9187SOL     OW39022   2.537   2.565   6.229 -0.0674 -0.3781 -0.8044
 9187SOL    HW139023   2.524   2.629   6.299 -1.0350 -0.6918 -0.6963
 9187SOL    HW239024   2.632   2.553   6.226 -0.4357 -2.7911 -2.4112
 9188SOL     OW39025   0.254   1.186   4.677 -0.1099  0.2524 -0.6020
 9188SOL    HW139026   0.284   1.277   4.674  0.3465  0.0636 -1.6839
 9188SOL    HW239027   0.336   1.152   4.712  0.7349  0.2909 -2.5322
 9189SOL     OW39028   4.293   0.525   7.027  0.3979  0.3357  0.2780
 9189SOL    HW139029   4.344   0.507   7.107 -3.3697  0.8327  2.8113
 9189SOL    HW239030   4.217   0.468   7.034  0.7045 -0.2303 -1.0511
 9190SOL     OW39031   2.573   0.393   6.629 -0.6982  0.3839  0.0422
 9190SOL    HW139032   2.509   0.322   6.622  0.0116 -0.1790 -0.8831
 9190SOL    HW239033   2.519   0.468   6.607 -2.5591 -0.6780  1.0725
 9191SOL     OW39034   2.229   0.705  16.412 -0.2692 -0.4768 -0.1658
 9191SOL    HW139035   2.143   0.714  16.371  0.2277  0.3228 -1.0337
 9191SOL    HW239036   2.200   0.680  16.499  0.2589  1.9317  0.6909
 9192SOL     OW39037   1.649   0.912  13.693 -0.4071 -0.0868  0.5008
 9192SOL    HW139038   1.637   0.988  13.749  0.4214 -0.0317  0.5983
 9192SOL    HW239039   1.606   0.933  13.610 -2.0253 -0.7347  1.1841
 9193SOL     OW39040   0.439   0.718  13.823 -0.0498 -0.2495 -0.6510
 9193SOL    HW139041   0.357   0.762  13.844  0.9889  1.2427  0.2262
 9193SOL    HW239042   0.416   0.625  13.829  1.0395 -0.6923 -3.3205
 9194SOL     OW39043   1.976   1.265   3.573  0.2048 -0.1694  0.2807
 9194SOL    HW139044   2.038   1.203   3.535  1.2494  0.7915  0.4153
 9194SOL    HW239045   1.897   1.244   3.523  1.0262  0.3241 -1.2132
 9195SOL     OW39046   0.494   0.779   9.478 -0.3303 -0.1900 -0.6241
 9195SOL    HW139047   0.579   0.803   9.440  0.3683 -0.7912  0.5517
 9195SOL    HW239048   0.522   0.780   9.570  2.1895  0.9180 -1.3988
 9196SOL     OW39049   3.110   1.927   9.428 -0.2639 -0.0047  0.5936
 9196SOL    HW139050   3.168   1.936   9.504 -2.6410  0.2101  2.3556
 9196SOL    HW239051   3.075   1.841   9.448  3.6105 -1.6824  0.2148
 9197SOL     OW39052   0.280   0.123   5.029  0.6091  0.1299  0.4730
 9197SOL    HW139053   0.336   0.172   4.968 -0.7471  0.7823 -0.2372
 9197SOL    HW239054   0.330   0.109   5.110  1.5148 -0.7245 -0.2299
 9198SOL     OW39055   3.347   2.399   6.542  0.3169 -0.6367 -0.0769
 9198SOL    HW139056   3.261   2.374   6.576  0.4486 -0.2388  0.5406
 9198SOL    HW239057   3.374   2.483   6.579 -1.4148 -0.0517 -0.1760
 9199SOL     OW39058   2.969   2.008   2.443 -0.1262 -0.2972  0.3246
 9199SOL    HW139059   3.011   2.083   2.485 -0.7473  1.3564 -2.0418
 9199SOL    HW239060   2.876   2.029   2.455 -0.0075 -0.1464  1.0131
 9200SOL     OW39061   2.191   4.681   3.796 -0.2922 -0.3457 -0.2701
 9200SOL    HW139062   2.107   4.657   3.835  0.8690 -3.6240  0.1619
 9200SOL    HW239063   2.238   0.000   3.871 -1.6198 -0.2579  0.5206
 9201SOL     OW39064   0.853   1.276   2.450  0.8523 -0.0397 -0.2465
 9201SOL    HW139065   0.822   1.191   2.480  1.4850  0.0066  0.5591
 9201SOL    HW239066   0.930   1.300   2.503  0.0082 -2.4279  2.0280
 9202SOL     OW39067   4.553   3.419   3.736  0.0814  0.2944  0.3386
 9202SOL    HW139068   4.645   3.445   3.727 -0.1472  1.0845  0.2676
 9202SOL    HW239069   4.555   3.421   3.832 -0.3129  0.9657  0.3353
 9203SOL     OW39070   1.641   3.103   2.808  0.4088 -0.0666  0.0644
 9203SOL    HW139071   1.694   3.156   2.748 -1.0142  1.8375  0.4906
 9203SOL    HW239072   1.580   3.170   2.838  2.0434  2.6467 -2.7456
 9204SOL     OW39073   3.227   2.901  17.079 -0.3291 -0.4560  0.2476
 9204SOL    HW139074   3.193   2.868  16.996  1.2178 -1.6867  0.1026
 9204SOL    HW239075   3.289   2.973  17.063 -0.6141  0.1464  1.8841
 9205SOL     OW39076   2.833   2.702   4.970  0.3884 -0.1777  0.1203
 9205SOL    HW139077   2.788   2.626   5.006  0.0630 -0.4749 -0.8995
 9205SOL    HW239078   2.794   2.776   5.017  1.7672  0.0717  0.8597
 9206SOL     OW39079   3.919   2.696   1.838 -0.3681 -0.3285 -0.2993
 9206SOL    HW139080   4.012   2.710   1.816 -0.0790  1.8531  2.2397
 9206SOL    HW239081   3.875   2.694   1.753  1.1934 -2.4755 -1.0641
 9207SOL     OW39082   2.129   3.929  17.165  0.2653 -0.0013 -0.6528
 9207SOL    HW139083   2.169   4.011  17.193 -0.1761 -0.7873  2.2059
 9207SOL    HW239084   2.178   3.863  17.214 -1.1345  0.2588  1.0764
 9208SOL     OW39085   4.587   3.635   6.816 -0.1918 -0.1793 -0.0593
 9208SOL    HW139086   4.599   3.629   6.911 -0.2749 -0.8973 -0.0948
 9208SOL    HW239087   4.664   3.687   6.794  1.0390 -1.0416  2.2717
 9209SOL     OW39088   0.787   3.778  11.782 -0.7018  0.2477  0.3877
 9209SOL    HW139089   0.717   3.821  11.733  0.5385  1.8647  0.0135
 9209SOL    HW239090   0.868   3.812  11.743 -1.8728  1.4044 -1.0202
 9210SOL     OW39091   2.476   1.530   8.213 -0.2247  0.0911  0.3357
 9210SOL    HW139092   2.566   1.540   8.182 -0.6969  0.6550 -0.8258
 9210SOL    HW239093   2.466   1.435   8.226  3.0222 -0.5032 -1.5111
 9211SOL     OW39094   1.782   1.594   7.757 -0.4840 -0.6527  0.3462
 9211SOL    HW139095   1.798   1.530   7.827 -1.0947 -1.4655 -0.2681
 9211SOL    HW239096   1.779   1.677   7.806 -2.5277 -0.8125  0.4607
 9212SOL     OW39097   3.632   4.611  15.156 -0.1046  0.9000 -0.4140
 9212SOL    HW139098   3.694   4.679  15.181 -0.5329 -0.1164  3.5338
 9212SOL    HW239099   3.548   4.636  15.196 -1.2108 -2.6050 -0.5444
 9213SOL     OW39100   2.384   0.339   2.532 -0.4397  0.1135 -0.6067
 9213SOL    HW139101   2.339   0.383   2.604  0.3592 -0.4737  0.2487
 9213SOL    HW239102   2.458   0.398   2.527 -0.1182 -0.2254  0.1457
 9214SOL     OW39103   4.080   4.265   8.839  0.3590  0.4885 -0.1568
 9214SOL    HW139104   4.105   4.192   8.895 -0.4554  0.7564  0.5508
 9214SOL    HW239105   4.116   4.238   8.754  0.3658 -0.7200  0.2270
 9215SOL     OW39106   3.573   0.510   5.734  0.4078  0.2691 -0.1530
 9215SOL    HW139107   3.557   0.537   5.644 -0.6765 -0.5713 -0.2021
 9215SOL    HW239108   3.490   0.478   5.768  0.6267  0.2158  0.3342
 9216SOL     OW39109   2.884   0.273  16.136  0.0706 -0.3903 -0.3389
 9216SOL    HW139110   2.810   0.272  16.197 -2.0223 -0.1270 -2.8664
 9216SOL    HW239111   2.906   0.181  16.127  0.6432 -0.3521  0.7509
 9217SOL     OW39112   3.775   2.860  16.973 -0.1681  0.0389 -0.0536
 9217SOL    HW139113   3.787   2.946  17.012 -0.1029  1.3914 -3.0138
 9217SOL    HW239114   3.698   2.884  16.921  0.5254  2.0962 -0.1155
 9218SOL     OW39115   0.842   1.394   7.848 -0.1240 -0.3719 -0.2946
 9218SOL    HW139116   0.935   1.400   7.870 -0.1531 -0.4296 -0.1566
 9218SOL    HW239117   0.802   1.387   7.935 -0.6128  0.4739 -0.4535
 9219SOL     OW39118   2.209   3.529   7.891  0.3237  0.9744 -0.5160
 9219SOL    HW139119   2.211   3.560   7.981  0.2299  0.3766 -0.3077
 9219SOL    HW239120   2.290   3.478   7.887 -0.9291 -1.2100  2.1748
 9220SOL     OW39121   1.239   3.543   2.306 -0.5587 -0.0282  0.3776
 9220SOL    HW139122   1.169   3.565   2.244 -0.7523 -3.3371 -0.5823
 9220SOL    HW239123   1.203   3.583   2.385 -0.6821 -0.0644  0.3393
 9221SOL     OW39124   3.885   3.039  17.540 -0.1838 -0.6477  0.1316
 9221SOL    HW139125   3.806   3.073  17.582 -0.7618 -1.2363 -0.4895
 9221SOL    HW239126   3.860   3.039  17.448 -1.3003 -1.1717  0.4324
 9222SOL     OW39127   0.003   2.685   4.327 -0.1386 -0.0064  0.6685
 9222SOL    HW139128   0.049   2.761   4.363 -0.5784  1.0224 -0.9734
 9222SOL    HW239129   4.666   2.720   4.257  0.6642  0.6185  0.3424
 9223SOL     OW39130   3.738   3.096  13.896 -0.5292 -0.0842 -0.8777
 9223SOL    HW139131   3.831   3.093  13.875 -0.5639  0.2443 -1.0927
 9223SOL    HW239132   3.719   3.190  13.895  0.3786  0.0943 -0.9423
 9224SOL     OW39133   2.747   3.894   3.976  0.5699  0.1152  0.3589
 9224SOL    HW139134   2.766   3.819   3.920  1.1143 -0.9807  1.9923
 9224SOL    HW239135   2.797   3.964   3.934  1.7460 -2.5068 -2.6139
 9225SOL     OW39136   2.261   1.462   2.885  0.1439 -0.4789  0.0777
 9225SOL    HW139137   2.353   1.450   2.908  0.3233 -1.1253 -0.9971
 9225SOL    HW239138   2.260   1.496   2.796  1.8073  1.4279  0.7872
 9226SOL     OW39139   3.824   2.732   7.901 -0.3482  0.1183 -0.0872
 9226SOL    HW139140   3.891   2.760   7.839  1.3747 -0.6779  1.3803
 9226SOL    HW239141   3.750   2.728   7.841 -0.0311  0.6950 -0.5059
 9227SOL     OW39142   3.517   0.591   0.476 -0.3939 -0.1380  0.3947
 9227SOL    HW139143   3.604   0.597   0.437 -1.2402  3.1353 -1.0010
 9227SOL    HW239144   3.485   0.681   0.478 -1.7426 -0.6513  1.5666
 9228SOL     OW39145   0.038   4.483   3.586  0.1676  0.3613  0.5113
 9228SOL    HW139146   4.717   4.503   3.501  2.0603  0.8618 -0.2296
 9228SOL    HW239147   0.069   4.570   3.611 -2.7437  1.0304  1.8280
 9229SOL     OW39148   3.551   3.999   1.997 -0.4444 -0.0048  0.1139
 9229SOL    HW139149   3.600   3.917   1.992  2.9751  2.1048 -0.3847
 9229SOL    HW239150   3.540   4.007   2.092  1.3414  2.1439  0.1250
 9230SOL     OW39151   2.756   3.538   1.236  0.2267  0.0287 -0.1960
 9230SOL    HW139152   2.813   3.526   1.312 -1.0199 -1.0363  0.5698
 9230SOL    HW239153   2.770   3.632   1.222  1.2866  0.0061  0.7397
 9231SOL     OW39154   1.094   0.731   9.640 -0.7796  0.1742 -0.4969
 9231SOL    HW139155   1.184   0.726   9.671 -1.1068  0.4164  0.4868
 9231SOL    HW239156   1.090   0.668   9.568 -2.4543 -0.1425 -0.1367
 9232SOL     OW39157   3.030   1.494   8.951 -0.1756 -0.2032 -0.7294
 9232SOL    HW139158   3.101   1.432   8.969 -0.1495 -0.2742 -1.0875
 9232SOL    HW239159   3.081   1.572   8.974  0.2617 -0.7138  0.0341
 9233SOL     OW39160   1.790   3.784   0.667 -0.4423  0.1847  0.0836
 9233SOL    HW139161   1.866   3.741   0.627  1.2589  2.7996  0.4594
 9233SOL    HW239162   1.734   3.708   0.675 -1.3723  0.6249 -2.2782
 9234SOL     OW39163   0.538   2.785   6.640  0.3953 -0.0999  0.4119
 9234SOL    HW139164   0.592   2.826   6.708 -0.9715  2.3852 -0.0175
 9234SOL    HW239165   0.511   2.702   6.680  0.9689 -1.7905 -2.7391
 9235SOL     OW39166   4.182   4.449  13.458 -0.1593  0.1039 -0.4732
 9235SOL    HW139167   4.180   4.359  13.427 -0.1869 -0.2317  0.4994
 9235SOL    HW239168   4.249   4.481  13.397 -1.4852 -0.0308 -2.0001
 9236SOL     OW39169   3.526   3.779  10.256  0.2170 -0.4158  0.1832
 9236SOL    HW139170   3.569   3.789  10.172 -0.7536  3.7995  0.1774
 9236SOL    HW239171   3.601   3.736  10.297  1.2442 -0.9920 -2.3597
 9237SOL     OW39172   4.443   2.628   2.404  0.0306  0.2413  0.6936
 9237SOL    HW139173   4.386   2.699   2.432  1.3583  1.3615  0.5815
 9237SOL    HW239174   4.514   2.650   2.463  0.2603  1.4056 -0.0222
 9238SOL     OW39175   1.082   1.606   5.635 -0.2610  0.1540  0.4197
 9238SOL    HW139176   1.009   1.600   5.574 -1.3883  2.9237  1.4719
 9238SOL    HW239177   1.043   1.656   5.707  2.4063  0.3326  1.7570
 9239SOL     OW39178   4.317   3.919   6.435  0.5725  0.0189 -0.1990
 9239SOL    HW139179   4.365   3.974   6.497  1.3058 -2.1205  1.1187
 9239SOL    HW239180   4.325   3.977   6.358 -0.6502  1.5311  0.8133
 9240SOL     OW39181   2.949   3.719   8.148  0.1243  0.5038 -0.0381
 9240SOL    HW139182   2.996   3.802   8.155  1.9998 -0.5503 -0.1320
 9240SOL    HW239183   2.889   3.736   8.220  0.0533  0.2326 -0.0326
 9241SOL     OW39184   4.402   1.324   7.840 -0.5181 -0.5194  0.1614
 9241SOL    HW139185   4.410   1.368   7.755  2.9672 -4.1499 -1.3644
 9241SOL    HW239186   4.349   1.388   7.888  0.7621 -0.0561  0.9874
 9242SOL     OW39187   4.445   1.153   7.007 -0.5179 -0.6857  0.0103
 9242SOL    HW139188   4.507   1.093   7.049 -2.5166 -1.6134  1.6063
 9242SOL    HW239189   4.433   1.099   6.929  0.2712 -1.2428  0.2720
 9243SOL     OW39190   1.519   4.625  11.259 -0.1987  0.3858  0.3847
 9243SOL    HW139191   1.459   4.617  11.333 -0.2153 -1.1148  0.2034
 9243SOL    HW239192   1.505   4.714  11.228  1.6446  0.3718 -0.4641
 9244SOL     OW39193   3.940   4.428  15.870  0.5529 -0.4139 -0.1053
 9244SOL    HW139194   3.936   4.339  15.836 -3.4489  0.2025 -1.2642
 9244SOL    HW239195   4.023   4.452  15.828 -0.0763  1.4086 -0.3123
 9245SOL     OW39196   1.038   4.290   0.767  0.3758  0.5865  0.5713
 9245SOL    HW139197   1.022   4.233   0.692 -0.1677  1.6287 -0.0898
 9245SOL    HW239198   1.074   4.363   0.718  0.0896  1.0032  0.9844
 9246SOL     OW39199   3.692   0.098   9.325 -0.1695 -0.8570  0.6675
 9246SOL    HW139200   3.656   0.160   9.261  0.7797 -0.3333  0.6303
 9246SOL    HW239201   3.644   0.123   9.404  0.4944 -2.4828  1.5849
 9247SOL     OW39202   1.076   0.624   6.412  0.2053  0.1928 -0.2579
 9247SOL    HW139203   1.142   0.611   6.480 -0.6922 -4.8024 -0.2916
 9247SOL    HW239204   1.071   0.719   6.421 -0.6551  0.3387 -2.3166
 9248SOL     OW39205   0.781   0.804   4.346 -0.3080 -0.5141  0.1123
 9248SOL    HW139206   0.764   0.791   4.253 -1.6118 -0.2622  0.3119
 9248SOL    HW239207   0.803   0.897   4.356 -2.7720  0.2748 -1.7398
 9249SOL     OW39208   2.954   3.588   0.934  0.1325  0.4620  0.2977
 9249SOL    HW139209   3.011   3.603   1.010  0.7886  0.7685 -0.2501
 9249SOL    HW239210   2.892   3.522   0.965 -0.3780 -0.3212 -2.3597
 9250SOL     OW39211   2.630   0.012   8.641 -0.3463 -0.0192  0.0282
 9250SOL    HW139212   2.685   4.670   8.690 -0.8522 -1.2275 -0.8769
 9250SOL    HW239213   2.632   0.088   8.700  1.1661  0.7698 -1.0246
 9251SOL     OW39214   2.388   1.931   6.166 -0.0260 -0.0848  0.1206
 9251SOL    HW139215   2.439   1.874   6.108 -0.2789 -0.5142  0.3221
 9251SOL    HW239216   2.314   1.964   6.114  0.1716 -0.9168 -0.7003
 9252SOL     OW39217   3.074   2.762   4.304 -0.7668 -0.7028  0.3453
 9252SOL    HW139218   3.120   2.813   4.371  0.8659  0.9533 -2.0283
 9252SOL    HW239219   3.030   2.698   4.360 -0.6054 -0.8947  0.2535
 9253SOL     OW39220   0.721   1.868   7.104  0.1683  0.1314  0.6154
 9253SOL    HW139221   0.642   1.862   7.158  0.7515  0.5172  1.5196
 9253SOL    HW239222   0.757   1.780   7.107  1.3337  0.6436  1.8299
 9254SOL     OW39223   1.682   0.916   8.055 -0.3388 -0.3068  0.0919
 9254SOL    HW139224   1.686   1.007   8.084 -0.7230 -0.9752  2.2841
 9254SOL    HW239225   1.765   0.911   8.007  0.6167  0.6837  1.6140
 9255SOL     OW39226   2.561   4.671   5.647  0.3125 -0.6038 -0.3037
 9255SOL    HW139227   2.561   0.045   5.621 -0.7232 -0.3014  0.7732
 9255SOL    HW239228   2.626   4.637   5.585  0.0398 -1.3621 -0.1663
 9256SOL     OW39229   4.142   4.490   6.392  0.7143  0.0453  0.4822
 9256SOL    HW139230   4.163   4.515   6.302  0.1781  0.2901  0.4248
 9256SOL    HW239231   4.232   4.475   6.420  1.0495  0.7262 -0.2188
 9257SOL     OW39232   3.467   3.188   5.519 -0.1469 -0.4025 -0.6253
 9257SOL    HW139233   3.523   3.142   5.457  1.7993  1.1844 -0.0391
 9257SOL    HW239234   3.416   3.252   5.470 -0.6419 -0.8214 -0.6574
 9258SOL     OW39235   0.747   3.968   4.335  0.0524  0.2353  1.1488
 9258SOL    HW139236   0.806   3.934   4.403  0.6153 -0.0277  0.5241
 9258SOL    HW239237   0.663   3.954   4.381 -0.6452 -0.3552 -0.3085
 9259SOL     OW39238   1.580   0.742  17.066 -0.0307  0.6239 -0.0316
 9259SOL    HW139239   1.566   0.648  17.057 -2.9152  0.9786  0.9961
 9259SOL    HW239240   1.520   0.758  17.138 -1.1538 -1.5991 -0.4864
 9260SOL     OW39241   1.213   4.483   6.254 -0.1765  0.3310  0.1889
 9260SOL    HW139242   1.258   4.437   6.325  1.2509  1.2340 -0.1395
 9260SOL    HW239243   1.123   4.482   6.287 -0.0641 -0.2320  0.4648
 9261SOL     OW39244   2.431   1.856   3.602  0.3530 -0.5278 -0.4301
 9261SOL    HW139245   2.457   1.778   3.554  1.4169 -1.2453  1.3024
 9261SOL    HW239246   2.336   1.849   3.597  0.2662 -0.0929  0.4462
 9262SOL     OW39247   3.872   3.022  11.274  0.0863  0.1489 -0.4722
 9262SOL    HW139248   3.809   3.026  11.346  3.0484 -0.1058  2.0998
 9262SOL    HW239249   3.862   2.932  11.241  0.0588 -0.0975  0.2125
 9263SOL     OW39250   1.323   1.159  14.915 -0.2959  0.8398 -0.2680
 9263SOL    HW139251   1.361   1.192  14.833  2.0049  0.6760  0.7381
 9263SOL    HW239252   1.264   1.231  14.936  0.4804  1.8703 -1.5915
 9264SOL     OW39253   2.795   1.811   9.094 -0.0905  0.0709 -1.0143
 9264SOL    HW139254   2.712   1.792   9.050 -0.3447  0.6439 -0.7795
 9264SOL    HW239255   2.860   1.811   9.024 -0.8027 -0.7954 -1.6863
 9265SOL     OW39256   3.164   2.952   5.010 -0.7075  0.1261 -0.4236
 9265SOL    HW139257   3.145   2.959   5.103 -0.6153 -1.5424 -0.2866
 9265SOL    HW239258   3.254   2.921   5.014  0.3787  3.4449  0.8565
 9266SOL     OW39259   2.496   2.151   7.987 -0.5551 -0.1984 -0.1920
 9266SOL    HW139260   2.480   2.197   7.905  1.9321  0.5754 -0.2491
 9266SOL    HW239261   2.409   2.127   8.018  0.2634 -0.3890  1.9127
 9267SOL     OW39262   1.461   1.460  12.860  0.4033  0.2435 -0.5421
 9267SOL    HW139263   1.468   1.554  12.873 -0.7252  0.2026  0.3496
 9267SOL    HW239264   1.551   1.430  12.845  0.6155 -0.4705  2.0902
 9268SOL     OW39265   1.967   2.993   3.360  0.2220  0.2748 -0.5573
 9268SOL    HW139266   1.913   2.917   3.337 -1.4803  1.3627 -0.1959
 9268SOL    HW239267   1.917   3.071   3.335  0.4450  0.8725  0.8364
 9269SOL     OW39268   3.951   2.904   9.597  0.6737 -0.1441  0.2417
 9269SOL    HW139269   3.983   2.840   9.532  1.0964  0.0318  0.2773
 9269SOL    HW239270   3.933   2.841   9.667  0.8345  1.4624  1.6947
 9270SOL     OW39271   0.648   1.647   7.963 -0.1712 -0.0934  0.0228
 9270SOL    HW139272   0.579   1.587   7.994 -2.1258  2.3305  0.3925
 9270SOL    HW239273   0.602   1.731   7.965 -0.8492 -0.5557  3.7686
 9271SOL     OW39274   1.792   3.320  11.086 -0.0932 -0.7548  0.6443
 9271SOL    HW139275   1.758   3.234  11.113 -3.4181  0.9212  1.7758
 9271SOL    HW239276   1.800   3.297  10.993 -0.8522  1.6368 -0.0084
 9272SOL     OW39277   4.673   2.192   8.683 -0.3281  0.3948 -0.3512
 9272SOL    HW139278   0.014   2.266   8.671  0.0788 -0.0749 -1.2556
 9272SOL    HW239279   0.022   2.124   8.690  0.6115  1.2518 -1.0898
 9273SOL     OW39280   4.512   2.984   1.500  0.0623 -0.5319  0.2449
 9273SOL    HW139281   4.601   2.957   1.526  0.0276 -1.1787 -0.3247
 9273SOL    HW239282   4.468   2.899   1.499  0.6426 -0.8256 -0.5897
 9274SOL     OW39283   2.337   1.325   6.621  0.0167 -0.4268 -0.0680
 9274SOL    HW139284   2.247   1.303   6.644 -0.1267  1.5458  1.2899
 9274SOL    HW239285   2.339   1.316   6.526 -0.2383 -1.0649 -0.0135
 9275SOL     OW39286   2.735   0.243   6.951  0.6840 -0.4222 -0.2150
 9275SOL    HW139287   2.721   0.325   6.999 -0.3167 -0.9664  0.4197
 9275SOL    HW239288   2.785   0.283   6.880  3.3499  0.0423  1.9272
 9276SOL     OW39289   2.204   0.838  11.070 -0.5259  0.5693 -0.0443
 9276SOL    HW139290   2.165   0.796  10.993  0.5511  1.2113 -0.9262
 9276SOL    HW239291   2.235   0.923  11.040 -0.0708  1.2316  2.2852
 9277SOL     OW39292   3.767   3.552   2.698 -0.0929 -0.2518 -0.4046
 9277SOL    HW139293   3.698   3.531   2.634  0.8075 -0.9535 -1.1573
 9277SOL    HW239294   3.735   3.627   2.747 -0.1766  0.0688 -0.9479
 9278SOL     OW39295   0.580   0.084  17.546 -0.2238  0.4280 -0.0237
 9278SOL    HW139296   0.545   0.032  17.618  2.0097 -0.5234  0.3713
 9278SOL    HW239297   0.497   0.124  17.518  0.0521  0.0089 -1.4171
 9279SOL     OW39298   0.521   4.273  15.388 -0.6033  0.4333  0.2265
 9279SOL    HW139299   0.465   4.240  15.458  1.5482 -1.9353  0.8134
 9279SOL    HW239300   0.540   4.362  15.419 -1.0842  0.5319  0.2437
 9280SOL     OW39301   0.772   3.590   1.153 -0.3556  0.1467 -0.1301
 9280SOL    HW139302   0.827   3.540   1.213  0.0418  0.4119 -0.2753
 9280SOL    HW239303   0.798   3.542   1.074 -2.2535 -0.9615 -0.0673
 9281SOL     OW39304   0.353   2.437   7.626  0.4286 -0.8144  0.0902
 9281SOL    HW139305   0.393   2.357   7.592 -1.1620 -0.9743 -1.3424
 9281SOL    HW239306   0.332   2.416   7.717 -0.3131 -1.3356 -0.2057
 9282SOL     OW39307   3.097   2.508   3.171  0.5680  0.4963 -0.3364
 9282SOL    HW139308   3.025   2.458   3.209 -1.1100  2.2640 -1.1957
 9282SOL    HW239309   3.114   2.457   3.092 -0.3899 -0.5560  0.1383
 9283SOL     OW39310   1.361   4.175  10.286 -0.3072 -0.0346 -0.5190
 9283SOL    HW139311   1.386   4.266  10.272 -0.2875 -0.0405 -0.5222
 9283SOL    HW239312   1.425   4.126  10.235 -1.1428 -1.9841  0.2911
 9284SOL     OW39313   3.649   3.740   2.432 -0.1647  0.0207 -0.3361
 9284SOL    HW139314   3.579   3.805   2.436  0.1179  0.4577 -2.4911
 9284SOL    HW239315   3.720   3.796   2.399 -0.7193  1.6456  1.2150
 9285SOL     OW39316   0.432   4.637   2.858  0.1138 -0.8337  0.2197
 9285SOL    HW139317   0.509   4.691   2.843 -0.4839 -0.9128 -3.1622
 9285SOL    HW239318   0.380   4.701   2.907  0.7625 -0.5065  0.4793
 9286SOL     OW39319   2.136   1.621   0.373 -0.4637  0.5990  0.8061
 9286SOL    HW139320   2.136   1.526   0.385 -2.3110  0.1842 -2.2635
 9286SOL    HW239321   2.106   1.652   0.458  1.3441  0.2814  1.5566
 9287SOL     OW39322   1.042   3.171   6.837  0.7108 -0.2544 -0.1821
 9287SOL    HW139323   0.998   3.086   6.845 -1.1089  0.9462  2.5559
 9287SOL    HW239324   1.108   3.159   6.769 -0.5073 -0.2057 -1.3994
 9288SOL     OW39325   1.247   1.130  13.520  0.1422 -0.5478  0.7565
 9288SOL    HW139326   1.156   1.116  13.547 -0.6734  3.1173 -0.0787
 9288SOL    HW239327   1.258   1.074  13.443  1.3973 -0.9550  1.2242
 9289SOL     OW39328   1.122   1.129  10.722 -0.0568 -0.2379  0.3896
 9289SOL    HW139329   1.196   1.189  10.718 -0.0295 -0.2205  1.2281
 9289SOL    HW239330   1.131   1.104  10.630 -0.7464 -0.1758  0.3016
 9290SOL     OW39331   3.850   2.377  14.894  0.4595 -0.0968 -0.1131
 9290SOL    HW139332   3.835   2.283  14.901  1.7251 -0.3948 -1.3516
 9290SOL    HW239333   3.840   2.375  14.799 -1.0911 -0.7788  0.0700
 9291SOL     OW39334   0.861   3.437   5.639  0.1465  0.4587  0.0058
 9291SOL    HW139335   0.891   3.364   5.693 -1.4460 -0.9998 -1.0827
 9291SOL    HW239336   0.784   3.474   5.683 -0.3490 -0.8136  0.2039
 9292SOL     OW39337   0.613   2.440  11.284  0.1129 -0.1500  0.1131
 9292SOL    HW139338   0.569   2.524  11.268  0.5708 -0.0129 -0.4273
 9292SOL    HW239339   0.689   2.445  11.227  0.2344  1.0275  0.3780
 9293SOL     OW39340   4.321   0.918  12.054 -0.0579 -0.0861 -0.2175
 9293SOL    HW139341   4.354   0.904  12.143  0.5840  2.1394 -0.1113
 9293SOL    HW239342   4.403   0.920  12.005 -0.8132  0.2879 -1.4561
 9294SOL     OW39343   2.648   2.183   5.267  0.2518 -0.1274  0.1812
 9294SOL    HW139344   2.592   2.244   5.219 -2.8665 -2.0527  1.3760
 9294SOL    HW239345   2.605   2.194   5.352 -0.7917 -5.2141  0.2586
 9295SOL     OW39346   3.256   2.598   8.900 -0.0184  0.1332  0.3594
 9295SOL    HW139347   3.271   2.528   8.836  0.2897  0.0301  0.5456
 9295SOL    HW239348   3.193   2.552   8.955  1.7210 -2.3075  0.3311
 9296SOL     OW39349   1.513   1.924   1.483  0.3603  0.1786  0.1607
 9296SOL    HW139350   1.575   1.852   1.489 -0.3551 -0.3642  1.0107
 9296SOL    HW239351   1.551   1.967   1.406 -0.8173 -0.9198 -1.0316
 9297SOL     OW39352   4.257   3.763   9.764  0.3080 -0.4210 -0.1616
 9297SOL    HW139353   4.266   3.840   9.708 -1.9501  1.8411  2.5827
 9297SOL    HW239354   4.293   3.695   9.707 -0.0948 -1.6365  1.0220
 9298SOL     OW39355   2.792   4.081   2.292  0.0803 -0.1027  0.7765
 9298SOL    HW139356   2.865   4.034   2.250 -0.8733  0.7979 -1.8847
 9298SOL    HW239357   2.842   4.100   2.371  0.5219 -1.4581  0.8291
 9299SOL     OW39358   4.207   4.329  12.056  0.4237 -0.3140  0.5819
 9299SOL    HW139359   4.187   4.402  12.116  0.6957 -0.2595  0.6087
 9299SOL    HW239360   4.234   4.369  11.974  0.6606 -0.8596  0.3940
 9300SOL     OW39361   1.570   2.738   5.308  0.5169 -0.0355 -0.0775
 9300SOL    HW139362   1.579   2.751   5.402  1.0265  0.7552 -0.2365
 9300SOL    HW239363   1.543   2.647   5.299 -1.3065  0.5510 -0.6713
 9301SOL     OW39364   4.166   0.788   6.408 -0.0572 -0.4811  0.3535
 9301SOL    HW139365   4.258   0.763   6.404 -0.1381 -0.8181  0.6175
 9301SOL    HW239366   4.157   0.818   6.499  2.2003 -0.2731  0.4991
 9302SOL     OW39367   2.436   3.920  17.613 -0.7271 -0.2099  0.3028
 9302SOL    HW139368   2.446   3.991  17.676 -0.1788  0.1396 -0.1765
 9302SOL    HW239369   2.447   3.841  17.666  0.3502  0.6304  1.3379
 9303SOL     OW39370   3.099   1.530   6.615 -0.3387  0.2571 -0.2734
 9303SOL    HW139371   3.179   1.526   6.562  0.4607 -1.0675  1.0050
 9303SOL    HW239372   3.131   1.569   6.696 -0.5097  0.0840 -0.1221
 9304SOL     OW39373   2.838   0.119   7.653  0.0921 -0.5811  0.0800
 9304SOL    HW139374   2.933   0.114   7.642  0.1970  0.0096  0.7135
 9304SOL    HW239375   2.828   0.084   7.742  0.3643  0.5260  0.5395
 9305SOL     OW39376   1.376   4.001   8.681  0.1976  0.7073  0.0060
 9305SOL    HW139377   1.309   4.067   8.696 -0.2863 -0.0513  1.1598
 9305SOL    HW239378   1.430   4.015   8.759  0.1830 -1.3020  0.3684
 9306SOL     OW39379   0.677   2.515   7.547 -0.3883  0.1071 -0.7327
 9306SOL    HW139380   0.673   2.608   7.526  1.4983  0.1642 -0.7821
 9306SOL    HW239381   0.636   2.474   7.470  0.6136 -0.2213 -1.0927
 9307SOL     OW39382   0.628   4.574   7.420 -0.5979  0.2520 -0.4974
 9307SOL    HW139383   0.614   4.662   7.384  1.5301  1.2153  0.9815
 9307SOL    HW239384   0.689   4.588   7.492  1.3212  0.0320 -2.0606
 9308SOL     OW39385   3.114   4.506   1.569 -0.2447 -0.4925  0.2867
 9308SOL    HW139386   3.141   4.479   1.657  0.9373  1.9055  0.6554
 9308SOL    HW239387   3.178   4.468   1.508 -0.8605  0.3890 -0.9029
 9309SOL     OW39388   1.479   3.423   5.762 -0.2995 -0.4584  0.2565
 9309SOL    HW139389   1.487   3.410   5.667  0.7522  0.2690  0.2517
 9309SOL    HW239390   1.572   3.419   5.782 -0.0916 -0.9034 -0.7822
 9310SOL     OW39391   4.345   3.274   7.052  0.0367 -0.1504 -0.3825
 9310SOL    HW139392   4.327   3.302   7.142  0.9346  1.8930 -0.8314
 9310SOL    HW239393   4.425   3.325   7.036 -0.2842 -0.1086 -1.8764
 9311SOL     OW39394   4.442   3.275  17.033 -0.0869 -0.5365 -0.3181
 9311SOL    HW139395   4.397   3.229  16.963 -1.2863  0.7523 -0.4069
 9311SOL    HW239396   4.484   3.204  17.082 -1.3387 -1.0416  0.0159
 9312SOL     OW39397   2.166   2.217  11.608 -0.3903  0.2140  0.1062
 9312SOL    HW139398   2.157   2.149  11.674  1.2295 -1.2531 -1.1824
 9312SOL    HW239399   2.254   2.251  11.628 -0.2121  0.7896 -1.6946
 9313SOL     OW39400   2.404   3.377  11.508 -0.5304  0.3590 -0.9556
 9313SOL    HW139401   2.458   3.298  11.511  0.7187  1.2479 -0.2201
 9313SOL    HW239402   2.443   3.440  11.570  0.8673 -1.2949 -0.1522
 9314SOL     OW39403   3.505   4.507  16.462  0.4271  0.1192 -0.1317
 9314SOL    HW139404   3.413   4.521  16.483  0.5695 -2.6661  2.3274
 9314SOL    HW239405   3.503   4.546  16.375 -1.0633  2.7961  1.0858
 9315SOL     OW39406   2.518   3.544  11.672  0.9363 -0.1210 -0.1159
 9315SOL    HW139407   2.498   3.543  11.765  1.9462 -0.5599  0.0950
 9315SOL    HW239408   2.562   3.628  11.661 -1.2505  0.9434 -0.6666
 9316SOL     OW39409   4.257   1.508   2.710  0.1018  0.3921  0.0075
 9316SOL    HW139410   4.251   1.580   2.647  2.2099  2.1184  1.7707
 9316SOL    HW239411   4.339   1.531   2.754 -0.9083 -0.2601  2.1828
 9317SOL     OW39412   0.284   4.196   8.108  0.0884  0.0718  0.0016
 9317SOL    HW139413   0.289   4.290   8.126 -1.6352 -0.1171  1.5472
 9317SOL    HW239414   0.331   4.192   8.025  0.3091  4.1758 -0.0572
 9318SOL     OW39415   2.532   1.257   6.794 -0.2692  0.1689 -0.0250
 9318SOL    HW139416   2.473   1.271   6.720  1.6712 -2.3863 -2.0497
 9318SOL    HW239417   2.592   1.199   6.747  0.7050  2.3747 -1.5350
 9319SOL     OW39418   0.365   2.376  16.125  0.3532  0.5289 -0.4331
 9319SOL    HW139419   0.311   2.430  16.183  1.4220  1.3365 -0.1985
 9319SOL    HW239420   0.342   2.411  16.039  1.3742 -2.0504 -1.7489
 9320SOL     OW39421   3.430   1.096   7.187 -0.5136  0.2227  0.0531
 9320SOL    HW139422   3.454   1.081   7.278 -1.8666  0.3270  0.4279
 9320SOL    HW239423   3.399   1.011   7.158  0.0335  0.4154 -1.1126
 9321SOL     OW39424   3.713   2.606   1.995 -0.4946 -0.1868  0.1750
 9321SOL    HW139425   3.649   2.593   1.925  0.0567  2.4771 -0.7986
 9321SOL    HW239426   3.787   2.646   1.950 -0.1352 -1.2140 -0.1419
 9322SOL     OW39427   1.826   0.230   8.422 -0.5236  0.3038 -0.1721
 9322SOL    HW139428   1.845   0.172   8.348 -1.1302  0.1183 -0.1852
 9322SOL    HW239429   1.904   0.229   8.477 -1.0077 -0.4248  0.5027
 9323SOL     OW39430   2.167   0.759   4.046 -0.5151 -0.2466  0.3237
 9323SOL    HW139431   2.235   0.821   4.019  0.5455 -1.8114 -0.5855
 9323SOL    HW239432   2.143   0.719   3.963  1.9656 -0.0163 -0.5067
 9324SOL     OW39433   2.061   3.060   2.692 -0.3909  0.3098  0.2648
 9324SOL    HW139434   2.053   2.966   2.710  0.4507  0.1245 -0.3119
 9324SOL    HW239435   2.151   3.069   2.661 -0.2717  1.4734  0.9541
 9325SOL     OW39436   0.897   3.207  15.843  0.1006  0.2018  0.2912
 9325SOL    HW139437   0.850   3.289  15.856 -1.4813 -0.7277  0.4127
 9325SOL    HW239438   0.862   3.154  15.916  0.6216  0.5020  0.7607
 9326SOL     OW39439   2.343   3.021   6.601 -0.0908  0.7205 -0.1141
 9326SOL    HW139440   2.332   3.011   6.506 -1.2286 -0.0080  0.1071
 9326SOL    HW239441   2.253   3.003   6.626  1.2193  1.2149  4.9314
 9327SOL     OW39442   3.777   1.865  14.765  0.3037 -0.5291 -0.6942
 9327SOL    HW139443   3.829   1.940  14.737  1.3118 -0.8316  0.3516
 9327SOL    HW239444   3.725   1.841  14.688 -1.7441  0.4290  0.3966
 9328SOL     OW39445   1.362   3.777   7.710  0.0825 -0.3467 -0.3109
 9328SOL    HW139446   1.363   3.832   7.632 -1.4280 -1.8911 -1.4016
 9328SOL    HW239447   1.417   3.827   7.770 -2.0150  0.8810  0.6007
 9329SOL     OW39448   2.155   4.060   3.653  0.9663 -0.7352 -0.1589
 9329SOL    HW139449   2.147   4.060   3.557 -0.1306  0.9904 -0.0707
 9329SOL    HW239450   2.068   4.027   3.674  1.4604 -1.6510  0.4386
 9330SOL     OW39451   1.144   3.756   1.979 -0.5435 -0.0720 -0.1537
 9330SOL    HW139452   1.153   3.664   1.954 -2.5754  0.0073 -1.1491
 9330SOL    HW239453   1.132   3.785   1.889  1.1630  1.9020  0.2389
 9331SOL     OW39454   2.363   4.041   3.024 -0.8246 -0.5012 -0.4039
 9331SOL    HW139455   2.390   4.070   3.111 -0.1348 -0.0742 -0.7549
 9331SOL    HW239456   2.273   4.072   3.026  0.1061  2.2585 -1.9169
 9332SOL     OW39457   3.869   3.441   1.721 -0.7962 -0.0272  0.0784
 9332SOL    HW139458   3.812   3.451   1.645 -2.5931 -0.6515  1.3371
 9332SOL    HW239459   3.935   3.510   1.706 -1.1949  0.7343  1.8342
 9333SOL     OW39460   4.376   3.648   7.417 -0.3968  0.2759  0.0100
 9333SOL    HW139461   4.419   3.727   7.383  0.0380  1.3110  2.9650
 9333SOL    HW239462   4.440   3.627   7.485  0.4107  0.1833 -0.7734
 9334SOL     OW39463   3.226   0.052  13.615  0.4924  0.3718  0.4826
 9334SOL    HW139464   3.203   0.015  13.701 -0.1342  0.9168  0.5492
 9334SOL    HW239465   3.169   0.011  13.550  0.6842  1.2261 -0.2175
 9335SOL     OW39466   1.016   0.094   2.831  0.4640  0.0370 -0.4942
 9335SOL    HW139467   0.937   0.130   2.791  1.5083  1.0064 -1.7007
 9335SOL    HW239468   1.079   0.100   2.759  3.2181 -1.8504  1.7533
 9336SOL     OW39469   1.770   3.727  14.133 -0.0956 -0.5272 -0.1239
 9336SOL    HW139470   1.828   3.752  14.061 -1.5784  2.6280 -0.1818
 9336SOL    HW239471   1.747   3.807  14.180 -2.2166 -0.5996 -1.0427
 9337SOL     OW39472   2.279   3.475   9.010 -0.1847  0.0344 -0.5066
 9337SOL    HW139473   2.224   3.461   9.087 -2.2115 -0.4400 -2.0628
 9337SOL    HW239474   2.226   3.421   8.952  0.8516 -1.0076 -0.5069
 9338SOL     OW39475   0.535   3.090  12.489 -0.3622 -0.0349 -0.0055
 9338SOL    HW139476   0.612   3.034  12.491 -0.9181 -0.7533  1.7115
 9338SOL    HW239477   0.463   3.026  12.494 -0.1687 -0.2384  0.1667
 9339SOL     OW39478   0.218   2.943   7.033  0.4673  0.0888 -0.0333
 9339SOL    HW139479   0.233   3.038   7.039 -0.1499  0.0764  1.4943
 9339SOL    HW239480   0.141   2.955   6.978  0.2868 -1.4527 -0.1175
 9340SOL     OW39481   4.711   0.170   7.428  0.0237 -0.2342 -0.3952
 9340SOL    HW139482   4.619   0.197   7.430  0.9664  2.8793  2.1449
 9340SOL    HW239483   4.703   0.076   7.441 -0.1299 -0.1580  0.0736
 9341SOL     OW39484   1.462   4.605  10.314 -0.1686 -0.0019  0.0828
 9341SOL    HW139485   1.455   4.641  10.226 -0.6769 -0.1201  0.0794
 9341SOL    HW239486   1.370   4.598  10.339 -0.0862  1.8203  0.8740
 9342SOL     OW39487   3.494   1.043   7.808  0.5698 -0.1351 -0.1147
 9342SOL    HW139488   3.542   1.116   7.846  0.0877 -0.0811  0.3842
 9342SOL    HW239489   3.433   1.093   7.754 -0.9357 -1.8039  0.0473
 9343SOL     OW39490   2.662   3.315   4.696  0.2189  0.2617  0.2326
 9343SOL    HW139491   2.706   3.234   4.672 -0.2906 -0.5729  2.0811
 9343SOL    HW239492   2.652   3.307   4.791  2.1378 -1.7187  0.2422
 9344SOL     OW39493   1.056   4.067   5.486  0.2965  0.1346  0.0777
 9344SOL    HW139494   1.106   4.056   5.405 -1.6699  0.6997 -1.1960
 9344SOL    HW239495   1.115   4.133   5.522 -0.4922 -0.1479  1.9009
 9345SOL     OW39496   1.994   1.664   4.855 -0.2770 -0.2048 -0.3471
 9345SOL    HW139497   1.924   1.695   4.797  0.4754 -1.1025 -1.7221
 9345SOL    HW239498   1.960   1.699   4.938 -1.2201 -2.8324  0.3667
 9346SOL     OW39499   2.885   4.708   4.566 -0.0297  0.3136 -0.2810
 9346SOL    HW139500   2.957   0.051   4.581  0.8134 -0.6529 -0.4212
 9346SOL    HW239501   2.912   4.686   4.477  2.2495  2.4116 -0.1169
 9347SOL     OW39502   0.562   1.741   3.746  0.1237  0.0537  0.3295
 9347SOL    HW139503   0.485   1.688   3.724 -0.4051  0.6943  0.6352
 9347SOL    HW239504   0.522   1.827   3.740 -2.1328 -1.0899 -0.8407
 9348SOL     OW39505   2.989   0.530  16.117  0.2964  0.4770  0.1863
 9348SOL    HW139506   2.919   0.562  16.175 -0.7517 -0.5529 -0.5119
 9348SOL    HW239507   2.971   0.437  16.105 -1.1845  1.2121 -3.3661
 9349SOL     OW39508   3.013   1.828  10.158  0.5060  0.0753  0.0508
 9349SOL    HW139509   2.948   1.855  10.223 -1.9680 -0.0406 -2.4096
 9349SOL    HW239510   2.962   1.769  10.103  0.0898 -0.0592  0.5799
 9350SOL     OW39511   4.586   1.360   8.187  0.3311 -0.6435  0.0881
 9350SOL    HW139512   4.628   1.330   8.267  0.5405  1.2864  0.7045
 9350SOL    HW239513   4.636   1.441   8.175  1.5201 -1.6520 -1.6846
 9351SOL     OW39514   1.914   0.775  10.907  0.2724 -0.0744  0.2812
 9351SOL    HW139515   1.993   0.782  10.853  0.7298 -1.0331  0.8343
 9351SOL    HW239516   1.884   0.689  10.879 -1.7710  1.4706 -2.2263
 9352SOL     OW39517   1.100   2.772  14.350  0.7045 -0.3986 -0.2799
 9352SOL    HW139518   1.148   2.801  14.427  1.1796 -0.5662 -0.5121
 9352SOL    HW239519   1.135   2.823  14.277 -1.7363  0.9785 -0.4932
 9353SOL     OW39520   0.804   1.277   4.965  0.3436 -0.5640 -0.6335
 9353SOL    HW139521   0.882   1.316   5.004 -0.1289  0.4036 -0.6718
 9353SOL    HW239522   0.844   1.190   4.961 -0.7886 -1.0693 -1.1272
 9354SOL     OW39523   4.659   0.221   2.616  0.7026  0.2984  0.2898
 9354SOL    HW139524   4.652   0.274   2.695 -0.4433 -1.1256  1.1378
 9354SOL    HW239525   4.573   0.222   2.574  1.3451 -3.1110 -1.1558
 9355SOL     OW39526   0.186   4.075   6.873 -0.6415 -0.4520 -0.3190
 9355SOL    HW139527   0.269   4.067   6.921 -0.6689  1.3806  0.0195
 9355SOL    HW239528   0.220   4.053   6.786  1.7651  0.1740  0.4683
 9356SOL     OW39529   0.721   0.112   7.090 -0.2062 -0.8956  0.4480
 9356SOL    HW139530   0.746   0.190   7.041 -1.0037  0.1186  1.6424
 9356SOL    HW239531   0.671   0.063   7.024 -1.6280 -1.0942  1.6594
 9357SOL     OW39532   0.370   0.364   0.802  0.2218  0.5956  0.1231
 9357SOL    HW139533   0.363   0.296   0.869 -2.5001  0.4229 -0.3559
 9357SOL    HW239534   0.279   0.391   0.790  0.8216  2.4661 -0.0951
 9358SOL     OW39535   2.268   1.673   7.197  0.2713  0.0641  0.5369
 9358SOL    HW139536   2.320   1.747   7.228 -1.0909  0.7275  1.2162
 9358SOL    HW239537   2.228   1.649   7.280  2.0063  1.8906  1.9059
 9359SOL     OW39538   4.555   4.088   6.883 -0.0298 -0.1564  0.1438
 9359SOL    HW139539   4.612   4.067   6.808  0.1869 -0.1608  0.3096
 9359SOL    HW239540   4.568   4.183   6.881 -0.4057 -0.1360 -1.5680
 9360SOL     OW39541   2.217   4.356   7.208 -1.0475  0.2679 -0.7165
 9360SOL    HW139542   2.309   4.356   7.236 -0.5589 -0.9562 -2.3021
 9360SOL    HW239543   2.195   4.273   7.249  1.0173 -0.1933 -0.4973
 9361SOL     OW39544   1.002   1.995   6.293  0.3479 -0.1830 -0.2410
 9361SOL    HW139545   0.971   2.053   6.362  1.4360 -1.7666  1.5757
 9361SOL    HW239546   0.982   2.053   6.220  0.0500  1.0640  0.8290
 9362SOL     OW39547   3.582   2.672  15.594  0.1866 -0.5084  0.2264
 9362SOL    HW139548   3.508   2.732  15.582 -1.0444 -2.1657 -0.6014
 9362SOL    HW239549   3.540   2.587  15.578  0.4403 -0.3277 -1.4060
 9363SOL     OW39550   4.098   0.937   8.095 -0.0058 -0.3761 -0.0233
 9363SOL    HW139551   4.024   0.892   8.135  0.1672 -0.8952 -0.2863
 9363SOL    HW239552   4.053   0.988   8.027  0.5782  0.8466  0.5096
 9364SOL     OW39553   4.509   1.193   3.576  0.1121  0.6682  0.6251
 9364SOL    HW139554   4.421   1.200   3.613 -0.6345 -0.1043 -1.0157
 9364SOL    HW239555   4.489   1.135   3.503  4.0070 -0.2402  0.2705
 9365SOL     OW39556   2.231   0.112   9.047 -0.3770 -0.3229  0.7122
 9365SOL    HW139557   2.258   0.043   9.107 -0.5324  0.6827  1.9482
 9365SOL    HW239558   2.313   0.161   9.037  1.2160 -2.7612  1.8488
 9366SOL     OW39559   0.815   1.806   3.782 -0.1060 -0.2016  0.2919
 9366SOL    HW139560   0.792   1.872   3.717  0.6270 -1.1515 -0.9391
 9366SOL    HW239561   0.728   1.767   3.793  0.2466 -0.6056  1.5923
 9367SOL     OW39562   1.063   1.487  15.252  0.0662 -0.1788 -0.2462
 9367SOL    HW139563   1.105   1.502  15.336 -0.5729 -0.7507  0.1746
 9367SOL    HW239564   0.977   1.524  15.272  0.0312 -1.0158  1.1431
 9368SOL     OW39565   4.518   0.276   3.713  0.0117  0.5603  0.0509
 9368SOL    HW139566   4.431   0.313   3.698 -0.3434 -0.3034 -0.0154
 9368SOL    HW239567   4.546   0.320   3.794  0.1839  0.6407 -0.0516
 9369SOL     OW39568   2.534   3.857   4.468  0.5937 -0.5957 -0.2469
 9369SOL    HW139569   2.600   3.810   4.518 -0.8559 -1.7786  0.5617
 9369SOL    HW239570   2.474   3.888   4.536  3.0079  1.0379  1.1690
 9370SOL     OW39571   2.003   4.556   7.204 -0.1352 -0.2057 -0.2338
 9370SOL    HW139572   2.065   4.493   7.240  0.9161  0.9686  0.0111
 9370SOL    HW239573   2.048   4.640   7.209 -2.3301  0.9090  0.6873
 9371SOL     OW39574   4.530   4.442   0.973  0.1618  0.4258  0.6057
 9371SOL    HW139575   4.572   4.522   0.941 -1.0315  0.8617  0.1225
 9371SOL    HW239576   4.604   4.387   0.998 -0.0711 -0.3613 -0.4255
 9372SOL     OW39577   1.061   2.815   8.214 -0.3356 -0.3526 -0.1886
 9372SOL    HW139578   0.969   2.809   8.241 -0.9567 -0.0651 -2.2294
 9372SOL    HW239579   1.057   2.881   8.145  2.6467  0.1729  0.1426
 9373SOL     OW39580   2.004   1.765   7.037 -0.3767 -0.2013 -0.3287
 9373SOL    HW139581   2.026   1.725   7.121  0.1250  1.7288  0.4468
 9373SOL    HW239582   2.087   1.800   7.004 -0.9219  0.5638 -0.8758
 9374SOL     OW39583   0.608   3.599   2.673 -0.5422 -0.1173  0.1513
 9374SOL    HW139584   0.615   3.545   2.752 -0.1050 -1.5410 -0.8763
 9374SOL    HW239585   0.577   3.536   2.607 -1.4204 -1.5314  1.8998
 9375SOL     OW39586   1.007   4.648   0.908 -0.4503  0.4570 -0.0303
 9375SOL    HW139587   1.030   0.019   0.933  1.0224  0.1529 -0.2680
 9375SOL    HW239588   1.087   4.624   0.861  0.9367  0.5504  2.3149
 9376SOL     OW39589   0.874   3.626   4.636 -0.5922 -0.1444 -0.4059
 9376SOL    HW139590   0.910   3.541   4.611 -1.2456 -0.6331  0.2927
 9376SOL    HW239591   0.819   3.602   4.710  1.7498  0.6510  1.5804
 9377SOL     OW39592   4.279   3.810  12.970  0.1687 -0.1751 -0.0428
 9377SOL    HW139593   4.301   3.764  12.890  0.1195 -0.4972  0.1301
 9377SOL    HW239594   4.291   3.747  13.041  0.4015 -3.2194 -2.7930
 9378SOL     OW39595   0.299   2.121  16.239 -0.3852  0.2897  0.2600
 9378SOL    HW139596   0.344   2.187  16.186  1.8445 -1.4639 -0.0336
 9378SOL    HW239597   0.216   2.109  16.192 -1.2153  0.5375  1.6746
 9379SOL     OW39598   4.308   0.524   4.493 -0.0608  0.4554  0.9133
 9379SOL    HW139599   4.326   0.529   4.399 -1.3679  0.3354  0.6628
 9379SOL    HW239600   4.359   0.594   4.534 -0.1435  0.6497  0.6860
 9380SOL     OW39601   1.884   2.311   0.520  0.0066 -0.3583 -0.4310
 9380SOL    HW139602   1.915   2.228   0.556  3.7222  1.2193 -0.0234
 9380SOL    HW239603   1.954   2.320   0.455  0.2787 -1.2834 -0.2646
 9381SOL     OW39604   4.680   4.424   4.569 -0.6677 -0.3556 -0.0209
 9381SOL    HW139605   4.657   4.336   4.539  1.2409 -1.2148  1.1069
 9381SOL    HW239606   4.639   4.473   4.497  1.6624  2.5904  0.6926
 9382SOL     OW39607   3.625   3.115   0.055 -0.7038 -0.4731 -0.2812
 9382SOL    HW139608   3.596   3.198   0.094 -0.3400 -0.0065 -0.9873
 9382SOL    HW239609   3.593   3.041   0.106 -2.3368  0.4071 -0.0230
 9383SOL     OW39610   0.493   2.482   4.654  0.3729  0.2196 -0.1204
 9383SOL    HW139611   0.530   2.396   4.633  1.4312  0.3043  1.3791
 9383SOL    HW239612   0.402   2.477   4.624  0.5641  1.8231 -0.9357
 9384SOL     OW39613   1.524   3.442  11.086 -0.0506  0.1218 -0.5174
 9384SOL    HW139614   1.582   3.497  11.139  1.6668 -2.3782  0.2118
 9384SOL    HW239615   1.582   3.366  11.089 -2.4993 -1.8098 -1.7922
 9385SOL     OW39616   2.164   2.762   0.408 -0.3039  0.1722  0.3196
 9385SOL    HW139617   2.071   2.740   0.410 -0.2922 -0.1401 -2.4386
 9385SOL    HW239618   2.199   2.732   0.492 -0.6459 -0.0573  0.3789
 9386SOL     OW39619   3.067   3.694   6.204  0.3168 -0.3398  0.0636
 9386SOL    HW139620   3.075   3.746   6.124 -0.0590  0.8310  0.7857
 9386SOL    HW239621   3.008   3.754   6.250  0.1790 -0.3856 -0.0530
 9387SOL     OW39622   0.562   4.596   8.500  0.2416  0.0917  0.8210
 9387SOL    HW139623   0.644   4.564   8.461 -0.2794 -1.8750  1.3424
 9387SOL    HW239624   0.601   4.678   8.530 -3.2729  1.8539  0.4564
 9388SOL     OW39625   3.158   2.133   6.572 -0.1312  0.4456 -0.0377
 9388SOL    HW139626   3.174   2.072   6.644 -0.9309 -0.0624 -0.2879
 9388SOL    HW239627   3.161   2.070   6.500  1.7651  1.5146 -0.8925
 9389SOL     OW39628   2.483   2.939  12.743  0.0152 -0.6514 -0.2554
 9389SOL    HW139629   2.544   2.974  12.678 -1.7460 -0.3602 -1.7657
 9389SOL    HW239630   2.521   2.978  12.822  1.9430 -1.0390 -0.9888
 9390SOL     OW39631   1.267   1.411  12.685 -0.5480 -0.1250  0.4586
 9390SOL    HW139632   1.210   1.352  12.736 -0.7471  0.9635  1.5034
 9390SOL    HW239633   1.320   1.434  12.762 -0.6557 -1.4189  0.9299
 9391SOL     OW39634   1.191   4.648   2.943 -0.2753 -0.0860  0.4606
 9391SOL    HW139635   1.272   4.696   2.929  0.4448 -0.8563  2.0622
 9391SOL    HW239636   1.136   4.700   2.884  0.6093  0.4639  0.1264
 9392SOL     OW39637   1.256   3.979   5.260  0.0948  0.2145 -0.4712
 9392SOL    HW139638   1.234   4.032   5.184  2.1369  0.1200 -1.1419
 9392SOL    HW239639   1.171   3.938   5.273 -0.6941  1.0227 -3.1292
 9393SOL     OW39640   3.181   0.380   7.077  0.2383  0.3773 -0.1319
 9393SOL    HW139641   3.221   0.347   6.997 -0.7294  0.7848 -0.7716
 9393SOL    HW239642   3.159   0.298   7.122 -0.1391  0.9372  0.6978
 9394SOL     OW39643   3.225   1.411  10.537  0.1284  0.2620  0.0405
 9394SOL    HW139644   3.153   1.455  10.491 -0.6503 -1.0954 -0.0208
 9394SOL    HW239645   3.286   1.388  10.467 -0.0628 -1.9233  0.6048
 9395SOL     OW39646   3.804   4.073   2.298 -0.2468  0.2535  0.0050
 9395SOL    HW139647   3.721   4.090   2.252 -0.4373 -2.9654 -0.8927
 9395SOL    HW239648   3.862   4.036   2.231  3.7406  3.0976  1.9019
 9396SOL     OW39649   0.319   0.219   2.396 -0.6414  0.2427 -0.1455
 9396SOL    HW139650   0.361   0.138   2.366 -2.6007 -1.1610  0.9283
 9396SOL    HW239651   0.290   0.191   2.483 -2.6847 -1.1217 -1.2697
 9397SOL     OW39652   2.141   4.392   0.819 -0.0735 -0.0719 -0.0797
 9397SOL    HW139653   2.221   4.440   0.795  0.1265 -1.0012 -1.2901
 9397SOL    HW239654   2.135   4.426   0.908 -2.8733  1.2858 -0.7908
 9398SOL     OW39655   4.687   3.671   2.699 -0.0227  0.0994 -0.1684
 9398SOL    HW139656   4.633   3.654   2.777 -0.3790 -1.6391 -0.8079
 9398SOL    HW239657   0.054   3.630   2.713  0.1380 -0.1856 -1.9562
 9399SOL     OW39658   3.119   0.145   6.857  0.0853 -0.1848 -0.2235
 9399SOL    HW139659   3.204   0.116   6.891 -0.1391 -1.2570 -0.5762
 9399SOL    HW239660   3.065   0.114   6.930 -0.3323 -3.3382 -1.8666
 9400SOL     OW39661   1.783   0.250  12.969 -0.1738  0.7297 -0.0135
 9400SOL    HW139662   1.859   0.277  12.916 -1.0852 -0.0895 -1.7435
 9400SOL    HW239663   1.725   0.205  12.907 -1.3291 -1.1011  2.4136
 9401SOL     OW39664   0.578   2.690   0.508 -0.0741  0.4110 -0.3302
 9401SOL    HW139665   0.646   2.623   0.501  2.4366  3.2647 -3.3177
 9401SOL    HW239666   0.590   2.745   0.430 -0.4919  1.6103  0.4643
 9402SOL     OW39667   0.205   2.314   3.447 -0.1943 -0.0913 -0.2389
 9402SOL    HW139668   0.128   2.353   3.407  0.2433  1.0889  0.0718
 9402SOL    HW239669   0.228   2.258   3.373 -1.9026 -0.9337 -0.1351
 9403SOL     OW39670   1.853   2.955   6.499  0.3143 -0.2966  0.3395
 9403SOL    HW139671   1.847   2.991   6.411  0.8993 -1.6729 -0.2579
 9403SOL    HW239672   1.804   2.873   6.490  0.2824 -0.0418 -1.7777
 9404SOL     OW39673   2.034   4.392  12.439 -0.8992 -0.7944 -0.4352
 9404SOL    HW139674   2.078   4.402  12.524  0.4079  0.5234 -1.2824
 9404SOL    HW239675   2.102   4.340  12.397  0.2104 -0.4506  0.9449
 9405SOL     OW39676   2.429   1.254   8.310 -0.0618 -0.1601 -0.1407
 9405SOL    HW139677   2.340   1.289   8.306  0.7062  1.6521 -1.1753
 9405SOL    HW239678   2.441   1.201   8.231 -2.7268 -1.1032  0.0961
 9406SOL     OW39679   0.101   1.417  16.819  0.3155 -0.0094 -0.4450
 9406SOL    HW139680   0.018   1.445  16.781 -0.2202  0.7669  1.2691
 9406SOL    HW239681   0.068   1.348  16.877  0.1757  0.4088 -0.0253
 9407SOL     OW39682   0.251   3.092  16.735  0.6851  0.3177  0.1968
 9407SOL    HW139683   0.264   3.025  16.802  0.2032  0.7580  0.7266
 9407SOL    HW239684   0.290   3.064  16.652  1.2371  0.2754  0.4701
 9408SOL     OW39685   4.324   2.528   6.545  0.1710 -0.1593  0.0801
 9408SOL    HW139686   4.317   2.551   6.452 -0.5732  1.5489  0.5635
 9408SOL    HW239687   4.294   2.437   6.546 -1.0902  0.2776  1.0358
 9409SOL     OW39688   0.750   3.208   7.606  0.0141 -0.3977  0.5206
 9409SOL    HW139689   0.784   3.287   7.564 -0.0158  0.7265  2.6211
 9409SOL    HW239690   0.655   3.220   7.604  0.2338  0.7826 -3.0926
 9410SOL     OW39691   3.084   1.875   8.772  0.4770  0.2837 -0.3717
 9410SOL    HW139692   2.992   1.889   8.796  0.4652 -0.3121 -0.0466
 9410SOL    HW239693   3.119   1.964   8.775  1.9269 -0.2533 -1.6188
 9411SOL     OW39694   2.092   3.337   0.414  0.2534 -0.2931 -0.4069
 9411SOL    HW139695   2.104   3.419   0.462 -3.8994  0.1724 -0.2024
 9411SOL    HW239696   2.049   3.374   0.337  2.4908  0.0098 -1.5433
 9412SOL     OW39697   2.932   1.097   6.538 -0.1575  0.1110  0.3111
 9412SOL    HW139698   2.968   1.010   6.526  0.9504  0.8463 -1.6489
 9412SOL    HW239699   2.899   1.109   6.449  1.7451 -1.2302 -0.5648
 9413SOL     OW39700   2.205   3.618   2.011  0.5476  0.6492 -0.0099
 9413SOL    HW139701   2.163   3.536   2.037  1.8112 -0.2350 -0.7573
 9413SOL    HW239702   2.194   3.605   1.916 -1.8543 -0.6133  0.4431
 9414SOL     OW39703   0.745   0.650  13.578  0.4568 -0.0163 -0.3920
 9414SOL    HW139704   0.813   0.704  13.538  0.7480 -0.1112 -0.0287
 9414SOL    HW239705   0.784   0.620  13.660  1.6552  1.5219 -0.3956
 9415SOL     OW39706   2.396   1.001   7.608  0.1945 -0.7616 -0.2115
 9415SOL    HW139707   2.320   1.046   7.569 -1.5143  0.0684  4.0833
 9415SOL    HW239708   2.461   1.063   7.573  1.0377 -1.8043 -0.4730
 9416SOL     OW39709   2.134   1.757   2.539  0.3273  0.5107 -0.0215
 9416SOL    HW139710   2.188   1.791   2.468  1.4799  2.9229  2.0181
 9416SOL    HW239711   2.072   1.701   2.493  0.9692  0.0051 -0.2634
 9417SOL     OW39712   4.123   2.486   7.580  0.0209  0.0195 -0.6145
 9417SOL    HW139713   4.214   2.503   7.606  0.3892 -1.7192 -0.7655
 9417SOL    HW239714   4.084   2.436   7.652  1.3347  1.1722  0.8944
 9418SOL     OW39715   1.530   1.734   4.325  0.2854  0.3686 -0.9578
 9418SOL    HW139716   1.557   1.689   4.245  0.0340  0.4306 -1.0773
 9418SOL    HW239717   1.611   1.781   4.343  0.0205 -1.3309  4.4560
 9419SOL     OW39718   2.082   1.509   1.004  0.8972 -0.4598 -0.3772
 9419SOL    HW139719   2.090   1.550   1.090 -0.7399  1.1370 -0.9831
 9419SOL    HW239720   2.129   1.575   0.954  0.7374  2.0269  2.7652
 9420SOL     OW39721   4.092   4.160   3.893 -0.2488 -0.0095  0.2083
 9420SOL    HW139722   4.182   4.138   3.868 -0.1453  1.1710 -0.4702
 9420SOL    HW239723   4.045   4.128   3.816 -2.0744  0.7083  1.0423
 9421SOL     OW39724   0.475   4.141   8.794 -0.0498  0.0052 -0.0328
 9421SOL    HW139725   0.451   4.144   8.702 -2.5233  0.4704  0.6152
 9421SOL    HW239726   0.485   4.231   8.826 -0.0014 -0.3020  0.8318
 9422SOL     OW39727   4.115   3.637  16.490  0.4805  0.4844  0.6870
 9422SOL    HW139728   4.207   3.636  16.517  1.0952  0.1346 -1.4921
 9422SOL    HW239729   4.093   3.729  16.504  0.1133  0.4619  0.2553
 9423SOL     OW39730   1.372   4.652  13.746 -0.1452 -0.2468 -0.1565
 9423SOL    HW139731   1.364   4.609  13.661  0.9571 -1.1192  0.1830
 9423SOL    HW239732   1.465   4.635  13.757  0.0244  0.9465  0.3117
 9424SOL     OW39733   4.137   4.274  17.393 -0.1617  0.0272 -0.5480
 9424SOL    HW139734   4.085   4.204  17.355  0.9693 -0.7951 -0.5839
 9424SOL    HW239735   4.201   4.225  17.445  1.0371  1.0467 -1.0731
 9425SOL     OW39736   3.726   3.340   4.190  0.0260  0.3219  0.3425
 9425SOL    HW139737   3.675   3.264   4.218 -0.0013 -0.2457 -1.2890
 9425SOL    HW239738   3.681   3.376   4.113 -0.6256 -0.7197  0.2390
 9426SOL     OW39739   1.817   0.552  15.807  0.3895  0.4385 -0.3584
 9426SOL    HW139740   1.838   0.592  15.891 -0.6597  0.5489 -0.1494
 9426SOL    HW239741   1.788   0.467  15.838  0.4106  1.3625  2.2031
 9427SOL     OW39742   3.224   1.577  17.191  0.5624 -0.5645  0.2925
 9427SOL    HW139743   3.265   1.523  17.258  1.3711 -1.1206 -0.6502
 9427SOL    HW239744   3.233   1.519  17.115 -1.1408 -0.7526  0.2333
 9428SOL     OW39745   4.159   3.838  15.336  0.3798  0.1944  0.2829
 9428SOL    HW139746   4.124   3.926  15.350 -2.5665 -0.4463 -2.8745
 9428SOL    HW239747   4.237   3.854  15.282  0.0968 -2.7534 -1.0444
 9429SOL     OW39748   3.083   4.427   8.131 -0.3601 -0.4362  0.5502
 9429SOL    HW139749   3.032   4.409   8.210 -0.6116  0.6340  0.6229
 9429SOL    HW239750   3.012   4.408   8.070 -0.6613 -1.0968  1.1076
 9430SOL     OW39751   3.584   0.163   5.747  0.0521  0.0409  0.3939
 9430SOL    HW139752   3.493   0.142   5.726 -0.6812  1.7447  1.8972
 9430SOL    HW239753   3.581   0.194   5.837  0.0876  0.3439  0.2902
 9431SOL     OW39754   1.025   1.700   6.290  0.2301  0.4988 -0.1855
 9431SOL    HW139755   1.042   1.794   6.296  1.1497  0.3354 -0.2815
 9431SOL    HW239756   0.933   1.707   6.263  1.1675  3.1107 -2.7350
 9432SOL     OW39757   4.340   0.666   2.884  0.4045  0.3627 -0.1986
 9432SOL    HW139758   4.383   0.611   2.948  2.4596  1.2112 -0.8634
 9432SOL    HW239759   4.398   0.660   2.808  1.5413  0.9562  0.6201
 9433SOL     OW39760   3.004   0.949  13.672 -0.2286 -0.3416  0.0650
 9433SOL    HW139761   3.028   0.972  13.582  0.3290  1.1478  0.5939
 9433SOL    HW239762   2.952   1.025  13.698  1.2203  0.7166 -0.0912
 9434SOL     OW39763   1.758   0.643   9.031  0.1404  1.2081  0.4596
 9434SOL    HW139764   1.847   0.615   9.009  0.0576  0.5725  0.9415
 9434SOL    HW239765   1.713   0.646   8.946  0.3186  0.2305  0.3328
 9435SOL     OW39766   0.315   0.361  12.226  0.7537  0.7980 -0.6296
 9435SOL    HW139767   0.307   0.412  12.307 -0.1341  0.7091 -0.6574
 9435SOL    HW239768   0.366   0.283  12.246 -0.5115  0.3988  1.0807
 9436SOL     OW39769   0.426   1.392   4.386  0.5305 -0.1440  0.3330
 9436SOL    HW139770   0.490   1.325   4.410 -0.4833 -1.5145 -0.8253
 9436SOL    HW239771   0.452   1.403   4.295  0.1424 -1.1567  0.1110
 9437SOL     OW39772   0.521   1.170  11.828  0.1125 -0.6605 -0.0962
 9437SOL    HW139773   0.497   1.262  11.841 -0.1216 -0.5699 -1.1406
 9437SOL    HW239774   0.615   1.178  11.840 -0.0842 -1.3761  1.9562
 9438SOL     OW39775   1.850   2.698   0.471 -0.6865  0.4219  0.0067
 9438SOL    HW139776   1.763   2.663   0.452 -0.1012 -0.4918 -0.9560
 9438SOL    HW239777   1.889   2.688   0.384  1.0327 -2.0566  1.0654
 9439SOL     OW39778   1.391   2.546  15.929  0.2611 -0.4208 -0.3122
 9439SOL    HW139779   1.469   2.492  15.920  1.9412  1.7685  1.1845
 9439SOL    HW239780   1.427   2.627  15.894 -0.7859 -0.2053 -0.8901
 9440SOL     OW39781   3.444   0.036   2.844  0.3906 -0.8282  0.5458
 9440SOL    HW139782   3.392   0.046   2.765  1.5230  1.0249  0.0533
 9440SOL    HW239783   3.393   0.079   2.912 -2.6371 -1.0156 -1.6355
 9441SOL     OW39784   0.953   3.732   8.178 -0.0502  0.0292 -0.2178
 9441SOL    HW139785   0.936   3.754   8.270  4.2740  1.4543  0.2093
 9441SOL    HW239786   1.007   3.655   8.196  2.0853  1.7152  0.5370
 9442SOL     OW39787   1.919   2.561   5.965 -0.0817 -0.1277 -0.4095
 9442SOL    HW139788   1.972   2.482   5.956 -1.7033 -1.6160  2.9670
 9442SOL    HW239789   1.991   2.623   5.977  0.3865 -0.9426  0.9963
 9443SOL     OW39790   4.598   4.546  12.491  0.4560  0.2831  0.8186
 9443SOL    HW139791   4.532   4.494  12.538 -0.8923  0.1951 -1.1683
 9443SOL    HW239792   4.664   4.477  12.480 -1.5048 -1.9386  2.8402
 9444SOL     OW39793   3.519   4.106   2.862  0.1949 -0.4502 -0.2366
 9444SOL    HW139794   3.476   4.128   2.779 -0.6352 -0.7371  0.1204
 9444SOL    HW239795   3.599   4.158   2.855  0.3371 -0.6656 -0.2127
 9445SOL     OW39796   3.947   3.179   3.620  0.3025  0.7452  0.0450
 9445SOL    HW139797   3.872   3.164   3.562 -1.4480  1.5168  2.1215
 9445SOL    HW239798   3.909   3.193   3.707  1.0597  0.7690  0.3700
 9446SOL     OW39799   3.120   1.086   5.835 -0.0432 -0.1949 -0.4796
 9446SOL    HW139800   3.214   1.105   5.843  0.0173 -0.3202 -0.8413
 9446SOL    HW239801   3.119   1.108   5.741  1.2684 -0.3397 -0.5268
 9447SOL     OW39802   0.778   2.286   3.277  0.4904 -0.9282 -0.0544
 9447SOL    HW139803   0.684   2.300   3.291  0.8525  0.6752  0.8302
 9447SOL    HW239804   0.800   2.348   3.208 -0.1845 -0.1844  0.3947
 9448SOL     OW39805   2.163   1.790   6.770 -0.1065 -0.1820  0.9596
 9448SOL    HW139806   2.223   1.814   6.700 -0.5822  0.1716  0.6732
 9448SOL    HW239807   2.217   1.821   6.842  0.6151 -0.2942  0.4681
 9449SOL     OW39808   3.625   1.749   2.958  0.4937  0.6653  0.4632
 9449SOL    HW139809   3.720   1.740   2.945  0.4581  1.6195 -0.4283
 9449SOL    HW239810   3.612   1.843   2.947  2.0197  0.8388  0.1710
 9450SOL     OW39811   0.645   3.133   3.099  0.1194 -0.7919  0.5668
 9450SOL    HW139812   0.593   3.202   3.058 -1.0095 -2.1905 -0.3315
 9450SOL    HW239813   0.722   3.122   3.043  0.1596  2.3063  0.0415
 9451SOL     OW39814   4.026   2.304  15.539 -0.5376 -1.0661 -0.1117
 9451SOL    HW139815   4.000   2.226  15.588  0.9149  0.6902  3.3899
 9451SOL    HW239816   4.120   2.285  15.536 -0.4664 -0.7552  0.2894
 9452SOL     OW39817   4.043   0.119   5.470 -1.0054  0.0659  0.5024
 9452SOL    HW139818   4.118   0.157   5.514  0.6659 -0.6066 -1.7732
 9452SOL    HW239819   4.002   0.073   5.543 -0.6229 -0.7118  0.2251
 9453SOL     OW39820   4.532   1.706   7.591 -0.2100 -0.0668 -0.5967
 9453SOL    HW139821   4.446   1.701   7.634  0.3435  0.1774  0.5183
 9453SOL    HW239822   4.502   1.703   7.500  0.1359 -0.3361 -0.7024
 9454SOL     OW39823   2.938   0.860  12.611  0.3777 -0.0726  0.5942
 9454SOL    HW139824   2.910   0.815  12.691 -2.0905  0.8333  0.2499
 9454SOL    HW239825   3.017   0.814  12.583 -0.4194 -1.6740  0.9408
 9455SOL     OW39826   2.418   2.269   9.383 -0.1231  0.3164  0.3430
 9455SOL    HW139827   2.365   2.214   9.441  1.6585 -2.6988 -0.8947
 9455SOL    HW239828   2.352   2.332   9.353  2.4663  1.5326 -2.8048
 9456SOL     OW39829   1.244   3.516  16.543 -0.0359  0.4976  0.2143
 9456SOL    HW139830   1.148   3.508  16.545  0.0430 -0.3302  0.4248
 9456SOL    HW239831   1.243   3.604  16.505 -0.4570  0.7934  0.8996
 9457SOL     OW39832   0.273   3.840   7.430  0.1245  0.0572  0.2794
 9457SOL    HW139833   0.321   3.923   7.436  0.5297 -0.2533  1.4104
 9457SOL    HW239834   0.192   3.865   7.474  0.4337  1.4578  0.0562
 9458SOL     OW39835   4.572   1.966   6.432 -0.1920  0.2349 -0.3427
 9458SOL    HW139836   4.601   1.997   6.518 -0.4806  0.6274 -0.3870
 9458SOL    HW239837   4.607   2.041   6.383  1.5254 -0.1059  0.3815
 9459SOL     OW39838   3.083   0.782  16.097  0.2038  0.6367  0.3669
 9459SOL    HW139839   3.073   0.773  16.192 -2.1168 -0.5984  0.0196
 9459SOL    HW239840   3.026   0.713  16.063  0.8267  0.5844 -0.5875
 9460SOL     OW39841   2.430   1.001  10.756 -0.0415  1.2533 -0.2593
 9460SOL    HW139842   2.456   0.950  10.833 -1.5709  1.8004  0.6163
 9460SOL    HW239843   2.389   0.938  10.697  0.4559  0.0149  0.7167
 9461SOL     OW39844   3.234   2.077   8.181  0.2000 -0.3851  0.1864
 9461SOL    HW139845   3.142   2.101   8.194  0.0974 -0.6676 -0.0191
 9461SOL    HW239846   3.250   2.008   8.246 -2.6293  0.1020  1.3963
 9462SOL     OW39847   3.936   2.665   3.011 -0.0607  0.1302 -0.1839
 9462SOL    HW139848   3.916   2.734   3.074  0.4585 -1.8269  2.1462
 9462SOL    HW239849   3.849   2.632   2.989  0.4109 -0.6805 -0.8760
 9463SOL     OW39850   2.186   1.088   1.086  0.1722 -0.0540  0.0152
 9463SOL    HW139851   2.125   1.156   1.058  2.6529  1.1184 -2.6371
 9463SOL    HW239852   2.149   1.009   1.049 -0.5810  0.7939 -1.0331
 9464SOL     OW39853   3.271   0.315   4.456  0.3936 -0.2240 -0.0907
 9464SOL    HW139854   3.354   0.290   4.415 -0.5121  0.3381 -2.2579
 9464SOL    HW239855   3.244   0.398   4.416 -0.6566  0.5658  2.3026
 9465SOL     OW39856   3.552   0.993  15.518  0.0414  0.0434 -0.2059
 9465SOL    HW139857   3.505   0.946  15.449  0.2603  2.5274 -2.0445
 9465SOL    HW239858   3.497   1.068  15.538 -0.1448 -1.0477  3.2476
 9466SOL     OW39859   1.239   3.967   6.401 -0.1199  0.3450  0.6695
 9466SOL    HW139860   1.326   3.938   6.428  0.3040  0.4654 -0.5448
 9466SOL    HW239861   1.221   4.038   6.463 -0.3694 -1.2415  2.4020
 9467SOL     OW39862   2.324   0.080   3.994 -0.2202  0.1465  0.1165
 9467SOL    HW139863   2.283   0.102   4.078 -1.7252 -1.4453 -0.2047
 9467SOL    HW239864   2.395   0.027   4.030 -1.1876 -0.8622  0.5506
 9468SOL     OW39865   3.923   3.226  13.297  0.4545 -0.1842  0.6590
 9468SOL    HW139866   3.908   3.223  13.203 -0.0368 -2.4677  0.8086
 9468SOL    HW239867   3.833   3.222  13.328  0.4838 -1.0432  0.6230
 9469SOL     OW39868   0.540   4.368  14.624 -0.3450  0.0252 -0.4232
 9469SOL    HW139869   0.576   4.296  14.573 -0.5865  1.0727 -2.0700
 9469SOL    HW239870   0.616   4.402  14.671 -0.0413 -0.1051 -0.8240
 9470SOL     OW39871   1.010   1.176   4.532 -0.3956 -0.3760 -0.4080
 9470SOL    HW139872   0.943   1.116   4.499 -0.1995 -1.0709  0.4725
 9470SOL    HW239873   1.074   1.164   4.461 -0.6808  0.3744 -0.7887
 9471SOL     OW39874   0.086   1.002   6.288 -0.2710 -0.3450  0.1481
 9471SOL    HW139875   0.127   0.938   6.230  0.8793 -0.2183  0.8181
 9471SOL    HW239876   0.017   0.949   6.327 -1.4456  1.7345  0.9228
 9472SOL     OW39877   0.565   0.830  16.676 -0.3567  0.1425  0.0392
 9472SOL    HW139878   0.469   0.839  16.678 -0.1088  3.0976 -0.6455
 9472SOL    HW239879   0.593   0.908  16.628  1.7429  0.1078  1.2290
 9473SOL     OW39880   0.832   2.468  16.246 -0.1371  0.3877 -0.4889
 9473SOL    HW139881   0.754   2.422  16.214 -0.3955 -0.2275  0.9917
 9473SOL    HW239882   0.886   2.406  16.294  1.2924  2.3761  0.4449
 9474SOL     OW39883   1.657   3.331   3.022  0.1601  0.2848  0.3051
 9474SOL    HW139884   1.604   3.357   2.946  1.0347 -0.6212 -0.6155
 9474SOL    HW239885   1.739   3.381   3.012 -0.6218  1.1463 -1.7423
 9475SOL     OW39886   0.208   0.945   7.402  0.0540 -1.2027 -0.3219
 9475SOL    HW139887   0.241   0.954   7.491 -1.6003  1.7627  0.0218
 9475SOL    HW239888   0.167   1.030   7.382  1.0374 -0.7580 -0.4360
 9476SOL     OW39889   1.772   1.448   5.488  0.7263  0.2924 -0.2354
 9476SOL    HW139890   1.814   1.510   5.548  0.9998 -0.8170  0.7150
 9476SOL    HW239891   1.686   1.445   5.530  0.9355  1.6091  0.3065
 9477SOL     OW39892   2.164   2.474   0.077 -0.6755  0.0776  0.3709
 9477SOL    HW139893   2.187   2.563   0.049 -0.7260  0.8634  2.8894
 9477SOL    HW239894   2.117   2.440   0.000 -0.4757  2.1170 -0.6573
 9478SOL     OW39895   3.319   2.114   7.934  0.6269 -0.2459  0.1824
 9478SOL    HW139896   3.415   2.120   7.942  0.7052 -0.1137 -0.8219
 9478SOL    HW239897   3.296   2.094   8.025  1.8285  0.1664  0.5893
 9479SOL     OW39898   1.125   2.284   4.861  0.4216 -0.1320 -0.4901
 9479SOL    HW139899   1.146   2.211   4.803  0.1963 -0.7713  0.2377
 9479SOL    HW239900   1.127   2.365   4.811 -0.7633 -0.8167 -1.6165
 9480SOL     OW39901   0.731   4.365   7.745 -0.0311 -0.0328 -0.3652
 9480SOL    HW139902   0.805   4.390   7.800 -1.4416  3.3492 -0.0492
 9480SOL    HW239903   0.765   4.300   7.683  1.5951 -0.3924  0.9107
 9481SOL     OW39904   2.297   1.424   5.497  1.5549 -0.3447  1.0150
 9481SOL    HW139905   2.333   1.491   5.556 -0.4036  0.7864  0.9306
 9481SOL    HW239906   2.254   1.484   5.436 -0.9764 -2.4205  0.7570
 9482SOL     OW39907   3.079   3.845   8.589  0.1233 -0.8028 -0.3386
 9482SOL    HW139908   3.124   3.765   8.564  2.2242  0.1872  0.3091
 9482SOL    HW239909   3.025   3.819   8.664  0.8025 -0.3450  0.3066
 9483SOL     OW39910   3.381   0.638   8.882  0.0062  0.3076 -0.0218
 9483SOL    HW139911   3.360   0.567   8.822 -0.0728 -0.6681  1.1671
 9483SOL    HW239912   3.313   0.700   8.854  2.0745  3.2645  1.4801
 9484SOL     OW39913   3.799   4.338  15.542  0.0615 -0.1618 -0.5313
 9484SOL    HW139914   3.876   4.306  15.587 -2.7476 -0.8533  3.7824
 9484SOL    HW239915   3.817   4.302  15.455  1.4576 -2.0190  0.5114
 9485SOL     OW39916   1.116   1.504   5.373  0.1653  0.8315  0.5972
 9485SOL    HW139917   1.194   1.558   5.386  1.3958 -0.9289  0.5478
 9485SOL    HW239918   1.153   1.420   5.345 -1.7743 -0.4264  1.8298
 9486SOL     OW39919   3.957   4.643   6.657 -0.5406 -0.4311 -0.0209
 9486SOL    HW139920   3.990   4.572   6.711 -2.4905 -0.5833  0.9782
 9486SOL    HW239921   3.865   4.617   6.660 -0.2580 -1.2844  1.1670
 9487SOL     OW39922   4.118   2.585   7.989  0.0151 -0.0645 -0.4255
 9487SOL    HW139923   4.210   2.602   7.970  0.4725 -1.0301  0.9321
 9487SOL    HW239924   4.078   2.652   7.934  2.9931  1.7184 -0.3848
 9488SOL     OW39925   2.974   2.513   7.125  0.2465 -0.0447 -0.4484
 9488SOL    HW139926   2.969   2.607   7.141 -4.9991  0.1888 -3.6033
 9488SOL    HW239927   2.904   2.499   7.061 -1.0430  1.2154  0.6863
 9489SOL     OW39928   4.283   2.217   4.884 -0.1513  0.6764 -0.0320
 9489SOL    HW139929   4.358   2.229   4.825  0.4564  0.2698  0.6559
 9489SOL    HW239930   4.234   2.298   4.870 -1.2688  0.0012 -0.0587
 9490SOL     OW39931   0.878   4.628  13.143  0.0667 -0.2842 -0.9551
 9490SOL    HW139932   0.943   4.669  13.200 -0.6648 -2.0361  1.1140
 9490SOL    HW239933   0.912   4.623  13.053 -1.3710 -1.9310 -1.4133
 9491SOL     OW39934   2.550   2.874   1.739 -0.8016 -0.1677 -0.3163
 9491SOL    HW139935   2.507   2.833   1.813 -3.1066  0.4449 -1.3104
 9491SOL    HW239936   2.639   2.892   1.769 -0.5096 -1.7571 -0.2373
 9492SOL     OW39937   2.524   2.186   3.870 -0.2479  0.1914 -0.0322
 9492SOL    HW139938   2.469   2.243   3.816 -0.6287 -0.1722 -0.0329
 9492SOL    HW239939   2.459   2.140   3.923 -1.1715  0.3220 -1.0379
 9493SOL     OW39940   4.177   4.350   9.871  0.3958 -0.0207  0.0712
 9493SOL    HW139941   4.223   4.353   9.955 -0.1577  0.9454  0.3449
 9493SOL    HW239942   4.090   4.372   9.903 -0.5343 -0.0986 -2.4264
 9494SOL     OW39943   0.747   0.837   5.593  0.2797  0.2796 -0.3653
 9494SOL    HW139944   0.709   0.913   5.636 -0.6758 -0.0133 -0.7025
 9494SOL    HW239945   0.675   0.795   5.547  0.9024 -0.6042 -0.5456
 9495SOL     OW39946   3.485   0.191  16.279 -0.1803 -0.0299 -0.2072
 9495SOL    HW139947   3.535   0.134  16.221  1.4778 -0.1485  1.3400
 9495SOL    HW239948   3.531   0.272  16.256 -0.3501  0.0326 -0.3268
 9496SOL     OW39949   2.182   4.590  16.303 -0.0835  0.0681  0.5786
 9496SOL    HW139950   2.192   4.651  16.229 -1.0384  1.4503  1.5837
 9496SOL    HW239951   2.105   4.541  16.274  1.3188 -0.0632 -2.9746
 9497SOL     OW39952   3.338   2.857   1.774  0.1728 -0.1625  0.3059
 9497SOL    HW139953   3.384   2.924   1.722  1.4716 -0.7264  0.7360
 9497SOL    HW239954   3.246   2.853   1.750  0.8051  0.1458 -2.1339
 9498SOL     OW39955   2.453   2.801   8.981  0.1892 -0.0263  0.2486
 9498SOL    HW139956   2.451   2.897   8.980 -3.6564 -0.0953  0.3327
 9498SOL    HW239957   2.427   2.774   8.893 -1.7155 -0.3866  0.9166
 9499SOL     OW39958   1.761   2.315   8.750  0.0348 -0.3342  0.2033
 9499SOL    HW139959   1.855   2.328   8.755 -0.2766  1.5618  1.0206
 9499SOL    HW239960   1.730   2.405   8.750 -2.5142 -1.1748  2.0746
 9500SOL     OW39961   2.076   1.538   7.725  0.0454 -0.6219 -0.0989
 9500SOL    HW139962   2.128   1.466   7.689 -0.4174 -0.6748 -0.6602
 9500SOL    HW239963   1.989   1.498   7.726 -0.0117 -0.5322 -2.2293
 9501SOL     OW39964   2.086   3.848   7.531 -0.3476  0.0068 -0.0354
 9501SOL    HW139965   2.121   3.900   7.603  1.9051 -0.7885 -0.5420
 9501SOL    HW239966   2.093   3.759   7.565  1.7143  0.6933  1.2996
 9502SOL     OW39967   3.251   3.119  17.412  0.7925  0.2143 -0.1773
 9502SOL    HW139968   3.305   3.168  17.475 -0.1859  0.8379  0.1749
 9502SOL    HW239969   3.179   3.182  17.407  0.2399 -0.3394  0.7817
 9503SOL     OW39970   1.552   2.539   6.605  0.0046 -0.8007  0.0509
 9503SOL    HW139971   1.624   2.594   6.575 -1.9827  1.4892 -0.5443
 9503SOL    HW239972   1.604   2.460   6.622  0.7931 -0.1013  0.9048
 9504SOL     OW39973   3.911   4.360  14.926  0.1863  0.0102 -0.0333
 9504SOL    HW139974   4.007   4.363  14.924  0.2371 -0.0063  1.7688
 9504SOL    HW239975   3.906   4.279  14.978  0.8509  0.4467  0.7225
 9505SOL     OW39976   1.958   3.019   8.717 -0.0319  0.1111 -0.0137
 9505SOL    HW139977   2.001   3.093   8.673 -0.6172  0.0454 -0.6900
 9505SOL    HW239978   1.874   3.055   8.748  0.9534  0.7335  1.9920
 9506SOL     OW39979   1.340   2.701   5.066 -0.8357  0.1971  0.0725
 9506SOL    HW139980   1.308   2.615   5.038 -1.1201 -0.1877  1.5668
 9506SOL    HW239981   1.303   2.699   5.155 -0.6378 -1.7019  0.1017
 9507SOL     OW39982   1.657   3.587  16.453 -0.3427 -0.7741  0.0769
 9507SOL    HW139983   1.605   3.659  16.419 -1.1054 -0.2080  2.4188
 9507SOL    HW239984   1.703   3.564  16.373 -2.7376 -0.6467 -1.3426
 9508SOL     OW39985   0.218   3.242   0.324  0.1122  0.2769 -0.6584
 9508SOL    HW139986   0.134   3.195   0.322  1.0572 -1.4375 -0.1499
 9508SOL    HW239987   0.200   3.313   0.386  4.1781  1.1261 -0.4760
 9509SOL     OW39988   2.922   4.268  15.505  0.1345  0.1367 -0.0160
 9509SOL    HW139989   2.873   4.213  15.568  1.0143  0.9481  1.3831
 9509SOL    HW239990   2.858   4.337  15.492  0.4641  0.3764 -0.3517
 9510SOL     OW39991   0.681   3.096  15.629  0.0198  0.1920 -0.5425
 9510SOL    HW139992   0.717   3.008  15.616  0.8584  0.0161  2.9673
 9510SOL    HW239993   0.652   3.100  15.720  2.6467 -1.2167  0.3692
 9511SOL     OW39994   0.303   0.234   6.044 -0.3237  0.0689 -0.0408
 9511SOL    HW139995   0.258   0.301   6.095 -0.5981 -1.3641  1.5764
 9511SOL    HW239996   0.388   0.273   6.023 -0.3218  0.1521  0.1247
 9512SOL     OW39997   2.353   3.511   6.967 -0.1824  0.0425  0.0507
 9512SOL    HW139998   2.381   3.469   6.886 -0.7225  1.0137 -0.6491
 9512SOL    HW239999   2.292   3.446   7.001  0.3672  0.3268  1.5686
 9513SOL     OW40000   1.876   3.310   6.925 -0.4944  0.0613 -0.0447
 9513SOL    HW140001   1.877   3.268   6.839 -1.9641 -0.4600  0.1955
 9513SOL    HW240002   1.969   3.307   6.948 -0.5632  2.3526  0.5305
 9514SOL     OW40003   2.402   3.897   2.621 -0.8150 -0.1730  0.1959
 9514SOL    HW140004   2.472   3.960   2.638 -0.8405  0.4995 -2.2122
 9514SOL    HW240005   2.448   3.820   2.655 -0.3180 -0.3498 -0.8863
 9515SOL     OW40006   4.501   3.612   7.129  0.0221  0.4956  0.0821
 9515SOL    HW140007   4.525   3.522   7.107 -0.3891  0.1115  1.2308
 9515SOL    HW240008   4.537   3.611   7.217  0.4649 -0.8342 -0.1138
 9516SOL     OW40009   4.269   0.440   0.952 -0.4814 -0.0650  0.1726
 9516SOL    HW140010   4.266   0.351   0.987  1.6347 -0.5672 -0.9061
 9516SOL    HW240011   4.358   0.459   0.922 -0.3063 -0.2159  0.5953
 9517SOL     OW40012   3.034   3.032   2.521  0.0068  0.1353  0.0202
 9517SOL    HW140013   3.065   3.100   2.581 -0.3817  0.2723  0.0606
 9517SOL    HW240014   3.106   2.970   2.508  1.1980  1.4493  0.2183
 9518SOL     OW40015   3.363   1.993  16.993  0.5640  0.5118 -0.7873
 9518SOL    HW140016   3.355   2.014  17.086 -0.2080 -0.3583 -0.6509
 9518SOL    HW240017   3.369   2.072  16.941  0.9002 -0.7424 -2.6648
 9519SOL     OW40018   0.102   3.404  10.203  0.2829 -0.4069 -0.4263
 9519SOL    HW140019   0.062   3.337  10.259  1.1953  0.9215  1.8260
 9519SOL    HW240020   0.170   3.448  10.255 -0.6733 -0.4346  0.8471
 9520SOL     OW40021   2.654   4.185   7.439  0.6834  0.0582  0.3466
 9520SOL    HW140022   2.747   4.208   7.438  0.6705  0.0154 -1.6924
 9520SOL    HW240023   2.615   4.254   7.385  1.4563  0.5515  0.4099
 9521SOL     OW40024   3.023   3.122  13.930  0.2346 -0.0299  0.4592
 9521SOL    HW140025   2.950   3.068  13.899  0.1766  0.8272 -0.8733
 9521SOL    HW240026   3.048   3.063  14.002  0.5107  0.6434  0.9152
 9522SOL     OW40027   3.298   4.511   6.536 -0.4294 -0.4517 -0.4180
 9522SOL    HW140028   3.315   4.603   6.516  0.2033 -0.2133  1.1921
 9522SOL    HW240029   3.350   4.513   6.617 -0.0697  1.0144 -0.6893
 9523SOL     OW40030   4.496   4.068   7.160  0.3021 -0.1453  0.1193
 9523SOL    HW140031   4.512   4.086   7.067 -1.0817  1.6626  0.2311
 9523SOL    HW240032   4.506   4.154   7.202 -2.1523  0.6735 -0.9520
 9524SOL     OW40033   2.526   3.258   6.516  0.3408  0.0908 -0.4981
 9524SOL    HW140034   2.519   3.305   6.433 -1.8831  2.5606  1.0699
 9524SOL    HW240035   2.476   3.181   6.492  0.9676  0.2652 -2.3467
 9525SOL     OW40036   1.137   2.410   8.829  0.1460 -0.6057  0.1644
 9525SOL    HW140037   1.215   2.415   8.774  0.0930 -0.7420  0.0790
 9525SOL    HW240038   1.170   2.372   8.911 -1.2041 -1.1916  0.4246
 9526SOL     OW40039   0.726   2.529   5.305  0.0430  0.1324  0.0930
 9526SOL    HW140040   0.642   2.572   5.321 -0.7793 -1.0036 -1.2389
 9526SOL    HW240041   0.778   2.579   5.368  1.2121  0.9066 -1.4592
 9527SOL     OW40042   4.292   2.452   3.983 -0.1993  0.1875  0.0695
 9527SOL    HW140043   4.346   2.483   4.056 -1.0197 -1.2120  1.2651
 9527SOL    HW240044   4.216   2.508   3.994 -2.0414 -1.7226 -2.9771
 9528SOL     OW40045   2.515   3.220   7.899  0.0862 -0.4457 -0.8144
 9528SOL    HW140046   2.560   3.288   7.848 -0.2725 -0.3758 -1.0414
 9528SOL    HW240047   2.564   3.144   7.868 -0.2985 -0.3056 -1.7669
 9529SOL     OW40048   4.662   2.735   2.569  0.1326 -0.3351  0.1984
 9529SOL    HW140049   4.604   2.809   2.557  0.7207  0.2619  1.0232
 9529SOL    HW240050   0.012   2.741   2.503  1.6406  0.2988  1.8097
 9530SOL     OW40051   3.773   2.043   7.808 -0.3724 -0.0229 -0.3890
 9530SOL    HW140052   3.844   2.048   7.744  0.6409 -0.3623  0.7079
 9530SOL    HW240053   3.788   1.960   7.854  3.4805  0.2735 -1.1656
 9531SOL     OW40054   2.593   0.751  12.565 -0.1307 -0.0964  0.0710
 9531SOL    HW140055   2.593   0.797  12.648 -1.7090  0.5405 -0.2786
 9531SOL    HW240056   2.571   0.661  12.591  0.3804  0.0992  1.1508
 9532SOL     OW40057   1.138   4.100   1.511  0.1096  0.0114  1.1967
 9532SOL    HW140058   1.110   4.180   1.468  1.3396 -0.0518  0.2900
 9532SOL    HW240059   1.194   4.144   1.576 -0.1560 -1.4305  2.4135
 9533SOL     OW40060   3.933   4.386   6.511 -0.3445  0.2521  0.5481
 9533SOL    HW140061   4.005   4.439   6.477  0.2600 -0.6506  0.4505
 9533SOL    HW240062   3.932   4.405   6.605  3.2262  0.7495  0.4792
 9534SOL     OW40063   2.309   2.499   4.633 -0.1636  0.5513  0.2837
 9534SOL    HW140064   2.362   2.548   4.696 -0.4463  1.9824 -0.5980
 9534SOL    HW240065   2.338   2.410   4.656 -0.6363 -0.4229 -2.8942
 9535SOL     OW40066   2.105   1.931   9.360  0.2030 -0.0701 -0.3721
 9535SOL    HW140067   2.050   1.921   9.282 -0.2138  1.7955 -0.3155
 9535SOL    HW240068   2.170   1.862   9.346  0.5884  0.1872  0.1482
 9536SOL     OW40069   3.625   3.228   3.103 -0.4398 -0.1566 -0.2303
 9536SOL    HW140070   3.676   3.265   3.175  1.6529 -2.9662 -0.2518
 9536SOL    HW240071   3.602   3.312   3.062 -1.7406  0.6570  2.1873
 9537SOL     OW40072   1.682   2.406   7.958 -0.0106 -0.0639 -0.4029
 9537SOL    HW140073   1.773   2.375   7.963  0.3097  1.3101  2.2135
 9537SOL    HW240074   1.670   2.438   8.048  2.7528 -1.0229  0.3164
 9538SOL     OW40075   2.699   3.926  15.467  0.0780 -0.2693  0.0506
 9538SOL    HW140076   2.670   3.972  15.388  1.2377  1.2985  0.5273
 9538SOL    HW240077   2.692   3.998  15.529 -1.2993 -1.1383  0.8990
 9539SOL     OW40078   0.482   3.916   4.438  0.0792 -1.0895 -0.1577
 9539SOL    HW140079   0.405   3.883   4.484 -2.2981  2.2104 -1.7423
 9539SOL    HW240080   0.509   3.841   4.386  0.5483 -0.3576 -0.9614
 9540SOL     OW40081   3.872   0.133  14.371 -0.1552  0.2741 -0.3325
 9540SOL    HW140082   3.873   0.125  14.467  0.8388 -1.8471 -0.5235
 9540SOL    HW240083   3.911   0.219  14.354  0.9415 -0.5150 -1.7892
 9541SOL     OW40084   3.999   1.478  14.966  0.3283 -0.0824 -0.3236
 9541SOL    HW140085   3.959   1.445  14.886 -2.6520  1.0182  0.6998
 9541SOL    HW240086   3.943   1.554  14.980 -1.0794 -0.9163 -1.3994
 9542SOL     OW40087   0.807   1.064   0.992  0.5802 -0.3510 -0.1772
 9542SOL    HW140088   0.775   1.148   1.024  1.7597 -0.5877  1.5952
 9542SOL    HW240089   0.884   1.047   1.046  0.3342  0.3210  0.3838
 9543SOL     OW40090   0.014   2.657   4.799 -0.2014 -0.3370  0.3188
 9543SOL    HW140091   0.005   2.745   4.763  2.6380  0.4566  1.5497
 9543SOL    HW240092   0.013   2.608   4.717 -0.2925 -1.9063  1.2601
 9544SOL     OW40093   3.693   2.580   6.190 -0.0759  0.3046  0.0020
 9544SOL    HW140094   3.669   2.488   6.176  1.3652  0.0836 -1.0626
 9544SOL    HW240095   3.643   2.608   6.267 -0.4778  1.8900 -0.8375
 9545SOL     OW40096   2.061   3.489   2.914 -0.1682  0.1203  0.5150
 9545SOL    HW140097   1.969   3.498   2.889 -0.1723 -0.3319  0.3636
 9545SOL    HW240098   2.099   3.536   2.840 -0.7671 -1.3857 -0.7741
 9546SOL     OW40099   3.120   1.101  16.621 -0.2289  0.2532 -0.9023
 9546SOL    HW140100   3.135   1.030  16.683  1.0238 -0.0444 -1.5506
 9546SOL    HW240101   3.070   1.164  16.673  1.0514  0.3868  0.1510
 9547SOL     OW40102   0.725   3.613   0.671  0.0822  0.1469 -0.2615
 9547SOL    HW140103   0.688   3.538   0.625 -2.5955  1.4117 -0.1822
 9547SOL    HW240104   0.647   3.667   0.682  0.1164  0.1462 -0.0224
 9548SOL     OW40105   3.770   2.618   2.730  0.1513  0.1125  0.1476
 9548SOL    HW140106   3.846   2.620   2.672  0.4974  1.4753  0.6720
 9548SOL    HW240107   3.751   2.709   2.750 -1.5743  0.0850 -1.3949
 9549SOL     OW40108   0.177   4.111   1.509  0.0483  0.0854 -0.2889
 9549SOL    HW140109   0.111   4.121   1.441 -1.8093 -1.4164  1.2846
 9549SOL    HW240110   0.249   4.165   1.475 -0.3409  1.4495  1.0938
 9550SOL     OW40111   1.824   1.065   4.101 -0.2882 -0.0444 -0.0174
 9550SOL    HW140112   1.797   1.070   4.192 -3.1497  0.1302 -0.8563
 9550SOL    HW240113   1.864   1.151   4.087  0.3631 -0.2230  0.7944
 9551SOL     OW40114   3.175   2.851  15.086  0.1147  0.1434  0.0297
 9551SOL    HW140115   3.196   2.792  15.158  4.0540  1.2224 -0.2016
 9551SOL    HW240116   3.263   2.872  15.056  0.3607  1.1409  1.4381
 9552SOL     OW40117   0.665   0.416   8.995  0.1554 -0.0962 -0.6536
 9552SOL    HW140118   0.581   0.408   9.041 -0.6964  1.7604 -1.8748
 9552SOL    HW240119   0.697   0.502   9.023  2.2989 -0.8911 -0.6912
 9553SOL     OW40120   4.613   2.148  13.368  0.3255 -0.4860 -0.1515
 9553SOL    HW140121   4.632   2.108  13.453  0.2289  0.8891  0.5220
 9553SOL    HW240122   4.674   2.222  13.369  1.0780 -1.1007 -0.0006
 9554SOL     OW40123   1.476   4.175   7.139  0.0335 -0.2047 -0.4322
 9554SOL    HW140124   1.532   4.248   7.165  0.4834 -0.0532 -1.8605
 9554SOL    HW240125   1.424   4.225   7.075  1.0229  0.8654 -0.3993
 9555SOL     OW40126   0.908   0.954   7.461  0.1594 -0.6776  0.7782
 9555SOL    HW140127   0.973   0.965   7.392 -1.4532  3.2429 -0.1318
 9555SOL    HW240128   0.953   1.013   7.521  2.5657 -2.5256  0.7741
 9556SOL     OW40129   3.517   4.370   5.269  0.8745  0.6827  0.6245
 9556SOL    HW140130   3.499   4.279   5.243 -1.0622  0.9491  1.0138
 9556SOL    HW240131   3.474   4.412   5.195  0.8143 -4.6488 -2.3632
 9557SOL     OW40132   3.551   0.153   7.764  0.3200 -0.0030 -0.4386
 9557SOL    HW140133   3.532   0.060   7.777  0.7880  0.2761  2.1227
 9557SOL    HW240134   3.624   0.165   7.825 -1.0663  2.8696  0.6341
 9558SOL     OW40135   4.377   2.821   2.186 -0.4262 -0.2518 -0.1906
 9558SOL    HW140136   4.346   2.889   2.125 -1.7472  0.6486  1.4783
 9558SOL    HW240137   4.427   2.875   2.247  0.1411 -0.0146 -0.8580
 9559SOL     OW40138   2.798   2.130  11.110 -0.1816 -0.3071 -0.6797
 9559SOL    HW140139   2.841   2.096  11.188 -3.3262 -0.7996  0.8357
 9559SOL    HW240140   2.789   2.223  11.132 -0.7060 -0.5805  0.2384
 9560SOL     OW40141   4.348   3.988   3.545  0.8010 -0.1680 -0.2484
 9560SOL    HW140142   4.338   4.083   3.537 -0.8979 -0.4434 -1.3623
 9560SOL    HW240143   4.355   3.961   3.454  2.0239 -1.6919  0.2936
 9561SOL     OW40144   2.880   4.125  12.455 -0.0782  0.0755 -0.1370
 9561SOL    HW140145   2.876   4.168  12.370  4.1734 -3.1255 -1.9586
 9561SOL    HW240146   2.950   4.174  12.498  0.9998 -1.3058 -0.3330
 9562SOL     OW40147   1.988   4.602   0.455 -0.5499 -0.0619  0.3553
 9562SOL    HW140148   1.929   4.542   0.502 -1.5875  0.5505 -0.1538
 9562SOL    HW240149   2.068   4.611   0.507 -0.6000 -2.0996  0.8060
 9563SOL     OW40150   0.844   0.025   5.529  0.0082  0.3964  0.2655
 9563SOL    HW140151   0.854   0.120   5.535  1.7112  0.2770 -0.8500
 9563SOL    HW240152   0.774   0.018   5.464  3.5269 -0.7086 -3.3838
 9564SOL     OW40153   1.393   0.937  16.696 -0.0806  0.3300 -0.1064
 9564SOL    HW140154   1.466   0.958  16.754 -0.6284 -1.8583  1.3847
 9564SOL    HW240155   1.336   1.011  16.717  0.1427 -0.1029  2.0133
 9565SOL     OW40156   0.786   3.359   6.726 -0.0565 -0.4388  0.3386
 9565SOL    HW140157   0.866   3.387   6.769 -0.5645  1.5021  0.0602
 9565SOL    HW240158   0.815   3.356   6.635 -1.4259  0.9223 -0.1546
 9566SOL     OW40159   1.874   2.943   5.800  0.7727  0.2067  0.7694
 9566SOL    HW140160   1.901   3.014   5.742 -0.2838 -0.5852 -0.7070
 9566SOL    HW240161   1.935   2.961   5.872  0.1667  0.7058  1.1518
 9567SOL     OW40162   2.900   0.442   8.684  0.4017  0.0985  0.3177
 9567SOL    HW140163   2.955   0.520   8.672  0.5068 -0.2008 -1.1620
 9567SOL    HW240164   2.831   0.476   8.627  1.1986  0.7606 -0.2480
 9568SOL     OW40165   2.418   0.048  15.698  0.4674  0.4048 -0.0147
 9568SOL    HW140166   2.331   0.087  15.706  0.5362  0.3501  1.0811
 9568SOL    HW240167   2.451   0.040  15.788  1.2315  0.1193 -0.3247
   4.71829   4.71829  17.67628
