Membrane in water
40167
    1TCq1    O1    1   0.899   0.891  11.037  0.1951  0.1146 -0.0684
    1TCq1    C1    2   0.814   0.801  10.973  0.2768  0.2015  0.8335
    1TCq1    O2    3   0.850   0.718  10.892  0.2964  0.3354 -0.9104
    1TCq1    C2    4   0.717   0.769  11.075 -0.0313 -0.4541 -0.2040
    1TCq1    C3    5   0.681   0.875  11.156 -0.7950 -0.3600 -0.5773
    1TCq1    C4    6   0.615   0.844  11.267  0.6338  0.9520 -0.6096
    1TCq1    C5    7   0.585   0.712  11.293  0.1125 -0.5049 -0.0620
    1TCq1    C6    8   0.636   0.608  11.213  0.4659 -0.0501  0.0504
    1TCq1    C7    9   0.699   0.634  11.097 -0.3028 -0.1917  0.0293
    1TCq1    C8   10   0.559   0.483  11.222 -0.5668 -0.9686  0.8114
    1TCq1    O4   11   0.449   0.504  11.263 -0.3310  0.0114 -0.2105
    1TCq1    C9   12   0.569   0.947  11.359  0.2348  0.2236  0.2651
    1TCq1    O5   13   0.496   0.913  11.453  0.5702 -0.2011  0.1802
    1TCq1    O6   14   0.597   1.061  11.322 -0.1551 -0.1619 -0.2890
    1TCq1    H1   15   0.871   0.920  11.126 -0.8495  1.7899 -0.9384
    1TCq1    H2   16   0.697   0.977  11.123 -0.5413  0.3126  1.6752
    1TCq1    H3   17   0.526   0.700  11.383 -0.3457  1.7638 -0.0577
    1TCq1    H4   18   0.721   0.560  11.021 -1.4545 -0.0822 -0.4059
    2MPD2     C   19   0.471   4.717  11.104 -0.0098  0.3860 -0.1428
    2MPD2    C1   20   0.397   0.078  11.179  0.5154 -0.1926 -1.2068
    2MPD2    C2   21   0.445   0.207  11.195 -0.1101 -0.3522 -0.4192
    2MPD2    C3   22   0.573   0.240  11.156  0.2685 -0.6266 -0.2055
    2MPD2    C4   23   0.652   0.146  11.097  0.4090  0.2380  0.2649
    2MPD2    C5   24   0.603   0.022  11.070 -0.3611 -0.2928 -0.3935
    2MPD2     H   25   0.386   0.290  11.233 -0.1341  0.4765 -2.2594
    2MPD2    H1   26   0.753   0.166  11.064 -0.6090  2.0268 -1.7589
    2MPD2    H2   27   0.445   4.615  11.078  2.3238 -0.0368 -0.8121
    2MPD2    H3   28   0.655   4.683  10.998  0.2816  1.4859 -1.4303
    2MPD2     N   29   0.622   0.368  11.175  0.0825 -0.8984 -0.1780
    2MPD2    H5   30   0.717   0.379  11.141  0.0560 -1.4191 -0.4114
    2MPD2    N1   31   0.270   0.044  11.228  0.1795  0.1139  0.4386
    2MPD2    H7   32   0.212   0.121  11.260  1.4732 -0.2537  3.6526
    3TCq1    O1   33   4.167   0.955   9.810 -0.2453 -0.1001  0.5325
    3TCq1    C1   34   4.073   0.924   9.898  0.4756 -0.1989 -0.3516
    3TCq1    O2   35   3.988   1.005   9.943 -0.2008  0.0249  0.0894
    3TCq1    C2   36   4.119   0.806   9.969  0.5358  0.0084 -0.0918
    3TCq1    C3   37   4.212   0.729   9.909  0.3246  0.6328  0.4776
    3TCq1    C4   38   4.249   0.624   9.979  0.9976 -0.5387  0.1786
    3TCq1    C5   39   4.212   0.594  10.109 -0.5886 -0.0774  0.2340
    3TCq1    C6   40   4.116   0.680  10.160  0.5859  0.2281  0.8029
    3TCq1    C7   41   4.070   0.791  10.094 -0.5109 -0.5086  0.1612
    3TCq1    C8   42   4.055   0.647  10.288  0.1189 -0.0907  0.2449
    3TCq1    O4   43   4.071   0.534  10.330 -0.5225  0.2347  0.4626
    3TCq1    C9   44   4.326   0.528   9.911 -0.1987 -0.2972 -0.0743
    3TCq1    O5   45   4.364   0.555   9.792 -0.1010 -1.1282 -0.2631
    3TCq1    O6   46   4.351   0.418   9.965 -0.3371 -0.1061 -0.3410
    3TCq1    H1   47   4.252   0.905   9.812 -0.6362 -0.7197  1.4953
    3TCq1    H2   48   4.239   0.734   9.804  0.8919 -1.8084  0.5091
    3TCq1    H3   49   4.219   0.496  10.155  0.5405 -1.1600 -2.2172
    3TCq1    H4   50   3.990   0.857  10.125 -0.5527 -0.1384 -0.7286
    4MPD2     C   51   3.815   0.771  10.724 -0.1916 -0.4839 -0.2762
    4MPD2    C1   52   3.824   0.888  10.643  0.1612  0.0314  0.0151
    4MPD2    C2   53   3.881   0.879  10.521  0.4529  0.4103 -0.1293
    4MPD2    C3   54   3.931   0.755  10.474  0.9997  0.1463 -0.3848
    4MPD2    C4   55   3.903   0.641  10.547  0.2274 -0.1898  0.0162
    4MPD2    C5   56   3.848   0.644  10.670 -0.6193  0.0282  1.0776
    4MPD2     H   57   3.902   0.963  10.456  0.5616 -0.7244 -1.5710
    4MPD2    H1   58   3.914   0.535  10.525  0.5983 -0.4654  1.5058
    4MPD2    H2   59   3.790   0.774  10.829  0.0787 -0.4255 -0.2162
    4MPD2    H3   60   3.840   0.555  10.732  0.9311  0.4099  1.8258
    4MPD2     N   61   3.993   0.756  10.345 -0.0249 -0.0425  0.2623
    4MPD2    H5   62   4.000   0.848  10.303 -0.8306 -1.1837 -2.3874
    4MPD2    N1   63   3.782   1.012  10.701  0.4878 -0.2168  0.3730
    4MPD2    H7   64   3.790   1.094  10.641 -2.1261 -0.1271  0.1537
    5TCq1    O1   65   3.898   2.339  11.673  0.2650 -0.5224  0.2971
    5TCq1    C1   66   3.824   2.452  11.690 -0.7354 -0.1478  0.1034
    5TCq1    O2   67   3.781   2.504  11.794  0.3414  0.0639  0.0045
    5TCq1    C2   68   3.750   2.470  11.570 -0.5378 -0.5705  0.0399
    5TCq1    C3   69   3.635   2.544  11.583 -0.0019 -0.3931  0.2590
    5TCq1    C4   70   3.582   2.584  11.465  0.0579 -0.4250  0.2425
    5TCq1    C5   71   3.639   2.565  11.344  0.8094  0.1558 -0.1885
    5TCq1    C6   72   3.759   2.503  11.338 -0.7488  0.2591  0.2035
    5TCq1    C7   73   3.818   2.454  11.450  0.2934  0.2584  0.0978
    5TCq1    C8   74   3.812   2.462  11.204  0.1939  0.0612  0.0186
    5TCq1    O4   75   3.929   2.432  11.192 -0.8509 -0.1790  0.3223
    5TCq1    C9   76   3.450   2.632  11.469 -0.2390 -0.4418  0.2895
    5TCq1    O5   77   3.379   2.587  11.566  0.6596 -0.0783  0.1597
    5TCq1    O6   78   3.394   2.671  11.363  0.8976 -0.1178  0.1589
    5TCq1    H1   79   3.920   2.314  11.581 -0.4643 -2.1137  0.5445
    5TCq1    H2   80   3.598   2.572  11.681  0.2685 -1.1404  0.5709
    5TCq1    H3   81   3.588   2.597  11.253  0.4414  2.0844  0.6950
    5TCq1    H4   82   3.922   2.425  11.441 -0.1763 -0.6581 -2.5239
    6MPD2     C   83   3.653   2.466  10.879 -0.5415 -0.3843  0.1351
    6MPD2    C1   84   3.756   2.443  10.967  0.0962 -0.5524  0.3371
    6MPD2    C2   85   3.871   2.382  10.922  0.0108  0.5832  0.2534
    6MPD2    C3   86   3.876   2.332  10.793 -0.3335 -0.1028  0.1237
    6MPD2    C4   87   3.783   2.375  10.701 -0.3240 -0.0409 -0.0161
    6MPD2    C5   88   3.670   2.444  10.746 -0.0956  0.4175  0.1630
    6MPD2     H   89   3.946   2.339  10.987 -0.9674  1.4820  1.9944
    6MPD2    H1   90   3.783   2.351  10.595 -0.6258 -0.1270  0.0022
    6MPD2    H2   91   3.560   2.507  10.916 -1.0773  0.3399 -1.9958
    6MPD2    H3   92   3.587   2.465  10.680  1.8611  2.5057 -1.6212
    6MPD2     N   93   3.982   2.249  10.756  0.4588 -0.1855 -1.1381
    6MPD2    H5   94   4.044   2.214  10.828  0.8420  2.1719 -0.3060
    6MPD2    N1   95   3.724   2.471  11.103  0.1229  0.1538 -0.3550
    6MPD2    H7   96   3.632   2.510  11.122 -0.8263 -0.8722 -2.7967
    7TCq1    O1   97   0.467   2.518  13.095  0.1017 -0.3354  0.3286
    7TCq1    C1   98   0.485   2.620  13.008  0.2882 -0.6612 -0.5966
    7TCq1    O2   99   0.425   2.643  12.905 -0.0988  0.2095 -0.0670
    7TCq1    C2  100   0.596   2.707  13.040  0.4332  0.3085 -0.3861
    7TCq1    C3  101   0.588   2.844  13.005  0.4027 -0.5048  0.4433
    7TCq1    C4  102   0.682   2.928  13.055  0.2020 -0.3931  0.7385
    7TCq1    C5  103   0.783   2.882  13.138  0.2412 -0.1245 -0.5788
    7TCq1    C6  104   0.783   2.750  13.174 -0.2897  0.1476 -0.3783
    7TCq1    C7  105   0.701   2.657  13.115 -0.4383  0.2516  0.5552
    7TCq1    C8  106   0.898   2.706  13.255  0.6001  0.3647 -0.3915
    7TCq1    O4  107   0.879   2.625  13.342  0.3517  0.1068 -0.5007
    7TCq1    C9  108   0.677   3.066  13.020 -0.3210  0.0569 -0.0131
    7TCq1    O5  109   0.570   3.113  12.976 -0.0490  0.3899  0.1591
    7TCq1    O6  110   0.771   3.139  13.058  0.0149  0.3675  0.1020
    7TCq1    H1  111   0.507   2.535  13.183 -0.4459  1.0003  0.3180
    7TCq1    H2  112   0.499   2.881  12.956 -0.4777 -0.5483  2.0037
    7TCq1    H3  113   0.846   2.949  13.195 -0.3954 -1.1994  1.3856
    7TCq1    H4  114   0.713   2.553  13.142  0.9525  0.2595 -0.0473
    8MPD2     C  115   1.409   2.624  13.275 -0.6976 -0.2474  0.2558
    8MPD2    C1  116   1.297   2.560  13.336  0.1932  0.1106 -0.3017
    8MPD2    C2  117   1.171   2.608  13.314  0.8163 -0.0613 -0.4406
    8MPD2    C3  118   1.151   2.715  13.236  0.0707 -0.2037 -0.6851
    8MPD2    C4  119   1.257   2.778  13.169  0.4020 -0.1701 -0.0722
    8MPD2    C5  120   1.385   2.737  13.198 -0.1210  1.2377 -0.1162
    8MPD2     H  121   1.090   2.553  13.360 -0.1468 -0.0568 -2.1433
    8MPD2    H1  122   1.235   2.856  13.097 -1.5951 -0.8403 -0.1942
    8MPD2    H2  123   1.511   2.590  13.290 -1.3863 -0.6780  3.9866
    8MPD2    H3  124   1.474   2.784  13.157  0.2288  1.1582  0.5428
    8MPD2     N  125   1.017   2.749  13.203  0.0570  0.1551 -0.4265
    8MPD2    H5  126   1.009   2.807  13.120 -1.2646 -0.4988 -0.7704
    8MPD2    N1  127   1.330   2.438  13.404 -0.1367 -0.0123  0.6906
    8MPD2    H7  128   1.432   2.436  13.410 -0.1244  0.8053  0.7789
    9TCq1    O1  129   0.680   0.877  10.484 -0.1510 -0.5022  0.0925
    9TCq1    C1  130   0.652   0.964  10.387  0.4668 -0.3028 -0.1477
    9TCq1    O2  131   0.718   1.061  10.349 -0.2947 -0.3993  1.2076
    9TCq1    C2  132   0.506   0.969  10.392 -0.4712 -0.3272  0.5962
    9TCq1    C3  133   0.456   1.096  10.421  0.5863 -0.2440  0.4204
    9TCq1    C4  134   0.326   1.104  10.452  0.6316  0.3197  0.8773
    9TCq1    C5  135   0.249   0.988  10.460 -0.0401  0.1414 -0.1797
    9TCq1    C6  136   0.307   0.862  10.447  0.1550 -0.8408  0.3418
    9TCq1    C7  137   0.439   0.851  10.423  0.1443  0.5017  0.1809
    9TCq1    C8  138   0.230   0.753  10.502 -0.0099  0.3364  0.4557
    9TCq1    O4  139   0.282   0.648  10.487  0.0400 -0.1548 -0.0058
    9TCq1    C9  140   0.262   1.235  10.474  0.2420 -0.3781  0.1707
    9TCq1    O5  141   0.138   1.234  10.496 -0.3716 -0.1384  0.4866
    9TCq1    O6  142   0.338   1.333  10.501 -0.1678 -0.0790  0.0357
    9TCq1    H1  143   0.607   0.826  10.524  0.8181 -0.0605  2.4441
    9TCq1    H2  144   0.507   1.190  10.406 -1.4584  0.8541  0.3174
    9TCq1    H3  145   0.146   0.999  10.490  0.3116 -0.9597  1.4511
    9TCq1    H4  146   0.474   0.756  10.385 -0.7745  0.1314  0.2638
   10MPD2     C  147   0.049   0.568  10.652  0.2280 -0.0670  0.2756
   10MPD2    C1  148   0.052   0.701  10.663  0.1120  0.0517  0.2234
   10MPD2    C2  149   4.694   0.760  10.757  0.2532  0.0706  0.1692
   10MPD2    C3  150   4.597   0.689  10.827  0.1539  0.0605  0.0807
   10MPD2    C4  151   4.584   0.549  10.801 -0.0779  0.7155  0.4678
   10MPD2    C5  152   4.671   0.493  10.710 -0.4415  0.2121 -0.4382
   10MPD2     H  153   4.687   0.869  10.761  1.4584  0.1462  0.1429
   10MPD2    H1  154   4.504   0.487  10.841  1.7938  0.4548  3.8280
   10MPD2    H2  155   0.114   0.509  10.589  0.1986 -1.8961  1.9539
   10MPD2    H3  156   4.667   0.386  10.691  1.9351 -0.2701  1.6203
   10MPD2     N  157   4.509   0.743  10.922 -0.2056  0.6285  0.2859
   10MPD2    H5  158   4.462   0.678  10.984 -0.2744 -1.1352 -1.6130
   10MPD2    N1  159   0.129   0.791  10.583 -0.1909 -0.0419 -0.0758
   10MPD2    H7  160   0.133   0.890  10.602  2.0465 -0.8445  3.5027
   11TCq1    O1  161   0.492   1.458  13.787  0.3849  0.0442 -0.0110
   11TCq1    C1  162   0.363   1.479  13.808 -0.2641 -0.4513 -0.3850
   11TCq1    O2  163   0.275   1.472  13.724 -0.1394  0.0644  0.4453
   11TCq1    C2  164   0.329   1.477  13.955 -0.4366  0.3603 -0.0319
   11TCq1    C3  165   0.418   1.522  14.050 -1.0158 -0.0268  0.0574
   11TCq1    C4  166   0.379   1.538  14.181 -0.1158 -0.0915 -0.1908
   11TCq1    C5  167   0.259   1.489  14.224  0.5198  0.4447 -0.7794
   11TCq1    C6  168   0.173   1.450  14.127 -0.2727 -0.1163 -0.1133
   11TCq1    C7  169   0.203   1.447  13.990 -1.1801 -0.1964  0.2518
   11TCq1    C8  170   0.047   1.397  14.178 -0.4116 -0.6720  0.0161
   11TCq1    O4  171   0.033   1.385  14.297 -0.0854 -0.1116 -0.4923
   11TCq1    C9  172   0.470   1.595  14.282 -0.3901 -0.2260  0.5985
   11TCq1    O5  173   0.589   1.556  14.284  0.5405 -0.0623 -0.0417
   11TCq1    O6  174   0.416   1.663  14.371  0.0584  0.0155 -0.7841
   11TCq1    H1  175   0.536   1.429  13.870 -3.7694 -1.6579  1.6072
   11TCq1    H2  176   0.514   1.564  14.020  0.7507 -2.4240  2.3694
   11TCq1    H3  177   0.237   1.503  14.330  2.3502  0.5653 -0.4251
   11TCq1    H4  178   0.129   1.430  13.913 -0.8300 -0.0098 -0.1261
   12MPD2     C  179   4.503   1.268  14.208  0.9484  0.3765 -0.4697
   12MPD2    C1  180   4.568   1.277  14.087  0.2497 -0.6221 -0.2693
   12MPD2    C2  181   4.523   1.215  13.969 -0.6645  0.1573  0.3631
   12MPD2    C3  182   4.416   1.132  13.971 -0.5294  0.2755  0.6109
   12MPD2    C4  183   4.346   1.132  14.085  1.6060 -0.1198  0.4950
   12MPD2    C5  184   4.384   1.201  14.203  0.0224 -0.0475  0.3812
   12MPD2     H  185   4.583   1.221  13.878  2.0951  0.4624  2.1831
   12MPD2    H1  186   4.257   1.069  14.088  0.7101  1.1140 -0.5254
   12MPD2    H2  187   4.533   1.311  14.302  0.0132  0.5799 -0.2652
   12MPD2    H3  188   4.327   1.202  14.295 -0.9226 -0.2670 -0.1952
   12MPD2     N  189   4.385   1.059  13.854 -0.2206  0.2205 -0.0804
   12MPD2    H5  190   4.449   1.072  13.776 -0.3830 -1.7098 -0.5179
   12MPD2    N1  191   4.691   1.348  14.075  0.1355 -0.1554  0.5645
   12MPD2    H7  192   0.013   1.347  13.984  1.3271 -1.4029  1.1566
   13TCq1    O1  193   0.525   0.721  10.711 -0.0179 -0.3499  0.4251
   13TCq1    C1  194   0.466   0.831  10.751 -0.2362 -0.3966  0.5909
   13TCq1    O2  195   0.518   0.940  10.737  0.2594 -0.6263 -0.4090
   13TCq1    C2  196   0.385   0.793  10.869  0.3623  0.6768  0.7890
   13TCq1    C3  197   0.379   0.886  10.968 -0.4830 -0.0587  0.1730
   13TCq1    C4  198   0.305   0.857  11.085 -0.0981 -0.2632  0.0355
   13TCq1    C5  199   0.236   0.738  11.092  0.0098 -0.2353 -0.6204
   13TCq1    C6  200   0.237   0.657  10.978 -1.1523  0.1170  0.0372
   13TCq1    C7  201   0.311   0.681  10.868 -0.1794 -0.5716 -0.4008
   13TCq1    C8  202   0.160   0.529  10.982  0.0918 -0.7424  0.0873
   13TCq1    O4  203   0.059   0.527  11.045  0.3197  0.0680 -0.1526
   13TCq1    C9  204   0.290   0.953  11.185  0.2618  0.0371 -0.6059
   13TCq1    O5  205   0.216   0.920  11.282 -0.6238 -0.3774 -0.0590
   13TCq1    O6  206   0.359   1.059  11.181  0.4078  0.7201  0.1134
   13TCq1    H1  207   0.497   0.634  10.750  1.6576 -1.2403 -0.3968
   13TCq1    H2  208   0.427   0.982  10.955  1.4246 -0.8957  1.0775
   13TCq1    H3  209   0.188   0.705  11.183 -0.2900 -0.3602 -0.8228
   13TCq1    H4  210   0.306   0.622  10.777  1.6379  0.1565 -0.9852
   14MPD2     C  211   0.283   0.190  10.873 -0.5850  0.6474 -0.7326
   14MPD2    C1  212   0.183   0.289  10.911 -0.4217 -0.5759  0.3059
   14MPD2    C2  213   0.055   0.249  10.921 -1.6892  0.2068 -0.0526
   14MPD2    C3  214   0.010   0.121  10.904  0.4720 -0.3582  0.5619
   14MPD2    C4  215   0.104   0.023  10.877  0.6889 -0.0180 -0.0267
   14MPD2    C5  216   0.236   0.060  10.854  0.1725  0.7544  0.6092
   14MPD2     H  217   4.702   0.327  10.929 -0.7686  1.0550  0.2606
   14MPD2    H1  218   0.071   4.643  10.869  0.3610  0.0424  0.5611
   14MPD2    H2  219   0.386   0.217  10.848 -0.2098  0.5677  0.7612
   14MPD2    H3  220   0.314   4.709  10.834 -0.7678 -0.2649  0.7148
   14MPD2     N  221   4.598   0.099  10.931  0.3806  0.4499 -0.5676
   14MPD2    H5  222   4.539   0.181  10.943  2.0239  1.4183  0.9299
   14MPD2    N1  223   0.228   0.424  10.925  0.4513  0.3827  0.0232
   14MPD2    H7  224   0.325   0.447  10.908  1.1842 -3.0990 -0.4991
   15TCq1    O1  225   0.010   1.366   2.490 -0.0717 -0.1026  0.3415
   15TCq1    C1  226   0.090   1.287   2.419 -0.5421 -0.1250 -0.2697
   15TCq1    O2  227   0.209   1.282   2.434 -0.0442 -0.0057 -0.3802
   15TCq1    C2  228   0.007   1.205   2.326  0.1724 -0.4117 -0.2187
   15TCq1    C3  229   4.628   1.272   2.264  0.6830  0.0602  0.1026
   15TCq1    C4  230   4.578   1.223   2.144 -0.0695  0.5254 -0.0060
   15TCq1    C5  231   4.625   1.103   2.095  0.1158  0.2914  0.7122
   15TCq1    C6  232   4.718   1.039   2.168 -0.2452 -0.1397  0.3144
   15TCq1    C7  233   0.057   1.086   2.278 -0.2058 -0.3575  0.0255
   15TCq1    C8  234   0.054   0.917   2.112 -0.1949 -0.3288 -0.1052
   15TCq1    O4  235   0.178   0.915   2.099 -0.3478  0.2756  0.1848
   15TCq1    C9  236   4.470   1.287   2.077  0.4512  0.5417 -0.5043
   15TCq1    O5  237   4.441   1.402   2.124  0.1225 -0.3106  0.3291
   15TCq1    O6  238   4.409   1.243   1.974  0.9915 -0.5860 -0.2779
   15TCq1    H1  239   4.635   1.367   2.477  0.0695  1.7443 -0.4776
   15TCq1    H2  240   4.591   1.366   2.302 -0.3907 -0.2967 -0.0575
   15TCq1    H3  241   4.581   1.071   2.001 -0.6547  0.9154  0.8628
   15TCq1    H4  242   0.135   1.026   2.322  0.4209  0.5626  0.1634
   16MPD2     C  243   4.611   0.609   1.977  0.1975 -0.4018 -0.4173
   16MPD2    C1  244   4.711   0.696   2.011 -0.1002 -0.1603 -0.1476
   16MPD2    C2  245   0.119   0.661   1.972 -0.4277 -0.3868  0.0068
   16MPD2    C3  246   0.140   0.544   1.905 -0.2068  0.1989 -0.8035
   16MPD2    C4  247   0.043   0.460   1.876 -0.1724 -0.2515 -0.3769
   16MPD2    C5  248   4.639   0.494   1.915  0.5836 -0.0415 -0.4390
   16MPD2     H  249   0.205   0.726   1.989  0.7699 -1.5881 -1.4134
   16MPD2    H1  250   0.060   0.371   1.817  0.6139 -0.9414  0.9000
   16MPD2    H2  251   4.506   0.628   1.995 -0.5555 -1.2823 -4.0074
   16MPD2    H3  252   4.562   0.422   1.891 -0.5502  1.4926 -1.3982
   16MPD2     N  253   0.273   0.519   1.855  0.7581  0.0093  0.1013
   16MPD2    H5  254   0.338   0.585   1.896  1.9652 -1.6975  0.9098
   16MPD2    N1  255   4.682   0.823   2.071 -0.6465  0.0982 -0.3959
   16MPD2    H7  256   4.583   0.840   2.083 -0.8190 -0.3558 -1.1569
   17TCq1    O1  257   4.433   0.215  10.609  0.1184 -0.6744 -0.6305
   17TCq1    C1  258   4.356   0.118  10.564  0.6238 -0.2103 -0.5200
   17TCq1    O2  259   4.270   0.061  10.632  0.5552 -0.5187  0.6191
   17TCq1    C2  260   4.448   0.038  10.496 -0.2780 -0.0304  0.3026
   17TCq1    C3  261   4.473   0.063  10.356 -1.2047  0.6709  0.1925
   17TCq1    C4  262   4.571   4.710  10.297  0.5336 -0.0205  0.4130
   17TCq1    C5  263   4.653   4.626  10.376 -0.1577 -0.3971 -0.3634
   17TCq1    C6  264   4.625   4.606  10.512  0.0762 -1.0773 -0.1719
   17TCq1    C7  265   4.520   4.666  10.571 -0.5949  0.0623  0.9300
   17TCq1    C8  266   4.715   4.537  10.600  0.1484 -1.0306  0.4155
   17TCq1    O4  267   4.673   4.476  10.696 -0.1040 -0.7839  0.2699
   17TCq1    C9  268   4.593   0.008  10.157 -0.6939 -0.1158  0.1406
   17TCq1    O5  269   4.557   0.120  10.109 -0.0851  0.1775  0.0759
   17TCq1    O6  270   4.672   4.654  10.102 -0.5174 -0.0083  0.0779
   17TCq1    H1  271   4.519   0.221  10.562  1.3458 -0.4570  1.6307
   17TCq1    H2  272   4.414   0.138  10.304 -1.4282 -0.1366 -0.6983
   17TCq1    H3  273   0.019   4.578  10.334 -1.8961 -1.5568 -2.6657
   17TCq1    H4  274   4.502   4.650  10.677  0.5751 -3.3342  0.6065
   18MPD2     C  275   0.238   4.433  10.734 -0.4360 -0.1907 -0.3297
   18MPD2    C1  276   0.233   4.518  10.628 -0.1593  0.3233  0.3952
   18MPD2    C2  277   0.354   4.587  10.603  0.1313 -0.4396  0.6074
   18MPD2    C3  278   0.473   4.561  10.667  0.0815 -1.1587  0.6426
   18MPD2    C4  279   0.471   4.464  10.762  0.0528  0.2221 -0.4652
   18MPD2    C5  280   0.351   4.406  10.801  0.3465  0.0709 -0.7848
   18MPD2     H  281   0.348   4.657  10.520 -1.0165 -0.2710  0.8374
   18MPD2    H1  282   0.566   4.444  10.811 -1.3762  1.9857  2.9661
   18MPD2    H2  283   0.149   4.378  10.763  1.4281 -3.1880 -0.3948
   18MPD2    H3  284   0.350   4.337  10.885  1.7029 -0.8192 -1.4916
   18MPD2     N  285   0.594   4.619  10.623 -0.1387  0.7738 -0.5544
   18MPD2    H5  286   0.684   4.578  10.648  0.8500  2.9086 -0.5650
   18MPD2    N1  287   0.121   4.553  10.564  0.0753  0.1523  0.2988
   18MPD2    H7  288   0.141   4.615  10.486 -1.4499  0.2027 -0.0431
   19TMC2    C1  289   1.303   0.783  14.016  0.3552  0.3357  0.1010
   19TMC2    C2  290   1.329   0.912  13.975 -0.0425  0.3297 -0.0430
   19TMC2    C3  291   1.247   0.964  13.881 -0.2323  0.6320 -0.3696
   19TMC2    C4  292   1.201   0.708  13.957  1.2818 -0.0660 -0.6494
   19TMC2    C5  293   1.125   0.773  13.863 -0.3783 -0.7071 -0.1093
   19TMC2    C6  294   1.141   0.900  13.826 -0.3498 -0.4840  0.8738
   19TMC2     C  295   1.345   0.743  14.151  0.4496  0.3573 -0.1448
   19TMC2     O  296   1.387   0.829  14.221 -0.5138  0.5501  0.3925
   19TMC2     H  297   1.390   0.983  14.031  2.0826 -1.0387 -0.6243
   19TMC2    H1  298   1.174   0.609  13.990  2.3681  0.2473  1.2024
   19TMC2    H2  299   1.068   0.949  13.763 -0.3258 -0.9807  0.4633
   19TMC2    C7  300   0.995   0.707  13.843  0.3728 -0.4835  0.0834
   19TMC2    C8  301   1.293   1.078  13.815 -0.4132 -0.5959 -0.3718
   19TMC2    O1  302   0.963   0.618  13.915 -0.1591 -0.5331 -0.1999
   19TMC2    O2  303   1.404   1.096  13.779 -0.1493  0.6307 -0.5684
   19TMC2    O5  304   1.186   1.155  13.781 -0.1886  0.3283  0.4098
   19TMC2    H5  305   1.100   1.131  13.822 -0.3223 -1.5638 -0.9573
   20MPD2     C  306   1.304   0.402  14.277  0.0165 -0.4414 -0.0741
   20MPD2    C1  307   1.332   0.539  14.286  0.5231 -0.4552  1.0825
   20MPD2    C2  308   1.335   0.612  14.404 -0.3097  0.0119  0.0291
   20MPD2    C3  309   1.324   0.542  14.520  0.7357  0.2425 -0.5936
   20MPD2    C4  310   1.306   0.405  14.517  0.0671 -0.5979 -0.2035
   20MPD2    C5  311   1.292   0.334  14.397  0.9452  0.0461  0.2727
   20MPD2     H  312   1.345   0.720  14.406  0.6647 -0.0840  0.2587
   20MPD2    H1  313   1.303   0.344  14.607  2.8139  0.1026  0.3597
   20MPD2    H2  314   1.287   0.346  14.187  3.0168 -0.3367 -0.7257
   20MPD2    H3  315   1.283   0.227  14.404  1.5917 -0.2433 -3.6798
   20MPD2     N  316   1.317   0.596  14.653  0.2281  0.0908 -0.1080
   20MPD2    H5  317   1.303   0.525  14.725 -0.0255 -0.3932 -0.6263
   20MPD2    N1  318   1.328   0.604  14.165 -0.6852  0.1883 -0.3911
   20MPD2    H7  319   1.311   0.544  14.086 -2.4484 -0.3464  0.3738
   21MPD2     C  320   3.543   1.203  14.355  0.5719 -0.1332 -0.1776
   21MPD2    C1  321   3.469   1.086  14.363 -0.5119 -0.0007  0.7105
   21MPD2    C2  322   3.343   1.104  14.421 -0.4209 -0.2246 -0.1616
   21MPD2    C3  323   3.294   1.219  14.476  0.2043 -0.5739  0.3682
   21MPD2    C4  324   3.367   1.332  14.470  0.3165  0.6752  0.3077
   21MPD2    C5  325   3.492   1.326  14.408  0.1004 -0.4030 -0.4099
   21MPD2     H  326   3.284   1.013  14.424  1.2438 -1.2307  1.8425
   21MPD2    H1  327   3.332   1.428  14.505 -0.4351  0.5353 -0.0703
   21MPD2    H2  328   3.648   1.218  14.333  1.0169 -2.4307  0.4526
   21MPD2    H3  329   3.552   1.416  14.407  0.2630 -0.5030  0.0480
   21MPD2     N  330   3.166   1.221  14.540  0.1722  0.0915  0.4460
   21MPD2    H5  331   3.116   1.309  14.538 -0.2473 -0.2248 -2.4894
   21MPD2    N1  332   3.499   0.956  14.307 -0.2815  0.1610  0.1483
   21MPD2    H7  333   3.424   0.887  14.301  2.1236 -2.2757 -1.7149
   22TCq2    C1  334   3.107   1.106  14.590  0.2306 -0.1395 -0.4224
   22TCq2    O2  335   3.144   0.991  14.609 -0.3767 -0.2216  0.2665
   22TCq2    C2  336   2.965   1.128  14.633 -0.2969 -0.5236 -0.4190
   22TCq2    C3  337   2.885   1.022  14.618 -0.5194 -0.1038 -0.5491
   22TCq2    C4  338   2.757   1.025  14.645  0.4479 -0.3811 -0.2283
   22TCq2    C5  339   2.704   1.144  14.687 -0.2538  0.2135  0.0802
   22TCq2    C6  340   2.788   1.251  14.698  0.2303 -0.6340  0.7084
   22TCq2    C7  341   2.925   1.248  14.672  0.1822  0.5618  0.1984
   22TCq2    C8  342   2.737   1.379  14.763 -0.1177 -0.4874 -0.1613
   22TCq2    O4  343   2.825   1.456  14.801 -0.3163  0.3956 -0.0434
   22TCq2    C9  344   2.680   0.908  14.627 -0.0013  0.3062  0.3842
   22TCq2    O5  345   2.561   0.920  14.667  0.2506 -0.0710  0.3745
   22TCq2    O6  346   2.739   0.802  14.595 -0.0298 -0.0971 -0.0242
   22TCq2    H2  347   2.925   0.929  14.578 -1.0614  1.0131 -3.6555
   22TCq2    H3  348   2.600   1.153  14.717 -0.4389 -1.7841  0.0341
   22TCq2    H4  349   2.991   1.330  14.697  1.0960  0.1687 -0.9243
   23MPD2     C  350   0.192   2.241  14.188 -0.4104 -0.1029 -0.6300
   23MPD2    C1  351   0.124   2.147  14.268 -0.0943  0.5236 -0.0369
   23MPD2    C2  352   0.001   2.090  14.227  0.6364  0.0007  0.2656
   23MPD2    C3  353   4.669   2.120  14.104  0.7889  0.0350  0.3079
   23MPD2    C4  354   0.014   2.215  14.023 -0.3809  0.1526  0.1133
   23MPD2    C5  355   0.137   2.263  14.064 -0.3053 -0.2348 -0.2328
   23MPD2     H  356   4.679   2.016  14.293  1.4983 -1.7901 -1.1523
   23MPD2    H1  357   4.698   2.223  13.921 -1.4762 -1.5360  0.3902
   23MPD2    H2  358   0.283   2.295  14.212 -0.9013  0.5568 -0.2408
   23MPD2    H3  359   0.187   2.336  14.002 -1.3212  0.3417 -0.3650
   23MPD2     N  360   4.543   2.077  14.056 -0.1514  0.2472  0.3744
   23MPD2    H5  361   4.504   2.119  13.973 -1.6424 -2.1319 -0.1237
   23MPD2    N1  362   0.172   2.105  14.394 -0.4756  0.1433  0.0045
   23MPD2    H7  363   0.106   2.058  14.455 -0.1438  0.2828  0.4748
   24TCq2    C1  364   4.465   1.989  14.125  0.2582 -0.5517  0.6435
   24TCq2    O2  365   4.492   1.917  14.218 -0.5467 -0.1232 -0.2085
   24TCq2    C2  366   4.331   1.990  14.075  0.5547  0.3327 -0.3968
   24TCq2    C3  367   4.304   2.057  13.953  0.7252 -0.0249  0.0770
   24TCq2    C4  368   4.175   2.089  13.930  0.1320 -0.1108  0.1454
   24TCq2    C5  369   4.074   2.067  14.025  0.0570  0.2395  1.0403
   24TCq2    C6  370   4.104   1.997  14.138 -0.6530  0.0510  0.3888
   24TCq2    C7  371   4.232   1.956  14.159 -0.8630 -0.8823 -0.0526
   24TCq2    C8  372   4.029   2.006  14.255  0.0806  0.1214  0.0184
   24TCq2    O4  373   4.052   1.931  14.347  0.3337  0.4789  0.0668
   24TCq2    C9  374   4.132   2.141  13.798 -0.0221 -0.5979 -0.0214
   24TCq2    O5  375   4.022   2.198  13.797  0.9206 -0.0220  0.2295
   24TCq2    O6  376   4.194   2.091  13.702  0.3809  0.1209 -0.1590
   24TCq2    H2  377   4.376   2.073  13.874  0.4424  2.4921  0.3558
   24TCq2    H3  378   3.968   2.074  13.999  0.1061 -2.1765  0.1765
   24TCq2    H4  379   4.264   1.922  14.257  0.3619  0.4014 -0.0003
   25TMC2    C1  380   4.205   4.225  11.655 -0.5769  0.2172  0.2475
   25TMC2    C2  381   4.254   4.355  11.669 -0.1076  0.1406  0.4138
   25TMC2    C3  382   4.233   4.416  11.788  0.2960  0.4303 -0.4729
   25TMC2    C4  383   4.132   4.160  11.756 -0.8939 -0.3330  0.2446
   25TMC2    C5  384   4.116   4.231  11.872 -0.3998 -0.3365  0.0546
   25TMC2    C6  385   4.165   4.357  11.890 -0.0507 -0.2186  0.1647
   25TMC2     C  386   4.201   4.189  11.512  0.4242 -0.7077  0.0229
   25TMC2     O  387   4.243   4.266  11.426  0.0687 -0.3706 -0.3843
   25TMC2     H  388   4.310   4.408  11.593  1.4069 -0.1109  1.3624
   25TMC2    H1  389   4.096   4.058  11.746  1.7725 -1.4402  1.8106
   25TMC2    H2  390   4.133   4.417  11.974  0.8164  0.2185  0.1810
   25TMC2    C7  391   4.060   4.165  11.983  0.3153 -0.2698  0.3774
   25TMC2    C8  392   4.232   4.559  11.787 -0.0730  0.0725  0.1321
   25TMC2    O1  393   4.127   4.174  12.087  0.1925 -0.4260  0.1373
   25TMC2    O2  394   4.139   4.618  11.828  0.4792  0.0034 -0.6925
   25TMC2    O5  395   4.347   4.602  11.723 -0.0438 -0.1682  0.2720
   25TMC2    H5  396   4.406   4.525  11.706 -1.2682 -1.0624  0.0188
   26MPD2     C  397   4.127   3.833  11.153 -0.6460 -0.4679 -0.6302
   26MPD2    C1  398   4.018   3.835  11.235  0.2779  0.9025  0.2081
   26MPD2    C2  399   4.021   3.913  11.350  0.2574  0.5895 -0.2076
   26MPD2    C3  400   4.120   4.002  11.373 -0.5471 -0.1862 -0.1105
   26MPD2    C4  401   4.226   4.012  11.280  0.1271 -0.8336  0.1749
   26MPD2    C5  402   4.227   3.921  11.181 -0.0540 -0.6095  0.6258
   26MPD2     H  403   3.942   3.904  11.424  0.7099  0.0535  0.2117
   26MPD2    H1  404   4.311   4.079  11.285 -0.4634 -0.1327  0.8322
   26MPD2    H2  405   4.136   3.755  11.078  1.7009  2.5873 -3.5605
   26MPD2    H3  406   4.306   3.924  11.107  0.0937  0.9558  0.8333
   26MPD2     N  407   4.122   4.076  11.491  0.5725 -0.1693 -0.0058
   26MPD2    H5  408   4.068   4.039  11.568  1.7601 -2.2102 -0.1620
   26MPD2    N1  409   3.924   3.743  11.192 -0.4543  0.2021 -0.1142
   26MPD2    H7  410   3.928   3.713  11.095  0.5788 -2.3276  0.7174
   27TMC2    C1  411   2.415   1.824  12.378 -0.7132  0.0284 -0.1294
   27TMC2    C2  412   2.400   1.910  12.482 -0.8061 -0.3322  0.3618
   27TMC2    C3  413   2.513   1.978  12.516  0.5487  0.2939 -0.2624
   27TMC2    C4  414   2.527   1.817  12.298 -0.6707 -0.2300 -0.0509
   27TMC2    C5  415   2.629   1.897  12.333 -0.1585  0.3339  0.6463
   27TMC2    C6  416   2.623   1.969  12.446  0.1127  0.3949  0.4162
   27TMC2     C  417   2.333   1.708  12.375 -0.2585 -0.0999  0.4284
   27TMC2     O  418   2.325   1.640  12.273  0.7096 -0.2268  0.0995
   27TMC2     H  419   2.310   1.929  12.540 -1.3473  0.2051 -0.6543
   27TMC2    H1  420   2.533   1.739  12.223  0.3524  0.0945 -0.3066
   27TMC2    H2  421   2.705   2.033  12.477  0.1461 -0.0467  1.2377
   27TMC2    C7  422   2.760   1.848  12.293  0.8263  0.0833 -0.9970
   27TMC2    C8  423   2.505   2.080  12.612 -0.7269  0.2169 -0.2741
   27TMC2    O1  424   2.765   1.744  12.233  0.5325  0.2377 -0.6613
   27TMC2    O2  425   2.588   2.171  12.605  0.4521 -0.4449  0.2735
   27TMC2    O5  426   2.476   2.017  12.728  0.8425 -0.5538 -0.3838
   27TMC2    H5  427   2.431   1.931  12.712  0.2137 -0.2720 -0.1064
   28MPD2     C  428   2.095   1.319  12.599 -0.1889  0.4596  0.4618
   28MPD2    C1  429   2.088   1.431  12.687  0.0799 -0.1847 -0.6141
   28MPD2    C2  430   2.142   1.547  12.639 -0.6699  0.4101 -0.6475
   28MPD2    C3  431   2.215   1.557  12.525  0.0599 -0.1639  0.1136
   28MPD2    C4  432   2.237   1.447  12.447  0.5251  0.2534 -0.5315
   28MPD2    C5  433   2.168   1.333  12.486 -0.2517  0.0472  0.7134
   28MPD2     H  434   2.117   1.639  12.691 -0.9523  0.1823 -0.3734
   28MPD2    H1  435   2.293   1.438  12.355 -1.3767 -2.6903 -1.4004
   28MPD2    H2  436   2.040   1.228  12.622  2.1814 -1.2066 -0.4966
   28MPD2    H3  437   2.176   1.249  12.418 -0.4108  0.0125  0.7359
   28MPD2     N  438   2.270   1.682  12.493  0.1336 -0.2825  0.7129
   28MPD2    H5  439   2.262   1.751  12.567  0.7749 -0.6385  1.1144
   28MPD2    N1  440   1.992   1.416  12.794 -0.5732  0.1208  0.5344
   28MPD2    H7  441   1.952   1.323  12.805 -0.7483  0.0832 -0.3914
   29MPD2     C  442   1.648   4.398  14.086  0.4984 -0.1152  0.0386
   29MPD2    C1  443   1.786   4.397  14.085 -0.2935  0.3773 -0.7685
   29MPD2    C2  444   1.854   4.513  14.102 -0.2805 -0.4428  0.7031
   29MPD2    C3  445   1.790   4.634  14.133 -0.1302  0.5341  0.1626
   29MPD2    C4  446   1.651   4.632  14.145  0.2274 -0.4276 -0.4097
   29MPD2    C5  447   1.581   4.516  14.125 -0.1688  0.6435 -0.0365
   29MPD2     H  448   1.960   4.493  14.112  0.1066  0.5983 -1.2960
   29MPD2    H1  449   1.605   0.008  14.151 -1.1256 -1.0938 -0.0584
   29MPD2    H2  450   1.589   4.307  14.080  2.0936 -1.2417  1.5152
   29MPD2    H3  451   1.473   4.520  14.120 -0.2335  1.0821  1.7361
   29MPD2     N  452   1.855   0.033  14.157 -0.4880  0.1075 -0.0701
   29MPD2    H5  453   1.796   0.104  14.200  1.3175  1.4096  0.2915
   29MPD2    N1  454   1.870   4.282  14.081 -0.6892 -0.3593  0.4689
   29MPD2    H7  455   1.970   4.300  14.087 -0.8813  0.5674  0.8459
   30TCq2    C1  456   1.991   0.070  14.142  0.5202  0.6819  0.3320
   30TCq2    O2  457   2.082   0.002  14.094  0.3549 -0.4354  0.2400
   30TCq2    C2  458   2.030   0.184  14.222  0.0463  0.4080 -0.1945
   30TCq2    C3  459   1.936   0.277  14.256  0.3073  0.4797 -0.2248
   30TCq2    C4  460   1.958   0.356  14.363 -0.3459  0.4393  0.1605
   30TCq2    C5  461   2.063   0.340  14.449  0.1369 -0.2481  0.1058
   30TCq2    C6  462   2.154   0.242  14.414 -0.1505 -0.6019 -0.4487
   30TCq2    C7  463   2.138   0.164  14.300  0.0954  0.6833 -0.6740
   30TCq2    C8  464   2.267   0.229  14.503  0.0141  0.5192 -0.5908
   30TCq2    O4  465   2.321   0.117  14.497 -0.3625  0.2942  0.1395
   30TCq2    C9  466   1.848   0.447  14.408 -0.5361  0.2878 -0.3225
   30TCq2    O5  467   1.880   0.518  14.506  0.2659  0.0962  0.2830
   30TCq2    O6  468   1.733   0.448  14.351 -0.3675 -0.3197  0.6872
   30TCq2    H2  469   1.852   0.298  14.192 -0.7869  0.0379  1.0625
   30TCq2    H3  470   2.069   0.389  14.545 -2.7225  2.4207 -1.0904
   30TCq2    H4  471   2.211   0.091  14.267 -1.8883 -1.4358 -0.3311
   31MPD2     C  472   0.214   3.511  15.058  0.4277  0.0618 -0.3966
   31MPD2    C1  473   0.140   3.507  14.944  0.4948 -0.4372 -0.5576
   31MPD2    C2  474   0.007   3.448  14.947 -0.0562 -0.9869  0.0457
   31MPD2    C3  475   4.689   3.394  15.064  0.1415  0.1724  0.3358
   31MPD2    C4  476   0.037   3.411  15.179  0.1993  0.1895  0.2879
   31MPD2    C5  477   0.163   3.462  15.178 -0.4878 -0.0803 -0.1255
   31MPD2     H  478   4.669   3.452  14.857 -3.7041 -0.3828  2.5171
   31MPD2    H1  479   0.010   3.369  15.275 -0.6374  0.5878  0.2313
   31MPD2    H2  480   0.310   3.560  15.044  1.4225 -0.8676  3.3970
   31MPD2    H3  481   0.233   3.460  15.261 -0.3877  0.6712 -0.1923
   31MPD2     N  482   4.565   3.320  15.082 -0.4389 -0.3295 -0.1369
   31MPD2    H5  483   4.540   3.292  15.176  1.8769 -2.5507 -0.1710
   31MPD2    N1  484   0.179   3.571  14.823  0.6590  0.2421  0.2909
   31MPD2    H7  485   0.276   3.600  14.836  0.8315 -0.8859  1.5009
   32TCq2    C1  486   4.481   3.300  14.973  0.3189  0.0932  0.3205
   32TCq2    O2  487   4.502   3.305  14.850  0.4652 -0.1609 -0.0605
   32TCq2    C2  488   4.350   3.250  15.011  0.1480  0.4336 -0.7478
   32TCq2    C3  489   4.246   3.286  14.926 -0.3813 -0.1478 -0.9154
   32TCq2    C4  490   4.127   3.229  14.943  0.4234 -0.3769  0.6836
   32TCq2    C5  491   4.122   3.127  15.034  0.1888 -0.1919 -0.2638
   32TCq2    C6  492   4.224   3.096  15.121 -0.1173 -0.0284 -0.8585
   32TCq2    C7  493   4.338   3.157  15.117  0.0882 -0.1423 -0.0833
   32TCq2    C8  494   4.199   3.029  15.247 -0.1587  0.1902 -0.8121
   32TCq2    O4  495   4.293   2.984  15.313 -0.2599  0.2911 -0.3264
   32TCq2    C9  496   4.007   3.256  14.869  0.6201 -0.0095 -0.2569
   32TCq2    O5  497   4.020   3.324  14.764 -0.1411 -0.0850  0.0343
   32TCq2    O6  498   3.901   3.182  14.902  0.0743 -0.5309 -0.6520
   32TCq2    H2  499   4.255   3.363  14.850 -0.5196  0.8603  0.0915
   32TCq2    H3  500   4.025   3.081  15.050  0.4157 -0.6046 -0.0855
   32TCq2    H4  501   4.426   3.134  15.176 -0.3722  2.1693  1.5139
   33MPD2     C  502   0.940   0.372   9.892  0.6994 -0.5305 -0.1575
   33MPD2    C1  503   0.830   0.327   9.961  0.2187  0.0747 -0.1871
   33MPD2    C2  504   0.703   0.340   9.905  0.5182  0.4607  0.0464
   33MPD2    C3  505   0.690   0.372   9.771 -0.7944 -0.3196  0.1459
   33MPD2    C4  506   0.804   0.406   9.699 -0.5237  0.0275  0.0498
   33MPD2    C5  507   0.925   0.417   9.760  0.5871  1.0070 -0.2447
   33MPD2     H  508   0.617   0.327   9.971  0.9296 -0.6982  0.3546
   33MPD2    H1  509   0.808   0.419   9.591 -0.9553 -2.6582 -0.3016
   33MPD2    H2  510   1.033   0.376   9.948  0.3295 -0.8486  0.4656
   33MPD2    H3  511   1.006   0.450   9.697  1.1797 -0.3340 -0.1842
   33MPD2     N  512   0.561   0.396   9.719  0.1594 -0.4019 -1.1087
   33MPD2    H5  513   0.545   0.447   9.633 -0.4812 -1.6967 -1.7545
   33MPD2    N1  514   0.853   0.274  10.089  0.1379 -0.6910  0.0006
   33MPD2    H7  515   0.941   0.292  10.136  0.6631 -0.4966 -1.0621
   34TCq2    C1  516   0.440   0.356   9.772 -1.0925 -0.4200  0.8672
   34TCq2    O2  517   0.413   0.293   9.869 -0.1897  0.1526  0.3081
   34TCq2    C2  518   0.326   0.414   9.710  0.8953 -0.1986  0.6752
   34TCq2    C3  519   0.209   0.349   9.733  0.3237 -0.0488  1.0924
   34TCq2    C4  520   0.096   0.430   9.728 -0.0779 -0.6309 -0.3686
   34TCq2    C5  521   0.107   0.562   9.682  0.5007  0.9515 -0.0983
   34TCq2    C6  522   0.227   0.620   9.651 -0.1017 -0.5415  0.7797
   34TCq2    C7  523   0.337   0.539   9.660 -1.0262  0.1574 -1.1926
   34TCq2    C8  524   0.233   0.727   9.559  0.6221  1.2008  0.8040
   34TCq2    O4  525   0.328   0.732   9.483 -0.4199 -0.2355 -0.4369
   34TCq2    C9  526   4.685   0.373   9.744  0.9075 -0.0117  0.2940
   34TCq2    O5  527   4.674   0.259   9.780  0.1200 -0.4304  0.2378
   34TCq2    O6  528   4.585   0.423   9.691 -0.2299  0.6418  0.0783
   34TCq2    H2  529   0.196   0.242   9.730  0.8635 -0.1675  2.7525
   34TCq2    H3  530   0.010   0.605   9.660  0.5902  0.8269 -0.7384
   34TCq2    H4  531   0.436   0.583   9.653 -0.4562 -0.9557 -0.1659
   35MPD2     C  532   2.039   2.022  11.886 -0.6323 -0.2249 -0.9385
   35MPD2    C1  533   2.019   1.892  11.923 -0.3078  0.6417  0.3195
   35MPD2    C2  534   1.976   1.802  11.827  0.5552 -0.8219  0.5790
   35MPD2    C3  535   1.976   1.833  11.688 -0.3624 -0.2016  0.6881
   35MPD2    C4  536   2.018   1.958  11.656  0.4171  0.1089 -0.3274
   35MPD2    C5  537   2.044   2.056  11.755 -0.3979 -0.3635  0.1036
   35MPD2     H  538   1.944   1.703  11.859  1.6050 -0.6720  2.0927
   35MPD2    H1  539   2.037   1.992  11.555 -3.0330  0.1906 -0.9695
   35MPD2    H2  540   2.062   2.105  11.952 -0.0539 -1.6187  0.6148
   35MPD2    H3  541   2.067   2.157  11.724  3.6721 -1.0939  0.7508
   35MPD2     N  542   1.933   1.742  11.591  0.1535  0.1243 -0.3309
   35MPD2    H5  543   1.910   1.649  11.625  1.3862 -0.6619 -1.6571
   35MPD2    N1  544   2.020   1.869  12.064 -0.0681 -0.1490 -0.4875
   35MPD2    H7  545   2.039   1.953  12.118 -0.5005  0.4172 -1.2200
   36TCq2    C1  546   1.920   1.767  11.455  0.7595 -0.4034  0.0087
   36TCq2    O2  547   1.963   1.858  11.385  0.0421 -1.1036 -0.1349
   36TCq2    C2  548   1.869   1.653  11.383  0.9385 -0.0691 -0.4878
   36TCq2    C3  549   1.883   1.658  11.252 -0.1164 -0.7472 -0.3432
   36TCq2    C4  550   1.784   1.608  11.170 -0.1245 -0.5399  0.1169
   36TCq2    C5  551   1.668   1.550  11.221  0.1155  0.4785  0.1354
   36TCq2    C6  552   1.658   1.547  11.359  0.2650  0.7352  0.5598
   36TCq2    C7  553   1.759   1.593  11.433  0.0921 -0.0473  0.3037
   36TCq2    C8  554   1.561   1.459  11.418  0.4338  0.1465 -0.7838
   36TCq2    O4  555   1.599   1.411  11.524  0.6319  0.2995  0.1188
   36TCq2    C9  556   1.803   1.624  11.029  0.5388 -0.0050  0.4029
   36TCq2    O5  557   1.717   1.568  10.952 -0.0012  0.3746  0.0407
   36TCq2    O6  558   1.897   1.703  10.995  0.0758 -0.9433  0.0728
   36TCq2    H2  559   1.972   1.706  11.213 -0.6678  1.2244  0.7665
   36TCq2    H3  560   1.596   1.508  11.153  0.3261  0.7993 -0.2880
   36TCq2    H4  561   1.746   1.582  11.541  0.7768  2.2036  0.6048
   37TMC2    C1  562   3.383   2.112  10.839 -1.2332  0.0433 -0.2075
   37TMC2    C2  563   3.361   2.095  10.702  0.1402  0.8281 -0.6556
   37TMC2    C3  564   3.471   2.068  10.626  0.3610  0.4715  0.1320
   37TMC2    C4  565   3.503   2.106  10.893  0.0314 -0.3105  0.2263
   37TMC2    C5  566   3.610   2.079  10.820 -0.7116 -1.0501  0.4368
   37TMC2    C6  567   3.593   2.059  10.683  0.4656 -0.2496  0.6130
   37TMC2     C  568   3.274   2.089  10.935 -0.0631 -0.2413 -0.0069
   37TMC2     O  569   3.295   2.141  11.044  0.2624 -0.6618 -0.4557
   37TMC2     H  570   3.264   2.116  10.658  0.5266  4.2455  0.0890
   37TMC2    H1  571   3.514   2.116  11.001 -1.1293  0.8534  0.2324
   37TMC2    H2  572   3.675   2.030  10.620 -0.5847 -0.8143 -0.4987
   37TMC2    C7  573   3.733   2.041  10.885  0.5995 -0.5379 -1.0203
   37TMC2    C8  574   3.460   2.050  10.482  0.0968  0.5171  0.0448
   37TMC2    O1  575   3.732   2.070  11.002  0.1990  0.5279  0.2091
   37TMC2    O2  576   3.559   2.050  10.407 -0.3706  0.6393  0.2474
   37TMC2    O5  577   3.351   1.975  10.461 -0.4190  0.6779  0.1011
   37TMC2    H5  578   3.301   1.958  10.543 -1.6300  0.5855 -0.6566
   38MPD2     C  579   2.970   1.749  11.137  0.0145 -0.7044  0.1103
   38MPD2    C1  580   3.075   1.822  11.181 -0.0660 -0.4907  0.0669
   38MPD2    C2  581   3.133   1.914  11.107 -0.4979 -0.6828 -0.2100
   38MPD2    C3  582   3.101   1.921  10.974 -0.2855  0.9894 -0.3319
   38MPD2    C4  583   2.990   1.854  10.921 -0.3282  0.6269 -0.0635
   38MPD2    C5  584   2.936   1.759  11.000  0.7126 -0.1460 -0.5376
   38MPD2     H  585   3.195   1.984  11.162  0.1303 -2.1387  0.9164
   38MPD2    H1  586   2.967   1.863  10.815  1.1739  1.0994 -0.3540
   38MPD2    H2  587   2.915   1.676  11.195 -1.4345  1.9044  1.9784
   38MPD2    H3  588   2.862   1.691  10.959  1.0982 -1.1797  0.4775
   38MPD2     N  589   3.174   2.011  10.887  0.0044  0.2333 -0.9380
   38MPD2    H5  590   3.167   1.989  10.788  1.8017 -1.2861 -0.7341
   38MPD2    N1  591   3.143   1.812  11.308 -0.4330 -0.1270  0.8523
   38MPD2    H7  592   3.236   1.853  11.312 -0.4335  0.0570 -0.9373
   39MPD2     C  593   1.201   0.150   2.039 -0.2400 -0.0630 -0.1743
   39MPD2    C1  594   1.075   0.181   2.089 -0.0976 -0.2455  1.2113
   39MPD2    C2  595   0.960   0.170   2.006  0.0308  0.2227 -0.2397
   39MPD2    C3  596   0.971   0.104   1.889 -0.6928  1.2582  0.4395
   39MPD2    C4  597   1.097   0.066   1.846 -0.1000  0.1052  0.1868
   39MPD2    C5  598   1.208   0.095   1.911  0.1665 -0.3994  0.7822
   39MPD2     H  599   0.863   0.202   2.044 -1.1229  0.2908 -3.2569
   39MPD2    H1  600   1.091   0.028   1.744 -0.0560  1.1640 -0.2068
   39MPD2    H2  601   1.292   0.172   2.092 -0.6258  0.0345  0.4455
   39MPD2    H3  602   1.305   0.088   1.863  0.0957 -1.1226  0.7543
   39MPD2     N  603   0.862   0.065   1.808 -0.4973 -1.0345 -0.4603
   39MPD2    H5  604   0.881   0.012   1.724  1.6003 -0.4300 -0.3810
   39MPD2    N1  605   1.078   0.229   2.223  0.2240  1.2638 -0.0292
   39MPD2    H7  606   1.169   0.222   2.268 -0.5233  2.8525  1.7188
   40TCq2    C1  607   0.971   0.283   2.287  0.4365 -0.3402  0.1901
   40TCq2    O2  608   0.850   0.277   2.252 -0.4905 -0.6235 -0.1416
   40TCq2    C2  609   1.007   0.339   2.410 -0.2889  0.1815 -0.5355
   40TCq2    C3  610   0.913   0.338   2.503 -0.2016 -0.5465  0.5910
   40TCq2    C4  611   0.932   0.406   2.622 -0.1487 -0.6620  0.9766
   40TCq2    C5  612   1.038   0.496   2.634 -0.4544  0.1077 -0.7069
   40TCq2    C6  613   1.126   0.509   2.525  0.9389 -0.1762  0.4721
   40TCq2    C7  614   1.111   0.429   2.411  0.0196 -0.6793  0.4131
   40TCq2    C8  615   1.222   0.614   2.535  0.0179 -0.0202 -0.6696
   40TCq2    O4  616   1.196   0.700   2.623 -0.4986  0.2008 -0.0945
   40TCq2    C9  617   0.841   0.373   2.734  0.5839 -0.5858 -0.0078
   40TCq2    O5  618   0.859   0.444   2.837 -0.1858 -0.2624  0.2428
   40TCq2    O6  619   0.740   0.303   2.707  0.0039 -0.2958 -0.3732
   40TCq2    H2  620   0.829   0.271   2.487 -0.6739  0.4092 -0.9211
   40TCq2    H3  621   1.052   0.546   2.729  0.5541 -1.3087 -0.1087
   40TCq2    H4  622   1.180   0.442   2.328  1.0472 -0.6459  1.2630
   41TMC2    C1  623   0.416   1.695  13.361 -0.0718 -0.1924 -0.3973
   41TMC2    C2  624   0.313   1.674  13.443  0.4643  0.0340  0.6730
   41TMC2    C3  625   0.201   1.633  13.381  0.5214 -0.1869 -0.1130
   41TMC2    C4  626   0.412   1.684  13.226  0.4636 -0.1873 -0.1344
   41TMC2    C5  627   0.295   1.656  13.162  0.4729  0.6663 -0.8926
   41TMC2    C6  628   0.188   1.629  13.243 -0.3033 -0.0226 -0.3492
   41TMC2     C  629   0.539   1.713  13.422  0.7381 -0.3095  0.1137
   41TMC2     O  630   0.632   1.649  13.375  0.3882 -0.4357 -0.6203
   41TMC2     H  631   0.335   1.647  13.545 -3.4160  0.3416  1.5894
   41TMC2    H1  632   0.501   1.716  13.173 -0.1494 -1.7487 -2.1046
   41TMC2    H2  633   0.095   1.594  13.199 -0.0392 -2.5953  1.1417
   41TMC2    C7  634   0.285   1.621  13.024 -0.2241  0.0747 -0.0096
   41TMC2    C8  635   0.086   1.580  13.462  0.0889  0.5196 -0.8077
   41TMC2    O1  636   0.181   1.581  12.974  0.1342 -0.5118  0.1143
   41TMC2    O2  637   0.003   1.500  13.424 -0.0208  0.3775  0.2929
   41TMC2    O5  638   0.080   1.649  13.572  0.2838 -0.0143  0.3909
   41TMC2    H5  639   0.140   1.724  13.591  0.0368  0.0580  0.9043
   42MPD2     C  640   0.750   1.743  13.629  0.6458  0.5929 -0.2503
   42MPD2    C1  641   0.638   1.824  13.619 -0.6249  0.7167  0.0615
   42MPD2    C2  642   0.622   1.922  13.710  0.2895  0.1749  0.1424
   42MPD2    C3  643   0.713   1.952  13.809 -0.0940  0.3910 -0.3963
   42MPD2    C4  644   0.826   1.874  13.819  0.8731 -0.3759 -1.0756
   42MPD2    C5  645   0.851   1.771  13.726 -0.3960 -0.1807 -0.6300
   42MPD2     H  646   0.536   1.985  13.693  0.8984  1.7942  2.9397
   42MPD2    H1  647   0.902   1.902  13.891 -0.1988  0.4146 -0.2471
   42MPD2    H2  648   0.764   1.663  13.558  0.2440  0.9634 -0.7426
   42MPD2    H3  649   0.935   1.706  13.746 -1.5941 -1.9409 -1.2671
   42MPD2     N  650   0.702   2.064  13.888 -0.0877 -0.8957  0.3843
   42MPD2    H5  651   0.653   2.145  13.851  1.7508 -1.1673 -2.7034
   42MPD2    N1  652   0.535   1.803  13.526 -0.0496 -0.8536 -0.3622
   42MPD2    H7  653   0.455   1.865  13.535  0.3107 -0.8866  3.1969
   43MPD2     C  654   1.227   0.608   0.928  0.6840 -0.1781  0.0132
   43MPD2    C1  655   1.320   0.677   0.992  1.2200 -0.1449 -0.2844
   43MPD2    C2  656   1.287   0.781   1.079 -0.1204 -0.0427 -0.3302
   43MPD2    C3  657   1.156   0.832   1.075 -0.5191  0.7636  0.2311
   43MPD2    C4  658   1.059   0.758   1.003  0.2867  0.1898 -0.0921
   43MPD2    C5  659   1.100   0.652   0.928  0.2836 -0.1528 -0.9351
   43MPD2     H  660   1.368   0.812   1.143 -0.0378  3.2399 -1.9904
   43MPD2    H1  661   0.960   0.800   0.991  0.6542  0.9254 -0.6417
   43MPD2    H2  662   1.244   0.514   0.877  3.0703  0.7353 -0.8676
   43MPD2    H3  663   1.020   0.601   0.875  2.1892 -3.0521 -1.0026
   43MPD2     N  664   1.104   0.947   1.144  0.1097  0.5939  0.3078
   43MPD2    H5  665   1.004   0.963   1.132 -0.0557 -0.5903  0.1079
   43MPD2    N1  666   1.459   0.644   0.997  0.9415  0.0711  0.5161
   43MPD2    H7  667   1.519   0.680   1.071 -1.7545  2.6295  1.4419
   44TCq2    C1  668   1.147   1.384   1.545 -0.4123 -0.5961 -1.5043
   44TCq2    O2  669   1.140   1.505   1.518 -0.5192  0.3058 -0.2924
   44TCq2    C2  670   1.071   1.290   1.459  0.3162 -0.6946  0.4505
   44TCq2    C3  671   0.976   1.353   1.375 -0.5607 -0.2763  0.1417
   44TCq2    C4  672   0.929   1.286   1.270  0.2338 -0.1608  0.7478
   44TCq2    C5  673   0.983   1.170   1.229  0.2609  1.2542  0.2347
   44TCq2    C6  674   1.078   1.112   1.312 -0.2812 -0.1901 -0.2561
   44TCq2    C7  675   1.123   1.171   1.433  0.0474 -0.0661 -0.1493
   44TCq2    C8  676   1.162   1.008   1.252 -0.0583 -0.7395  0.0606
   44TCq2    O4  677   1.274   0.984   1.295 -0.3495  0.2546  0.0084
   44TCq2    C9  678   0.828   1.347   1.192  0.3775  0.2125 -0.3217
   44TCq2    O5  679   0.781   1.448   1.243 -0.2909 -0.2196  0.4305
   44TCq2    O6  680   0.783   1.279   1.096 -0.3242  0.4171  0.0743
   44TCq2    H2  681   0.925   1.443   1.410 -1.2350 -1.0235  1.0826
   44TCq2    H3  682   0.946   1.131   1.135  0.9153 -0.7707  0.8238
   44TCq2    H4  683   1.205   1.126   1.487  1.1981 -0.4323 -2.1946
   45TMC2    C1  684   2.951   2.162   9.527  0.7608 -0.4106 -0.8543
   45TMC2    C2  685   2.925   2.171   9.393 -0.9261  0.3078  0.0522
   45TMC2    C3  686   2.867   2.292   9.360 -0.5379 -0.8665 -0.2896
   45TMC2    C4  687   2.928   2.256   9.628  0.2318 -0.3599  0.3523
   45TMC2    C5  688   2.885   2.374   9.578  0.3858 -0.0145 -0.2724
   45TMC2    C6  689   2.867   2.396   9.445 -0.3617 -0.4723  0.5106
   45TMC2     C  690   3.025   2.044   9.578 -0.5809 -0.4913 -0.2597
   45TMC2     O  691   3.037   2.029   9.700 -0.1687  0.7910  0.3203
   45TMC2     H  692   2.931   2.082   9.331 -0.3307  1.6180 -1.7680
   45TMC2    H1  693   2.943   2.234   9.733  2.1329 -0.5724  0.0336
   45TMC2    H2  694   2.825   2.491   9.413  1.3616 -0.5130 -1.8471
   45TMC2    C7  695   2.893   2.483   9.667 -0.2547 -0.2837  0.5406
   45TMC2    C8  696   2.867   2.333   9.223 -0.4746 -0.9038  0.5852
   45TMC2    O1  697   2.943   2.464   9.779 -0.1140 -0.3299 -0.3625
   45TMC2    O2  698   2.873   2.447   9.180 -0.0707  0.2555 -0.1589
   45TMC2    O5  699   2.827   2.233   9.150  0.4588  0.2549 -0.1411
   45TMC2    H5  700   2.794   2.160   9.206 -0.3131 -0.1313 -1.1093
   46MPD2     C  701   3.211   1.828   9.633  0.0138  0.0816 -0.4512
   46MPD2    C1  702   3.148   1.841   9.513  0.1480 -0.3005  0.5455
   46MPD2    C2  703   3.131   1.733   9.432 -0.5515 -0.4317 -0.4296
   46MPD2    C3  704   3.175   1.608   9.474 -0.2479 -0.5820 -1.0754
   46MPD2    C4  705   3.246   1.595   9.587 -0.5825 -0.4832  0.7925
   46MPD2    C5  706   3.275   1.709   9.668 -0.1850 -0.5030 -0.6513
   46MPD2     H  707   3.079   1.732   9.337 -0.2285 -1.8831 -0.5909
   46MPD2    H1  708   3.288   1.503   9.626  1.9470 -0.0580 -0.9698
   46MPD2    H2  709   3.217   1.915   9.698  0.6187 -0.8882  0.8000
   46MPD2    H3  710   3.325   1.686   9.761  3.2550 -2.2110 -2.8706
   46MPD2     N  711   3.142   1.496   9.392 -0.0842  0.3251  0.4232
   46MPD2    H5  712   3.089   1.507   9.306  2.7039  0.8789 -1.2224
   46MPD2    N1  713   3.082   1.966   9.475 -0.1007  0.4421 -0.5319
   46MPD2    H7  714   3.055   1.979   9.378  0.5859 -0.6722 -0.8715
   47TMC2    C1  715   0.122   2.439  10.171 -0.2685 -0.0350  0.1988
   47TMC2    C2  716   0.170   2.560  10.121 -0.8261 -0.0146 -0.0448
   47TMC2    C3  717   0.082   2.656  10.080  0.6561 -0.1152 -0.0294
   47TMC2    C4  718   4.706   2.419  10.177  0.4758 -0.2015 -0.4077
   47TMC2    C5  719   4.624   2.521  10.138 -0.2294  0.2482 -0.2074
   47TMC2    C6  720   4.670   2.646  10.093  0.0261  0.3607  0.4661
   47TMC2     C  721   0.189   2.316  10.142  0.1179 -0.5976 -0.9239
   47TMC2     O  722   0.124   2.222  10.178 -0.3089  0.1338  0.4909
   47TMC2     H  723   0.276   2.580  10.112 -0.4865 -1.1090  1.5384
   47TMC2    H1  724   4.660   2.340  10.234  3.6384 -1.9568 -0.2847
   47TMC2    H2  725   4.597   2.717  10.057 -0.9016 -1.0532 -0.4422
   47TMC2    C7  726   4.481   2.512  10.162 -0.7108 -0.7578 -0.0311
   47TMC2    C8  727   0.146   2.782  10.044 -0.1700  0.1734  0.1612
   47TMC2    O1  728   4.419   2.407  10.159  0.4698 -0.1645 -0.4760
   47TMC2    O2  729   0.257   2.789   9.989  0.4822  0.3536 -0.2408
   47TMC2    O5  730   0.061   2.879  10.060  0.1237  0.2646 -0.1381
   47TMC2    H5  731   4.711   2.858  10.123  1.8176 -1.0476  1.3539
   48MPD2     C  732   0.285   2.082   9.971 -0.0397  0.2400  0.6523
   48MPD2    C1  733   0.328   2.214   9.963 -0.6656  0.0447  0.1922
   48MPD2    C2  734   0.423   2.252   9.872  0.2086  0.1362 -0.1175
   48MPD2    C3  735   0.480   2.158   9.790 -0.5831  0.0918 -0.0447
   48MPD2    C4  736   0.440   2.022   9.803 -0.3884  0.3020  0.2201
   48MPD2    C5  737   0.341   1.982   9.895 -0.3716  0.0053  0.0798
   48MPD2     H  738   0.458   2.355   9.870  0.8757 -0.0714  0.5383
   48MPD2    H1  739   0.481   1.944   9.739 -0.1011 -0.5553  1.4566
   48MPD2    H2  740   0.215   2.052  10.047 -1.1343  2.2146  0.4232
   48MPD2    H3  741   0.314   1.877   9.906  1.7501 -0.7157 -1.7377
   48MPD2     N  742   0.569   2.205   9.683  0.4440  0.3225  0.7904
   48MPD2    H5  743   0.602   2.300   9.676 -2.2689  1.2740  0.9261
   48MPD2    N1  744   0.280   2.323  10.042  0.3473  0.2369 -0.2378
   48MPD2    H7  745   0.302   2.417  10.011 -1.5336  0.9242  0.5259
   49MPD2     C  746   4.301   4.432  10.083 -0.3151  0.8224 -0.5781
   49MPD2    C1  747   4.167   4.476  10.086  0.3108  0.2736 -0.5189
   49MPD2    C2  748   4.122   4.521  10.210 -0.5041 -0.1214 -0.3712
   49MPD2    C3  749   4.200   4.503  10.323 -0.7223  0.3158  0.1034
   49MPD2    C4  750   4.329   4.456  10.313 -0.0371 -0.7246  0.3758
   49MPD2    C5  751   4.381   4.423  10.194 -0.1439  0.3893 -0.1853
   49MPD2     H  752   4.020   4.558  10.208 -0.3686  0.2503 -0.4734
   49MPD2    H1  753   4.385   4.429  10.402  0.5729  1.6203  0.6980
   49MPD2    H2  754   4.345   4.383   9.996 -1.1421  0.1931 -0.6396
   49MPD2    H3  755   4.483   4.386  10.189 -0.0238  1.2821 -4.4341
   49MPD2     N  756   4.159   4.516  10.453  0.0232  0.3547  0.1483
   49MPD2    H5  757   4.228   4.495  10.524 -0.5272  2.0152  1.1596
   49MPD2    N1  758   4.080   4.472   9.976  0.0990  0.3278  0.4808
   49MPD2    H7  759   3.984   4.505   9.987 -0.5974 -1.1140 -1.3008
   50TCq2    C1  760   4.110   4.436   9.848 -0.0703 -0.3147  0.3255
   50TCq2    O2  761   4.214   4.414   9.791 -0.0365  0.4403 -0.3225
   50TCq2    C2  762   3.986   4.424   9.769 -0.6541  0.3437 -0.8559
   50TCq2    C3  763   3.988   4.451   9.637  0.4413 -0.1287 -0.1857
   50TCq2    C4  764   3.890   4.394   9.559  0.4910  0.2965  0.1708
   50TCq2    C5  765   3.805   4.302   9.598  0.5774 -0.1491 -0.5397
   50TCq2    C6  766   3.804   4.281   9.734 -0.5267  0.3699 -0.1015
   50TCq2    C7  767   3.888   4.342   9.819 -1.1855  0.4073  0.2229
   50TCq2    C8  768   3.736   4.158   9.779  0.1678 -0.4215  0.3983
   50TCq2    O4  769   3.695   4.092   9.685  0.1576  0.0814 -0.2956
   50TCq2    C9  770   3.872   4.450   9.427  0.1812  0.6529  0.4730
   50TCq2    O5  771   3.759   4.442   9.376  0.3104 -0.3570 -0.2879
   50TCq2    O6  772   3.961   4.523   9.374 -0.3319 -0.1333 -0.2497
   50TCq2    H2  773   4.061   4.524   9.604  0.8062 -0.5551 -0.3077
   50TCq2    H3  774   3.738   4.257   9.526  0.2918 -0.0790 -0.3170
   50TCq2    H4  775   3.890   4.311   9.923  1.8281  2.9219  0.9315
   51MPD2     C  776   3.578   2.362   0.949  0.0619  0.5923  0.2426
   51MPD2    C1  777   3.499   2.469   0.960  0.3536 -0.3225  0.2138
   51MPD2    C2  778   3.523   2.562   1.064  0.7558  0.1502 -0.2992
   51MPD2    C3  779   3.627   2.536   1.157  0.4172  0.3125  0.2408
   51MPD2    C4  780   3.715   2.434   1.134  0.3460  0.4364  0.1596
   51MPD2    C5  781   3.698   2.358   1.023  0.2516 -0.9727 -0.2066
   51MPD2     H  782   3.462   2.650   1.083  1.1538  0.3287  0.1608
   51MPD2    H1  783   3.793   2.408   1.204  1.2844  0.1463 -0.9992
   51MPD2    H2  784   3.575   2.298   0.861  1.4381 -0.8776  1.2615
   51MPD2    H3  785   3.771   2.279   1.007 -1.3223 -2.6887  1.1562
   51MPD2     N  786   3.666   2.619   1.261 -0.7215  0.0901  0.2134
   51MPD2    H5  787   3.746   2.593   1.317  0.1345  0.4297 -0.8518
   51MPD2    N1  788   3.387   2.497   0.881  0.2480 -0.5740 -0.2887
   51MPD2    H7  789   3.355   2.593   0.887 -0.8319 -1.0310  1.3319
   52TCq2    C1  790   3.601   2.738   1.294 -0.3020 -0.8568  0.2039
   52TCq2    O2  791   3.514   2.807   1.236  0.0350  0.5005  0.1043
   52TCq2    C2  792   3.654   2.796   1.412  0.1893  0.2309  0.8866
   52TCq2    C3  793   3.684   2.717   1.521  0.1161  0.5832  0.3950
   52TCq2    C4  794   3.696   2.773   1.644 -0.6710  0.6072  0.2499
   52TCq2    C5  795   3.687   2.910   1.652 -0.5281  0.8128  0.0007
   52TCq2    C6  796   3.660   2.992   1.544  0.2204 -0.0887  0.4685
   52TCq2    C7  797   3.650   2.934   1.421  0.0352  0.1572  0.1655
   52TCq2    C8  798   3.676   3.134   1.556 -0.5457 -0.6423  0.9147
   52TCq2    O4  799   3.711   3.172   1.663 -0.2861 -0.5324  0.3379
   52TCq2    C9  800   3.751   2.699   1.746 -0.1805 -0.0658  0.0221
   52TCq2    O5  801   3.723   2.576   1.743  0.3975 -0.6333  0.0431
   52TCq2    O6  802   3.812   2.753   1.842  0.0276 -0.2251  0.5715
   52TCq2    H2  803   3.703   2.610   1.509 -1.6478  0.1301  1.6344
   52TCq2    H3  804   3.706   2.966   1.743 -1.1894  0.8195  0.1313
   52TCq2    H4  805   3.641   2.982   1.324  1.3377 -1.4702 -0.7828
   53TMC2    C1  806   4.393   2.008  11.196  0.8381 -0.1776  0.4916
   53TMC2    C2  807   4.528   2.000  11.215  0.2458  0.2707  0.0788
   53TMC2    C3  808   4.577   2.041  11.332  0.4369  0.0659 -0.2345
   53TMC2    C4  809   4.320   2.044  11.308  0.2887 -0.5253  0.0343
   53TMC2    C5  810   4.377   2.069  11.430  1.2857 -0.5682  0.4891
   53TMC2    C6  811   4.507   2.078  11.449  0.3662 -0.6848  0.3334
   53TMC2     C  812   4.344   1.933  11.086  0.0424 -0.1654 -0.1241
   53TMC2     O  813   4.420   1.873  11.008 -0.2384 -0.1807  0.0665
   53TMC2     H  814   4.596   1.972  11.135  0.8484 -1.5076  1.2194
   53TMC2    H1  815   4.214   2.056  11.291  0.1576  1.5886  2.3358
   53TMC2    H2  816   4.563   2.116  11.534 -0.5534  1.5127 -0.0435
   53TMC2    C7  817   4.301   2.123  11.544  0.4860 -0.1927  0.6454
   53TMC2    C8  818   4.721   2.044  11.344 -0.0548 -0.7893  0.2829
   53TMC2    O1  819   4.195   2.178  11.520 -0.1333 -0.5563 -0.5381
   53TMC2    O2  820   0.052   2.142  11.401 -0.2545  0.0084 -0.4450
   53TMC2    O5  821   0.032   1.913  11.379 -0.5148  0.4728 -0.2513
   53TMC2    H5  822   4.696   1.844  11.343  1.5579 -2.1978  1.5150
   54MPD2     C  823   4.171   1.770  10.906  0.1374 -0.3796 -0.0407
   54MPD2    C1  824   4.127   1.884  10.980 -0.0249  0.3436 -0.3932
   54MPD2    C2  825   3.995   1.928  10.956  0.7795 -0.9342 -0.6973
   54MPD2    C3  826   3.911   1.868  10.861 -0.1016  0.1691 -0.3659
   54MPD2    C4  827   3.958   1.760  10.793 -0.8284 -0.8223  0.1799
   54MPD2    C5  828   4.086   1.713  10.813 -0.1810 -0.3087  0.4619
   54MPD2     H  829   3.956   2.008  11.018  2.2028 -1.0007  0.2794
   54MPD2    H1  830   3.898   1.693  10.732 -0.8572 -0.3939 -0.2554
   54MPD2    H2  831   4.269   1.728  10.928  1.2501  2.7799  1.0570
   54MPD2    H3  832   4.120   1.624  10.761 -0.1823  0.1622 -0.3637
   54MPD2     N  833   3.786   1.930  10.830  0.0424 -0.4160 -0.0684
   54MPD2    H5  834   3.738   1.885  10.753 -1.1474  1.5731 -0.4588
   54MPD2    N1  835   4.207   1.947  11.076 -0.2737 -0.2004  0.2276
   54MPD2    H7  836   4.166   2.021  11.132 -1.4831  0.2390 -1.2458
   55MPD2     C  837   0.001   0.770   0.121 -0.0571  0.2809 -0.3647
   55MPD2    C1  838   4.657   0.843   0.220 -0.4084 -0.1663 -0.0546
   55MPD2    C2  839   4.525   0.879   0.199  0.6084  0.3180  0.1517
   55MPD2    C3  840   4.456   0.838   0.093 -0.4506  0.1970  0.0472
   55MPD2    C4  841   4.521   0.769  17.683 -0.4261 -0.0785 -0.0070
   55MPD2    C5  842   4.653   0.727   0.010  0.3205  0.0483 -0.0764
   55MPD2     H  843   4.466   0.931   0.275  1.0999  0.7618  0.2286
   55MPD2    H1  844   4.468   0.724  17.600  1.3313 -2.9589  0.4487
   55MPD2    H2  845   0.108   0.749   0.120 -0.1447 -0.1741 -0.2496
   55MPD2    H3  846   4.698   0.669  17.622  0.1755 -0.7535  0.4271
   55MPD2     N  847   4.322   0.860   0.094  0.1133 -0.1613 -0.0487
   55MPD2    H5  848   4.288   0.908   0.177  0.1566 -1.5633  0.7757
   55MPD2    N1  849   0.014   0.897   0.325  0.1495  0.5045 -0.1873
   55MPD2    H7  850   0.108   0.860   0.323  1.2107  3.2723 -0.6713
   56TCq2    C1  851   4.691   0.982   0.416  0.3783  0.2951 -0.1647
   56TCq2    O2  852   4.582   1.035   0.435  0.1782  0.2788 -0.2292
   56TCq2    C2  853   0.068   0.995   0.520 -0.4639 -0.4956 -0.1086
   56TCq2    C3  854   0.203   0.994   0.495 -0.4594  1.1201 -0.4456
   56TCq2    C4  855   0.286   0.955   0.595  0.1398  0.2190 -0.2053
   56TCq2    C5  856   0.236   0.914   0.720 -0.4138 -0.0388  0.1449
   56TCq2    C6  857   0.100   0.910   0.736 -0.4227 -0.0923  0.0752
   56TCq2    C7  858   0.017   0.956   0.637  0.4041  0.6307 -0.3826
   56TCq2    C8  859   0.047   0.869   0.863  0.0692  0.6459  0.1234
   56TCq2    O4  860   0.117   0.878   0.961  0.1519 -0.3719  0.1077
   56TCq2    C9  861   0.429   0.967   0.570  0.1375 -0.1347  0.4771
   56TCq2    O5  862   0.508   0.948   0.664  0.4817  0.3379  0.5071
   56TCq2    O6  863   0.456   0.985   0.445 -0.3935 -0.8439 -0.1197
   56TCq2    H2  864   0.241   1.021   0.397  0.1192 -0.7306 -0.7246
   56TCq2    H3  865   0.309   0.886   0.796  0.2794  0.6623 -0.2706
   56TCq2    H4  866   4.632   0.950   0.653  0.3810  0.2200 -0.7093
   57TMC2    C1  867   3.768   0.542  13.204  0.2969 -0.2506 -0.0965
   57TMC2    C2  868   3.882   0.622  13.198 -0.1024 -0.5894  0.4361
   57TMC2    C3  869   3.992   0.566  13.133  0.6159 -0.5463 -0.1764
   57TMC2    C4  870   3.764   0.416  13.148 -0.3192 -0.6465  0.1357
   57TMC2    C5  871   3.875   0.368  13.093  0.0732  0.6854  0.1742
   57TMC2    C6  872   3.987   0.445  13.073  0.6545  0.0104  0.3026
   57TMC2     C  873   3.661   0.607  13.284 -0.7261  0.1691 -0.2154
   57TMC2     O  874   3.684   0.716  13.341  0.1893  0.7864 -0.1416
   57TMC2     H  875   3.885   0.715  13.253 -1.2100 -1.5156  2.0587
   57TMC2    H1  876   3.673   0.357  13.155  0.8436 -2.2017  2.2452
   57TMC2    H2  877   4.079   0.406  13.030  0.1889 -0.3853 -0.3219
   57TMC2    C7  878   3.884   0.218  13.066 -0.3664  0.5233  0.4551
   57TMC2    C8  879   4.108   0.657  13.130 -0.1534  0.4791 -0.1241
   57TMC2    O1  880   3.806   0.145  13.124  0.1277  0.3837  0.5808
   57TMC2    O2  881   4.104   0.773  13.165  0.1516  0.2882 -0.2660
   57TMC2    O5  882   4.212   0.574  13.162  0.0285  0.0898 -0.1637
   57TMC2    H5  883   4.203   0.477  13.159  2.3695 -0.0933 -0.7560
   58MPD2     C  884   3.190   0.634  13.471  0.1525 -0.4212  0.0879
   58MPD2    C1  885   3.301   0.721  13.497  0.2603 -0.0269  0.9841
   58MPD2    C2  886   3.423   0.684  13.436  0.2927 -1.1376  0.1430
   58MPD2    C3  887   3.434   0.575  13.358 -0.5283  0.0833 -0.2155
   58MPD2    C4  888   3.322   0.494  13.339  0.6115 -0.1576  0.8711
   58MPD2    C5  889   3.201   0.527  13.389 -0.0516  0.0369 -0.1677
   58MPD2     H  890   3.506   0.750  13.457 -1.2204  0.6482  0.5563
   58MPD2    H1  891   3.337   0.410  13.272 -2.4143 -0.0468  0.0922
   58MPD2    H2  892   3.088   0.655  13.501  0.3953  2.8761 -1.4391
   58MPD2    H3  893   3.113   0.474  13.355 -1.7829  3.3799 -0.9322
   58MPD2     N  894   3.545   0.538  13.283 -0.5061  0.7043 -0.7484
   58MPD2    H5  895   3.538   0.456  13.223  0.3784 -1.6993  2.4814
   58MPD2    N1  896   3.286   0.843  13.561  0.1030  0.0725  0.3843
   58MPD2    H7  897   3.367   0.904  13.563  0.3084 -0.2196  0.9578
   59MPD2     C  898   1.570   1.205  13.298 -0.2893  0.3709  0.2227
   59MPD2    C1  899   1.651   1.163  13.200  0.2162  0.4813  0.4412
   59MPD2    C2  900   1.786   1.217  13.195 -0.5631 -0.3615 -0.3487
   59MPD2    C3  901   1.826   1.324  13.282  0.2924 -0.5450 -0.1088
   59MPD2    C4  902   1.736   1.365  13.377  0.0840  0.6767  0.0440
   59MPD2    C5  903   1.616   1.300  13.389 -0.3776  0.2413 -0.0008
   59MPD2     H  904   1.845   1.182  13.112  0.7199  1.8065 -0.3702
   59MPD2    H1  905   1.760   1.436  13.456  0.9793  0.1566  0.2307
   59MPD2    H2  906   1.470   1.163  13.301  0.1871 -0.7555  0.4989
   59MPD2    H3  907   1.541   1.314  13.465  1.6485 -1.2335  2.2543
   59MPD2     N  908   1.953   1.381  13.286 -0.5073  0.8001 -0.2015
   59MPD2    H5  909   1.967   1.460  13.348  2.0174  0.3354 -0.1667
   59MPD2    N1  910   1.603   1.079  13.097 -0.5674  0.1298  0.3389
   59MPD2    H7  911   1.677   1.040  13.040 -1.8930 -0.8037 -0.7513
   60TCq2    C1  912   1.478   1.038  13.072  0.3912 -0.2662  0.2154
   60TCq2    O2  913   1.384   1.034  13.147  0.0364  0.1611  0.5269
   60TCq2    C2  914   1.478   0.958  12.957 -0.4660  0.1670  0.4841
   60TCq2    C3  915   1.383   0.860  12.951  0.1176 -0.8799 -0.2668
   60TCq2    C4  916   1.385   0.782  12.840  0.1169  0.6435 -0.1761
   60TCq2    C5  917   1.475   0.805  12.740 -0.6987 -0.2883 -0.0703
   60TCq2    C6  918   1.564   0.910  12.746  0.2600  0.1402 -0.2197
   60TCq2    C7  919   1.566   0.989  12.855  0.3556  0.2955  0.2001
   60TCq2    C8  920   1.640   0.943  12.629  0.3358 -0.6011  0.8228
   60TCq2    O4  921   1.662   0.855  12.549 -0.6940  0.2513  1.0761
   60TCq2    C9  922   1.283   0.684  12.829  0.6938  0.3001 -0.1674
   60TCq2    O5  923   1.254   0.642  12.714  0.0204 -0.6625 -0.0938
   60TCq2    O6  924   1.216   0.668  12.937  0.0589 -0.3127  0.4328
   60TCq2    H2  925   1.311   0.840  13.030  1.4759  1.0646  1.4524
   60TCq2    H3  926   1.481   0.743  12.651  2.1370 -1.0886  0.6536
   60TCq2    H4  927   1.639   1.069  12.863  0.6208 -0.0334  1.0331
   61MPD2     C  928   1.035   2.829  15.137  0.9972 -0.3318  0.2843
   61MPD2    C1  929   1.033   2.969  15.154  0.4090  0.4619  0.1039
   61MPD2    C2  930   1.044   3.050  15.045  0.0701 -0.1716 -0.5504
   61MPD2    C3  931   1.072   2.995  14.923 -0.4816 -0.1252 -0.6311
   61MPD2    C4  932   1.069   2.858  14.908  0.3071 -0.7228 -0.2627
   61MPD2    C5  933   1.036   2.778  15.011  0.6605 -0.6069 -0.3560
   61MPD2     H  934   1.047   3.158  15.050 -0.6213 -0.2400  1.3599
   61MPD2    H1  935   1.075   2.818  14.808  1.8166  0.9063 -0.8113
   61MPD2    H2  936   1.022   2.757  15.217  0.5716 -2.4025 -1.6779
   61MPD2    H3  937   1.029   2.673  14.987  0.3157 -0.6932  0.1325
   61MPD2     N  938   1.081   3.067  14.805 -0.6225  0.0319 -0.6217
   61MPD2    H5  939   1.076   3.021  14.715  3.2275 -1.9298  0.1406
   61MPD2    N1  940   1.007   3.031  15.281  0.8838  0.2455  0.2706
   61MPD2    H7  941   1.000   3.132  15.282 -1.2557  0.0955  0.9849
   62TCq2    C1  942   0.980   2.970  15.401  0.3806 -0.1843 -0.2836
   62TCq2    O2  943   0.949   2.851  15.421  0.2299 -0.0176 -1.3780
   62TCq2    C2  944   0.969   3.063  15.515 -0.4159 -0.6259  0.1595
   62TCq2    C3  945   0.877   3.033  15.609 -0.2432  0.5037  0.0909
   62TCq2    C4  946   0.808   3.134  15.670 -1.1640 -0.0973 -0.4281
   62TCq2    C5  947   0.840   3.264  15.652  0.4887  0.5075  0.4521
   62TCq2    C6  948   0.950   3.280  15.569  0.4937 -0.0162  0.7018
   62TCq2    C7  949   1.014   3.185  15.500  0.4402  0.6385 -0.6901
   62TCq2    C8  950   0.983   3.414  15.525  0.0385 -0.8203  0.2683
   62TCq2    O4  951   1.073   3.444  15.447 -0.1591  0.1029 -0.0297
   62TCq2    C9  952   0.696   3.097  15.750 -0.4624  1.0025 -0.4718
   62TCq2    O5  953   0.603   3.178  15.742  0.0710  0.2772 -0.0605
   62TCq2    O6  954   0.677   2.977  15.778 -0.3116  0.1154  0.4116
   62TCq2    H2  955   0.849   2.928  15.614  0.0787  0.3535 -1.1008
   62TCq2    H3  956   0.779   3.336  15.706 -1.6755 -1.3720  0.5008
   62TCq2    H4  957   1.085   3.196  15.419  0.8969  1.0140 -0.2301
   63TMC2    C1  958   1.022   2.092  10.832  0.2621  0.1114 -0.2332
   63TMC2    C2  959   1.095   2.082  10.947 -0.0388 -0.2081 -0.0656
   63TMC2    C3  960   1.224   2.130  10.949 -0.1056 -0.7164  0.1267
   63TMC2    C4  961   1.080   2.148  10.718  0.2233 -0.2429 -0.4335
   63TMC2    C5  962   1.208   2.191  10.721 -0.1069 -0.5256 -0.1673
   63TMC2    C6  963   1.281   2.177  10.838 -0.3742 -0.6862 -0.6638
   63TMC2     C  964   0.887   2.039  10.822  0.0269 -0.3198 -0.5543
   63TMC2     O  965   0.805   2.045  10.916 -0.0048 -0.8585 -0.3381
   63TMC2     H  966   1.051   2.040  11.036  0.9834 -2.3060 -0.5685
   63TMC2    H1  967   1.022   2.156  10.627 -0.4419  1.0110  0.1053
   63TMC2    H2  968   1.382   2.215  10.846 -0.7301 -0.4627  2.7763
   63TMC2    C7  969   1.264   2.259  10.611  1.1620 -0.0729  0.4852
   63TMC2    C8  970   1.309   2.089  11.054  0.5085 -0.7184  0.7453
   63TMC2    O1  971   1.193   2.321  10.530 -0.0844  0.2297  0.1199
   63TMC2    O2  972   1.426   2.071  11.041 -0.5590 -0.4319 -0.1327
   63TMC2    O5  973   1.243   2.111  11.167 -0.0541  0.3630  0.6467
   63TMC2    H5  974   1.156   2.154  11.154 -0.0464  0.5907  1.3350
   64MPD2     C  975   0.591   1.695  10.580  0.0116 -0.1568  0.3054
   64MPD2    C1  976   0.707   1.714  10.505  1.0301  0.5389  0.4398
   64MPD2    C2  977   0.796   1.814  10.546 -0.0275 -0.2953  0.0691
   64MPD2    C3  978   0.769   1.892  10.658  0.8058 -0.0102  0.2270
   64MPD2    C4  979   0.648   1.873  10.728  0.3973 -0.4712 -0.9405
   64MPD2    C5  980   0.567   1.771  10.689  0.1159 -0.9648  0.0236
   64MPD2     H  981   0.887   1.830  10.489 -0.7565 -0.6294 -1.1870
   64MPD2    H1  982   0.619   1.924  10.819  1.9167  1.0981 -1.3421
   64MPD2    H2  983   0.520   1.616  10.562  2.0129 -1.9287  0.2144
   64MPD2    H3  984   0.478   1.749  10.746  0.3762  2.2662  1.7151
   64MPD2     N  985   0.872   1.975  10.702  0.5754  0.2607  0.3731
   64MPD2    H5  986   0.955   1.973  10.643  1.1223 -1.1677  1.1794
   64MPD2    N1  987   0.745   1.634  10.386 -0.2796  0.0528 -0.1459
   64MPD2    H7  988   0.837   1.651  10.346 -0.8857  3.3054 -0.2078
   65MPD2     C  989   1.205   2.233  15.467  0.3710 -0.2896 -0.3920
   65MPD2    C1  990   1.171   2.239  15.330  0.6036  0.0348  0.1897
   65MPD2    C2  991   1.105   2.139  15.260  0.5795 -0.3016  0.1170
   65MPD2    C3  992   1.061   2.027  15.329 -0.0076  1.1149  0.5216
   65MPD2    C4  993   1.071   2.036  15.471  0.0033 -0.9508 -0.1044
   65MPD2    C5  994   1.137   2.134  15.536 -0.1006 -0.5290  0.8809
   65MPD2     H  995   1.093   2.153  15.153  1.0174 -2.1683 -0.1790
   65MPD2    H1  996   1.038   1.954  15.535  1.6746 -2.2468 -0.9047
   65MPD2    H2  997   1.263   2.303  15.526 -3.7799  2.2283  0.7595
   65MPD2    H3  998   1.132   2.133  15.645 -0.8945 -1.2519  0.8379
   65MPD2     N  999   0.994   1.915  15.259  0.4576  0.7538 -0.5339
   65MPD2    H5 1000   0.948   1.847  15.319 -1.3372  3.2608  0.9102
   65MPD2    N1 1001   1.209   2.350  15.254  0.6339 -0.1230 -0.3022
   65MPD2    H7 1002   1.203   2.345  15.153  0.8042  1.2071 -0.3816
   66TCq2    C1 1003   1.240   2.474  15.308  0.6712  0.4902  0.0363
   66TCq2    O2 1004   1.234   2.505  15.424 -0.0270 -0.0197 -0.4809
   66TCq2    C2 1005   1.302   2.576  15.214 -0.4002  0.5746  0.0764
   66TCq2    C3 1006   1.338   2.529  15.092 -0.3559  0.2039  0.5410
   66TCq2    C4 1007   1.390   2.622  15.008  0.1618 -0.0899  0.2349
   66TCq2    C5 1008   1.424   2.749  15.049 -0.3039  0.5299 -0.2111
   66TCq2    C6 1009   1.382   2.787  15.173  0.2397 -0.3070  0.5727
   66TCq2    C7 1010   1.324   2.706  15.263 -0.0330 -0.5488 -0.9912
   66TCq2    C8 1011   1.429   2.924  15.214 -0.7655  0.2748  0.3614
   66TCq2    O4 1012   1.489   2.998  15.139  0.7153  0.1068  0.2985
   66TCq2    C9 1013   1.426   2.582  14.878  0.6285  0.2023  0.7828
   66TCq2    O5 1014   1.435   2.458  14.851 -0.0810  0.3525  0.4690
   66TCq2    O6 1015   1.459   2.680  14.801  0.2380  0.1715 -0.5690
   66TCq2    H2 1016   1.317   2.428  15.057 -0.3330  0.3362  0.1360
   66TCq2    H3 1017   1.463   2.825  14.982 -0.2505 -0.9003 -1.8039
   66TCq2    H4 1018   1.289   2.728  15.363  1.4637 -1.1483 -0.3378
   67MPD2     C 1019   1.660   1.735  13.678 -0.3898  0.2477  0.8683
   67MPD2    C1 1020   1.582   1.745  13.796  0.2284 -0.5436 -0.0561
   67MPD2    C2 1021   1.452   1.686  13.799 -0.3078  0.6302 -0.7248
   67MPD2    C3 1022   1.405   1.615  13.693  0.1492  0.4507  0.1325
   67MPD2    C4 1023   1.491   1.600  13.586  0.5425 -0.2770 -0.5445
   67MPD2    C5 1024   1.617   1.657  13.578  0.1729 -0.8156  0.3434
   67MPD2     H 1025   1.391   1.694  13.888  0.8795  1.5998  0.0027
   67MPD2    H1 1026   1.455   1.536  13.506  0.0518  0.8218 -1.2013
   67MPD2    H2 1027   1.755   1.788  13.668 -0.9393  1.0925  0.1614
   67MPD2    H3 1028   1.688   1.630  13.501  0.1506 -1.2174  0.4636
   67MPD2     N 1029   1.280   1.544  13.700  0.5433  0.3615  0.2416
   67MPD2    H5 1030   1.247   1.489  13.621  0.5014  1.7821 -0.7258
   67MPD2    N1 1031   1.625   1.826  13.905 -0.2521 -0.6169  0.4847
   67MPD2    H7 1032   1.567   1.844  13.986 -2.3989  0.4874 -1.2954
   68TCq2    C1 1033   1.760   1.852  13.932  0.0162  0.0660 -0.1741
   68TCq2    O2 1034   1.855   1.786  13.896  0.5252 -0.5320  0.8384
   68TCq2    C2 1035   1.779   1.945  14.038  0.3520 -0.1156 -0.2446
   68TCq2    C3 1036   1.695   2.050  14.049 -0.1033 -0.1162  1.1280
   68TCq2    C4 1037   1.716   2.136  14.152  0.3966 -0.2610  0.0423
   68TCq2    C5 1038   1.801   2.105  14.253  0.3333  0.2074 -0.0588
   68TCq2    C6 1039   1.878   1.989  14.245 -0.4618 -0.3663 -0.3456
   68TCq2    C7 1040   1.867   1.915  14.131  0.6409 -0.1076  0.2541
   68TCq2    C8 1041   1.905   1.910  14.367 -0.1357 -0.5421 -0.1288
   68TCq2    O4 1042   1.956   1.798  14.358 -0.3213  0.1223 -0.2869
   68TCq2    C9 1043   1.639   2.260  14.175  0.8105 -0.9415  0.6118
   68TCq2    O5 1044   1.544   2.278  14.097  0.5583 -0.1011  0.5813
   68TCq2    O6 1045   1.644   2.305  14.288  0.5998 -0.3817 -0.0064
   68TCq2    H2 1046   1.610   2.069  13.985  1.5005 -3.2938 -1.9182
   68TCq2    H3 1047   1.803   2.171  14.339 -0.6847 -1.1936  1.0281
   68TCq2    H4 1048   1.917   1.820  14.111  1.2581 -0.3526  2.9268
   69TMC2    C1 1049   3.954   2.820  12.412 -0.6955  0.2507 -0.1899
   69TMC2    C2 1050   3.924   2.955  12.429 -0.3356 -0.0698 -0.3435
   69TMC2    C3 1051   3.938   3.031  12.313 -0.1751  0.3329  0.0660
   69TMC2    C4 1052   3.985   2.766  12.293 -0.2512  0.2309  0.3885
   69TMC2    C5 1053   3.982   2.843  12.181  0.4199 -0.4546  0.3785
   69TMC2    C6 1054   3.964   2.975  12.190 -0.4954  0.0241 -0.5442
   69TMC2     C 1055   3.930   2.727  12.520  0.1948 -0.1553 -0.4402
   69TMC2     O 1056   3.906   2.606  12.489 -0.0843 -0.1075  0.5406
   69TMC2     H 1057   3.878   2.998  12.517 -0.6513 -1.5341  0.2047
   69TMC2    H1 1058   3.993   2.658  12.286  3.1476  0.4463  0.9393
   69TMC2    H2 1059   4.004   3.031  12.107  2.0587  0.8993  1.2647
   69TMC2    C7 1060   4.042   2.785  12.062  0.9415 -0.0901  0.1275
   69TMC2    C8 1061   3.938   3.170  12.321 -0.2997  0.0279  0.3476
   69TMC2    O1 1062   4.104   2.685  12.082 -0.4921 -0.0920 -0.5573
   69TMC2    O2 1063   3.941   3.247  12.224 -0.5698 -0.4289  0.1569
   69TMC2    O5 1064   4.014   3.184  12.430 -0.3063 -0.0744  0.4312
   69TMC2    H5 1065   4.020   3.107  12.490 -0.4327  0.4050  1.0555
   70MPD2     C 1066   3.984   2.760  12.887  0.0105  0.6442  0.4889
   70MPD2    C1 1067   3.958   2.695  12.767  0.5717  0.5341  0.1361
   70MPD2    C2 1068   3.926   2.555  12.769  0.6773 -0.6727 -0.0717
   70MPD2    C3 1069   3.943   2.479  12.885  0.1860 -0.1056  0.0142
   70MPD2    C4 1070   4.001   2.542  12.993 -0.3327 -0.1306 -0.5019
   70MPD2    C5 1071   4.017   2.681  12.989 -0.0327  0.4817  0.1755
   70MPD2     H 1072   3.883   2.504  12.683  1.6589 -2.2513  0.3837
   70MPD2    H1 1073   4.033   2.499  13.087  2.2872  2.5444 -0.1485
   70MPD2    H2 1074   3.999   2.867  12.885 -0.9411  0.7713  0.0757
   70MPD2    H3 1075   4.052   2.733  13.078 -0.1831 -0.0921  0.5739
   70MPD2     N 1076   3.935   2.341  12.886  0.0094 -1.3390 -0.3282
   70MPD2    H5 1077   3.983   2.299  12.965  1.1487 -0.9291 -0.8068
   70MPD2    N1 1078   3.948   2.775  12.649 -0.4210  0.0409 -0.1337
   70MPD2    H7 1079   3.986   2.869  12.656  1.7289 -0.9527  1.7403
   71TMC2    C1 1080   0.916   4.533   2.134  0.4303 -0.3857 -0.6133
   71TMC2    C2 1081   1.001   4.593   2.222 -0.6854 -0.3363  0.1230
   71TMC2    C3 1082   0.952   4.615   2.348  0.0848 -0.5758 -0.3546
   71TMC2    C4 1083   0.792   4.491   2.164 -0.9172 -0.3656  0.2522
   71TMC2    C5 1084   0.753   4.501   2.291  0.5955 -0.5191 -0.6066
   71TMC2    C6 1085   0.828   4.573   2.389  0.8047  0.7514 -0.2368
   71TMC2     C 1086   0.954   4.506   1.995 -0.0413  0.4987  0.0463
   71TMC2     O 1087   0.866   4.493   1.908  0.9064 -0.2269 -0.1697
   71TMC2     H 1088   1.104   4.624   2.207 -1.4839  1.3880 -1.7839
   71TMC2    H1 1089   0.726   4.455   2.086 -0.3884  0.6005 -0.6448
   71TMC2    H2 1090   0.796   4.570   2.492  0.6128  2.9592 -0.2199
   71TMC2    C7 1091   0.621   4.450   2.330 -0.8063  0.1534  0.0236
   71TMC2    C8 1092   1.042   4.685   2.444  0.3941 -0.3448  0.2109
   71TMC2    O1 1093   0.583   4.511   2.428 -0.6416 -0.1637 -0.2910
   71TMC2    O2 1094   1.159   4.719   2.433 -0.2672  0.4671 -1.0593
   71TMC2    O5 1095   0.974   0.021   2.542  0.2129  0.7940  0.6895
   71TMC2    H5 1096   0.878   0.003   2.548 -0.0046  2.2123  1.4846
   72MPD2     C 1097   1.323   4.440   1.641 -0.1299  0.6419  0.0799
   72MPD2    C1 1098   1.190   4.428   1.630 -0.4284  0.4565 -0.0911
   72MPD2    C2 1099   1.114   4.451   1.747 -0.2501  0.1848 -0.0386
   72MPD2    C3 1100   1.168   4.476   1.872 -0.5716  0.6090  0.2714
   72MPD2    C4 1101   1.306   4.482   1.880  0.5812  0.1266 -0.2884
   72MPD2    C5 1102   1.383   4.462   1.767 -0.0728 -0.0350  0.1422
   72MPD2     H 1103   1.007   4.440   1.736 -0.1671  0.6143 -1.4029
   72MPD2    H1 1104   1.356   4.512   1.971 -0.0493 -0.9550  0.4234
   72MPD2    H2 1105   1.383   4.429   1.551  0.7230  1.0166  0.6048
   72MPD2    H3 1106   1.489   4.484   1.771  0.4361 -2.3787 -0.7624
   72MPD2     N 1107   1.089   4.493   1.989 -1.0512 -0.0901  0.3886
   72MPD2    H5 1108   1.141   4.510   2.074 -1.9677 -2.1561  1.3703
   72MPD2    N1 1109   1.133   4.398   1.502  0.6725  0.5990  0.1840
   72MPD2    H7 1110   1.032   4.408   1.495  0.6053 -0.6200 -0.5914
   73TMC2    C1 1111   0.946   0.343  13.614  0.2853  0.6270 -0.0675
   73TMC2    C2 1112   0.820   0.372  13.671 -0.5951 -0.2078 -0.1967
   73TMC2    C3 1113   0.802   0.348  13.805  0.0789 -0.7097  0.7720
   73TMC2    C4 1114   1.035   0.270  13.689  0.6403  0.0723  0.8838
   73TMC2    C5 1115   1.020   0.248  13.823  0.3140  0.1030 -0.1130
   73TMC2    C6 1116   0.904   0.286  13.882 -0.1707  0.0831 -0.0053
   73TMC2     C 1117   1.021   0.453  13.557  0.0254 -0.3160  1.0573
   73TMC2     O 1118   1.137   0.463  13.595  0.4803  0.4951  0.5526
   73TMC2     H 1119   0.740   0.427  13.624  0.6660  3.1143  1.5471
   73TMC2    H1 1120   1.132   0.245  13.647 -0.8740 -0.9502 -1.9849
   73TMC2    H2 1121   0.892   0.272  13.989 -1.4900 -0.8234 -0.2741
   73TMC2    C7 1122   1.145   0.268  13.899 -0.0096  0.7035  0.6921
   73TMC2    C8 1123   0.672   0.333  13.849  0.2209 -0.3295 -0.5011
   73TMC2    O1 1124   1.154   0.226  14.012  0.1013 -0.6634  0.2044
   73TMC2    O2 1125   0.575   0.321  13.773 -0.2750  0.2299 -0.3222
   73TMC2    O5 1126   0.672   0.356  13.979  0.1078  0.0449 -0.1735
   73TMC2    H5 1127   0.757   0.382  14.021 -0.8973  0.2292  1.7349
   74MPD2     C 1128   1.131   0.833  13.241  0.7982 -0.4075  0.2294
   74MPD2    C1 1129   1.175   0.807  13.368  0.2410  0.5017 -0.5877
   74MPD2    C2 1130   1.120   0.703  13.447 -0.9288 -0.2512  0.0371
   74MPD2    C3 1131   1.008   0.641  13.396 -0.0861 -0.5071 -0.5720
   74MPD2    C4 1132   0.965   0.675  13.270 -0.1261 -0.0183  0.7401
   74MPD2    C5 1133   1.023   0.767  13.196 -0.2671  0.4262 -0.0615
   74MPD2     H 1134   1.155   0.685  13.547 -1.2039 -0.3031  0.1258
   74MPD2    H1 1135   0.884   0.619  13.224  0.1412 -2.2132  2.9121
   74MPD2    H2 1136   1.162   0.919  13.182 -0.9394  1.2879  1.7770
   74MPD2    H3 1137   0.980   0.802  13.103 -1.2475  0.6321  0.4635
   74MPD2     N 1138   0.949   0.532  13.467  0.1659  0.4282  0.2419
   74MPD2    H5 1139   0.859   0.502  13.431  0.4728 -0.9680  0.6218
   74MPD2    N1 1140   1.291   0.870  13.409 -0.2668 -0.5373  0.3331
   74MPD2    H7 1141   1.324   0.937  13.340  0.2420 -0.8954  0.2282
   75TCq2    C1 1142   1.193   1.544  13.810  0.2717  1.0153 -0.0062
   75TCq2    O2 1143   1.218   1.587  13.922 -0.7935 -0.6914 -0.2912
   75TCq2    C2 1144   1.064   1.490  13.784 -0.2475 -0.7421  0.3387
   75TCq2    C3 1145   0.987   1.472  13.897 -0.2446  0.0925 -0.3831
   75TCq2    C4 1146   0.863   1.425  13.871  0.2387  0.5110  0.2906
   75TCq2    C5 1147   0.822   1.373  13.748 -0.1523 -0.0832 -0.0954
   75TCq2    C6 1148   0.905   1.396  13.640 -0.4602  0.7698 -0.5430
   75TCq2    C7 1149   1.029   1.458  13.653  0.0198 -0.2566  0.2061
   75TCq2    C8 1150   0.853   1.352  13.508  0.5868  0.6655 -0.4243
   75TCq2    O4 1151   0.932   1.333  13.418  0.4720 -0.1553  0.1003
   75TCq2    C9 1152   0.775   1.416  13.986  0.3874 -0.7134 -0.2154
   75TCq2    O5 1153   0.654   1.397  13.969  0.4838  0.3226  0.7827
   75TCq2    O6 1154   0.819   1.457  14.096 -0.7805  0.1754  0.2116
   75TCq2    H2 1155   1.009   1.515  13.994 -0.9589 -1.0874  0.3068
   75TCq2    H3 1156   0.725   1.326  13.750 -0.7139  1.1257  1.3692
   75TCq2    H4 1157   1.100   1.463  13.571 -1.1835 -1.2929 -0.9060
   76MPD2     C 1158   0.325   2.269  11.784 -0.0252 -0.0444  0.3235
   76MPD2    C1 1159   0.261   2.219  11.671  1.3801  1.2196  0.1454
   76MPD2    C2 1160   0.320   2.108  11.605 -0.6397  0.0838 -0.0616
   76MPD2    C3 1161   0.438   2.058  11.652 -0.1293  0.2332 -0.1086
   76MPD2    C4 1162   0.500   2.106  11.766  0.1184 -0.3815  0.7090
   76MPD2    C5 1163   0.438   2.208  11.828  0.0143 -0.3585 -0.1934
   76MPD2     H 1164   0.279   2.064  11.515  0.5471  1.7749 -1.4530
   76MPD2    H1 1165   0.591   2.065  11.810 -1.7718 -3.5243  1.6588
   76MPD2    H2 1166   0.305   2.362  11.835 -0.5072 -0.2241  0.4638
   76MPD2    H3 1167   0.490   2.242  11.917  1.6501  0.1952 -1.3637
   76MPD2     N 1168   0.506   1.953  11.593 -0.4541  0.5881  0.4569
   76MPD2    H5 1169   0.580   1.909  11.647  0.8444  1.6072 -0.4748
   76MPD2    N1 1170   0.141   2.278  11.619 -0.9134  0.0372 -0.6178
   76MPD2    H7 1171   0.100   2.234  11.538 -0.1991 -1.4180 -0.1834
   77TCq2    C1 1172   0.487   1.908  11.459 -0.4408  0.0978 -0.3612
   77TCq2    O2 1173   0.414   1.953  11.373  0.0662 -0.0631  0.0468
   77TCq2    C2 1174   0.556   1.781  11.435  0.2396  0.2088  0.5059
   77TCq2    C3 1175   0.527   1.710  11.323 -0.0094 -0.5502  0.6716
   77TCq2    C4 1176   0.597   1.598  11.297 -0.2319 -0.1236 -0.2584
   77TCq2    C5 1177   0.686   1.549  11.393  0.5792  0.5200 -0.4201
   77TCq2    C6 1178   0.721   1.627  11.499 -0.0919  1.1516  0.4879
   77TCq2    C7 1179   0.655   1.747  11.514 -0.6359  0.0065 -0.2823
   77TCq2    C8 1180   0.851   1.613  11.554  0.7457 -0.0086  0.6251
   77TCq2    O4 1181   0.923   1.532  11.495 -0.8936  0.2197 -0.0487
   77TCq2    C9 1182   0.556   1.523  11.174  0.5831  0.1203  0.2722
   77TCq2    O5 1183   0.601   1.403  11.156  0.5612  1.0650 -0.2528
   77TCq2    O6 1184   0.478   1.580  11.093 -0.1478 -0.1918 -0.0846
   77TCq2    H2 1185   0.449   1.743  11.255 -0.2544 -1.0200  0.7225
   77TCq2    H3 1186   0.727   1.451  11.373  1.7475  1.0661 -0.7038
   77TCq2    H4 1187   0.705   1.818  11.579 -1.3426 -0.7486  1.0777
   78MPD1     C 1188   0.854   1.307   2.408 -0.3834 -0.5916  0.0941
   78MPD1    C1 1189   0.881   1.431   2.446  0.0319  0.5167  0.0730
   78MPD1    C2 1190   0.833   1.541   2.371 -0.9234  0.1277  0.0368
   78MPD1    C3 1191   0.753   1.516   2.260 -0.0000 -0.1622 -0.5715
   78MPD1    C4 1192   0.725   1.385   2.228 -0.2769 -0.3942  0.2420
   78MPD1    C5 1193   0.775   1.282   2.299 -0.2381  0.1080 -0.2708
   78MPD1     H 1194   0.854   1.642   2.405  1.1795 -0.3905  0.2391
   78MPD1    H1 1195   0.662   1.352   2.146 -1.0871 -0.9587  1.0761
   78MPD1    H2 1196   0.898   1.227   2.468 -1.1729  0.5106  2.1357
   78MPD1    H3 1197   0.760   1.179   2.268  1.3782  0.2024 -1.3621
   78MPD1     N 1198   0.695   1.614   2.182 -0.2547 -0.0627 -0.0780
   78MPD1    H5 1199   0.646   1.587   2.098 -2.1766 -0.4801  1.1972
   78MPD1    N1 1200   0.973   1.456   2.543 -0.2509  0.3261  0.0722
   78MPD1    H6 1201   0.967   1.391   2.621  1.9501 -1.5042 -1.2632
   78MPD1    H7 1202   0.960   1.545   2.590  0.5254 -0.3933  1.6382
   79TCq2    C1 1203   0.701   1.751   2.205  0.8078 -0.1505  0.3048
   79TCq2    O2 1204   0.746   1.808   2.300  0.5815  0.0711 -0.1924
   79TCq2    C2 1205   0.670   1.827   2.085  0.5292 -0.7744 -0.3939
   79TCq2    C3 1206   0.578   1.774   1.996 -0.0196  0.1043  0.1546
   79TCq2    C4 1207   0.594   1.817   1.864  0.1969  0.0732 -0.1466
   79TCq2    C5 1208   0.688   1.915   1.835 -0.1495  0.4362  0.4915
   79TCq2    C6 1209   0.777   1.962   1.931  0.3282  0.0681 -0.4702
   79TCq2    C7 1210   0.765   1.924   2.056  0.4876  0.2479  0.2364
   79TCq2    C8 1211   0.892   2.045   1.905 -0.5623 -0.4055  0.3690
   79TCq2    O4 1212   0.973   2.062   1.991  0.1236  0.0643  0.8152
   79TCq2    C9 1213   0.519   1.759   1.744 -0.0522  0.0738 -0.3289
   79TCq2    O5 1214   0.544   1.801   1.625  0.2684 -0.0379  0.1505
   79TCq2    O6 1215   0.436   1.669   1.769 -0.4073  0.8557 -0.4364
   79TCq2    H2 1216   0.506   1.704   2.036 -0.3270  0.7392  0.7116
   79TCq2    H3 1217   0.712   1.935   1.731  0.3246 -0.0159  0.5151
   79TCq2    H4 1218   0.820   1.981   2.131 -1.2093  0.3333  1.4147
   80MPD2     C 1219   4.043   1.753  11.745 -0.3426  0.0772  0.5312
   80MPD2    C1 1220   3.991   1.757  11.615 -0.1748 -0.4126 -0.1479
   80MPD2    C2 1221   3.855   1.774  11.593  0.3202  0.9106 -0.2644
   80MPD2    C3 1222   3.776   1.808  11.705 -0.4073 -0.4243 -0.6496
   80MPD2    C4 1223   3.833   1.833  11.832  0.4986  0.3598 -0.8212
   80MPD2    C5 1224   3.963   1.800  11.849 -0.4942  0.1370 -0.4129
   80MPD2     H 1225   3.807   1.761  11.497 -2.1087  1.7458  0.8178
   80MPD2    H1 1226   3.775   1.880  11.911  0.7201 -1.7204  0.5676
   80MPD2    H2 1227   4.145   1.729  11.773 -0.5194 -0.7235  0.4904
   80MPD2    H3 1228   4.006   1.811  11.948 -0.6017  0.2976 -0.3829
   80MPD2     N 1229   3.635   1.822  11.700  0.3499 -0.1679 -0.1012
   80MPD2    H5 1230   3.592   1.837  11.791 -1.6075 -1.0812 -0.8852
   80MPD2    N1 1231   4.063   1.704  11.505  0.2155  0.1761 -0.6559
   80MPD2    H7 1232   4.012   1.680  11.420 -0.0278 -0.0679 -0.4384
   81TCq2    C1 1233   4.203   1.707  11.500 -0.6584  0.2243 -0.0772
   81TCq2    O2 1234   4.285   1.761  11.577 -0.7470 -0.2112  0.8191
   81TCq2    C2 1235   4.254   1.655  11.365  0.2347 -0.5811 -0.4613
   81TCq2    C3 1236   4.388   1.668  11.345 -0.5114 -0.0288  0.0460
   81TCq2    C4 1237   4.436   1.610  11.233 -0.8614  0.7370 -0.4833
   81TCq2    C5 1238   4.360   1.540  11.140 -0.6839  0.4636  0.1916
   81TCq2    C6 1239   4.230   1.533  11.166  0.0785  0.1713 -1.0365
   81TCq2    C7 1240   4.172   1.584  11.275 -0.0790  0.3582  1.0584
   81TCq2    C8 1241   4.158   1.429  11.085 -0.1497 -0.6664  0.3500
   81TCq2    O4 1242   4.197   1.419  10.968  0.4293  0.1730 -0.0037
   81TCq2    C9 1243   4.574   1.624  11.204 -0.3158 -0.5857  0.3064
   81TCq2    O5 1244   4.638   1.719  11.261 -0.3162  0.3165 -0.2643
   81TCq2    O6 1245   4.607   1.564  11.102  0.2784  0.0271  0.2529
   81TCq2    H2 1246   4.455   1.716  11.415 -1.0304  0.7719 -0.0069
   81TCq2    H3 1247   4.395   1.505  11.044  0.9491 -0.2439  1.0231
   81TCq2    H4 1248   4.064   1.585  11.283  0.0970  1.1193  3.4521
   82MPD2     C 1249   2.446   0.755  10.318  0.7318  0.4195 -0.0281
   82MPD2    C1 1250   2.350   0.676  10.381 -0.1984 -0.0444 -0.3789
   82MPD2    C2 1251   2.388   0.597  10.491 -0.7929 -0.1062 -0.2827
   82MPD2    C3 1252   2.517   0.591  10.539 -0.3817  0.3038 -0.2166
   82MPD2    C4 1253   2.614   0.672  10.478 -0.2676  0.1181 -0.3434
   82MPD2    C5 1254   2.573   0.755  10.375 -0.9786  0.3090 -0.0876
   82MPD2     H 1255   2.312   0.527  10.524 -1.5338  1.3879  1.1581
   82MPD2    H1 1256   2.718   0.668  10.507 -0.3260  1.8797  0.1300
   82MPD2    H2 1257   2.435   0.807  10.223 -0.9996 -1.5536 -0.9080
   82MPD2    H3 1258   2.655   0.816  10.340 -0.7396 -0.0943 -0.2356
   82MPD2     N 1259   2.563   0.511  10.646 -0.1629  0.2516 -0.2769
   82MPD2    H5 1260   2.661   0.519  10.673 -0.0433 -1.0820 -0.2924
   82MPD2    N1 1261   2.233   0.661  10.301  0.1026 -0.4004  0.4129
   82MPD2    H7 1262   2.219   0.716  10.218  0.5942 -0.3625  0.3532
   83TCq2    C1 1263   2.490   0.415  10.715  0.1948  0.1391 -0.1986
   83TCq2    O2 1264   2.371   0.383  10.701 -0.0620  0.5315  0.4151
   83TCq2    C2 1265   2.578   0.329  10.796 -0.0083  0.1244 -0.2485
   83TCq2    C3 1266   2.694   0.383  10.849 -0.0068 -0.0517  0.8400
   83TCq2    C4 1267   2.739   0.328  10.966 -0.3845 -0.0984 -0.0602
   83TCq2    C5 1268   2.669   0.223  11.023 -0.3294 -0.0357 -0.1862
   83TCq2    C6 1269   2.565   0.161  10.957 -0.5919  0.0291 -0.0591
   83TCq2    C7 1270   2.517   0.220  10.846  0.2810 -0.9558  0.0688
   83TCq2    C8 1271   2.473   0.077  11.039  0.0665 -0.1093  0.2627
   83TCq2    O4 1272   2.468   0.103  11.158  0.3880 -0.2201 -0.2431
   83TCq2    C9 1273   2.846   0.391  11.039  0.5167 -0.0856  0.0833
   83TCq2    O5 1274   2.868   0.334  11.146 -0.3076 -0.4166 -0.0690
   83TCq2    O6 1275   2.918   0.481  10.985  0.1366  0.2536  0.1491
   83TCq2    H2 1276   2.749   0.469  10.812 -1.9938  0.3666 -1.1083
   83TCq2    H3 1277   2.688   0.189  11.125  2.3291 -0.9628 -0.9903
   83TCq2    H4 1278   2.433   0.179  10.792 -0.5785 -0.4206  0.9909
   84TCq2    C1 1279   4.044   4.575  10.503  0.0660 -0.2299 -0.0922
   84TCq2    O2 1280   3.946   4.624  10.449  0.3051 -0.0571  0.9519
   84TCq2    C2 1281   4.046   4.584  10.650  0.1318 -0.9569 -0.4235
   84TCq2    C3 1282   4.131   4.506  10.719  0.2220 -0.3127 -0.1065
   84TCq2    C4 1283   4.102   4.464  10.846 -0.9583 -0.7469  0.4670
   84TCq2    C5 1284   3.985   4.505  10.894  0.3100 -0.2186 -0.0984
   84TCq2    C6 1285   3.913   4.601  10.833  0.5600  0.6573  0.5933
   84TCq2    C7 1286   3.943   4.647  10.709  0.2765  0.3167 -0.9464
   84TCq2    C8 1287   3.796   4.657  10.904 -0.4074 -0.7701  0.7871
   84TCq2    O4 1288   3.720   0.008  10.845  0.3978  0.6344 -0.0461
   84TCq2    C9 1289   4.196   4.376  10.914  0.1098 -0.1141  0.0263
   84TCq2    O5 1290   4.296   4.342  10.845 -0.4244 -0.3926 -0.4872
   84TCq2    O6 1291   4.145   4.317  11.015 -0.1331  0.5874 -0.1566
   84TCq2    H2 1292   4.217   4.456  10.677  0.2391 -0.7661  0.4670
   84TCq2    H3 1293   3.957   4.461  10.990  0.7054  2.4098  1.2180
   84TCq2    H4 1294   3.870   4.709  10.658  1.3041  2.1498 -0.2127
   85MPD2     C 1295   3.304   3.153  16.354 -0.0044  0.7298 -0.4480
   85MPD2    C1 1296   3.272   3.121  16.225  1.0304 -0.1575  0.1156
   85MPD2    C2 1297   3.297   3.215  16.123  0.0807 -0.4634  0.4742
   85MPD2    C3 1298   3.344   3.343  16.154  0.2718  0.2088  0.3833
   85MPD2    C4 1299   3.370   3.373  16.288  0.7815 -0.3518 -0.7788
   85MPD2    C5 1300   3.343   3.278  16.385  0.2588 -0.8924  0.2864
   85MPD2     H 1301   3.268   3.182  16.024  1.1219  0.1014 -0.0126
   85MPD2    H1 1302   3.416   3.468  16.313  0.5189 -0.3017 -0.4835
   85MPD2    H2 1303   3.303   3.088  16.441 -1.6631 -1.9892 -2.4920
   85MPD2    H3 1304   3.370   3.305  16.486  0.8121 -0.4946  0.0338
   85MPD2     N 1305   3.377   3.425  16.050  0.5816 -0.8165 -0.0891
   85MPD2    H5 1306   3.338   3.408  15.959  1.6703  2.2621 -1.1291
   85MPD2    N1 1307   3.209   2.998  16.192 -0.6061  0.4337 -0.2550
   85MPD2    H7 1308   3.175   2.979  16.099  1.7020  2.6513 -1.5561
   86TCq2    C1 1309   3.468   3.531  16.057  0.4929 -0.4109 -0.6169
   86TCq2    O2 1310   3.553   3.563  16.140  0.3167 -0.1635  0.3284
   86TCq2    C2 1311   3.480   3.596  15.924  0.4264 -0.0774 -0.0854
   86TCq2    C3 1312   3.389   3.577  15.832  0.2794  0.4208  0.8857
   86TCq2    C4 1313   3.422   3.628  15.708  0.9692 -0.0082  0.0108
   86TCq2    C5 1314   3.541   3.681  15.674  0.1094  0.4784  0.2281
   86TCq2    C6 1315   3.636   3.691  15.772 -0.1040 -0.2208  0.3375
   86TCq2    C7 1316   3.601   3.655  15.899 -0.1950  0.3227 -0.0634
   86TCq2    C8 1317   3.773   3.723  15.751  0.0439  0.3629  0.2265
   86TCq2    O4 1318   3.856   3.716  15.840  0.7966  0.0032 -0.0251
   86TCq2    C9 1319   3.323   3.629  15.604  0.9469 -0.1213 -0.1990
   86TCq2    O5 1320   3.352   3.691  15.498  0.2776  0.4938  0.1455
   86TCq2    O6 1321   3.225   3.557  15.620  0.1879 -0.1438  0.0818
   86TCq2    H2 1322   3.291   3.539  15.859 -0.1151  2.2398  2.0607
   86TCq2    H3 1323   3.559   3.725  15.577  0.6141 -0.8994 -0.3119
   86TCq2    H4 1324   3.675   3.667  15.977 -2.2180  1.7445  1.6411
   87MPD2     C 1325   0.291   2.426   1.161 -0.0502  0.0581  0.2017
   87MPD2    C1 1326   0.334   2.358   1.050  1.0992 -0.0683 -0.1499
   87MPD2    C2 1327   0.296   2.400   0.922 -0.1244  0.0244  0.6800
   87MPD2    C3 1328   0.213   2.510   0.909 -0.0749 -0.2705  0.5695
   87MPD2    C4 1329   0.187   2.588   1.019  0.5239  0.1234 -0.7539
   87MPD2    C5 1330   0.223   2.544   1.143 -0.0748  0.0797 -0.0293
   87MPD2     H 1331   0.343   2.363   0.832 -2.0531  1.7824 -1.0536
   87MPD2    H1 1332   0.145   2.687   1.014  0.8170  0.2772 -0.2177
   87MPD2    H2 1333   0.317   2.388   1.259  0.7389 -0.0767 -0.0614
   87MPD2    H3 1334   0.211   2.602   1.234  1.4816  2.6423 -1.4484
   87MPD2     N 1335   0.172   2.562   0.783  0.6949 -0.3930  0.8162
   87MPD2    H5 1336   0.122   2.650   0.787  0.4454 -0.5191  0.5336
   87MPD2    N1 1337   0.405   2.237   1.079 -0.8278  0.0974 -0.4919
   87MPD2    H7 1338   0.417   2.213   1.177 -0.3439  1.7330 -0.1382
   88TCq2    C1 1339   0.474   2.167   0.983 -0.2986 -0.6462 -0.1577
   88TCq2    O2 1340   0.500   2.205   0.869  0.2506  0.4459  0.1314
   88TCq2    C2 1341   0.529   2.043   1.044 -0.5674 -0.2229  0.1542
   88TCq2    C3 1342   0.463   1.978   1.143 -0.3260 -0.5843  0.6306
   88TCq2    C4 1343   0.523   1.855   1.179  0.0240 -0.2980 -0.3546
   88TCq2    C5 1344   0.634   1.806   1.113  0.0878  0.5461 -0.5568
   88TCq2    C6 1345   0.692   1.879   1.010 -0.0705  0.9119 -0.0364
   88TCq2    C7 1346   0.641   2.000   0.986 -0.1649 -0.4960  0.3118
   88TCq2    C8 1347   0.805   1.839   0.922  0.1788 -0.5042  0.6835
   88TCq2    O4 1348   0.806   1.885   0.809  0.0462  0.4023  0.3367
   88TCq2    C9 1349   0.457   1.777   1.281  0.2037 -0.1133 -0.0722
   88TCq2    O5 1350   0.346   1.813   1.327 -0.4567  0.1161  0.4629
   88TCq2    O6 1351   0.536   1.703   1.347  0.1249 -0.1690 -0.3026
   88TCq2    H2 1352   0.365   1.994   1.185 -0.9127 -1.1022 -0.5208
   88TCq2    H3 1353   0.671   1.711   1.149  1.3360  0.1617 -2.8350
   88TCq2    H4 1354   0.676   2.060   0.902 -0.4312  0.7358  1.0841
   89MPD2     C 1355   1.421   0.832   2.497 -0.0685  0.3154 -0.1370
   89MPD2    C1 1356   1.412   0.716   2.419  0.5350 -0.4243 -0.6665
   89MPD2    C2 1357   1.493   0.706   2.307  0.1390  0.2382  0.7952
   89MPD2    C3 1358   1.590   0.805   2.290  0.2426  0.3033 -0.1349
   89MPD2    C4 1359   1.605   0.908   2.377  0.0281  0.4425  0.1822
   89MPD2    C5 1360   1.520   0.923   2.481 -0.0212  0.1535 -0.2711
   89MPD2     H 1361   1.490   0.614   2.250  0.0881 -0.0246  1.2189
   89MPD2    H1 1362   1.677   0.987   2.360 -0.6662  0.8351 -0.9988
   89MPD2    H2 1363   1.360   0.842   2.586  0.1174 -0.9251  0.1345
   89MPD2    H3 1364   1.526   1.012   2.542  2.6146  0.1257 -0.4635
   89MPD2     N 1365   1.672   0.794   2.176  0.2725 -0.5774 -0.1170
   89MPD2    H5 1366   1.643   0.733   2.101 -0.7329  0.0682 -0.2688
   89MPD2    N1 1367   1.318   0.615   2.439  0.3357 -0.0165  0.0247
   89MPD2    H7 1368   1.324   0.530   2.384  1.3349 -0.2948  0.5584
   90TCq2    C1 1369   1.782   0.868   2.153 -0.1542 -0.8393  0.1900
   90TCq2    O2 1370   1.840   0.951   2.222  0.7102 -0.0824  0.0122
   90TCq2    C2 1371   1.853   0.835   2.028 -0.4969 -0.0644 -0.4419
   90TCq2    C3 1372   1.989   0.847   2.019 -0.7799 -0.2488  0.1561
   90TCq2    C4 1373   2.046   0.850   1.897  0.0918 -0.0123  0.3160
   90TCq2    C5 1374   1.973   0.838   1.781 -0.1685  0.1717  0.1718
   90TCq2    C6 1375   1.837   0.834   1.790 -0.8216 -0.6581  0.2745
   90TCq2    C7 1376   1.776   0.841   1.909  0.6624  0.0718  0.4413
   90TCq2    C8 1377   1.757   0.806   1.670 -0.4725  0.3260  0.5886
   90TCq2    O4 1378   1.632   0.793   1.684 -0.7948 -0.0520 -0.1361
   90TCq2    C9 1379   2.189   0.854   1.886 -0.3191  0.3900 -0.0283
   90TCq2    O5 1380   2.233   0.901   1.779  1.0092  0.1441  0.1786
   90TCq2    O6 1381   2.252   0.794   1.980 -0.5323  0.5142  0.0671
   90TCq2    H2 1382   2.050   0.854   2.108 -0.0869  1.2071 -0.4217
   90TCq2    H3 1383   2.024   0.835   1.685 -2.6002  2.0579 -1.1614
   90TCq2    H4 1384   1.670   0.820   1.904  0.3866  1.5955 -0.2527
   91TMC2    C1 1385   3.535   4.048  16.900  0.0975  0.4943  0.0048
   91TMC2    C2 1386   3.637   4.128  16.840  0.9878  0.0273  0.2580
   91TMC2    C3 1387   3.607   4.200  16.725 -0.0864  0.4501  0.6634
   91TMC2    C4 1388   3.403   4.043  16.850  0.2934  0.4744 -0.0549
   91TMC2    C5 1389   3.387   4.106  16.727  0.7814  0.1907  0.3738
   91TMC2    C6 1390   3.485   4.179  16.665 -0.9915 -0.0975 -0.6448
   91TMC2     C 1391   3.561   3.944  16.990 -0.6872 -0.8421  0.0111
   91TMC2     O 1392   3.472   3.867  17.035  0.3002  0.0984 -0.3228
   91TMC2     H 1393   3.725   4.150  16.900  1.7781  1.2052 -1.3281
   91TMC2    H1 1394   3.321   3.983  16.887 -0.3411  0.1718 -1.9921
   91TMC2    H2 1395   3.470   4.227  16.569  0.6306  0.6294 -0.5335
   91TMC2    C7 1396   3.257   4.096  16.668  0.1765 -0.4754 -0.8566
   91TMC2    C8 1397   3.723   4.233  16.650  0.4349 -0.1335 -0.2966
   91TMC2    O1 1398   3.160   4.078  16.743 -0.1538  0.4663  0.4788
   91TMC2    O2 1399   3.837   4.208  16.684 -0.6765  0.0336 -0.1665
   91TMC2    O5 1400   3.684   4.349  16.597  0.1605 -0.1543 -0.1464
   91TMC2    H5 1401   3.590   4.368  16.616  0.9489  2.9099  0.6936
   92MPD2     C 1402   3.674   3.784  17.222 -0.0704  0.5394  0.8363
   92MPD2    C1 1403   3.750   3.838  17.118 -0.2391  0.6088  0.2617
   92MPD2    C2 1404   3.886   3.826  17.130 -0.0700 -0.4407 -0.2564
   92MPD2    C3 1405   3.958   3.759  17.222 -0.3457 -0.1393 -0.2095
   92MPD2    C4 1406   3.885   3.703  17.323 -0.3713 -0.6488  0.0091
   92MPD2    C5 1407   3.748   3.719  17.323 -0.1616 -0.2955 -0.0226
   92MPD2     H 1408   3.938   3.877  17.050 -0.2745 -1.9714 -1.3548
   92MPD2    H1 1409   3.925   3.646  17.405  2.5457  1.6605  0.1931
   92MPD2    H2 1410   3.567   3.797  17.232 -0.6667 -1.3449 -3.0372
   92MPD2    H3 1411   3.693   3.672  17.403  1.0068 -0.0272  0.9417
   92MPD2     N 1412   4.098   3.763  17.219  0.0733 -0.0150  0.3528
   92MPD2    H5 1413   4.133   3.817  17.140 -0.6731 -0.0132  0.0150
   92MPD2    N1 1414   3.693   3.928  17.017  0.0557 -0.3397  0.1241
   92MPD2    H7 1415   3.764   3.982  16.969 -0.7684  0.1142 -0.5821
   93MPD2     C 1416   0.665   0.045  14.043  0.3654 -0.0395  0.1926
   93MPD2    C1 1417   0.657   4.689  13.927  0.1147 -0.4291  0.3987
   93MPD2    C2 1418   0.541   4.688  13.852  0.0545 -0.2753  0.3524
   93MPD2    C3 1419   0.422   0.022  13.904 -0.0232  0.1628  0.1312
   93MPD2    C4 1420   0.431   0.089  14.021 -0.3970 -0.1439  0.1994
   93MPD2    C5 1421   0.547   0.094  14.097 -0.2048 -0.2569  0.3325
   93MPD2     H 1422   0.548   4.637  13.757 -0.1612  2.4393 -1.1286
   93MPD2    H1 1423   0.343   0.136  14.064 -0.3338 -1.4907  1.8166
   93MPD2    H2 1424   0.752   0.055  14.107 -0.8219  0.6876  1.6811
   93MPD2    H3 1425   0.549   0.150  14.190  2.4494 -1.4693  1.0094
   93MPD2     N 1426   0.296   0.028  13.831 -0.5828 -0.9025  0.1582
   93MPD2    H5 1427   0.221   0.081  13.873  0.3945  0.4888  0.1435
   93MPD2    N1 1428   0.769   4.633  13.870 -0.2360 -0.1464 -0.6740
   93MPD2    H7 1429   0.769   4.603  13.773 -0.6290 -0.5535 -0.5472
   94TCq2    C1 1430   0.886   4.614  13.940  0.1126  0.8893 -0.3417
   94TCq2    O2 1431   0.929   4.652  14.051  0.2528 -0.1409  0.7622
   94TCq2    C2 1432   0.973   4.523  13.876  1.0702 -0.4616  0.2946
   94TCq2    C3 1433   0.911   4.416  13.824  0.1570 -0.3379 -0.8953
   94TCq2    C4 1434   0.995   4.310  13.787 -1.0040 -0.2479  0.0650
   94TCq2    C5 1435   1.133   4.321  13.795  0.3473 -0.2438 -0.3811
   94TCq2    C6 1436   1.185   4.437  13.852  0.4468 -0.0989 -0.3078
   94TCq2    C7 1437   1.104   4.546  13.889  0.2097 -0.7179 -0.4887
   94TCq2    C8 1438   1.331   4.456  13.842  0.2967  0.4958 -0.0607
   94TCq2    O4 1439   1.407   4.362  13.824 -0.1777  0.0133 -0.5642
   94TCq2    C9 1440   0.938   4.194  13.736 -0.5925 -0.2496 -0.0147
   94TCq2    O5 1441   0.816   4.200  13.710  0.6515 -0.3809 -0.1042
   94TCq2    O6 1442   1.010   4.099  13.699  0.3908 -0.2325 -0.6122
   94TCq2    H2 1443   0.804   4.402  13.821 -0.5476  4.6244  1.5561
   94TCq2    H3 1444   1.193   4.235  13.767 -2.7265 -2.2121 -0.9159
   94TCq2    H4 1445   1.134   4.637  13.941  0.9661 -0.8404 -0.7144
   95TMC2    C1 1446   0.635   1.190  15.808  0.2994  0.1932  0.4817
   95TMC2    C2 1447   0.729   1.209  15.901 -0.7777 -0.4467  0.1111
   95TMC2    C3 1448   0.684   1.200  16.032 -0.4788 -0.3192 -0.5444
   95TMC2    C4 1449   0.506   1.148  15.825 -0.3908  0.0863 -0.9464
   95TMC2    C5 1450   0.472   1.135  15.957  0.5952 -0.2501 -0.5748
   95TMC2    C6 1451   0.556   1.164  16.059 -1.0803 -0.2049 -0.1747
   95TMC2     C 1452   0.672   1.219  15.676  0.2255 -0.4683 -0.1435
   95TMC2     O 1453   0.749   1.317  15.656  0.3250 -0.0889  0.1004
   95TMC2     H 1454   0.830   1.231  15.869 -0.0666 -0.4297  2.3454
   95TMC2    H1 1455   0.443   1.137  15.738  0.6515  0.2067 -1.7185
   95TMC2    H2 1456   0.521   1.160  16.162 -0.4891 -2.6999 -0.0705
   95TMC2    C7 1457   0.327   1.138  15.984 -0.4484 -0.7056  0.5063
   95TMC2    C8 1458   0.768   1.243  16.146 -0.0694 -0.6505  0.4748
   95TMC2    O1 1459   0.250   1.126  15.890  0.2708  0.1822 -0.1378
   95TMC2    O2 1460   0.792   1.155  16.226  0.0530 -0.3585  0.0151
   95TMC2    O5 1461   0.866   1.320  16.094 -0.0328  0.4187  0.0528
   95TMC2    H5 1462   0.847   1.369  16.011  1.7757 -0.2998 -0.7971
   96MPD2     C 1463   0.659   1.133  15.169 -0.2614  0.1332 -0.3207
   96MPD2    C1 1464   0.713   1.237  15.243 -0.4340  0.2064 -0.2024
   96MPD2    C2 1465   0.703   1.234  15.385  0.4501 -0.8665  0.0527
   96MPD2    C3 1466   0.640   1.128  15.446  0.4054 -0.5211  0.0775
   96MPD2    C4 1467   0.594   1.022  15.374  0.0732  0.7050  0.0586
   96MPD2    C5 1468   0.607   1.025  15.238 -0.3349 -0.5013  0.2563
   96MPD2     H 1469   0.740   1.320  15.440 -0.4370  1.0797 -2.3802
   96MPD2    H1 1470   0.534   0.941  15.414  1.8394 -0.4019  0.4299
   96MPD2    H2 1471   0.654   1.129  15.061 -1.1740 -0.5214 -0.2519
   96MPD2    H3 1472   0.582   0.939  15.178  1.1086 -1.4250  0.9662
   96MPD2     N 1473   0.622   1.125  15.590 -0.4330 -0.0611 -1.0511
   96MPD2    H5 1474   0.553   1.058  15.621  1.2722 -0.8017  1.1116
   96MPD2    N1 1475   0.770   1.337  15.163 -0.0628 -0.0185 -0.7121
   96MPD2    H7 1476   0.773   1.319  15.063 -1.1002 -0.1861 -0.7118
   97MPD2     C 1477   1.975   4.531   0.798  0.2062 -0.5998 -0.1651
   97MPD2    C1 1478   1.989   4.399   0.838  0.0732  0.2842  0.0777
   97MPD2    C2 1479   2.074   4.318   0.766  1.1324  0.0658 -0.3181
   97MPD2    C3 1480   2.141   4.363   0.660 -0.0661 -0.0484  0.4264
   97MPD2    C4 1481   2.124   4.493   0.618 -0.6371 -1.3459 -0.9007
   97MPD2    C5 1482   2.040   4.574   0.683  0.1243 -0.2014  0.6406
   97MPD2     H 1483   2.088   4.218   0.803  0.4344  1.0412  2.6629
   97MPD2    H1 1484   2.177   4.535   0.533 -2.6402  1.5516 -0.7371
   97MPD2    H2 1485   1.907   4.599   0.848 -1.7115 -2.4580 -0.2173
   97MPD2    H3 1486   2.024   4.672   0.640  0.7796  0.3403  1.6450
   97MPD2     N 1487   2.235   4.275   0.596  0.5161 -0.8711  0.4006
   97MPD2    H5 1488   2.284   4.319   0.518 -1.1426 -0.2603 -0.2879
   97MPD2    N1 1489   1.930   4.366   0.963 -0.8172 -0.0224  0.2544
   97MPD2    H7 1490   1.881   4.438   1.015  2.0475  2.2612 -0.2021
   98TCq2    C1 1491   2.270   4.148   0.624 -0.4513 -0.9637 -0.4501
   98TCq2    O2 1492   2.230   4.069   0.712  0.0304  0.5376 -0.4791
   98TCq2    C2 1493   2.376   4.102   0.535 -0.2569  0.2887  0.3150
   98TCq2    C3 1494   2.405   3.963   0.533 -0.0767  0.0827 -0.2484
   98TCq2    C4 1495   2.506   3.914   0.455 -0.1931  0.1967 -0.0688
   98TCq2    C5 1496   2.583   4.000   0.389  0.1136 -0.3569 -0.2882
   98TCq2    C6 1497   2.555   4.132   0.392 -0.0704 -0.0954  0.4302
   98TCq2    C7 1498   2.462   4.195   0.476  0.3590 -0.1111 -0.0355
   98TCq2    C8 1499   2.655   4.212   0.320  0.1963  0.3021  0.1438
   98TCq2    O4 1500   2.774   4.195   0.348 -0.2659  0.1835 -0.1762
   98TCq2    C9 1501   2.542   3.776   0.466  0.2027 -0.4460 -0.5009
   98TCq2    O5 1502   2.659   3.752   0.442 -0.8979 -0.0266 -0.1987
   98TCq2    O6 1503   2.457   3.702   0.522 -0.4299  0.4911 -0.2403
   98TCq2    H2 1504   2.346   3.891   0.587 -0.9189  1.6141  0.8509
   98TCq2    H3 1505   2.670   3.960   0.339  0.0890 -1.8547  0.8832
   98TCq2    H4 1506   2.452   4.302   0.479  0.0398 -0.1781  1.1500
   99MPD2     C 1507   1.463   1.532   1.915 -0.2085  0.5362 -0.8196
   99MPD2    C1 1508   1.393   1.426   1.962  0.5588 -0.0590 -0.5902
   99MPD2    C2 1509   1.318   1.351   1.869 -0.4375  0.0621  0.1270
   99MPD2    C3 1510   1.301   1.394   1.735 -0.1013 -0.6419 -0.5073
   99MPD2    C4 1511   1.367   1.512   1.697  0.0996 -0.3133  0.0654
   99MPD2    C5 1512   1.454   1.575   1.782  0.1775  0.3066 -0.1958
   99MPD2     H 1513   1.274   1.258   1.903 -0.1481 -0.7274 -1.6193
   99MPD2    H1 1514   1.361   1.557   1.598  0.5306  0.2284  0.2845
   99MPD2    H2 1515   1.519   1.597   1.981 -0.8654  0.7852 -0.5152
   99MPD2    H3 1516   1.517   1.654   1.743 -1.3060  1.6966  0.2038
   99MPD2     N 1517   1.216   1.325   1.650  0.1518 -0.0525 -0.4206
   99MPD2    H5 1518   1.189   1.230   1.673 -0.7125  0.8210  2.1778
   99MPD2    N1 1519   1.400   1.384   2.098  0.0718 -0.1349  0.1503
   99MPD2    H7 1520   1.367   1.289   2.115 -1.0759  0.7233  2.6332
  100TCq2    C1 1521   1.445   1.461   2.202  0.2839  0.6324  0.1081
  100TCq2    O2 1522   1.489   1.576   2.211 -0.2628 -0.2117 -0.0620
  100TCq2    C2 1523   1.406   1.394   2.326 -0.1695  0.1931  0.3171
  100TCq2    C3 1524   1.456   1.438   2.444  0.3654  0.7555  0.1335
  100TCq2    C4 1525   1.421   1.380   2.561  0.6574 -0.4445  0.3816
  100TCq2    C5 1526   1.336   1.278   2.561  1.0528 -0.1791 -0.3306
  100TCq2    C6 1527   1.286   1.230   2.440  0.6063  0.0997 -0.7304
  100TCq2    C7 1528   1.318   1.293   2.327  0.1962 -0.4794  1.4510
  100TCq2    C8 1529   1.179   1.130   2.441  0.6428 -0.0783  0.1875
  100TCq2    O4 1530   1.113   1.120   2.542 -0.5834  0.5115  0.1823
  100TCq2    C9 1531   1.467   1.430   2.688 -0.2929 -0.3935 -0.3883
  100TCq2    O5 1532   1.432   1.392   2.799  0.8283  0.2577 -0.1268
  100TCq2    O6 1533   1.545   1.528   2.678 -0.4333 -0.2598 -0.4286
  100TCq2    H2 1534   1.514   1.530   2.444  0.7033  0.5395  1.3764
  100TCq2    H3 1535   1.304   1.224   2.649 -1.9696  0.6566 -0.9319
  100TCq2    H4 1536   1.245   1.295   2.246  0.9451 -1.5749  0.7447
  101MPD2     C 1537   2.776   1.811  12.709  0.0464  0.0109 -0.4775
  101MPD2    C1 1538   2.780   1.867  12.836 -0.2625 -0.0290 -0.0423
  101MPD2    C2 1539   2.706   1.810  12.935  0.1605 -0.2775  0.7759
  101MPD2    C3 1540   2.622   1.705  12.912 -0.3449 -0.1067 -0.3368
  101MPD2    C4 1541   2.632   1.645  12.788 -1.1170  0.0872  0.3543
  101MPD2    C5 1542   2.702   1.702  12.689  0.8485  0.0763 -0.4616
  101MPD2     H 1543   2.720   1.842  13.038  1.8020 -1.6863  0.9848
  101MPD2    H1 1544   2.586   1.547  12.773  0.9605 -0.5906 -1.5074
  101MPD2    H2 1545   2.824   1.857  12.624  0.9367  2.9779  1.6356
  101MPD2    H3 1546   2.709   1.645  12.598 -2.6405 -2.7933  1.0439
  101MPD2     N 1547   2.541   1.657  13.016  0.2745  0.8736  0.5611
  101MPD2    H5 1548   2.552   1.691  13.111  0.2275  0.1038  0.8471
  101MPD2    N1 1549   2.851   1.989  12.836  0.2288  0.4344  0.1959
  101MPD2    H7 1550   2.902   2.013  12.752  0.3058  0.3529  0.2184
  102TCq2    C1 1551   3.014   2.328  12.563 -0.2707 -0.5041 -0.4459
  102TCq2    O2 1552   3.119   2.265  12.567  0.8151 -0.4138  0.4385
  102TCq2    C2 1553   2.925   2.326  12.680 -0.2479 -0.1762 -0.4574
  102TCq2    C3 1554   2.827   2.421  12.700 -0.6018  0.1671  0.0715
  102TCq2    C4 1555   2.758   2.418  12.816 -0.0385  0.5259  0.0227
  102TCq2    C5 1556   2.774   2.311  12.898 -0.1442  0.1412 -0.6890
  102TCq2    C6 1557   2.869   2.214  12.875 -0.3039 -0.2639 -0.1617
  102TCq2    C7 1558   2.946   2.221  12.768  0.0791  0.3702  0.4576
  102TCq2    C8 1559   2.845   2.084  12.934  0.2888 -0.0940  0.1838
  102TCq2    O4 1560   2.795   2.082  13.044  0.0992  0.4910  0.1180
  102TCq2    C9 1561   2.654   2.508  12.834  0.3249 -0.0938 -0.4298
  102TCq2    O5 1562   2.579   2.493  12.932  0.0260 -0.5997 -1.2047
  102TCq2    O6 1563   2.636   2.586  12.736 -0.0252 -0.3326 -0.4702
  102TCq2    H2 1564   2.805   2.502  12.632  3.3440  0.9851 -0.2249
  102TCq2    H3 1565   2.700   2.286  12.973  2.2081 -2.5491  0.7400
  102TCq2    H4 1566   3.029   2.156  12.742  0.0184  0.3347  0.3534
  103TMC2    C1 1567   1.013   1.786  12.331  0.6323 -0.2463 -0.1741
  103TMC2    C2 1568   1.145   1.754  12.378 -0.1534  0.5701 -0.5387
  103TMC2    C3 1569   1.155   1.733  12.513 -0.7800 -0.5193  0.3129
  103TMC2    C4 1570   0.906   1.786  12.417 -0.2581 -0.3091 -0.0786
  103TMC2    C5 1571   0.932   1.744  12.543  0.0740  0.4654  0.5426
  103TMC2    C6 1572   1.053   1.724  12.594  0.8536 -0.5148  0.4355
  103TMC2     C 1573   0.991   1.790  12.189 -0.1706 -0.0003 -0.1259
  103TMC2     O 1574   0.891   1.841  12.139 -0.2124  0.3833  0.0215
  103TMC2     H 1575   1.234   1.768  12.317  0.4648  1.0422  0.4892
  103TMC2    H1 1576   0.807   1.810  12.380  0.5494  2.1772 -0.6401
  103TMC2    H2 1577   1.071   1.724  12.701  1.3809 -1.2703  0.3490
  103TMC2    C7 1578   0.824   1.697  12.625 -0.3143  0.2769 -0.7530
  103TMC2    C8 1579   1.279   1.697  12.580  0.5327 -0.6417  0.4040
  103TMC2    O1 1580   0.849   1.651  12.734 -0.1263 -1.0848 -0.5331
  103TMC2    O2 1581   1.296   1.697  12.700  0.2678  0.7092  0.0851
  103TMC2    O5 1582   1.373   1.661  12.490  0.8483 -0.6432 -0.4233
  103TMC2    H5 1583   1.350   1.625  12.401  1.3967 -2.4386  0.1504
  104MPD2     C 1584   1.208   1.658  11.921  0.3839  1.0209 -0.7266
  104MPD2    C1 1585   1.086   1.693  11.975 -0.0938 -0.2348  0.6979
  104MPD2    C2 1586   0.977   1.693  11.893  0.0409  0.1190  0.3814
  104MPD2    C3 1587   0.983   1.658  11.760  0.4606  0.3324 -0.4614
  104MPD2    C4 1588   1.109   1.617  11.714  0.5579  0.3316 -0.1410
  104MPD2    C5 1589   1.220   1.617  11.795  0.7301 -0.4976  0.1960
  104MPD2     H 1590   0.879   1.721  11.930 -0.9640 -1.6626 -0.9515
  104MPD2    H1 1591   1.128   1.606  11.608  0.0822 -0.1338 -0.1742
  104MPD2    H2 1592   1.291   1.639  11.989  1.4582 -1.7029 -2.8144
  104MPD2    H3 1593   1.318   1.586  11.760  0.1076 -0.5806 -1.4743
  104MPD2     N 1594   0.869   1.670  11.679 -0.4821  0.1345 -0.0541
  104MPD2    H5 1595   0.781   1.704  11.717  1.1840  1.9341  2.1421
  104MPD2    N1 1596   1.090   1.726  12.114  0.1610 -0.2480  0.7074
  104MPD2    H7 1597   1.180   1.697  12.150  0.1895  0.1581  0.9623
  105MPD2     C 1598   2.027   1.301  17.664 -0.0957  0.6068  1.0934
  105MPD2    C1 1599   2.035   1.434  17.631  0.3712  0.2379  1.6368
  105MPD2    C2 1600   1.944   1.526  17.689  0.1093 -0.9035 -0.2211
  105MPD2    C3 1601   1.855   1.480   0.100 -0.0652  0.0644  0.3078
  105MPD2    C4 1602   1.866   1.348   0.145  0.3286  0.3843 -0.5164
  105MPD2    C5 1603   1.957   1.268   0.087  0.9027 -0.7937 -0.2003
  105MPD2     H 1604   1.951   1.632  17.668 -0.0019 -0.2729  2.9294
  105MPD2    H1 1605   1.814   1.308   0.232 -1.8752  2.2072 -1.0054
  105MPD2    H2 1606   2.092   1.225  17.623 -0.7256 -0.0192  1.2535
  105MPD2    H3 1607   1.948   1.165   0.121  1.6295  0.8760  4.9874
  105MPD2     N 1608   1.762   1.572   0.165 -1.2368  0.5277  0.3710
  105MPD2    H5 1609   1.771   1.673   0.156 -1.0887  0.2352 -2.8892
  105MPD2    N1 1610   2.114   1.485  17.529  0.4902  0.0438 -0.0343
  105MPD2    H7 1611   2.086   1.580  17.506  1.6926  0.3845 -0.1098
  106TCq2    C1 1612   1.654   1.529   0.236 -0.5300 -0.8537 -0.3573
  106TCq2    O2 1613   1.625   1.413   0.250  0.0936 -0.4691  0.2534
  106TCq2    C2 1614   1.566   1.631   0.301  0.9379 -0.1819  0.2276
  106TCq2    C3 1615   1.557   1.760   0.267 -0.1138  0.3377 -0.3802
  106TCq2    C4 1616   1.463   1.835   0.328  0.5650 -0.3149  0.3684
  106TCq2    C5 1617   1.380   1.781   0.429  0.5127 -0.3175 -0.3023
  106TCq2    C6 1618   1.394   1.649   0.460 -0.2377 -0.2994 -0.1896
  106TCq2    C7 1619   1.490   1.574   0.400  0.6412  0.3873 -0.6607
  106TCq2    C8 1620   1.351   1.600   0.594  0.1101  0.0888  0.4265
  106TCq2    O4 1621   1.425   1.514   0.643  0.0426  0.4132 -0.3527
  106TCq2    C9 1622   1.452   1.974   0.303 -0.3272  0.1525  0.2383
  106TCq2    O5 1623   1.364   2.037   0.369 -0.5152  0.3564  0.1153
  106TCq2    O6 1624   1.529   2.029   0.218 -0.1587  0.2433  0.3418
  106TCq2    H2 1625   1.624   1.803   0.193 -0.2498  1.2186  0.0073
  106TCq2    H3 1626   1.314   1.847   0.485 -2.8708 -1.5799 -2.8329
  106TCq2    H4 1627   1.506   1.474   0.438 -1.8852 -0.0752 -0.8217
  107TMC2    C1 1628   3.106   0.496  11.285  0.2550  0.2276  0.4141
  107TMC2    C2 1629   3.131   0.563  11.173  0.0679  0.1156  0.4629
  107TMC2    C3 1630   3.234   0.532  11.099  0.2974 -0.5089  0.6702
  107TMC2    C4 1631   3.189   0.399  11.339 -0.3061  0.2353 -0.3323
  107TMC2    C5 1632   3.299   0.368  11.264 -0.1151 -0.3947 -0.6341
  107TMC2    C6 1633   3.315   0.431  11.141 -0.1075  0.2021 -0.0389
  107TMC2     C 1634   2.993   0.545  11.371  0.3227  0.2901  0.0828
  107TMC2     O 1635   2.999   0.524  11.492  0.2164 -0.4409  0.5981
  107TMC2     H 1636   3.070   0.639  11.126 -0.7963 -1.1640 -0.5029
  107TMC2    H1 1637   3.159   0.346  11.429  3.0544  1.6314  1.5949
  107TMC2    H2 1638   3.402   0.422  11.076  0.8097 -2.1088  1.4867
  107TMC2    C7 1639   3.376   0.263  11.310 -0.1123 -0.8015 -0.3113
  107TMC2    C8 1640   3.260   0.601  10.970  0.2251 -0.0422  0.6555
  107TMC2    O1 1641   3.332   0.212  11.410 -0.0611 -0.0809 -0.1073
  107TMC2    O2 1642   3.370   0.596  10.913 -0.6509  0.4951  0.5726
  107TMC2    O5 1643   3.140   0.605  10.916 -0.7388  0.1720  0.0570
  107TMC2    H5 1644   3.060   0.579  10.965 -0.1907 -0.0592  0.8326
  108MPD2     C 1645   2.689   0.725  11.247  0.1377 -0.1033 -0.2953
  108MPD2    C1 1646   2.778   0.678  11.336  0.5259 -0.7130  0.2272
  108MPD2    C2 1647   2.739   0.682  11.469 -0.2451 -0.5214  0.2802
  108MPD2    C3 1648   2.613   0.722  11.507  0.0948  0.2307  0.6164
  108MPD2    C4 1649   2.528   0.786  11.416  0.4232 -0.1424  0.1101
  108MPD2    C5 1650   2.573   0.786  11.287 -0.0450  0.0446 -0.5873
  108MPD2     H 1651   2.806   0.630  11.536 -0.9086 -1.3335  0.3266
  108MPD2    H1 1652   2.437   0.834  11.449  0.9327  0.5817  0.4729
  108MPD2    H2 1653   2.722   0.736  11.144  1.9487  0.4627  0.3556
  108MPD2    H3 1654   2.505   0.831  11.216  0.9983  0.3361 -1.3993
  108MPD2     N 1655   2.567   0.717  11.643  0.0327 -0.5339 -0.9165
  108MPD2    H5 1656   2.478   0.766  11.654  0.8165  0.7243 -0.2079
  108MPD2    N1 1657   2.899   0.615  11.294 -0.1636 -0.3514  0.2355
  108MPD2    H7 1658   2.909   0.600  11.194 -2.1359  0.5995 -0.1240
  109MPD2     C 1659   1.507   2.888   2.113  0.2434 -0.2335  0.6097
  109MPD2    C1 1660   1.497   2.834   1.982 -0.0666 -0.0128  0.3943
  109MPD2    C2 1661   1.440   2.906   1.880  0.0940  0.2317 -0.0533
  109MPD2    C3 1662   1.379   3.031   1.907  0.2030 -0.0980 -0.3146
  109MPD2    C4 1663   1.394   3.083   2.036 -0.1145  0.3196  0.8155
  109MPD2    C5 1664   1.450   3.008   2.135  0.7730  0.0326 -0.7044
  109MPD2     H 1665   1.433   2.863   1.780  1.2028 -0.7028  0.2629
  109MPD2    H1 1666   1.362   3.183   2.064 -1.1149  0.1331  0.3123
  109MPD2    H2 1667   1.552   2.834   2.196  1.6575 -2.8644 -1.8831
  109MPD2    H3 1668   1.438   3.045   2.237 -1.6878 -1.2213 -0.5215
  109MPD2     N 1669   1.317   3.103   1.801 -0.5779  0.1806 -0.1789
  109MPD2    H5 1670   1.299   3.069   1.707 -0.4652 -0.0225 -0.1269
  109MPD2    N1 1671   1.547   2.706   1.966  0.2287 -0.1939  0.1036
  109MPD2    H7 1672   1.567   2.646   2.045  2.2516 -0.8301 -0.9070
  110TCq2    C1 1673   1.271   3.231   1.807 -0.7280 -0.1182 -0.4471
  110TCq2    O2 1674   1.276   3.318   1.891  0.4050  0.2146 -0.0488
  110TCq2    C2 1675   1.242   3.282   1.674 -0.5771 -0.6276 -0.3157
  110TCq2    C3 1676   1.199   3.189   1.576  0.2819  0.0485  0.5629
  110TCq2    C4 1677   1.223   3.218   1.449 -0.0391  0.0599 -0.3236
  110TCq2    C5 1678   1.312   3.317   1.418  0.6140 -0.4581 -0.1179
  110TCq2    C6 1679   1.360   3.396   1.517  0.5920 -0.4692  0.0298
  110TCq2    C7 1680   1.323   3.386   1.645 -0.6383 -1.0217  1.3471
  110TCq2    C8 1681   1.466   3.486   1.478 -0.5132 -0.0049  0.6090
  110TCq2    O4 1682   1.487   3.583   1.549  0.4057  0.0157 -0.7064
  110TCq2    C9 1683   1.151   3.153   1.347 -0.2057  0.4070 -0.4645
  110TCq2    O5 1684   1.045   3.097   1.390 -0.3577 -0.2128  0.4536
  110TCq2    O6 1685   1.193   3.150   1.230 -0.0676 -0.1188  0.4743
  110TCq2    H2 1686   1.123   3.116   1.604 -0.7947  1.2483  0.7610
  110TCq2    H3 1687   1.323   3.342   1.313  0.9756  0.9970  0.2657
  110TCq2    H4 1688   1.355   3.459   1.719 -0.3984  0.6541 -0.4202
  111TMC2    C1 1689   2.655   1.855  11.421 -0.1620  0.2620  0.4315
  111TMC2    C2 1690   2.647   1.718  11.432 -0.1058 -0.1916 -0.1197
  111TMC2    C3 1691   2.711   1.658  11.533  0.3109 -0.1164  0.5499
  111TMC2    C4 1692   2.720   1.938  11.508  0.1157 -0.4411  0.2226
  111TMC2    C5 1693   2.792   1.866  11.602 -0.0930 -1.1177  0.2075
  111TMC2    C6 1694   2.789   1.728  11.625 -0.1885  0.2569  0.3566
  111TMC2     C 1695   2.677   1.903  11.290  0.2957  0.0709 -0.0936
  111TMC2     O 1696   2.757   1.991  11.273 -0.5436 -0.0505 -0.4355
  111TMC2     H 1697   2.603   1.659  11.353  1.1483 -1.4874  0.1370
  111TMC2    H1 1698   2.713   2.045  11.500  0.0803 -0.4462  0.1829
  111TMC2    H2 1699   2.864   1.681  11.688 -0.1154 -1.7400 -1.2017
  111TMC2    C7 1700   2.921   1.934  11.626 -0.1803  0.5387  0.4480
  111TMC2    C8 1701   2.760   1.523  11.501 -0.1131  0.1412 -0.0882
  111TMC2    O1 1702   2.987   1.882  11.714  0.1740 -0.5148  0.4853
  111TMC2    O2 1703   2.760   1.477  11.392 -0.5682 -0.2739 -0.1852
  111TMC2    O5 1704   2.797   1.458  11.614  0.0142  0.4786 -0.3187
  111TMC2    H5 1705   2.767   1.500  11.697  0.1188 -1.4578  0.6867
  112MPD2     C 1706   2.587   1.861  10.791 -0.3980 -0.5044 -0.5210
  112MPD2    C1 1707   2.678   1.949  10.849 -0.3880  0.0464 -0.2743
  112MPD2    C2 1708   2.674   1.956  10.987  0.2397  0.0219 -0.5382
  112MPD2    C3 1709   2.590   1.874  11.059 -0.4490  0.0497  0.0556
  112MPD2    C4 1710   2.488   1.804  10.997 -0.0047  0.4825 -0.2599
  112MPD2    C5 1711   2.489   1.800  10.859 -0.4639  0.2543  0.1113
  112MPD2     H 1712   2.758   2.007  11.032  0.4615 -0.2333 -0.6628
  112MPD2    H1 1713   2.420   1.741  11.052  2.0361 -0.1163  1.5628
  112MPD2    H2 1714   2.589   1.849  10.684  2.3102  0.8358 -0.6132
  112MPD2    H3 1715   2.411   1.736  10.820  0.3666  1.4602 -3.4981
  112MPD2     N 1716   2.589   1.847  11.197 -0.4203  0.1220 -0.1975
  112MPD2    H5 1717   2.517   1.789  11.240 -1.1923  0.7847 -0.5976
  112MPD2    N1 1718   2.750   2.047  10.774  0.7391 -0.0174  0.2127
  112MPD2    H7 1719   2.787   2.124  10.828  0.5098 -0.6772  1.3174
  113MPD2     C 1720   0.763   0.642   1.126  0.3228 -0.6227  0.3972
  113MPD2    C1 1721   0.649   0.709   1.131  0.6464 -0.1752 -0.1399
  113MPD2    C2 1722   0.558   0.673   1.040  0.0968  0.5335 -0.3141
  113MPD2    C3 1723   0.569   0.563   0.951  0.7524  0.5163  0.0423
  113MPD2    C4 1724   0.687   0.497   0.950 -0.8179  0.8332 -0.9258
  113MPD2    C5 1725   0.782   0.539   1.034 -0.4964 -0.3169  0.3946
  113MPD2     H 1726   0.470   0.736   1.031  0.0600  0.4076 -0.8132
  113MPD2    H1 1727   0.705   0.412   0.885  1.8832  0.2933  0.5643
  113MPD2    H2 1728   0.851   0.665   1.186 -0.6838 -2.2246  2.4904
  113MPD2    H3 1729   0.876   0.484   1.038 -0.5841 -0.7031 -3.6745
  113MPD2     N 1730   0.475   0.535   0.855 -0.2284 -0.2048  0.9510
  113MPD2    H5 1731   0.489   0.479   0.771  0.0248 -0.8153  1.3994
  113MPD2    N1 1732   0.628   0.826   1.203 -0.3401  0.7032  1.0822
  113MPD2    H7 1733   0.532   0.857   1.195 -0.6506 -0.7983 -0.9365
  114TCq2    C1 1734   0.345   0.585   0.857  0.8205  0.1410  0.5164
  114TCq2    O2 1735   0.284   0.632   0.950 -0.5848  0.0213 -0.4675
  114TCq2    C2 1736   0.278   0.564   0.729  0.1944  0.4784  0.2392
  114TCq2    C3 1737   0.344   0.607   0.614  0.0245  0.1301  0.5724
  114TCq2    C4 1738   0.271   0.615   0.498  1.0666  0.2207  0.4636
  114TCq2    C5 1739   0.136   0.589   0.501  0.5471 -0.7878  0.2270
  114TCq2    C6 1740   0.081   0.544   0.620 -0.1789  0.0734 -0.6220
  114TCq2    C7 1741   0.147   0.527   0.739 -0.1685  0.3555  0.2239
  114TCq2    C8 1742   4.664   0.494   0.617  0.3346 -0.0575 -0.3827
  114TCq2    O4 1743   4.584   0.527   0.530 -0.6083  0.0620 -0.1741
  114TCq2    C9 1744   0.329   0.665   0.372 -0.2405 -0.2509  0.4960
  114TCq2    O5 1745   0.452   0.670   0.364 -0.3402  0.0792 -0.5343
  114TCq2    O6 1746   0.255   0.746   0.311 -0.3168  0.2991 -0.0915
  114TCq2    H2 1747   0.443   0.650   0.618  0.6108 -1.0385 -2.0435
  114TCq2    H3 1748   0.077   0.598   0.411 -2.1826 -3.7616  1.6912
  114TCq2    H4 1749   0.096   0.511   0.833  0.4470 -0.9961  0.3204
  115TMC2    C1 1750   1.533   3.137   0.267  0.0416  0.5780  0.3104
  115TMC2    C2 1751   1.660   3.094   0.231  0.3700 -0.3815 -0.7301
  115TMC2    C3 1752   1.740   3.165   0.151  0.1244  0.0850 -0.4467
  115TMC2    C4 1753   1.495   3.261   0.242 -0.0816  1.0416  0.5224
  115TMC2    C5 1754   1.576   3.339   0.166 -0.1226 -0.3573  0.1717
  115TMC2    C6 1755   1.695   3.285   0.120  1.1994  1.1341 -0.5602
  115TMC2     C 1756   1.429   3.041   0.220 -0.4440 -0.1665  0.3299
  115TMC2     O 1757   1.471   2.958   0.141  0.5745  0.1506 -0.4079
  115TMC2     H 1758   1.683   2.991   0.256  2.6268  0.0540 -1.0716
  115TMC2    H1 1759   1.395   3.303   0.251 -0.8238 -0.7603  0.5650
  115TMC2    H2 1760   1.751   3.347   0.051  2.6242  0.8761  0.3633
  115TMC2    C7 1761   1.504   3.407   0.059  0.3582 -0.1683 -0.2544
  115TMC2    C8 1762   1.840   3.107   0.069 -0.7486  0.4103  0.7817
  115TMC2    O1 1763   1.400   3.350   0.023  0.3403 -0.0067  0.1717
  115TMC2    O2 1764   1.870   3.160  17.652 -0.4867  0.0878  0.0392
  115TMC2    O5 1765   1.862   2.980   0.103  0.2044 -0.7968  0.1777
  115TMC2    H5 1766   1.824   2.944   0.186 -0.5303 -0.0223  0.1821
  116MPD2     C 1767   0.958   2.990   0.040  0.6341  0.6751 -0.2707
  116MPD2    C1 1768   1.079   2.951  17.682  0.0391 -0.4874 -0.4443
  116MPD2    C2 1769   1.197   2.976   0.060 -0.1300 -0.7080 -0.1267
  116MPD2    C3 1770   1.188   3.038   0.185 -0.4292  0.5896 -0.3684
  116MPD2    C4 1771   1.066   3.082   0.237  0.0851  0.5334 -0.3207
  116MPD2    C5 1772   0.952   3.049   0.163  0.5409 -0.3062 -0.0520
  116MPD2     H 1773   1.289   2.950   0.009  0.4792  1.2783 -0.0405
  116MPD2    H1 1774   1.054   3.141   0.327 -1.0084  0.0127 -0.1341
  116MPD2    H2 1775   0.865   2.978  17.677 -0.2642  3.3177  0.6554
  116MPD2    H3 1776   0.852   3.081   0.192  0.8212 -0.2463  0.8581
  116MPD2     N 1777   1.301   3.080   0.252 -0.5896  0.2550 -0.2042
  116MPD2    H5 1778   1.300   3.150   0.326 -0.3452 -0.6989  0.6888
  116MPD2    N1 1779   1.072   2.886  17.555  0.3733 -0.1762  0.0765
  116MPD2    H7 1780   0.984   2.888  17.505  0.9726 -1.2780 -1.0538
  117TMC2    C1 1781   0.268   0.417  14.169 -0.0903 -0.2142 -1.0414
  117TMC2    C2 1782   0.211   0.486  14.272 -0.5000  0.1603 -0.3201
  117TMC2    C3 1783   0.268   0.603  14.311 -0.3450 -0.0539  1.0167
  117TMC2    C4 1784   0.377   0.460  14.092 -0.0706 -0.6614 -0.2725
  117TMC2    C5 1785   0.441   0.569  14.145  0.4369  0.0038  0.1681
  117TMC2    C6 1786   0.393   0.632  14.260  0.5833  1.3145  0.1894
  117TMC2     C 1787   0.165   0.333  14.118 -0.0452 -0.0651 -0.4089
  117TMC2     O 1788   0.122   0.240  14.186  0.4439 -0.2346  0.2814
  117TMC2     H 1789   0.119   0.451  14.317 -0.3317  1.1375  0.7793
  117TMC2    H1 1790   0.406   0.400  14.007  0.0752 -0.3254 -0.4622
  117TMC2    H2 1791   0.432   0.730  14.287  3.0244 -0.2391  2.2236
  117TMC2    C7 1792   0.522   0.658  14.055  0.1541  0.0942 -0.9326
  117TMC2    C8 1793   0.212   0.677  14.421  0.5340  0.4077 -0.1032
  117TMC2    O1 1794   0.617   0.710  14.113 -0.0824 -0.4749  0.3337
  117TMC2    O2 1795   0.268   0.771  14.472 -0.3574  0.2566 -0.1401
  117TMC2    O5 1796   0.083   0.672  14.385  0.1787  0.3775  0.2837
  117TMC2    H5 1797   0.067   0.618  14.305 -0.7285  1.2027 -0.0986
  118MPD2     C 1798   0.517   0.706  13.691  0.8363 -0.2136  0.4231
  118MPD2    C1 1799   0.570   0.690  13.818 -0.2802  0.6150  0.0979
  118MPD2    C2 1800   0.704   0.713  13.838  0.6409  0.0370  0.5928
  118MPD2    C3 1801   0.781   0.756  13.729  0.4892  0.8064  0.5187
  118MPD2    C4 1802   0.726   0.791  13.610  0.2409  0.2769 -0.3764
  118MPD2    C5 1803   0.591   0.765  13.597  0.6230 -0.3535 -0.1912
  118MPD2     H 1804   0.747   0.708  13.937  1.8742 -0.5220  0.0319
  118MPD2    H1 1805   0.773   0.840  13.525  0.2926 -0.8798 -1.0128
  118MPD2    H2 1806   0.412   0.692  13.667  0.0966  0.6891  3.0665
  118MPD2    H3 1807   0.537   0.795  13.507  1.9189  0.6158 -0.6378
  118MPD2     N 1808   0.918   0.771  13.746 -0.1727 -0.4063  0.3063
  118MPD2    H5 1809   0.966   0.831  13.679 -0.7243  2.2846  2.2992
  118MPD2    N1 1810   0.491   0.643  13.921 -0.5616 -0.3161  0.4104
  118MPD2    H7 1811   0.400   0.604  13.897 -0.8692 -0.1138  1.2400
  119MPD2     C 1812   3.415   1.334  13.209  0.0195  0.4195 -0.3331
  119MPD2    C1 1813   3.328   1.362  13.313 -0.4167  0.5205 -0.3119
  119MPD2    C2 1814   3.224   1.443  13.282 -0.1087  0.2308  0.1974
  119MPD2    C3 1815   3.190   1.476  13.154 -0.6249  0.0895  0.1928
  119MPD2    C4 1816   3.284   1.461  13.056 -0.2624 -0.1733 -0.2465
  119MPD2    C5 1817   3.395   1.388  13.084 -0.9793  0.1307 -0.9545
  119MPD2     H 1818   3.159   1.458  13.368  0.0594 -1.6245  0.6562
  119MPD2    H1 1819   3.263   1.479  12.951  0.0632 -2.5757 -0.7426
  119MPD2    H2 1820   3.501   1.271  13.224 -0.9707 -1.3788 -2.1542
  119MPD2    H3 1821   3.468   1.359  13.009 -0.1728 -2.2652  0.7591
  119MPD2     N 1822   3.060   1.516  13.120 -0.1008 -0.1175 -0.2601
  119MPD2    H5 1823   3.037   1.528  13.022  0.9666  1.5653 -0.3032
  119MPD2    N1 1824   3.349   1.302  13.440  0.0484 -0.1367  0.2108
  119MPD2    H7 1825   3.385   1.207  13.433  0.4320 -0.0104  0.4700
  120TCq2    C1 1826   2.957   1.518  13.209  0.3300 -0.2667  0.8403
  120TCq2    O2 1827   2.953   1.497  13.328 -0.4923 -0.7056 -0.0347
  120TCq2    C2 1828   2.833   1.502  13.143 -0.6966 -0.2720 -0.9352
  120TCq2    C3 1829   2.839   1.461  13.010  0.1731  0.6090 -0.0304
  120TCq2    C4 1830   2.769   1.353  12.963 -0.0236  0.1278 -0.4442
  120TCq2    C5 1831   2.681   1.294  13.047 -0.3867 -0.4658  1.0292
  120TCq2    C6 1832   2.667   1.339  13.177 -0.7296  0.1481  0.0021
  120TCq2    C7 1833   2.742   1.440  13.228 -0.4288  0.2092 -0.5113
  120TCq2    C8 1834   2.572   1.273  13.265 -0.6458  0.1201 -0.1198
  120TCq2    O4 1835   2.496   1.194  13.206  0.2820  0.2830 -0.2404
  120TCq2    C9 1836   2.782   1.324  12.819 -0.8019 -1.0965 -0.1717
  120TCq2    O5 1837   2.691   1.252  12.771 -0.4440 -0.3799 -0.3028
  120TCq2    O6 1838   2.895   1.338  12.765 -0.0009  0.1187  0.0632
  120TCq2    H2 1839   2.896   1.513  12.935 -1.0442  1.4878 -0.3382
  120TCq2    H3 1840   2.623   1.213  13.006 -2.2442  0.6160  1.5432
  120TCq2    H4 1841   2.745   1.466  13.333 -3.4584 -0.0618 -0.3666
  121TMC2    C1 1842   0.356   3.246  14.545  0.1295  0.1131 -0.3198
  121TMC2    C2 1843   0.325   3.264  14.679  0.0044 -0.0961 -0.6768
  121TMC2    C3 1844   0.259   3.161  14.740 -0.1866 -0.5016 -0.1046
  121TMC2    C4 1845   0.294   3.150  14.466 -0.6575  0.0865  0.1527
  121TMC2    C5 1846   0.225   3.050  14.539  0.3176  0.5387 -0.4432
  121TMC2    C6 1847   0.212   3.052  14.677 -0.3154 -0.0097 -0.0362
  121TMC2     C 1848   0.431   3.361  14.493 -0.3415 -0.6208 -0.2784
  121TMC2     O 1849   0.463   3.457  14.559  0.7217  0.2898 -0.2264
  121TMC2     H 1850   0.374   3.335  14.745 -1.5918  2.8628 -2.6918
  121TMC2    H1 1851   0.308   3.150  14.358  3.1313 -1.8720  0.6195
  121TMC2    H2 1852   0.147   2.978  14.724  2.0256  1.1430  5.0260
  121TMC2    C7 1853   0.136   2.968  14.467 -0.5576  0.5991 -0.4573
  121TMC2    C8 1854   0.255   3.160  14.888  0.0938  0.5728 -0.0352
  121TMC2    O1 1855   0.076   2.886  14.532  0.0302  0.6688 -0.4244
  121TMC2    O2 1856   0.328   3.228  14.959 -0.5059  0.3852 -0.9493
  121TMC2    O5 1857   0.139   3.099  14.915  0.2685  0.0141 -0.3108
  121TMC2    H5 1858   0.083   3.079  14.837  0.5791 -1.4605 -0.1546
  122MPD2     C 1859   0.454   3.552  14.282 -0.6535 -0.0742  0.3253
  122MPD2    C1 1860   0.499   3.422  14.267 -0.0855  0.6057 -0.0357
  122MPD2    C2 1861   0.540   3.371  14.142 -0.2937  0.0757  0.1239
  122MPD2    C3 1862   0.542   3.453  14.033 -0.7559  0.0520  0.4695
  122MPD2    C4 1863   0.527   3.587  14.053  0.0173 -0.2892 -0.2734
  122MPD2    C5 1864   0.484   3.637  14.179 -0.5460 -0.5523  0.0097
  122MPD2     H 1865   0.559   3.266  14.121 -5.3800 -1.1771  1.9166
  122MPD2    H1 1866   0.557   3.654  13.974 -0.1069 -1.1469 -1.0490
  122MPD2    H2 1867   0.430   3.589  14.381  0.3957 -2.2897  1.4091
  122MPD2    H3 1868   0.463   3.742  14.193  0.7840 -0.3005  0.1264
  122MPD2     N 1869   0.569   3.399  13.904 -0.4366  0.2950 -0.4456
  122MPD2    H5 1870   0.574   3.466  13.828 -0.6480  0.1235 -0.6079
  122MPD2    N1 1871   0.474   3.328  14.368 -0.1234  0.3008 -0.9032
  122MPD2    H7 1872   0.472   3.230  14.340  0.7135  0.0206  0.0279
  123MPD2     C 1873   3.294   1.477   8.861 -0.5684 -0.3726 -0.2955
  123MPD2    C1 1874   3.328   1.581   8.946  0.3784 -0.4399 -0.2229
  123MPD2    C2 1875   3.408   1.554   9.062  0.4106 -0.7167  0.5433
  123MPD2    C3 1876   3.445   1.424   9.101  0.2447  0.1414  0.7712
  123MPD2    C4 1877   3.415   1.320   9.008 -0.6750 -0.4407 -0.5109
  123MPD2    C5 1878   3.344   1.350   8.896  0.7206 -0.2782 -0.4583
  123MPD2     H 1879   3.434   1.633   9.132 -1.5591 -2.4485  3.2020
  123MPD2    H1 1880   3.443   1.218   9.029  0.1836 -0.0435  0.2632
  123MPD2    H2 1881   3.253   1.487   8.761 -1.7936 -1.7016  0.0858
  123MPD2    H3 1882   3.321   1.268   8.829  2.1468 -2.8494  2.2160
  123MPD2     N 1883   3.504   1.399   9.235  0.3684  0.0550 -0.0340
  123MPD2    H5 1884   3.516   1.481   9.294 -1.2146  0.4741 -0.2842
  123MPD2    N1 1885   3.283   1.717   8.917  0.9737 -0.3042  0.0512
  123MPD2    H7 1886   3.246   1.728   8.823  1.8184 -0.2010 -0.2701
  124TCq2    C1 1887   3.577   1.292   9.276 -0.5836  0.3336  0.8131
  124TCq2    O2 1888   3.593   1.191   9.212  0.4830  0.6469 -0.1419
  124TCq2    C2 1889   3.619   1.300   9.415 -0.5095 -0.5866  1.3826
  124TCq2    C3 1890   3.636   1.416   9.469  0.8448 -0.1330 -0.5329
  124TCq2    C4 1891   3.637   1.421   9.598 -0.1127 -0.8313  0.4831
  124TCq2    C5 1892   3.648   1.310   9.675 -0.2667 -0.0206  0.3162
  124TCq2    C6 1893   3.652   1.189   9.616  0.8459  0.1664  0.4231
  124TCq2    C7 1894   3.629   1.178   9.480 -0.4705  0.2025  0.6169
  124TCq2    C8 1895   3.697   1.067   9.676 -0.0965  0.3026 -0.3879
  124TCq2    O4 1896   3.742   0.979   9.600 -0.4972  0.7600  0.2137
  124TCq2    C9 1897   3.636   1.550   9.664 -0.1042 -0.2707  0.7816
  124TCq2    O5 1898   3.620   1.656   9.592 -0.2109 -0.3309  0.4669
  124TCq2    O6 1899   3.661   1.552   9.788  0.2879 -0.5036 -0.0271
  124TCq2    H2 1900   3.653   1.507   9.413 -1.2756  1.0471  0.7691
  124TCq2    H3 1901   3.639   1.310   9.783  1.8281 -0.4786  0.5037
  124TCq2    H4 1902   3.620   1.083   9.429  2.1897  1.2793 -1.8675
  125TMC2    C1 1903   3.576   2.596   9.851  0.4304 -0.7955 -0.9037
  125TMC2    C2 1904   3.596   2.463   9.813 -0.3619 -0.4914 -0.1152
  125TMC2    C3 1905   3.703   2.403   9.876  0.2655  0.6650  0.2255
  125TMC2    C4 1906   3.651   2.659   9.946  0.4891  0.7210 -0.6251
  125TMC2    C5 1907   3.759   2.593  10.001 -0.0935 -0.5028  0.3026
  125TMC2    C6 1908   3.782   2.465   9.969  0.6918 -0.1221  0.0331
  125TMC2     C 1909   3.452   2.664   9.821  0.0993  0.7648  0.6007
  125TMC2     O 1910   3.361   2.592   9.783 -0.6813  0.2400  0.3045
  125TMC2     H 1911   3.529   2.398   9.757 -0.1487 -2.1853  1.5965
  125TMC2    H1 1912   3.628   2.758   9.983 -0.0627  0.4981 -0.3814
  125TMC2    H2 1913   3.857   2.411  10.024  1.1190 -0.5422 -0.9646
  125TMC2    C7 1914   3.841   2.667  10.093  0.3145 -0.1954 -0.8804
  125TMC2    C8 1915   3.726   2.263   9.840 -0.5859 -0.3980  0.8287
  125TMC2    O1 1916   3.789   2.763  10.144  0.0815 -0.3641  0.0158
  125TMC2    O2 1917   3.700   2.222   9.731  0.0551 -0.3040  0.3608
  125TMC2    O5 1918   3.810   2.197   9.920 -0.1874  0.6101 -0.1877
  125TMC2    H5 1919   3.821   2.246  10.004 -2.3819  1.1229 -0.1958
  126MPD1     C 1920   3.215   3.107   9.701  0.2113  0.1111 -0.5055
  126MPD1    C1 1921   3.314   3.130   9.793 -0.1355 -0.4723  0.2423
  126MPD1    C2 1922   3.398   3.027   9.828 -0.6128  0.4857  0.2877
  126MPD1    C3 1923   3.371   2.898   9.792  0.8100  0.7876  0.5986
  126MPD1    C4 1924   3.250   2.875   9.723  0.1505 -0.4560  0.3271
  126MPD1    C5 1925   3.175   2.977   9.667 -0.2622  0.6900 -0.3918
  126MPD1     H 1926   3.487   3.050   9.885  0.4751  0.6423 -1.4778
  126MPD1    H1 1927   3.235   2.770   9.702 -1.2744 -0.4400  1.2530
  126MPD1    H2 1928   3.168   3.197   9.661  0.9860  0.4508 -0.6536
  126MPD1    H3 1929   3.095   2.962   9.595  0.5861  0.0728 -1.2181
  126MPD1     N 1930   3.462   2.798   9.836  0.6646 -0.8473 -0.2540
  126MPD1    H5 1931   3.558   2.828   9.852  0.0194 -0.1606  2.4134
  126MPD1    N1 1932   3.346   3.267   9.816  0.1521 -0.3434  0.0584
  126MPD1    H6 1933   3.258   3.318   9.827  0.0879 -0.4255 -0.0664
  126MPD1    H7 1934   3.393   3.287   9.904 -2.1905  2.2402  0.7332
  127MPD2     C 1935   0.949   1.666   8.959  0.2315  0.1574 -0.6943
  127MPD2    C1 1936   0.822   1.683   9.016  0.5822  0.3589 -0.4135
  127MPD2    C2 1937   0.798   1.792   9.097  0.3977  1.0176  0.0277
  127MPD2    C3 1938   0.901   1.874   9.130  0.4059 -0.2636 -0.3660
  127MPD2    C4 1939   1.028   1.849   9.087 -0.2137  0.8393  0.3591
  127MPD2    C5 1940   1.051   1.743   8.999 -0.3595 -0.1388  0.4754
  127MPD2     H 1941   0.695   1.807   9.129  0.0698 -3.3794  1.0830
  127MPD2    H1 1942   1.109   1.903   9.134 -1.7100  4.3283 -1.0859
  127MPD2    H2 1943   0.969   1.588   8.886  0.1444 -0.4933 -0.0177
  127MPD2    H3 1944   1.151   1.731   8.959 -0.7585  0.1090 -0.5945
  127MPD2     N 1945   0.871   1.987   9.205 -0.0598 -0.4275  0.3017
  127MPD2    H5 1946   0.774   1.990   9.232 -0.6650 -0.9598 -1.7643
  127MPD2    N1 1947   0.727   1.580   8.988  0.4146  0.2407  0.0942
  127MPD2    H7 1948   0.745   1.506   8.922  3.4812  2.9734 -2.1031
  128TCq2    C1 1949   0.594   1.581   9.035 -0.3376  0.2192 -0.5047
  128TCq2    O2 1950   0.537   1.664   9.101 -0.3929  0.1711 -0.0415
  128TCq2    C2 1951   0.515   1.462   8.990  0.4196  0.1206  0.2618
  128TCq2    C3 1952   0.572   1.371   8.910  0.4739  0.3073  0.0896
  128TCq2    C4 1953   0.535   1.244   8.927  0.1971  0.3909  0.3069
  128TCq2    C5 1954   0.432   1.209   9.007 -0.3127  0.1727  0.3859
  128TCq2    C6 1955   0.377   1.299   9.091  0.0226 -0.4894  0.1945
  128TCq2    C7 1956   0.415   1.431   9.083  0.6817 -0.5617 -0.8556
  128TCq2    C8 1957   0.277   1.278   9.187  0.2709  0.1833  0.5490
  128TCq2    O4 1958   0.209   1.370   9.216  0.5109 -0.1271  0.1418
  128TCq2    C9 1959   0.604   1.145   8.846 -0.5791 -0.1879 -0.4005
  128TCq2    O5 1960   0.520   1.056   8.804  0.0821  0.2518 -0.4977
  128TCq2    O6 1961   0.715   1.168   8.792 -0.1872  0.4477 -0.2913
  128TCq2    H2 1962   0.654   1.392   8.843 -1.5590  1.3358 -2.0839
  128TCq2    H3 1963   0.377   1.118   8.986 -1.8049  0.5659  2.5746
  128TCq2    H4 1964   0.378   1.512   9.144  1.8264 -0.7961  0.1587
  129MPD2     C 1965   2.543   2.582   1.093 -0.0751  0.0709  0.0392
  129MPD2    C1 1966   2.665   2.528   1.146  0.2048 -1.0207 -0.5945
  129MPD2    C2 1967   2.772   2.508   1.067 -0.0245 -0.4960 -0.0117
  129MPD2    C3 1968   2.783   2.570   0.944 -0.3246  0.2360 -0.8003
  129MPD2    C4 1969   2.663   2.627   0.896  0.2508 -0.3683  0.4869
  129MPD2    C5 1970   2.538   2.620   0.960 -0.1483 -0.3712 -0.0346
  129MPD2     H 1971   2.861   2.460   1.107  0.0689  0.3445  0.7932
  129MPD2    H1 1972   2.675   2.677   0.800  0.6965 -2.7207 -0.6886
  129MPD2    H2 1973   2.456   2.610   1.151  0.6896  1.8057  0.3386
  129MPD2    H3 1974   2.450   2.671   0.922 -0.0657 -0.9768 -1.0363
  129MPD2     N 1975   2.903   2.581   0.871 -0.3262 -0.0155 -0.0710
  129MPD2    H5 1976   2.977   2.520   0.905  0.3343  0.8544  0.0575
  129MPD2    N1 1977   2.695   2.515   1.282  0.1529 -0.8843 -0.5250
  129MPD2    H7 1978   2.790   2.489   1.307  0.2123 -0.7512 -0.6113
  130TCq2    C1 1979   2.599   2.523   1.379  0.0407  0.5830  0.2763
  130TCq2    O2 1980   2.479   2.534   1.367  0.1228  0.0647 -0.4753
  130TCq2    C2 1981   2.642   2.501   1.514 -0.2206 -0.1494  0.0673
  130TCq2    C3 1982   2.772   2.535   1.547 -0.4093  0.2868  0.3735
  130TCq2    C4 1983   2.826   2.487   1.668  0.0075 -0.3488 -0.0284
  130TCq2    C5 1984   2.749   2.413   1.753  0.4775 -0.4074 -0.2737
  130TCq2    C6 1985   2.619   2.381   1.711 -0.2382 -0.2786 -0.2827
  130TCq2    C7 1986   2.563   2.429   1.600 -0.3350 -0.1775 -0.0041
  130TCq2    C8 1987   2.576   2.256   1.761 -0.0419  0.4424  0.0164
  130TCq2    O4 1988   2.457   2.233   1.757  0.4458  0.3647  0.5244
  130TCq2    C9 1989   2.963   2.526   1.705  0.4412  0.2824  0.3457
  130TCq2    O5 1990   3.042   2.559   1.613  0.2907  0.0595  0.5859
  130TCq2    O6 1991   3.001   2.533   1.821  0.3634 -1.3419  0.2361
  130TCq2    H2 1992   2.820   2.608   1.482  1.5959 -1.7312 -0.3873
  130TCq2    H3 1993   2.790   2.393   1.851  0.4001  2.0687  0.2488
  130TCq2    H4 1994   2.469   2.385   1.567  0.1111 -2.6997  2.1094
  131MPD2     C 1995   3.191   2.486   9.518 -0.2643 -0.2361 -0.4443
  131MPD2    C1 1996   3.236   2.356   9.528 -0.3480  0.0587  0.4393
  131MPD2    C2 1997   3.253   2.283   9.413 -1.0103 -0.2915 -1.1703
  131MPD2    C3 1998   3.238   2.339   9.288 -0.2007  0.7294 -0.0258
  131MPD2    C4 1999   3.197   2.475   9.277 -0.2330  0.6773 -0.1138
  131MPD2    C5 2000   3.177   2.539   9.395 -0.4773  0.8932  0.4617
  131MPD2     H 2001   3.271   2.179   9.436 -3.1413  0.4395  3.8242
  131MPD2    H1 2002   3.185   2.533   9.187 -1.2532 -2.7655 -2.2013
  131MPD2    H2 2003   3.177   2.553   9.602  0.6725 -2.9193  1.8532
  131MPD2    H3 2004   3.172   2.647   9.381 -1.9269  0.5922 -1.3574
  131MPD2     N 2005   3.237   2.248   9.184  0.3578  0.0751 -0.6783
  131MPD2    H5 2006   3.246   2.149   9.206 -1.4707  0.7897  3.2637
  131MPD2    N1 2007   3.264   2.301   9.654  0.2385 -0.1923 -0.6174
  131MPD2    H7 2008   3.224   2.349   9.734 -0.5214 -0.7074 -0.6929
  132TCq2    C1 2009   3.388   2.331  10.153  0.2468 -0.3576 -0.2014
  132TCq2    O2 2010   3.331   2.442  10.142 -0.4714 -0.0334 -0.1701
  132TCq2    C2 2011   3.368   2.223  10.057 -0.2210  0.0961 -0.2128
  132TCq2    C3 2012   3.412   2.095  10.090  0.1520 -0.5964  0.0325
  132TCq2    C4 2013   3.438   2.004   9.988 -0.5022 -0.9253 -0.6630
  132TCq2    C5 2014   3.417   2.044   9.857  0.4579 -0.1805 -0.2134
  132TCq2    C6 2015   3.358   2.166   9.824 -0.1145  0.1104 -0.0004
  132TCq2    C7 2016   3.339   2.258   9.924  0.3379 -0.1988  0.1465
  132TCq2    C8 2017   3.328   2.188   9.684  0.1000  0.2068 -0.8620
  132TCq2    O4 2018   3.378   2.106   9.608  0.4979  0.0193  0.1989
  132TCq2    C9 2019   3.472   1.868  10.019 -0.2987  0.1113 -0.2784
  132TCq2    O5 2020   3.449   1.824  10.137  0.5589 -0.5272 -0.3210
  132TCq2    O6 2021   3.496   1.801   9.919  0.4803  0.7709  0.0056
  132TCq2    H2 2022   3.411   2.056  10.191  2.3141  0.0031  0.2708
  132TCq2    H3 2023   3.421   1.963   9.784 -1.4055 -1.0333  0.6283
  132TCq2    H4 2024   3.302   2.359   9.911  2.1171  0.4293 -0.0341
  133MPD2     C 2025   3.643   0.642   9.239  0.6578  0.5474 -0.0904
  133MPD2    C1 2026   3.506   0.607   9.234  0.4453  0.4329 -0.2205
  133MPD2    C2 2027   3.406   0.708   9.221 -0.9225 -0.0350  0.1069
  133MPD2    C3 2028   3.451   0.842   9.195 -0.5235 -0.5263  0.4412
  133MPD2    C4 2029   3.592   0.871   9.198 -0.0059 -0.0279 -0.4725
  133MPD2    C5 2030   3.683   0.768   9.216  0.6443  0.2646  0.0170
  133MPD2     H 2031   3.306   0.677   9.195 -0.8475 -0.2264  0.0494
  133MPD2    H1 2032   3.627   0.971   9.177  1.8289 -0.3586  0.9903
  133MPD2    H2 2033   3.722   0.568   9.245  0.3309  0.2938  1.1679
  133MPD2    H3 2034   3.789   0.793   9.211  0.8263 -0.5694 -0.4568
  133MPD2     N 2035   3.365   0.947   9.180 -0.0240  0.1928 -0.3258
  133MPD2    H5 2036   3.414   1.035   9.175  1.5968 -0.6391  0.9794
  133MPD2    N1 2037   3.472   0.474   9.262  0.8848 -0.4035  0.7865
  133MPD2    H7 2038   3.539   0.402   9.287  2.4698  2.1912  3.9187
  134TCq2    C1 2039   3.342   0.421   9.256  0.2563  0.1290 -0.2967
  134TCq2    O2 2040   3.234   0.474   9.238  0.6188 -0.1906 -0.1235
  134TCq2    C2 2041   3.352   0.273   9.264  0.4853  0.0137 -0.0838
  134TCq2    C3 2042   3.472   0.200   9.247  0.3066  0.1931  0.3401
  134TCq2    C4 2043   3.467   0.067   9.218  0.2697 -0.2413 -0.4034
  134TCq2    C5 2044   3.350   4.722   9.217 -0.2319 -0.0853 -0.3352
  134TCq2    C6 2045   3.237   0.069   9.243  1.0242 -0.3387  0.0475
  134TCq2    C7 2046   3.234   0.208   9.262 -0.2059  0.5011  0.0399
  134TCq2    C8 2047   3.109   4.720   9.266 -0.2408  0.1883 -0.2829
  134TCq2    O4 2048   3.019   0.065   9.309  0.6431 -0.4300  0.0330
  134TCq2    C9 2049   3.596   4.719   9.211 -0.6883  0.5871 -0.0720
  134TCq2    O5 2050   3.700   0.062   9.238  0.1672  0.0746  0.3204
  134TCq2    O6 2051   3.585   4.595   9.213  0.1541  0.1157 -0.4266
  134TCq2    H2 2052   3.568   0.250   9.255  2.0102 -2.7563 -1.8135
  134TCq2    H3 2053   3.351   4.614   9.206  1.9315 -0.2460  1.4413
  134TCq2    H4 2054   3.143   0.259   9.292 -1.4346 -0.6918 -1.5850
  135MPD2     C 2055   0.509   2.580   9.222 -0.2804  0.9624 -1.1569
  135MPD2    C1 2056   0.633   2.635   9.177  0.7604  0.6857 -0.2171
  135MPD2    C2 2057   0.717   2.556   9.103  0.0231 -0.4896 -0.3199
  135MPD2    C3 2058   0.679   2.423   9.071  0.4948 -0.1416 -0.2601
  135MPD2    C4 2059   0.562   2.368   9.129 -0.3593 -0.1031 -0.9944
  135MPD2    C5 2060   0.481   2.451   9.197 -0.2396  0.0297 -0.6001
  135MPD2     H 2061   0.801   2.602   9.052  1.4335 -0.9663  1.5651
  135MPD2    H1 2062   0.530   2.266   9.113  0.1972 -0.7047  1.7521
  135MPD2    H2 2063   0.429   2.633   9.272 -1.3586  0.6368 -2.5455
  135MPD2    H3 2064   0.387   2.407   9.230 -2.5317  2.5918 -3.7138
  135MPD2     N 2065   0.762   2.327   9.008 -0.5638 -0.3509  0.2489
  135MPD2    H5 2066   0.721   2.241   8.975  1.0611 -0.2214 -2.1072
  135MPD2    N1 2067   0.681   2.755   9.225  0.4917  0.4662 -0.2234
  135MPD2    H7 2068   0.771   2.794   9.200  1.0211  0.0182  0.9895
  136TCq2    C1 2069   0.626   2.825   9.329  0.2023 -0.7877  0.4036
  136TCq2    O2 2070   0.532   2.801   9.406 -0.2900 -0.0961  0.1736
  136TCq2    C2 2071   0.689   2.953   9.348  0.0870 -0.4432  0.8221
  136TCq2    C3 2072   0.745   3.015   9.245  0.1034 -1.1993 -0.3523
  136TCq2    C4 2073   0.799   3.138   9.259  0.4959 -0.3745  0.2090
  136TCq2    C5 2074   0.802   3.193   9.383 -0.1543  0.2511 -0.1674
  136TCq2    C6 2075   0.751   3.124   9.491  1.2174  0.3627 -0.1370
  136TCq2    C7 2076   0.689   3.008   9.474 -0.0135  0.3495 -0.1480
  136TCq2    C8 2077   0.693   3.212   9.593 -0.3526 -0.0309 -0.0249
  136TCq2    O4 2078   0.664   3.320   9.554  0.1330 -0.4175 -0.3927
  136TCq2    C9 2079   0.860   3.206   9.143  0.0230  0.1024 -0.6016
  136TCq2    O5 2080   0.848   3.151   9.030  0.3011  0.1095  0.4933
  136TCq2    O6 2081   0.915   3.315   9.170  0.1925 -0.4662  0.7394
  136TCq2    H2 2082   0.734   2.975   9.145 -0.4082  1.0426 -1.2038
  136TCq2    H3 2083   0.846   3.291   9.402 -1.2715  0.3914  1.7683
  136TCq2    H4 2084   0.642   2.953   9.554 -0.0183 -2.0175 -1.7797
  137MPD2     C 2085   0.383   1.149   9.673 -1.2783  0.4404  0.3056
  137MPD2    C1 2086   0.339   1.230   9.767  0.6061 -0.2457 -0.5256
  137MPD2    C2 2087   0.407   1.341   9.810 -0.0819 -0.0174  0.8592
  137MPD2    C3 2088   0.530   1.369   9.757 -0.8284 -0.5059  0.4246
  137MPD2    C4 2089   0.575   1.282   9.660  0.1072  0.7632 -0.2505
  137MPD2    C5 2090   0.508   1.172   9.622  0.3887 -0.0659  0.1121
  137MPD2     H 2091   0.369   1.418   9.876  0.4762  0.5388  0.5308
  137MPD2    H1 2092   0.675   1.280   9.618  1.1444 -4.1068  2.3525
  137MPD2    H2 2093   0.334   1.061   9.634 -0.1803  0.4079 -1.0233
  137MPD2    H3 2094   0.552   1.102   9.552  0.0573 -2.2763  2.1101
  137MPD2     N 2095   0.579   1.495   9.796 -0.0206  0.2723  0.2107
  137MPD2    H5 2096   0.514   1.560   9.838  0.4862  1.9682 -1.6171
  137MPD2    N1 2097   0.205   1.207   9.801  0.2187  0.5693 -0.3276
  137MPD2    H7 2098   0.146   1.139   9.754 -1.6253  1.7105  0.3379
  138TCq2    C1 2099   0.130   1.285   9.887  0.8479 -0.0624 -0.2980
  138TCq2    O2 2100   0.161   1.385   9.945  0.2128  0.4633  0.1653
  138TCq2    C2 2101   0.001   1.220   9.899  0.1840  0.0651  0.5649
  138TCq2    C3 2102   4.699   1.089   9.863 -0.0302  0.2713 -0.3577
  138TCq2    C4 2103   4.571   1.039   9.869 -0.0524  0.5070 -0.3653
  138TCq2    C5 2104   4.469   1.124   9.887 -0.1581  0.5528  0.3815
  138TCq2    C6 2105   4.493   1.259   9.913  0.0968 -0.1888 -1.1310
  138TCq2    C7 2106   4.620   1.308   9.913 -0.3385  0.2829 -0.5401
  138TCq2    C8 2107   4.378   1.350   9.896 -0.1075 -0.2091 -0.0161
  138TCq2    O4 2108   4.283   1.302   9.831  0.4896  0.3316 -0.3185
  138TCq2    C9 2109   4.551   0.898   9.835  0.4502 -0.6257  0.2705
  138TCq2    O5 2110   4.435   0.871   9.786 -0.1346  0.3594  0.0612
  138TCq2    O6 2111   4.662   0.842   9.816 -0.1101 -0.1604 -0.2316
  138TCq2    H2 2112   0.056   1.015   9.860 -0.8068 -0.5041 -1.6793
  138TCq2    H3 2113   4.368   1.085   9.877  0.1367 -0.3168  0.7343
  138TCq2    H4 2114   4.641   1.410   9.941  3.2636 -0.9611  1.3124
  139TMC2    C1 2115   4.433   1.232  12.676 -0.4206  0.7234 -0.1959
  139TMC2    C2 2116   4.436   1.323  12.575 -0.0218 -0.0001 -0.2561
  139TMC2    C3 2117   4.321   1.401  12.569 -0.1381  0.3410 -0.3408
  139TMC2    C4 2118   4.329   1.206  12.755  0.6627  0.2137  0.8256
  139TMC2    C5 2119   4.220   1.277  12.734  0.6406 -0.8827  0.2237
  139TMC2    C6 2120   4.215   1.381  12.652 -0.1812  0.1761  0.1387
  139TMC2     C 2121   4.558   1.158  12.699 -0.7443 -0.0330  0.3596
  139TMC2     O 2122   4.565   1.086  12.801  0.1922  0.0397  0.1943
  139TMC2     H 2123   4.517   1.340  12.505  1.3598 -1.2195  1.0480
  139TMC2    H1 2124   4.339   1.119  12.819  1.5986 -2.0390 -2.3374
  139TMC2    H2 2125   4.124   1.435  12.625 -0.0531 -0.6087 -1.8959
  139TMC2    C7 2126   4.105   1.257  12.817 -0.6111  0.1622  0.3965
  139TMC2    C8 2127   4.318   1.525  12.497 -0.7981 -0.7194  0.4885
  139TMC2    O1 2128   4.030   1.352  12.838  0.3790  0.7942  0.4182
  139TMC2    O2 2129   4.215   1.575  12.466  0.3244  0.0662  0.3728
  139TMC2    O5 2130   4.426   1.588  12.545 -0.3651  0.4924  0.0221
  139TMC2    H5 2131   4.468   1.541  12.619 -1.1618  0.7976  0.6745
  140MPD2     C 2132   0.096   1.050  12.454 -0.5052 -0.3929 -0.3374
  140MPD2    C1 2133   0.044   1.080  12.581  0.0856 -0.2059 -0.3563
  140MPD2    C2 2134   0.119   1.043  12.692  0.2528  0.0635 -0.5894
  140MPD2    C3 2135   0.244   0.991  12.674  0.1775  0.2899  0.0954
  140MPD2    C4 2136   0.295   0.974  12.549  0.0069 -0.3011 -0.5757
  140MPD2    C5 2137   0.226   1.010  12.437  0.4096  0.4218 -0.5655
  140MPD2     H 2138   0.087   1.052  12.796 -1.5659 -1.0297 -1.0525
  140MPD2    H1 2139   0.398   0.946  12.529  0.0546  1.1869 -2.4055
  140MPD2    H2 2140   0.050   1.090  12.365 -0.1705 -1.3770 -0.9489
  140MPD2    H3 2141   0.273   1.006  12.340 -0.1435  2.2332 -0.9091
  140MPD2     N 2142   0.312   0.951  12.795  0.1223  0.3431  0.7535
  140MPD2    H5 2143   0.262   0.961  12.883  0.9146  0.8280  1.1602
  140MPD2    N1 2144   4.640   1.146  12.589  0.2845  0.3367 -1.1245
  140MPD2    H7 2145   4.607   1.177  12.498  0.4507 -0.8541 -1.5967
  141TCq2    C1 2146   0.784   2.100  13.997 -0.1194  0.4037  0.5380
  141TCq2    O2 2147   0.865   2.030  14.060 -0.3949  0.0442 -0.1825
  141TCq2    C2 2148   0.763   2.237  14.042 -0.2251 -0.4028 -0.0488
  141TCq2    C3 2149   0.636   2.301  14.025  0.0634  0.1683 -0.0450
  141TCq2    C4 2150   0.639   2.439  14.036  0.1945  0.0411  0.7414
  141TCq2    C5 2151   0.748   2.509  14.074 -0.1790  0.1843 -0.3345
  141TCq2    C6 2152   0.868   2.443  14.098  0.8151  0.8763  0.3270
  141TCq2    C7 2153   0.875   2.305  14.068  0.0421 -0.2133 -0.3908
  141TCq2    C8 2154   0.991   2.515  14.124  0.1285 -0.0338  0.3320
  141TCq2    O4 2155   1.087   2.449  14.150 -0.2426 -0.1941  0.1308
  141TCq2    C9 2156   0.520   2.515  14.006 -0.5800  0.0925  1.1989
  141TCq2    O5 2157   0.521   2.640  14.019 -0.2051  0.1507  0.5516
  141TCq2    O6 2158   0.428   2.453  13.946 -0.4052 -0.0841 -0.3664
  141TCq2    H2 2159   0.547   2.257  13.981 -1.5124  1.4066  1.9125
  141TCq2    H3 2160   0.734   2.616  14.072 -1.4398  0.0142 -0.5987
  141TCq2    H4 2161   0.973   2.258  14.071  0.0247 -0.2012  0.5625
  142MPD2     C 2162   3.271   4.677   9.977 -0.0337 -0.6458  0.4999
  142MPD2    C1 2163   3.368   4.599   9.923  0.5147  0.4672  0.1157
  142MPD2    C2 2164   3.490   4.665   9.890  0.4322 -0.7330  0.6281
  142MPD2    C3 2165   3.509   0.082   9.905 -0.1767  0.4439 -0.0313
  142MPD2    C4 2166   3.410   0.153   9.963  0.2138  0.0492 -0.6487
  142MPD2    C5 2167   3.291   0.092   9.995  0.0378 -0.2166  0.6851
  142MPD2     H 2168   3.567   4.605   9.843 -0.8049 -1.1928 -0.7893
  142MPD2    H1 2169   3.427   0.256   9.990  3.8574 -0.1698 -2.2434
  142MPD2    H2 2170   3.174   4.644  10.013 -1.1755  1.5387 -0.6032
  142MPD2    H3 2171   3.210   0.145  10.045 -0.4736  0.0783 -0.4513
  142MPD2     N 2172   3.623   0.149   9.858  0.1550  0.6958 -0.8558
  142MPD2    H5 2173   3.629   0.248   9.880  0.3523  0.4787  0.0420
  142MPD2    N1 2174   3.351   4.465   9.910 -0.2520  0.2475 -0.7413
  142MPD2    H7 2175   3.270   4.426   9.957 -0.0306 -1.4285 -1.7787
  143TCq2    C1 2176   3.723   0.095   9.780  0.2477 -0.6755 -0.2678
  143TCq2    O2 2177   3.747   4.705   9.743  0.0706  0.1709 -0.0998
  143TCq2    C2 2178   3.822   0.196   9.759 -0.0620  0.4512  0.2905
  143TCq2    C3 2179   3.947   0.148   9.729  0.6979 -0.1537  0.3263
  143TCq2    C4 2180   4.052   0.240   9.718  0.3859 -0.2519  0.4863
  143TCq2    C5 2181   4.031   0.377   9.744 -0.6989  0.6476  0.5663
  143TCq2    C6 2182   3.905   0.416   9.779  0.1322  1.2492 -0.1718
  143TCq2    C7 2183   3.802   0.326   9.790 -0.1391 -0.3289  0.5858
  143TCq2    C8 2184   3.885   0.565   9.794 -0.3248  1.2423  0.7388
  143TCq2    O4 2185   3.963   0.639   9.733  0.0085  0.0275  0.6381
  143TCq2    C9 2186   4.174   0.202   9.660 -1.0760  0.5561 -0.2095
  143TCq2    O5 2187   4.174   0.121   9.566 -0.0811 -0.1774  0.1184
  143TCq2    O6 2188   4.262   0.291   9.669 -0.1606 -0.2449 -0.0867
  143TCq2    H2 2189   3.969   0.052   9.685 -1.6237 -0.8223  0.6248
  143TCq2    H3 2190   4.101   0.457   9.726  0.5692 -0.5131  0.3642
  143TCq2    H4 2191   3.703   0.370   9.794 -0.1342 -0.4398  2.3047
  144MPD2     C 2192   0.612   0.325   0.583  0.5048  0.2229  0.4681
  144MPD2    C1 2193   0.617   0.202   0.637 -0.6088 -0.8306 -0.2698
  144MPD2    C2 2194   0.734   0.150   0.685  0.0174 -0.3226  0.5218
  144MPD2    C3 2195   0.840   0.237   0.709  0.3698  0.5196 -0.0258
  144MPD2    C4 2196   0.836   0.366   0.662 -0.0275 -1.1827  0.1722
  144MPD2    C5 2197   0.726   0.411   0.598 -0.1583  0.0003  0.6212
  144MPD2     H 2198   0.721   0.049   0.724  1.7303 -0.3933  0.9333
  144MPD2    H1 2199   0.929   0.422   0.661  0.0104 -1.2205  0.9823
  144MPD2    H2 2200   0.520   0.372   0.550  0.3286 -1.6636 -1.7371
  144MPD2    H3 2201   0.733   0.513   0.561  0.4237  0.2378  1.3882
  144MPD2     N 2202   0.961   0.190   0.764 -0.0627  0.0965 -0.1887
  144MPD2    H5 2203   1.040   0.252   0.783 -0.5403  1.1000 -1.5307
  144MPD2    N1 2204   0.500   0.119   0.656  0.1652 -0.3484  0.2014
  144MPD2    H7 2205   0.518   0.021   0.674  0.1187  0.0593  2.4461
  145TCq2    C1 2206   0.995   0.063   0.789 -0.8152 -0.7012 -0.8073
  145TCq2    O2 2207   0.949   4.681   0.740  1.0794  0.0544 -0.0622
  145TCq2    C2 2208   1.122   0.053   0.843  0.6817  0.3347  0.4658
  145TCq2    C3 2209   1.189   4.661   0.837  0.2540  0.0560 -0.1779
  145TCq2    C4 2210   1.312   4.645   0.889 -0.0057 -0.4504  0.1583
  145TCq2    C5 2211   1.365   0.013   0.978 -0.3668  0.1611  0.0991
  145TCq2    C6 2212   1.286   0.124   0.998  0.9807 -0.4744  0.4920
  145TCq2    C7 2213   1.171   0.147   0.930  0.0966 -0.4289  0.5606
  145TCq2    C8 2214   1.349   0.223   1.083 -0.1352  0.4595  0.1279
  145TCq2    O4 2215   1.466   0.231   1.093 -0.1954 -0.3248  0.0325
  145TCq2    C9 2216   1.399   4.539   0.847 -0.5218 -0.2091 -0.2343
  145TCq2    O5 2217   1.362   4.486   0.742  0.2413  0.2752  0.1777
  145TCq2    O6 2218   1.506   4.514   0.907 -0.0128  0.1451 -0.2541
  145TCq2    H2 2219   1.165   4.572   0.780  0.9803 -1.2062  1.4674
  145TCq2    H3 2220   1.466   4.717   1.014 -0.9205 -1.6404  0.7859
  145TCq2    H4 2221   1.137   0.250   0.928  1.8651  0.1408 -0.1979
  146TMC2    C1 2222   2.102   3.001  12.502  0.1989  0.0786  0.4069
  146TMC2    C2 2223   1.979   3.006  12.448 -0.2468 -0.1534  0.0635
  146TMC2    C3 2224   1.962   2.935  12.332  0.1211  0.2276  0.8563
  146TMC2    C4 2225   2.217   2.947  12.447 -0.3070 -0.5376  0.9422
  146TMC2    C5 2226   2.197   2.888  12.320  0.3650 -0.0021  0.4244
  146TMC2    C6 2227   2.070   2.882  12.263 -0.2865 -0.5270  0.2036
  146TMC2     C 2228   2.116   3.083  12.615  0.4343 -0.3442  0.3107
  146TMC2     O 2229   2.042   3.184  12.616  0.2030 -0.0362  0.5001
  146TMC2     H 2230   1.896   3.053  12.498  0.0422  1.1557 -0.6893
  146TMC2    H1 2231   2.316   2.954  12.491  0.1339  1.1427 -0.3424
  146TMC2    H2 2232   2.041   2.841  12.167 -3.3141  0.6638  0.6179
  146TMC2    C7 2233   2.309   2.852  12.237 -0.3972 -0.2376 -0.3492
  146TMC2    C8 2234   1.835   2.929  12.270 -0.2377  0.0009 -0.3152
  146TMC2    O1 2235   2.286   2.840  12.116 -0.4632  0.2861  0.3298
  146TMC2    O2 2236   1.742   2.908  12.339  0.7129  0.3555  0.3101
  146TMC2    O5 2237   1.850   3.019  12.169  0.3340  0.5059 -0.1867
  146TMC2    H5 2238   1.941   3.057  12.169  0.3286  0.5122  2.3766
  147MPD2     C 2239   2.832   2.844  12.177 -0.1918  0.3592  0.4243
  147MPD2    C1 2240   2.809   2.808  12.305  0.1122  0.1924 -0.1451
  147MPD2    C2 2241   2.677   2.807  12.344  0.2088  0.5009 -0.4765
  147MPD2    C3 2242   2.564   2.830  12.262  0.0415  0.0095  0.5901
  147MPD2    C4 2243   2.590   2.847  12.127 -0.4284 -0.1624 -0.0799
  147MPD2    C5 2244   2.726   2.863  12.088 -0.2165  0.3103  0.5679
  147MPD2     H 2245   2.656   2.797  12.450  0.8657  2.6612 -0.1367
  147MPD2    H1 2246   2.511   2.855  12.053  0.1565 -1.2233 -0.8184
  147MPD2    H2 2247   2.936   2.839  12.147 -0.5460  1.9729 -1.0238
  147MPD2    H3 2248   2.765   2.877  11.988  1.0585 -2.9812  0.6141
  147MPD2     N 2249   2.427   2.838  12.314 -0.7265 -0.0341  0.1123
  147MPD2    H5 2250   2.422   2.828  12.415  0.1623  0.4898  0.2091
  147MPD2    N1 2251   2.926   2.778  12.382 -0.3830  0.9150 -0.0759
  147MPD2    H7 2252   3.015   2.780  12.334  0.6992  0.5944  1.9079
  148MPD2     C 2253   2.760   1.548  10.066  0.8156 -0.1926 -0.6915
  148MPD2    C1 2254   2.824   1.471  10.166  0.4411  0.5992  0.3899
  148MPD2    C2 2255   2.855   1.340  10.143 -0.3037 -0.3268  0.0912
  148MPD2    C3 2256   2.819   1.278  10.024  0.0609 -0.5194  0.2540
  148MPD2    C4 2257   2.747   1.355   9.934 -0.2422 -0.5278 -0.3620
  148MPD2    C5 2258   2.736   1.494   9.945 -0.4478 -0.5654 -0.4708
  148MPD2     H 2259   2.906   1.291  10.225  0.8559 -0.9670 -1.0003
  148MPD2    H1 2260   2.724   1.310   9.838  0.7723  2.4741 -2.0175
  148MPD2    H2 2261   2.725   1.648  10.091  3.3083  0.2958  0.8145
  148MPD2    H3 2262   2.693   1.553   9.865 -2.0955 -0.7232  0.3057
  148MPD2     N 2263   2.818   1.134  10.006 -0.0573  0.1424 -0.1572
  148MPD2    H5 2264   2.772   1.092   9.926  1.9234 -2.6213  0.1456
  148MPD2    N1 2265   2.857   1.518  10.295 -0.1688 -0.3130 -0.0816
  148MPD2    H7 2266   2.890   1.441  10.353  1.5562 -0.0969 -0.7808
  149TCq2    C1 2267   2.848   1.641  10.349 -0.2448  1.0513 -0.6779
  149TCq2    O2 2268   2.835   1.743  10.286 -0.0410 -0.3133  0.3880
  149TCq2    C2 2269   2.883   1.644  10.490  0.1182 -0.2353 -0.6778
  149TCq2    C3 2270   2.984   1.730  10.532  0.3594 -0.2059 -0.3978
  149TCq2    C4 2271   3.069   1.698  10.631 -0.1388  0.3034 -0.3325
  149TCq2    C5 2272   3.087   1.566  10.663 -0.5245 -0.0705 -0.1642
  149TCq2    C6 2273   2.995   1.471  10.618 -0.5162 -0.5160  0.0857
  149TCq2    C7 2274   2.893   1.515  10.533 -0.1431 -0.3640  0.5454
  149TCq2    C8 2275   3.030   1.325  10.598  0.1464  0.1839  0.2313
  149TCq2    O4 2276   2.958   1.264  10.516  0.1599  0.4447 -0.3672
  149TCq2    C9 2277   3.185   1.788  10.633 -0.1622 -0.5858  0.4020
  149TCq2    O5 2278   3.163   1.911  10.631 -0.2292 -0.9002  1.0650
  149TCq2    O6 2279   3.290   1.723  10.602 -0.3192 -0.4139  0.2358
  149TCq2    H2 2280   2.997   1.826  10.482  1.4832 -0.3581 -0.3936
  149TCq2    H3 2281   3.183   1.548  10.711 -1.0437  4.0392  2.4944
  149TCq2    H4 2282   2.809   1.447  10.529  0.0101 -0.5561  0.6099
  150MPD2     C 2283   4.293   1.312  11.619 -0.6925 -0.2541  0.4417
  150MPD2    C1 2284   4.359   1.287  11.500 -0.1555  0.3013 -0.4459
  150MPD2    C2 2285   4.474   1.355  11.481  0.2316 -0.2830  0.5207
  150MPD2    C3 2286   4.516   1.449  11.566 -0.4633 -0.4511  0.4942
  150MPD2    C4 2287   4.443   1.487  11.680  0.3852  0.2844  0.2474
  150MPD2    C5 2288   4.331   1.412  11.706 -0.0711 -1.0751  0.2458
  150MPD2     H 2289   4.538   1.340  11.395  0.7235 -1.8902  1.1814
  150MPD2    H1 2290   4.467   1.563  11.753 -0.8254  2.7804 -1.9899
  150MPD2    H2 2291   4.205   1.254  11.644  1.3029 -2.7931  1.5156
  150MPD2    H3 2292   4.272   1.429  11.795 -0.4595 -0.4278 -0.1312
  150MPD2     N 2293   4.645   1.513  11.540  0.6504 -0.1128  0.1146
  150MPD2    H5 2294   4.699   1.469  11.466 -2.0013 -0.8917 -1.3487
  150MPD2    N1 2295   4.304   1.199  11.406 -0.2230  0.3793 -0.1682
  150MPD2    H7 2296   4.221   1.145  11.428  0.3972 -0.9294 -1.0310
  151TCq2    C1 2297   4.711   1.588  11.627  0.3988  0.2213  0.6716
  151TCq2    O2 2298   4.683   1.619  11.742  0.6063  0.1208  0.4154
  151TCq2    C2 2299   0.126   1.596  11.580  0.1413  1.2065  0.3022
  151TCq2    C3 2300   0.156   1.529  11.463  0.7425 -0.4920 -0.0356
  151TCq2    C4 2301   0.283   1.467  11.456 -0.3024 -0.1074  0.5203
  151TCq2    C5 2302   0.370   1.468  11.565 -0.4369  0.3877 -0.9665
  151TCq2    C6 2303   0.336   1.534  11.679  0.4835 -0.2291  0.4445
  151TCq2    C7 2304   0.217   1.606  11.680 -0.6873  0.3423  0.5948
  151TCq2    C8 2305   0.426   1.528  11.788 -0.7977  0.2227  0.2350
  151TCq2    O4 2306   0.430   1.633  11.851 -0.4182 -0.2455 -0.2031
  151TCq2    C9 2307   0.317   1.388  11.344 -0.5658 -0.1262  0.1808
  151TCq2    O5 2308   0.406   1.301  11.357 -0.6207 -1.3894 -0.1979
  151TCq2    O6 2309   0.226   1.369  11.256 -0.0410  0.1730 -0.0876
  151TCq2    H2 2310   0.093   1.532  11.375 -0.2754 -2.2277  0.6302
  151TCq2    H3 2311   0.456   1.404  11.551 -0.3811  0.4355 -0.8402
  151TCq2    H4 2312   0.182   1.646  11.775  0.1121  0.7214  0.7235
  152MPD2     C 2313   4.338   0.802  11.949  0.8962  0.1911 -0.1155
  152MPD2    C1 2314   4.353   0.833  11.816 -0.1258 -0.1881  1.0958
  152MPD2    C2 2315   4.249   0.796  11.728 -0.3645  0.7962  0.1163
  152MPD2    C3 2316   4.141   0.722  11.765 -0.6781 -0.0367  0.1153
  152MPD2    C4 2317   4.133   0.690  11.899  0.6824 -0.0269  0.4156
  152MPD2    C5 2318   4.231   0.724  11.983 -0.0102  0.1091 -0.0005
  152MPD2     H 2319   4.247   0.825  11.624 -0.2298 -0.0879 -0.1343
  152MPD2    H1 2320   4.047   0.637  11.938  0.3636 -0.3983 -0.7878
  152MPD2    H2 2321   4.410   0.821  12.028 -0.6716  0.8164  1.1576
  152MPD2    H3 2322   4.222   0.680  12.081 -0.2744  0.8224  0.2940
  152MPD2     N 2323   4.041   0.691  11.669 -1.3678  0.1599 -1.0305
  152MPD2    H5 2324   4.050   0.730  11.576 -1.1712  1.5140 -0.4429
  152MPD2    N1 2325   4.459   0.923  11.788  0.3081 -0.0487  0.3360
  152MPD2    H7 2326   4.522   0.931  11.867  2.2414 -2.7983 -0.9180
  153TCq2    C1 2327   4.486   0.991  11.674  0.4513  0.3647  0.1951
  153TCq2    O2 2328   4.444   0.966  11.563 -0.0744 -0.1347  0.2389
  153TCq2    C2 2329   4.602   1.080  11.706  0.6123 -0.2340 -0.9448
  153TCq2    C3 2330   0.003   1.081  11.643  0.1244 -0.0720 -0.2274
  153TCq2    C4 2331   0.101   1.166  11.685  0.1748  0.0227  0.3684
  153TCq2    C5 2332   0.088   1.243  11.797  0.1453 -0.8923 -0.6203
  153TCq2    C6 2333   4.689   1.236  11.857  0.4299 -0.1260 -0.8570
  153TCq2    C7 2334   4.584   1.157  11.819 -0.3701 -0.1965  0.1605
  153TCq2    C8 2335   4.665   1.313  11.975 -0.3529 -0.3781 -0.6407
  153TCq2    O4 2336   4.550   1.348  11.999  0.1127 -0.3307 -0.0951
  153TCq2    C9 2337   0.238   1.145  11.641  0.3124 -0.3490  0.1704
  153TCq2    O5 2338   0.255   1.084  11.533  0.0779 -0.3134  0.1854
  153TCq2    O6 2339   0.330   1.204  11.704 -0.0500  0.2796 -0.3442
  153TCq2    H2 2340   0.031   1.015  11.561 -0.6263 -1.7001  0.8482
  153TCq2    H3 2341   0.166   1.312  11.828 -0.5945 -0.9127  1.3044
  153TCq2    H4 2342   4.488   1.151  11.868  0.4319 -0.6688  1.6701
  154MPD2     C 2343   1.244   1.306   0.103  0.6718  0.3598 -0.1719
  154MPD2    C1 2344   1.252   1.441   0.099  0.3731 -0.7806 -0.0035
  154MPD2    C2 2345   1.192   1.514   0.206 -0.4128  0.3758  0.7036
  154MPD2    C3 2346   1.120   1.450   0.303 -0.3738 -0.2610 -0.6215
  154MPD2    C4 2347   1.120   1.311   0.304 -0.7379  0.2549 -0.1205
  154MPD2    C5 2348   1.181   1.238   0.206 -0.1675 -0.4301 -0.1776
  154MPD2     H 2349   1.206   1.621   0.208  0.8601  0.2512 -1.1510
  154MPD2    H1 2350   1.069   1.254   0.381  1.4605 -2.4743 -0.7108
  154MPD2    H2 2351   1.289   1.246   0.024  2.4172  0.1253  0.9853
  154MPD2    H3 2352   1.182   1.129   0.211 -2.2204 -0.3828  1.0305
  154MPD2     N 2353   1.051   1.532   0.396  0.2703  0.9599  0.2053
  154MPD2    H5 2354   1.040   1.630   0.374  0.1590  1.0909  0.8496
  154MPD2    N1 2355   1.344   1.503   0.011 -0.2154 -0.0357 -0.0130
  154MPD2    H7 2356   1.404   1.439  17.651  0.2879 -0.1997  0.7782
  155TCq2    C1 2357   1.360   1.636  17.684  0.2227 -0.1267  0.0973
  155TCq2    O2 2358   1.289   1.726   0.036 -0.5466 -0.2616 -0.2896
  155TCq2    C2 2359   1.472   1.670  17.593  1.1851 -0.0175  1.4310
  155TCq2    C3 2360   1.540   1.786  17.627 -0.2286  1.7721  0.0077
  155TCq2    C4 2361   1.664   1.802  17.567  0.0464  0.5186 -0.0927
  155TCq2    C5 2362   1.716   1.707  17.486 -0.2582 -0.4286 -0.3355
  155TCq2    C6 2363   1.644   1.597  17.446 -0.0554 -0.2397  0.4000
  155TCq2    C7 2364   1.526   1.565  17.515  0.7489 -0.5740  0.2502
  155TCq2    C8 2365   1.711   1.495  17.384 -0.4112 -0.2139  0.0936
  155TCq2    O4 2366   1.675   1.381  17.413  0.0120  0.1819 -0.5684
  155TCq2    C9 2367   1.734   1.922  17.586  0.1405 -0.2115  0.0097
  155TCq2    O5 2368   1.676   2.010  17.656 -0.2569  0.2844  0.0742
  155TCq2    O6 2369   1.852   1.932  17.540  0.4690 -0.3991 -0.4893
  155TCq2    H2 2370   1.491   1.863  17.685 -1.1773  1.5422 -0.4775
  155TCq2    H3 2371   1.807   1.735  17.434  0.5140  0.8189  1.6777
  155TCq2    H4 2372   1.471   1.477  17.482  0.1527  0.3959 -1.3612
  156MPD2     C 2373   0.568   2.529  11.492  0.1332  0.0535 -0.1088
  156MPD2    C1 2374   0.438   2.531  11.441 -0.9200  0.0782 -0.7399
  156MPD2    C2 2375   0.340   2.569  11.526  0.0178  0.8398 -0.4633
  156MPD2    C3 2376   0.370   2.622  11.649  0.1747 -0.1645  0.0612
  156MPD2    C4 2377   0.500   2.629  11.692 -0.1970  0.0540 -0.0288
  156MPD2    C5 2378   0.597   2.590  11.608 -1.0448 -0.3466  0.1163
  156MPD2     H 2379   0.234   2.550  11.510  0.2952  0.4943 -1.8831
  156MPD2    H1 2380   0.534   2.677  11.784 -0.4162  0.0351  0.0622
  156MPD2    H2 2381   0.656   2.488  11.443  0.6477 -0.7725  1.5208
  156MPD2    H3 2382   0.699   2.591  11.645 -0.3696  1.1825 -1.7532
  156MPD2     N 2383   0.265   2.672  11.723 -0.4537 -1.3284  0.8517
  156MPD2    H5 2384   0.171   2.669  11.683 -0.0965  0.3099 -0.1148
  156MPD2    N1 2385   0.403   2.490  11.306  0.2464 -0.0862  0.0846
  156MPD2    H7 2386   0.481   2.471  11.243 -0.2133  1.7305 -1.0500
  157TCq2    C1 2387   0.276   2.499  11.243  0.4581  0.1859  0.8768
  157TCq2    O2 2388   0.166   2.519  11.294  0.0608 -0.2903  0.0696
  157TCq2    C2 2389   0.288   2.499  11.097  0.4169  0.3794  0.2930
  157TCq2    C3 2390   0.401   2.450  11.031  0.3614 -0.6999  0.1004
  157TCq2    C4 2391   0.404   2.477  10.896 -0.4258  0.4723  0.0389
  157TCq2    C5 2392   0.314   2.575  10.846  1.3074 -0.0746  0.8743
  157TCq2    C6 2393   0.204   2.625  10.920  0.2797 -0.2974 -0.2707
  157TCq2    C7 2394   0.186   2.578  11.044  0.0752  0.0848  0.2220
  157TCq2    C8 2395   0.162   2.765  10.895  0.2014  0.7627 -0.6432
  157TCq2    O4 2396   0.230   2.849  10.837 -0.0541 -0.1874  0.1229
  157TCq2    C9 2397   0.504   2.424  10.805  0.0022 -0.2286  0.9045
  157TCq2    O5 2398   0.588   2.347  10.857 -0.0061  0.3840 -0.4100
  157TCq2    O6 2399   0.516   2.464  10.686 -0.4975  0.1007 -0.0187
  157TCq2    H2 2400   0.477   2.384  11.072  2.2123  1.2680 -0.1243
  157TCq2    H3 2401   0.330   2.612  10.745  0.6939 -0.2219  0.7229
  157TCq2    H4 2402   0.113   2.623  11.111 -0.3733 -0.8135  0.3393
  158TMC2    C1 2403   4.429   2.186  13.353  0.2153  0.1336  0.4486
  158TMC2    C2 2404   4.501   2.221  13.241 -0.2160 -0.2371 -0.2309
  158TMC2    C3 2405   4.413   2.269  13.140 -1.0314 -0.3312 -0.0431
  158TMC2    C4 2406   4.287   2.196  13.370 -0.2698 -0.3077  0.6903
  158TMC2    C5 2407   4.216   2.246  13.268 -0.0933 -0.5714 -0.8964
  158TMC2    C6 2408   4.281   2.290  13.153  0.3250 -0.1561  0.2306
  158TMC2     C 2409   4.515   2.138  13.458 -0.3766  0.3850 -0.6881
  158TMC2     O 2410   4.631   2.150  13.431 -0.0904  0.1037  0.0938
  158TMC2     H 2411   4.609   2.225  13.232 -0.2379  1.5317  0.1552
  158TMC2    H1 2412   4.240   2.169  13.463 -0.1780  1.5792  1.2944
  158TMC2    H2 2413   4.217   2.309  13.067  1.9061  0.0292 -0.9031
  158TMC2    C7 2414   4.070   2.237  13.261  0.1856 -0.1320  0.0015
  158TMC2    C8 2415   4.483   2.288  13.020 -0.4124 -0.0382  0.1714
  158TMC2    O1 2416   4.016   2.296  13.172 -0.6155 -0.2504 -0.0066
  158TMC2    O2 2417   4.603   2.315  13.029 -0.1136 -0.0628  0.4243
  158TMC2    O5 2418   4.436   2.210  12.928 -1.0496  0.1741 -0.3630
  158TMC2    H5 2419   4.349   2.167  12.946  1.1380 -3.9014  0.4077
  159MPD2     C 2420   4.662   1.864  13.857  1.3439 -0.0575  0.5169
  159MPD2    C1 2421   4.535   1.825  13.831 -0.5641  0.4975 -0.0225
  159MPD2    C2 2422   4.472   1.886  13.721 -0.3144 -0.7151 -1.3855
  159MPD2    C3 2423   4.532   1.995  13.653 -0.1742 -0.1674  0.1002
  159MPD2    C4 2424   4.663   2.029  13.689 -0.1454  0.2100  0.3929
  159MPD2    C5 2425   0.001   1.964  13.790  0.0544  0.3091 -0.5752
  159MPD2     H 2426   4.366   1.871  13.705 -0.4169 -1.1355 -0.2918
  159MPD2    H1 2427   4.711   2.115  13.643 -1.9660  0.7234 -0.5514
  159MPD2    H2 2428   4.720   1.816  13.936  1.1540 -2.3619 -0.7411
  159MPD2    H3 2429   0.106   1.981  13.813 -0.0297  0.0428  0.0112
  159MPD2     N 2430   4.456   2.060  13.554 -0.6115  0.2048  0.8128
  159MPD2    H5 2431   4.356   2.043  13.548 -1.0330  2.3007  2.2509
  159MPD2    N1 2432   4.479   1.718  13.900  0.0280 -0.5644 -0.1121
  159MPD2    H7 2433   4.537   1.673  13.970  0.4658  0.6677  0.3074
  160TMC2    C1 2434   3.904   0.372   1.421 -0.3506 -0.5137 -0.3665
  160TMC2    C2 2435   4.016   0.346   1.503 -0.3567 -0.4708  0.3695
  160TMC2    C3 2436   4.089   0.459   1.523 -0.1041 -0.0985  0.0920
  160TMC2    C4 2437   3.876   0.492   1.365  0.2603 -0.3422 -0.1887
  160TMC2    C5 2438   3.957   0.597   1.399  0.8324  0.0086 -0.7997
  160TMC2    C6 2439   4.070   0.579   1.467  0.4040  0.6312 -0.4405
  160TMC2     C 2440   3.814   0.259   1.399  0.8299  0.1999  0.0451
  160TMC2     O 2441   3.845   0.150   1.442  0.0731 -0.0895 -0.4078
  160TMC2     H 2442   4.036   0.252   1.553  0.2974  0.0319  1.0485
  160TMC2    H1 2443   3.790   0.506   1.300 -0.2551  1.3238  0.8299
  160TMC2    H2 2444   4.129   0.657   1.512  0.0589  0.7195 -0.1384
  160TMC2    C7 2445   3.952   0.702   1.304  0.0932  0.2102 -0.1517
  160TMC2    C8 2446   4.227   0.432   1.559  0.5458 -0.2531  0.2566
  160TMC2    O1 2447   3.843   0.722   1.248 -0.2197  0.1816  0.1518
  160TMC2    O2 2448   4.256   0.392   1.671 -0.1746 -0.1970  0.1524
  160TMC2    O5 2449   4.273   0.375   1.445  0.2144  0.1759 -0.0442
  160TMC2    H5 2450   4.250   0.421   1.361 -1.8388 -1.1230 -0.1888
  161MPD2     C 2451   3.625   0.072   1.282 -0.0315  0.2025  0.3184
  161MPD2    C1 2452   3.604   0.208   1.293 -0.0489 -0.0239 -0.2295
  161MPD2    C2 2453   3.479   0.259   1.254  0.3955  0.2951  0.4560
  161MPD2    C3 2454   3.386   0.174   1.196  0.1942 -0.7670 -0.0530
  161MPD2    C4 2455   3.418   0.039   1.179 -0.8817 -0.2350 -0.5077
  161MPD2    C5 2456   3.538   4.715   1.218  0.4348 -1.2961  0.2185
  161MPD2     H 2457   3.462   0.365   1.269  1.1928  0.3766  0.7698
  161MPD2    H1 2458   3.349   4.687   1.141 -0.4876 -0.8462 -0.0278
  161MPD2    H2 2459   3.721   0.027   1.305  1.0274  1.0678 -2.4844
  161MPD2    H3 2460   3.562   4.611   1.199 -0.2498 -1.5140  0.5347
  161MPD2     N 2461   3.257   0.217   1.146  0.1118  0.1760 -0.7117
  161MPD2    H5 2462   3.202   0.148   1.097  0.0381  1.3286 -2.2422
  161MPD2    N1 2463   3.697   0.296   1.348 -0.1921  0.2290  1.4490
  161MPD2    H7 2464   3.681   0.395   1.358 -1.6101  0.0525  0.8725
  162TMC2    C1 2465   1.896   2.002   0.986 -0.1338 -0.2143  0.4343
  162TMC2    C2 2466   1.787   2.071   1.016  0.1090  0.0360 -0.7027
  162TMC2    C3 2467   1.711   2.015   1.113 -0.7462 -0.6557 -0.1747
  162TMC2    C4 2468   1.928   1.882   1.040 -0.8067  0.0114  0.0186
  162TMC2    C5 2469   1.840   1.828   1.127 -0.0200  0.3427 -0.1054
  162TMC2    C6 2470   1.728   1.893   1.166  0.0452  0.7859 -0.1013
  162TMC2     C 2471   1.974   2.043   0.871  0.4240  0.0654  0.7044
  162TMC2     O 2472   2.093   2.020   0.875 -0.2596  0.5845  0.3157
  162TMC2     H 2473   1.772   2.173   0.983 -0.2525 -0.3306 -1.6679
  162TMC2    H1 2474   2.009   1.835   0.986 -2.3024 -0.7716 -1.5485
  162TMC2    H2 2475   1.662   1.847   1.239  0.4877 -0.3599 -0.4157
  162TMC2    C7 2476   1.890   1.726   1.211  0.0038  0.5206 -0.0308
  162TMC2    C8 2477   1.599   2.088   1.172 -0.7992 -0.1747  0.3747
  162TMC2    O1 2478   1.831   1.704   1.314  0.0268 -0.0440  0.4799
  162TMC2    O2 2479   1.547   2.060   1.278 -0.2193  0.0767  0.2209
  162TMC2    O5 2480   1.537   2.144   1.070 -0.7385  0.2247  0.1829
  162TMC2    H5 2481   1.571   2.122   0.981 -5.0447 -1.8223 -0.9817
  163MPD2     C 2482   2.080   2.328   0.471  0.3996 -0.5175  0.1589
  163MPD2    C1 2483   2.144   2.214   0.515  0.2285  0.5045 -0.1670
  163MPD2    C2 2484   2.082   2.137   0.611  0.5144 -0.2207  0.2946
  163MPD2    C3 2485   1.962   2.164   0.666 -0.2937 -0.1899 -0.7887
  163MPD2    C4 2486   1.896   2.267   0.603 -0.0512 -0.3394  0.1488
  163MPD2    C5 2487   1.951   2.347   0.503 -0.4112 -0.1991 -0.6857
  163MPD2     H 2488   2.138   2.051   0.644 -1.7019 -1.5061  0.6952
  163MPD2    H1 2489   1.803   2.299   0.649 -1.0627 -2.2679 -0.5971
  163MPD2    H2 2490   2.129   2.387   0.395 -0.3998 -0.9006 -0.6571
  163MPD2    H3 2491   1.908   2.439   0.466  2.3853 -0.0540 -3.5376
  163MPD2     N 2492   1.900   2.110   0.773  0.1182  0.3279 -0.0154
  163MPD2    H5 2493   1.803   2.132   0.791  0.1316  1.4740 -1.3167
  163MPD2    N1 2494   2.257   2.175   0.440  0.2930 -0.0489 -0.0729
  163MPD2    H7 2495   2.281   2.236   0.363  0.6218  1.3275  1.1260
  164TCq2    C1 2496   3.707   1.035  10.815  0.1646  0.0314 -0.0200
  164TCq2    O2 2497   3.658   0.953  10.891  0.3107 -0.2492  0.4295
  164TCq2    C2 2498   3.679   1.175  10.836  0.5774  0.6458  0.0466
  164TCq2    C3 2499   3.719   1.271  10.746 -0.6482 -0.3248  0.1838
  164TCq2    C4 2500   3.643   1.379  10.714 -0.2218  0.2475  0.4835
  164TCq2    C5 2501   3.537   1.399  10.787  0.0124  0.1101  0.1338
  164TCq2    C6 2502   3.500   1.312  10.891  0.7841 -0.6371  0.2717
  164TCq2    C7 2503   3.571   1.199  10.917 -0.3656  0.7536  0.1803
  164TCq2    C8 2504   3.377   1.336  10.965  0.4831 -0.5071 -0.0940
  164TCq2    O4 2505   3.303   1.411  10.903  0.0666  0.3259  0.1439
  164TCq2    C9 2506   3.661   1.459  10.594 -0.3884  0.8580  0.0704
  164TCq2    O5 2507   3.764   1.430  10.524 -0.1144 -0.0028  0.0608
  164TCq2    O6 2508   3.564   1.536  10.561  0.0746  0.5733  0.1946
  164TCq2    H2 2509   3.796   1.252  10.672 -0.2982 -2.1576  1.0189
  164TCq2    H3 2510   3.471   1.483  10.768  2.6131  2.1695  0.1944
  164TCq2    H4 2511   3.532   1.123  10.984 -0.5788  1.3402  0.7167
  165MPD2     C 2512   3.587   3.391   1.311 -0.1584  0.0317 -0.4238
  165MPD2    C1 2513   3.642   3.341   1.425 -0.7735 -0.2116  0.2729
  165MPD2    C2 2514   3.699   3.432   1.521 -0.0691 -0.6600  0.3851
  165MPD2    C3 2515   3.691   3.567   1.493  0.3547 -0.3561 -0.0388
  165MPD2    C4 2516   3.625   3.614   1.381  0.4217  0.1579 -0.6027
  165MPD2    C5 2517   3.576   3.524   1.289  0.2003  0.1682  0.2862
  165MPD2     H 2518   3.726   3.401   1.621  0.3100  0.1583  0.5313
  165MPD2    H1 2519   3.616   3.719   1.357 -1.6335  0.4766  1.5329
  165MPD2    H2 2520   3.544   3.318   1.243  0.5000 -0.4144 -0.3581
  165MPD2    H3 2521   3.534   3.549   1.192  1.7613  1.0361 -0.1671
  165MPD2     N 2522   3.739   3.667   1.585 -0.2973  0.0535  0.0101
  165MPD2    H5 2523   3.725   3.765   1.564  2.1001  0.0756 -1.5295
  165MPD2    N1 2524   3.634   3.198   1.449  0.4831 -0.2723 -0.4781
  165MPD2    H7 2525   3.586   3.144   1.377 -1.5509  1.1213 -0.1870
  166TCq2    C1 2526   3.812   3.643   1.698  0.1885 -0.1745  0.4869
  166TCq2    O2 2527   3.844   3.536   1.750 -0.1479  0.1184  0.3505
  166TCq2    C2 2528   3.876   3.760   1.754  0.0270 -0.3678 -0.3868
  166TCq2    C3 2529   3.929   3.744   1.886  1.2819  0.6095 -0.4667
  166TCq2    C4 2530   3.970   3.861   1.955  0.2298 -0.5658 -0.4841
  166TCq2    C5 2531   3.959   3.983   1.899 -0.9417  0.5247  0.1624
  166TCq2    C6 2532   3.900   3.993   1.773  0.0323 -0.0330  0.3808
  166TCq2    C7 2533   3.869   3.885   1.696  1.0735  0.3617 -0.3206
  166TCq2    C8 2534   3.907   4.123   1.710 -0.3365  0.2960  0.1161
  166TCq2    O4 2535   4.005   4.193   1.729 -0.1194 -0.0130 -0.1665
  166TCq2    C9 2536   4.040   3.849   2.078  0.3890  0.0551  0.3138
  166TCq2    O5 2537   4.013   3.743   2.144 -0.3039  0.3687 -0.3456
  166TCq2    O6 2538   4.113   3.942   2.111  0.4562 -0.4676  0.6381
  166TCq2    H2 2539   3.944   3.644   1.926 -0.3738 -0.0701 -1.5450
  166TCq2    H3 2540   3.989   4.075   1.948 -1.4269  0.2979  0.8770
  166TCq2    H4 2541   3.847   3.903   1.591  0.9242 -0.9244 -0.5115
  167TMC2    C1 2542   3.254   1.424  12.169  0.3303 -0.1773 -0.5428
  167TMC2    C2 2543   3.365   1.461  12.093 -0.2156 -0.3441 -0.1069
  167TMC2    C3 2544   3.462   1.361  12.083 -0.0289  0.2300 -1.0234
  167TMC2    C4 2545   3.245   1.305  12.229 -0.7421  0.1990 -0.6954
  167TMC2    C5 2546   3.342   1.214  12.221 -0.3633  0.3202 -0.0671
  167TMC2    C6 2547   3.450   1.240  12.139 -0.8941  0.4520  0.6177
  167TMC2     C 2548   3.180   1.530  12.233  0.7836  0.1944  0.1719
  167TMC2     O 2549   3.068   1.504  12.271  0.4226  0.0579  0.5442
  167TMC2     H 2550   3.372   1.555  12.040  1.6395 -0.4841 -0.1176
  167TMC2    H1 2551   3.159   1.270  12.284  0.3020 -0.6691  0.3733
  167TMC2    H2 2552   3.536   1.177  12.121 -0.4230  2.4064 -3.8498
  167TMC2    C7 2553   3.321   1.087  12.286 -0.3809  0.1135 -0.4015
  167TMC2    C8 2554   3.585   1.383  12.005 -0.4278  0.7260  0.1486
  167TMC2    O1 2555   3.264   1.083  12.397 -0.1562  0.4407  0.1819
  167TMC2    O2 2556   3.650   1.290  11.959  0.1314 -0.0339 -0.0767
  167TMC2    O5 2557   3.602   1.515  11.980  0.1982 -0.2870 -0.1749
  167TMC2    H5 2558   3.551   1.578  12.035 -0.6814  0.6370 -2.0225
  168MPD2     C 2559   3.280   1.874  12.289 -0.0354  1.0138  0.3203
  168MPD2    C1 2560   3.193   1.767  12.280 -0.6674  0.5940  0.1947
  168MPD2    C2 2561   3.056   1.780  12.281 -0.4257  0.4354 -0.6453
  168MPD2    C3 2562   3.009   1.906  12.313  0.4895  0.5079  0.4131
  168MPD2    C4 2563   3.092   2.017  12.321 -0.3200  0.7969 -0.0813
  168MPD2    C5 2564   3.229   1.999  12.315  0.4061 -0.1292  0.1831
  168MPD2     H 2565   2.984   1.699  12.275  1.8946 -1.6115 -0.5527
  168MPD2    H1 2566   3.042   2.111  12.342 -1.4648  0.0639  0.4053
  168MPD2    H2 2567   3.388   1.865  12.282 -0.1071  0.4865 -0.1122
  168MPD2    H3 2568   3.292   2.084  12.340  1.5543 -0.5433 -1.2853
  168MPD2     N 2569   2.869   1.932  12.328 -0.1294  0.5761 -0.1112
  168MPD2    H5 2570   2.838   2.027  12.345 -1.0865  0.4374 -1.0895
  168MPD2    N1 2571   3.257   1.645  12.249 -0.5070  0.3117 -0.4876
  168MPD2    H7 2572   3.356   1.640  12.230 -0.8021  0.7174 -2.1072
  169MPD1     C 2573   4.159   0.986   9.205  0.0192 -0.3075  0.3159
  169MPD1    C1 2574   4.158   0.851   9.224 -0.3096  0.2813  0.5886
  169MPD1    C2 2575   4.285   0.793   9.196 -0.1494  0.4333  0.0427
  169MPD1    C3 2576   4.399   0.862   9.169  1.5734  0.4049  0.7278
  169MPD1    C4 2577   4.394   0.996   9.153  0.2520  0.0013  0.0358
  169MPD1    C5 2578   4.271   1.053   9.168 -0.3662  0.3590  0.3825
  169MPD1     H 2579   4.284   0.685   9.200  0.2872  0.4352  0.2382
  169MPD1    H1 2580   4.476   1.064   9.135  0.5063 -1.0868 -2.9778
  169MPD1    H2 2581   4.072   1.049   9.190  1.1619  1.6750  1.9334
  169MPD1    H3 2582   4.262   1.159   9.147  0.5227  0.7010  1.8002
  169MPD1     N 2583   4.512   0.783   9.142 -0.1452  0.3504  0.3875
  169MPD1    H5 2584   4.499   0.683   9.131 -1.3945  0.3371  2.0191
  169MPD1    N1 2585   4.040   0.789   9.226 -0.4508 -0.2733  0.3495
  169MPD1    H6 2586   3.969   0.846   9.271 -0.2218 -0.0608  0.4396
  169MPD1    H7 2587   4.048   0.697   9.270  1.6856  0.3322  1.2167
  170MPD1     C 2588   4.507   4.224  13.501 -0.1353  0.5195  0.4330
  170MPD1    C1 2589   4.590   4.111  13.504 -0.7160 -0.3023  0.2975
  170MPD1    C2 2590   4.546   3.998  13.445 -0.1313 -0.0479 -0.4302
  170MPD1    C3 2591   4.417   3.991  13.388  0.1027  0.0923  0.9289
  170MPD1    C4 2592   4.334   4.108  13.395  0.8203 -0.2354 -0.1834
  170MPD1    C5 2593   4.380   4.219  13.454 -0.3939 -0.1950  0.3950
  170MPD1     H 2594   4.612   3.913  13.436 -0.1241 -0.2238  1.2988
  170MPD1    H1 2595   4.230   4.116  13.364  0.5019 -0.8930  0.7271
  170MPD1    H2 2596   4.531   4.319  13.548  1.2317  0.5115 -0.2306
  170MPD1    H3 2597   4.315   4.303  13.477 -0.5707  0.2309 -1.6781
  170MPD1     N 2598   4.365   3.867  13.344  0.2835  0.3362  0.0970
  170MPD1    H5 2599   4.433   3.792  13.347  0.4429  0.4580 -0.4797
  170MPD1    N1 2600   0.003   4.135  13.543  0.0889 -0.1233 -0.5759
  170MPD1    H6 2601   0.061   4.052  13.554 -0.8781 -0.6835  0.3221
  170MPD1    H7 2602   0.014   4.190  13.628  0.9140  0.6963 -1.2112
  171MPD1     C 2603   1.975   1.042  15.608  0.1709  0.2332  0.8570
  171MPD1    C1 2604   1.930   0.944  15.530  0.0484  0.5774 -1.0030
  171MPD1    C2 2605   1.989   0.820  15.536  0.2751  0.1166 -0.2164
  171MPD1    C3 2606   2.089   0.797  15.637  0.1731 -0.0389  0.2961
  171MPD1    C4 2607   2.117   0.891  15.731 -0.6832  0.7611 -0.4614
  171MPD1    C5 2608   2.062   1.010  15.712  0.0205  0.3673  0.7044
  171MPD1     H 2609   1.967   0.743  15.462  0.5733  2.0019 -2.2630
  171MPD1    H1 2610   2.183   0.877  15.815 -1.2969 -1.2691 -0.3258
  171MPD1    H2 2611   1.952   1.148  15.603  1.2540  0.3859 -0.9533
  171MPD1    H3 2612   2.097   1.090  15.777  1.8936  1.2745 -1.4173
  171MPD1     N 2613   2.169   0.680  15.658 -0.3241 -0.6233  0.3746
  171MPD1    H5 2614   2.231   0.676  15.739 -0.2098 -0.0347  0.3118
  171MPD1    N1 2615   1.856   0.976  15.418  0.2735  0.6648  0.0481
  171MPD1    H6 2616   1.786   0.902  15.407 -0.5533  1.4371  0.0912
  171MPD1    H7 2617   1.801   1.059  15.437 -0.7179  0.0823 -0.2747
  172MPD1     C 2618   0.083   4.140   0.193  0.2309 -0.1355 -0.1090
  172MPD1    C1 2619   0.154   4.230   0.115  0.1919 -0.0067  0.5721
  172MPD1    C2 2620   0.280   4.256   0.158  0.1995  0.0057 -0.3466
  172MPD1    C3 2621   0.332   4.211   0.279 -0.0200  0.3361 -0.4702
  172MPD1    C4 2622   0.255   4.126   0.357  0.1096  0.3494 -0.6759
  172MPD1    C5 2623   0.129   4.090   0.313 -0.2550 -0.3682 -0.2052
  172MPD1     H 2624   0.336   4.323   0.094  1.5902 -1.2999 -0.4787
  172MPD1    H1 2625   0.289   4.102   0.457  0.3594 -1.8183 -1.2843
  172MPD1    H2 2626   4.706   4.100   0.175  0.8186 -1.5537 -0.1704
  172MPD1    H3 2627   0.077   4.023   0.380 -0.8859 -0.2039 -0.5347
  172MPD1     N 2628   0.461   4.254   0.331 -0.3332  0.4492 -0.3638
  172MPD1    H5 2629   0.497   4.206   0.412 -3.1252 -0.8622  0.1061
  172MPD1    N1 2630   0.109   4.275  17.678 -0.3903  0.1216  0.3538
  172MPD1    H6 2631   0.007   4.279  17.672 -0.3191 -0.2226 -1.0727
  172MPD1    H7 2632   0.147   4.367  17.654  0.7028 -0.2317  0.7315
  173MPD1     C 2633   2.413   0.018  13.737 -1.0830  0.0817 -0.1110
  173MPD1    C1 2634   2.335   0.005  13.854  0.0151  0.5642 -0.5549
  173MPD1    C2 2635   2.388   4.647  13.960  0.6239 -0.3186  0.4205
  173MPD1    C3 2636   2.493   4.566  13.936 -0.2567  0.6838 -0.2650
  173MPD1    C4 2637   2.552   4.564  13.808 -0.1460  0.0851  0.3930
  173MPD1    C5 2638   2.515   4.654  13.709 -0.1458  0.7234  0.5739
  173MPD1     H 2639   2.341   4.654  14.058  0.4117 -0.3826  0.3238
  173MPD1    H1 2640   2.640   4.505  13.784 -1.3597 -1.2630 -0.6749
  173MPD1    H2 2641   2.400   0.085  13.653  0.5816  1.9622  1.1293
  173MPD1    H3 2642   2.558   4.658  13.610 -0.2821  1.7484  0.5478
  173MPD1     N 2643   2.535   4.483  14.040 -0.0371  0.6680  0.0675
  173MPD1    H5 2644   2.510   4.517  14.133 -0.6671  0.3677  0.0061
  173MPD1    N1 2645   2.237   0.101  13.887  0.4070  0.0986  0.8467
  173MPD1    H6 2646   2.182   0.121  13.805  1.1768 -1.2655  0.0028
  173MPD1    H7 2647   2.180   0.073  13.967 -1.5397 -1.1477 -1.0039
  174MPD1     C 2648   3.487   4.458  13.941  0.5204  0.4765  0.1455
  174MPD1    C1 2649   3.457   4.361  14.030 -0.1499  0.3933 -0.2136
  174MPD1    C2 2650   3.332   4.351  14.092  0.1020 -0.2147 -0.2216
  174MPD1    C3 2651   3.234   4.451  14.067 -0.3740 -0.3057  0.2031
  174MPD1    C4 2652   3.266   4.553  13.978  0.5818  0.0298  0.0985
  174MPD1    C5 2653   3.388   4.553  13.919 -0.3445 -0.6491  0.1259
  174MPD1     H 2654   3.306   4.264  14.151  2.4436 -0.4578  0.4506
  174MPD1    H1 2655   3.191   4.629  13.959  1.8082  1.2280 -0.0237
  174MPD1    H2 2656   3.583   4.468  13.892  0.5525 -0.5115  0.0053
  174MPD1    H3 2657   3.422   4.635  13.857  0.9833  0.0991  1.8310
  174MPD1     N 2658   3.100   4.432  14.111  0.6448  0.3179 -0.3305
  174MPD1    H5 2659   3.030   4.493  14.071  1.5214  0.8370 -1.0672
  174MPD1    N1 2660   3.552   4.250  14.043 -0.0293  0.3196  0.2472
  174MPD1    H6 2661   3.552   4.208  14.136  2.9863  1.0129  0.5519
  174MPD1    H7 2662   3.648   4.273  14.018  0.1554  0.1174  0.7604
  175MPD1     C 2663   1.189   1.156  15.417  0.0816 -0.3175 -0.0516
  175MPD1    C1 2664   1.068   1.101  15.437  0.1057 -0.4149  0.3809
  175MPD1    C2 2665   1.048   1.052  15.567  0.0978  0.0236  0.2269
  175MPD1    C3 2666   1.140   1.063  15.669 -0.5467 -0.2199 -0.3528
  175MPD1    C4 2667   1.257   1.131  15.646 -0.2358  0.1022 -0.2961
  175MPD1    C5 2668   1.282   1.175  15.518  0.1646 -0.2928 -0.9185
  175MPD1     H 2669   0.956   0.995  15.581 -0.1406  0.6080  1.0828
  175MPD1    H1 2670   1.331   1.143  15.724 -0.2236 -2.0212  0.0057
  175MPD1    H2 2671   1.206   1.194  15.316  0.6666 -0.2724  0.0650
  175MPD1    H3 2672   1.372   1.233  15.497 -0.7878  1.5347  0.0175
  175MPD1     N 2673   1.127   1.004  15.796 -0.1921  0.2549  0.0186
  175MPD1    H5 2674   1.209   1.018  15.855  1.0246  1.6205 -1.9823
  175MPD1    N1 2675   0.985   1.064  15.329  0.5353 -0.0016 -0.2851
  175MPD1    H6 2676   0.999   1.120  15.245  0.6237 -0.1097 -0.3433
  175MPD1    H7 2677   0.885   1.044  15.339  0.4800 -0.5689 -1.9632
  176MPD1     C 2678   2.188   3.010   0.487  0.1300  0.7117  0.6279
  176MPD1    C1 2679   2.208   3.128   0.560  0.1173 -0.2229  0.6995
  176MPD1    C2 2680   2.192   3.249   0.491  0.6206 -1.1498  0.1194
  176MPD1    C3 2681   2.143   3.261   0.367  0.1014  0.6383  0.3914
  176MPD1    C4 2682   2.125   3.145   0.296  0.7658 -0.2587 -0.3332
  176MPD1    C5 2683   2.142   3.022   0.360 -0.7463 -0.1546 -0.0118
  176MPD1     H 2684   2.221   3.341   0.541  1.3476 -1.5664  0.4577
  176MPD1    H1 2685   2.110   3.144   0.188  1.1818 -0.1808 -0.3943
  176MPD1    H2 2686   2.196   2.908   0.524  1.0997  2.0522  4.1070
  176MPD1    H3 2687   2.129   2.926   0.312 -1.0706  0.4022 -1.0183
  176MPD1     N 2688   2.141   3.392   0.304 -0.0353 -0.3163  0.2548
  176MPD1    H5 2689   2.196   3.462   0.353  2.3752 -2.2451  0.2845
  176MPD1    N1 2690   2.275   3.118   0.683 -0.0050 -0.2441 -1.1059
  176MPD1    H6 2691   2.242   3.034   0.730 -2.1014 -0.2290 -2.5581
  176MPD1    H7 2692   2.251   3.201   0.738  0.6533  0.2329 -1.5353
  177MPD1     C 2693   1.109   2.954   9.309 -0.1579  0.5607 -0.3288
  177MPD1    C1 2694   1.128   2.861   9.208 -0.4228  0.5533 -0.1361
  177MPD1    C2 2695   1.058   2.736   9.213 -0.4098 -0.1184 -0.0432
  177MPD1    C3 2696   0.989   2.701   9.325  0.0088  0.5524 -0.3950
  177MPD1    C4 2697   0.981   2.793   9.426 -0.4813 -0.0745 -0.5670
  177MPD1    C5 2698   1.039   2.914   9.420 -0.8195 -0.0408 -0.1492
  177MPD1     H 2699   1.076   2.663   9.135 -0.3364 -0.9546  0.7627
  177MPD1    H1 2700   0.939   2.765   9.523 -2.5311  4.6602 -0.0785
  177MPD1    H2 2701   1.160   3.050   9.311 -0.5594  0.7544  0.8520
  177MPD1    H3 2702   1.028   2.980   9.505  0.1162 -0.0317 -0.0389
  177MPD1     N 2703   0.946   2.567   9.337  0.1952  0.3107  0.1888
  177MPD1    H5 2704   0.970   2.515   9.253 -0.7632  0.8650 -0.4246
  177MPD1    N1 2705   1.195   2.897   9.089  0.4406  0.7716  1.0238
  177MPD1    H6 2706   1.261   2.974   9.098  1.2149  0.0352  1.6906
  177MPD1    H7 2707   1.246   2.821   9.046  0.5491  1.1821  0.4337
  178MPD1     C 2708   2.178   3.183  17.426  0.1478 -0.1026  0.1667
  178MPD1    C1 2709   2.290   3.215  17.503  0.1390  0.1422 -0.3560
  178MPD1    C2 2710   2.417   3.226  17.438 -0.2326  0.4496 -0.1479
  178MPD1    C3 2711   2.425   3.221  17.298  0.5848  0.6360 -0.7158
  178MPD1    C4 2712   2.314   3.185  17.227 -0.3788 -0.1086 -0.2812
  178MPD1    C5 2713   2.191   3.169  17.290  0.1214  0.0035 -0.4035
  178MPD1     H 2714   2.500   3.246  17.505 -0.5525 -0.8487  0.6286
  178MPD1    H1 2715   2.327   3.176  17.120  3.1485  0.4707  0.0964
  178MPD1    H2 2716   2.079   3.171  17.468 -0.3851 -0.8596 -1.3501
  178MPD1    H3 2717   2.108   3.132  17.232 -0.8382  1.0315  0.3104
  178MPD1     N 2718   2.545   3.245  17.220  0.4478  0.3130 -0.7148
  178MPD1    H5 2719   2.534   3.222  17.122 -2.5383  2.4642 -0.9184
  178MPD1    N1 2720   2.288   3.208  17.646 -0.4482 -0.8247 -0.3414
  178MPD1    H6 2721   2.368   3.250   0.002 -1.1724  0.2375 -0.0539
  178MPD1    H7 2722   2.202   3.247  17.684  0.2294  0.1593  0.2046
  179MPD1     C 2723   3.559   1.127  15.503  0.5847 -0.2039 -0.6200
  179MPD1    C1 2724   3.555   1.061  15.627  0.5858 -0.0537 -0.0947
  179MPD1    C2 2725   3.473   1.107  15.724 -0.4774  0.0879 -0.5643
  179MPD1    C3 2726   3.380   1.207  15.702  0.7499 -0.7711 -0.2126
  179MPD1    C4 2727   3.379   1.269  15.581  0.0676 -0.3433  0.2720
  179MPD1    C5 2728   3.469   1.228  15.489  0.4012  0.0452 -0.2571
  179MPD1     H 2729   3.474   1.055  15.819 -0.5448  0.1783 -0.5140
  179MPD1    H1 2730   3.313   1.351  15.559  1.0581  0.6475  0.9828
  179MPD1    H2 2731   3.625   1.099  15.420  0.3320 -2.1477 -0.1709
  179MPD1    H3 2732   3.474   1.286  15.397 -0.8974 -0.1690 -0.4511
  179MPD1     N 2733   3.285   1.241  15.798 -0.0575  0.7439  0.5255
  179MPD1    H5 2734   3.230   1.321  15.767 -0.8529  0.1408  0.3786
  179MPD1    N1 2735   3.612   0.931  15.645 -0.0828  0.0814  0.3444
  179MPD1    H6 2736   3.695   0.909  15.590 -0.3759  2.1079 -0.9040
  179MPD1    H7 2737   3.623   0.919  15.746  2.0811 -1.2351 -0.0608
  180MPD1     C 2738   2.042   3.446  14.833  0.1156 -0.1038  0.1926
  180MPD1    C1 2739   1.978   3.399  14.726  0.6531  0.0229  0.1861
  180MPD1    C2 2740   2.048   3.336  14.620 -0.0917  1.2100  0.3478
  180MPD1    C3 2741   2.184   3.331  14.623  0.5783  0.8568  0.2352
  180MPD1    C4 2742   2.254   3.397  14.725  0.6504  0.1494  0.8307
  180MPD1    C5 2743   2.179   3.439  14.840  1.0020 -0.0910  0.7089
  180MPD1     H 2744   1.991   3.291  14.540 -0.0160 -0.8251  1.4450
  180MPD1    H1 2745   2.362   3.403  14.721  0.6019  2.3667  2.4568
  180MPD1    H2 2746   1.984   3.474  14.921  0.4756  0.8263  0.1341
  180MPD1    H3 2747   2.233   3.475  14.927  1.5039  1.7678 -0.3611
  180MPD1     N 2748   2.258   3.277  14.515  0.0608 -0.0079  0.4737
  180MPD1    H5 2749   2.203   3.226  14.446 -2.9492  1.7806  1.5446
  180MPD1    N1 2750   1.839   3.394  14.732  0.2973 -0.6150  0.5980
  180MPD1    H6 2751   1.788   3.440  14.807 -3.6053 -1.7696 -1.3835
  180MPD1    H7 2752   1.781   3.396  14.648  1.4295 -0.8304 -0.2041
  181MPD1     C 2753   0.141   3.482   9.821 -0.9004 -0.7809  0.2904
  181MPD1    C1 2754   0.162   3.575   9.923  0.6154 -0.9282 -0.3334
  181MPD1    C2 2755   0.274   3.658   9.913  0.3053  0.3318 -0.3379
  181MPD1    C3 2756   0.363   3.655   9.811  0.5914  0.1429 -0.0461
  181MPD1    C4 2757   0.336   3.565   9.707  1.2698  0.2560 -0.1100
  181MPD1    C5 2758   0.231   3.478   9.716 -0.1713 -0.5956  0.2559
  181MPD1     H 2759   0.286   3.728   9.995 -1.4709 -0.8988  0.9734
  181MPD1    H1 2760   0.390   3.565   9.613 -1.5702 -1.5805 -1.7532
  181MPD1    H2 2761   0.062   3.408   9.829  0.8108 -2.7957 -1.0986
  181MPD1    H3 2762   0.211   3.395   9.650 -0.8152  0.0001 -0.2901
  181MPD1     N 2763   0.485   3.729   9.799 -0.2191 -0.5412  0.0090
  181MPD1    H5 2764   0.548   3.713   9.721 -1.5881 -1.3449 -0.9282
  181MPD1    N1 2765   0.073   3.577  10.032 -0.6397  0.4260  0.2915
  181MPD1    H6 2766   0.054   3.488  10.079 -1.3725  0.6256  0.3799
  181MPD1    H7 2767   0.105   3.634  10.110 -0.3150 -1.0539  1.2419
  182MPD1     C 2768   0.517   4.397   1.841  0.1193 -0.0358  1.0438
  182MPD1    C1 2769   0.593   4.331   1.739 -0.3540  0.0663  0.0812
  182MPD1    C2 2770   0.528   4.287   1.627 -0.0503  0.0806 -0.5806
  182MPD1    C3 2771   0.399   4.321   1.607 -0.5579  0.3191  0.0427
  182MPD1    C4 2772   0.325   4.388   1.700 -0.1562  0.0895  0.1747
  182MPD1    C5 2773   0.378   4.418   1.819  0.4716 -0.3921 -0.2647
  182MPD1     H 2774   0.579   4.229   1.552  1.3250  0.4509  0.0559
  182MPD1    H1 2775   0.224   4.415   1.670  0.6742  0.4785 -2.2375
  182MPD1    H2 2776   0.552   4.424   1.940  1.8621 -1.2920  0.7579
  182MPD1    H3 2777   0.324   4.467   1.900  2.0191  1.2945 -0.2573
  182MPD1     N 2778   0.321   4.285   1.493  0.6579  0.4909  0.0618
  182MPD1    H5 2779   0.227   4.323   1.498  0.1964 -0.8733  2.1211
  182MPD1    N1 2780   0.723   4.308   1.768  0.0029  0.1430 -0.8163
  182MPD1    H6 2781   0.779   4.306   1.683  0.6252 -2.3239 -0.3495
  182MPD1    H7 2782   0.765   4.375   1.831 -0.4488 -1.4903  1.2121
  183MPD1     C 2783   3.035   2.816   9.227 -0.1742 -0.4413 -0.0463
  183MPD1    C1 2784   2.897   2.823   9.260  0.0635 -0.4642  0.0057
  183MPD1    C2 2785   2.852   2.945   9.315  0.2938  0.0545  0.2718
  183MPD1    C3 2786   2.940   3.054   9.330 -0.0916  0.1320 -0.3836
  183MPD1    C4 2787   3.078   3.040   9.300  0.4302  0.5015 -0.2678
  183MPD1    C5 2788   3.119   2.916   9.252  0.6346 -0.5039  0.2301
  183MPD1     H 2789   2.747   2.959   9.339  0.0652 -1.0306 -0.0819
  183MPD1    H1 2790   3.149   3.118   9.325  0.2262  1.1334 -1.6312
  183MPD1    H2 2791   3.085   2.728   9.186 -1.5585 -1.2787  0.0758
  183MPD1    H3 2792   3.223   2.916   9.222  0.1429  1.1732 -1.5111
  183MPD1     N 2793   2.882   3.174   9.383 -0.3033 -0.6217  0.3112
  183MPD1    H5 2794   2.783   3.186   9.401 -0.5578  0.2089 -1.6494
  183MPD1    N1 2795   2.819   2.723   9.227  0.8078 -0.0891 -0.0556
  183MPD1    H6 2796   2.735   2.723   9.284  0.1975 -0.8518 -0.9658
  183MPD1    H7 2797   2.863   2.632   9.237 -0.4155 -0.6999 -0.1860
  184MPD1     C 2798   2.008   1.722   8.982  0.5131 -0.1629 -0.2310
  184MPD1    C1 2799   1.907   1.646   8.923 -0.2329 -0.8658 -0.5467
  184MPD1    C2 2800   1.785   1.644   8.986 -0.2695  0.9174 -0.0209
  184MPD1    C3 2801   1.772   1.703   9.115 -0.9638 -0.2576 -0.7359
  184MPD1    C4 2802   1.885   1.744   9.184 -0.9010 -0.1360 -0.1563
  184MPD1    C5 2803   2.004   1.738   9.119  0.0334  0.8518  0.1978
  184MPD1     H 2804   1.695   1.608   8.938  0.1182 -0.2449  0.1161
  184MPD1    H1 2805   1.872   1.772   9.288  1.5227  1.8433 -0.3921
  184MPD1    H2 2806   2.102   1.730   8.929  0.6577 -0.3491 -0.0044
  184MPD1    H3 2807   2.091   1.767   9.177  1.3213 -4.3470  0.8621
  184MPD1     N 2808   1.650   1.717   9.183  0.6804 -0.2585  0.3817
  184MPD1    H5 2809   1.652   1.775   9.266  2.0422  1.3212 -0.7342
  184MPD1    N1 2810   1.912   1.604   8.793  0.2642  0.7250 -0.3781
  184MPD1    H6 2811   2.007   1.579   8.768 -0.4889 -1.7221 -0.7855
  184MPD1    H7 2812   1.849   1.530   8.762  0.0739  0.3373  0.9355
  185MPD1     C 2813   0.559   1.542   9.404  0.3678  0.5277  1.1839
  185MPD1    C1 2814   0.652   1.443   9.377 -0.9930 -0.3910  0.5127
  185MPD1    C2 2815   0.783   1.480   9.357 -0.5695  0.4038  0.3178
  185MPD1    C3 2816   0.826   1.615   9.376 -0.1439  0.4179  0.3142
  185MPD1    C4 2817   0.733   1.702   9.432 -0.9471  0.2243 -1.1600
  185MPD1    C5 2818   0.603   1.667   9.441  0.7774 -0.7317 -0.3993
  185MPD1     H 2819   0.853   1.404   9.326  1.0399  1.9676  0.0714
  185MPD1    H1 2820   0.756   1.805   9.458  0.9994 -1.2386  2.9907
  185MPD1    H2 2821   0.456   1.525   9.431  0.3028  2.4142  2.1240
  185MPD1    H3 2822   0.536   1.747   9.470  1.3171  0.1691 -1.6519
  185MPD1     N 2823   0.962   1.658   9.356  0.1255 -0.4775  0.0786
  185MPD1    H5 2824   0.969   1.755   9.385  0.4093 -0.0200 -1.5156
  185MPD1    N1 2825   0.607   1.312   9.355 -0.1987 -0.0355 -0.9348
  185MPD1    H6 2826   0.517   1.280   9.391  1.4709 -0.7326  2.6506
  185MPD1    H7 2827   0.683   1.247   9.374 -0.8254 -0.1551  1.1201
  186MPD1     C 2828   3.842   1.141  15.943 -0.5577 -0.5211 -0.2488
  186MPD1    C1 2829   3.879   1.266  15.902  0.4495 -0.6999 -0.1250
  186MPD1    C2 2830   3.810   1.380  15.940 -0.6263 -0.3302 -0.0791
  186MPD1    C3 2831   3.711   1.373  16.044 -0.4682 -0.1044 -1.0765
  186MPD1    C4 2832   3.679   1.247  16.095  0.1720 -0.3438  0.2420
  186MPD1    C5 2833   3.739   1.134  16.037 -0.6470 -0.4004  0.6449
  186MPD1     H 2834   3.833   1.476  15.895  1.4202 -0.6935  0.2051
  186MPD1    H1 2835   3.603   1.243  16.173  0.9641  1.9700  1.1406
  186MPD1    H2 2836   3.884   1.047  15.910 -1.2329 -0.8047 -0.3019
  186MPD1    H3 2837   3.715   1.037  16.079  0.8438 -0.6193  0.9806
  186MPD1     N 2838   3.643   1.487  16.097 -0.0762  0.0720 -0.1504
  186MPD1    H5 2839   3.584   1.474  16.179  0.4775 -1.3825 -0.0002
  186MPD1    N1 2840   3.987   1.269  15.821 -0.0033  0.0621 -0.1534
  186MPD1    H6 2841   3.994   1.356  15.770  0.3822 -1.5446 -2.8523
  186MPD1    H7 2842   3.989   1.193  15.753 -0.6495  1.4666 -1.7317
  187MPD1     C 2843   1.520   3.713   0.557 -0.1061  0.3161  0.2675
  187MPD1    C1 2844   1.581   3.608   0.491 -0.0338  0.4410 -0.3384
  187MPD1    C2 2845   1.668   3.638   0.387  0.2701 -0.4843 -0.2794
  187MPD1    C3 2846   1.712   3.765   0.355  0.3945  0.0844  0.1185
  187MPD1    C4 2847   1.656   3.871   0.427 -0.3965 -0.0193  0.3107
  187MPD1    C5 2848   1.555   3.839   0.517 -0.4752  0.9026 -0.1779
  187MPD1     H 2849   1.696   3.550   0.329  2.1768  0.3710 -0.6459
  187MPD1    H1 2850   1.691   3.973   0.418 -0.0779 -0.2105 -0.5626
  187MPD1    H2 2851   1.441   3.711   0.632 -1.8689  0.6529 -1.5953
  187MPD1    H3 2852   1.506   3.922   0.567  1.2601  1.1628  1.1054
  187MPD1     N 2853   1.789   3.795   0.242  0.2169 -0.4059 -0.1258
  187MPD1    H5 2854   1.792   3.894   0.221 -1.3223 -0.4170 -0.3373
  187MPD1    N1 2855   1.527   3.476   0.498  0.4111 -0.0398  0.2479
  187MPD1    H6 2856   1.500   3.455   0.594  0.3480  0.2375  0.2915
  187MPD1    H7 2857   1.594   3.403   0.475  0.0329 -0.2738 -0.1179
  188MPD1     C 2858   2.403   3.164  10.437 -0.5680 -0.1977  0.6801
  188MPD1    C1 2859   2.541   3.156  10.442  0.3156 -0.3372 -0.2967
  188MPD1    C2 2860   2.604   3.069  10.362 -0.1197 -0.8527 -0.0445
  188MPD1    C3 2861   2.529   2.974  10.292 -1.4844 -0.0868  0.0194
  188MPD1    C4 2862   2.390   2.975  10.297 -0.7543  0.1734  0.3823
  188MPD1    C5 2863   2.327   3.076  10.365  0.4321 -0.7656 -1.0082
  188MPD1     H 2864   2.712   3.068  10.356 -0.1136 -0.4711  0.0058
  188MPD1    H1 2865   2.327   2.902  10.246 -1.1175 -1.8046  3.6781
  188MPD1    H2 2866   2.349   3.248  10.481  0.7994  2.0381 -1.8927
  188MPD1    H3 2867   2.220   3.095  10.363  0.4529 -0.4721  0.5998
  188MPD1     N 2868   2.591   2.882  10.205 -0.3316  0.1757  0.8529
  188MPD1    H5 2869   2.531   2.831  10.141  0.5725 -0.9019  0.8771
  188MPD1    N1 2870   2.605   3.256  10.522  0.0925  0.2991 -0.2012
  188MPD1    H6 2871   2.694   3.227  10.561 -0.7923 -1.0040  0.8177
  188MPD1    H7 2872   2.547   3.307  10.588  0.1213 -0.3191  0.3019
  189MPD1     C 2873   3.766   4.295   0.687  0.0913 -0.3749  0.2106
  189MPD1    C1 2874   3.657   4.224   0.654  0.0798  0.2228 -0.2893
  189MPD1    C2 2875   3.588   4.259   0.537  0.0225 -0.0082 -0.0426
  189MPD1    C3 2876   3.626   4.362   0.453 -0.0934  0.0498  0.3830
  189MPD1    C4 2877   3.738   4.432   0.495  0.1688  0.6205 -0.0085
  189MPD1    C5 2878   3.808   4.399   0.607 -0.7039  0.5820  0.0654
  189MPD1     H 2879   3.493   4.213   0.514 -1.5166  3.4287 -0.4985
  189MPD1    H1 2880   3.779   4.515   0.439 -2.0941  0.4025 -1.9978
  189MPD1    H2 2881   3.834   4.271   0.767  0.2940 -1.4130 -0.2733
  189MPD1    H3 2882   3.899   4.448   0.640  1.5073 -1.5578 -2.7940
  189MPD1     N 2883   3.535   4.402   0.350 -0.3501  0.0042  0.5931
  189MPD1    H5 2884   3.450   4.348   0.341 -0.8475  0.7100  1.0787
  189MPD1    N1 2885   3.622   4.110   0.727 -0.1368 -0.2865  0.2324
  189MPD1    H6 2886   3.524   4.087   0.708 -0.6614  0.6180  1.8241
  189MPD1    H7 2887   3.631   4.129   0.827  1.3313  0.4804 -0.0468
  190MPD1     C 2888   2.059   2.519  15.441  0.2444 -0.2349  0.3600
  190MPD1    C1 2889   2.177   2.451  15.424  0.5259 -0.2577  0.1051
  190MPD1    C2 2890   2.287   2.511  15.468 -0.1995  0.1537 -0.2377
  190MPD1    C3 2891   2.285   2.626  15.548 -0.3000 -0.4657 -0.4998
  190MPD1    C4 2892   2.166   2.693  15.568  0.1691  0.8436  0.5394
  190MPD1    C5 2893   2.053   2.643  15.507 -0.1901  0.9022 -0.3277
  190MPD1     H 2894   2.379   2.458  15.446 -1.3006 -0.9035 -2.2382
  190MPD1    H1 2895   2.147   2.780  15.629 -0.8930  0.4832  0.7153
  190MPD1    H2 2896   1.967   2.484  15.395  0.8831  0.9648 -1.8090
  190MPD1    H3 2897   1.961   2.701  15.500 -0.6015  0.0105 -2.5715
  190MPD1     N 2898   2.407   2.681  15.596  0.0994  0.6902  0.1932
  190MPD1    H5 2899   2.491   2.633  15.564 -0.9549 -0.4296 -0.8486
  190MPD1    N1 2900   2.175   2.331  15.345  0.0234  0.4665  0.5313
  190MPD1    H6 2901   2.084   2.286  15.358 -1.3000  2.4867 -1.7669
  190MPD1    H7 2902   2.251   2.274  15.380  0.1758 -0.0519 -0.6537
  191MPD1     C 2903   2.895   3.704  13.221 -0.2777  0.7193  0.1289
  191MPD1    C1 2904   2.945   3.720  13.101  0.4189  0.3252  0.6629
  191MPD1    C2 2905   2.899   3.823  13.019  0.6074 -0.0615  0.4259
  191MPD1    C3 2906   2.792   3.908  13.058 -0.0223 -0.4331  0.4317
  191MPD1    C4 2907   2.732   3.883  13.179 -0.0954 -0.0190 -0.6908
  191MPD1    C5 2908   2.791   3.787  13.255 -0.3574 -0.2366 -0.2639
  191MPD1     H 2909   2.938   3.825  12.917  1.3588 -3.5224  0.6533
  191MPD1    H1 2910   2.649   3.941  13.219  1.3611  1.3896  0.2552
  191MPD1    H2 2911   2.936   3.635  13.294 -1.3380  0.9667  0.9662
  191MPD1    H3 2912   2.738   3.766  13.347 -1.3152  0.8587 -0.5738
  191MPD1     N 2913   2.747   4.014  12.965 -0.0816  0.5649  0.4993
  191MPD1    H5 2914   2.808   4.025  12.885  0.5165  1.3502  1.0658
  191MPD1    N1 2915   3.057   3.639  13.067 -0.4389  0.0937 -0.2583
  191MPD1    H6 2916   3.064   3.606  12.971 -0.4181 -0.2231 -0.1469
  191MPD1    H7 2917   3.061   3.556  13.125 -1.1897  1.4260  1.7190
  192MPD1     C 2918   2.400   0.267  12.573 -0.2188  0.8342 -0.5203
  192MPD1    C1 2919   2.306   0.195  12.647  0.6162  0.3016  0.0806
  192MPD1    C2 2920   2.335   0.071  12.703 -0.0991 -0.4712 -0.0215
  192MPD1    C3 2921   2.460   0.025  12.686 -0.4664  0.8175  0.1277
  192MPD1    C4 2922   2.554   0.087  12.607 -0.0969 -0.4384  0.1598
  192MPD1    C5 2923   2.528   0.208  12.553 -0.3399  0.3802  0.5393
  192MPD1     H 2924   2.253   0.023  12.756 -0.0218 -0.3425  0.2163
  192MPD1    H1 2925   2.654   0.049  12.595  0.3531  1.3898 -1.9895
  192MPD1    H2 2926   2.384   0.368  12.538  1.4402  1.3911  0.3385
  192MPD1    H3 2927   2.611   0.260  12.506 -1.4438  2.5847  1.0576
  192MPD1     N 2928   2.515   4.625  12.725  0.0283  0.4969  0.1728
  192MPD1    H5 2929   2.613   4.607  12.703 -0.2897 -0.3248 -0.5735
  192MPD1    N1 2930   2.181   0.245  12.665 -0.8159 -0.4428  0.1606
  192MPD1    H6 2931   2.169   0.343  12.640 -2.2902 -0.3939  1.0237
  192MPD1    H7 2932   2.131   0.219  12.750  1.8545 -1.1896  1.4980
  193MPD1     C 2933   1.950   4.568  16.849 -0.1760  0.0514  0.1827
  193MPD1    C1 2934   1.906   4.640  16.959  0.1654  0.2275 -0.7119
  193MPD1    C2 2935   1.977   0.027  17.006 -0.2862 -0.7277 -0.2889
  193MPD1    C3 2936   2.100   0.060  16.951 -0.2017  1.0381  0.0055
  193MPD1    C4 2937   2.145   4.702  16.848  0.8315 -0.8881 -0.3217
  193MPD1    C5 2938   2.071   4.598  16.797 -0.2613 -0.2399 -0.1664
  193MPD1     H 2939   1.941   0.091  17.086  1.3506 -0.3115  0.1180
  193MPD1    H1 2940   2.246   4.710  16.811  1.7722 -2.1874  1.9848
  193MPD1    H2 2941   1.900   4.485  16.800 -1.6971  0.6981  0.6395
  193MPD1    H3 2942   2.122   4.536  16.723  0.7180 -1.5607  1.6147
  193MPD1     N 2943   2.187   0.164  16.998  0.5397  0.8692  0.4253
  193MPD1    H5 2944   2.278   0.163  16.953  0.9017 -1.9876  1.2176
  193MPD1    N1 2945   1.786   4.599  17.017  0.7399 -0.1304  0.3853
  193MPD1    H6 2946   1.779   4.624  17.115  1.9791  0.1810  0.3952
  193MPD1    H7 2947   1.778   4.498  17.008  1.8507 -0.0601 -1.4089
  194MPD1     C 2948   0.969   2.515  16.576 -0.2561  0.0641  0.2259
  194MPD1    C1 2949   0.867   2.440  16.513 -0.1190 -0.1861 -0.2481
  194MPD1    C2 2950   0.777   2.362  16.593 -0.9589  0.0696  0.4916
  194MPD1    C3 2951   0.783   2.366  16.728 -0.1300 -0.2495  0.2628
  194MPD1    C4 2952   0.877   2.449  16.787  0.5532 -0.1969  0.5108
  194MPD1    C5 2953   0.969   2.516  16.716  0.3453  0.0742 -0.2549
  194MPD1     H 2954   0.713   2.301  16.530 -2.4566 -1.2697  3.2959
  194MPD1    H1 2955   0.883   2.457  16.895  0.4888 -0.0216  0.5014
  194MPD1    H2 2956   1.036   2.580  16.521 -0.4878 -0.0527 -0.1970
  194MPD1    H3 2957   1.025   2.594  16.766  1.2300  0.5313 -1.9961
  194MPD1     N 2958   0.692   2.294  16.807  0.3417 -0.2953 -0.7578
  194MPD1    H5 2959   0.709   2.284  16.907 -0.2612 -0.1597 -0.6446
  194MPD1    N1 2960   0.857   2.420  16.373  0.2117  0.3292 -0.2560
  194MPD1    H6 2961   0.764   2.389  16.344  0.2582  0.5784 -0.6725
  194MPD1    H7 2962   0.866   2.508  16.323  0.1412  0.6842  0.3552
  195MPD1     C 2963   0.958   3.613   1.391  0.1421 -0.0879 -0.1030
  195MPD1    C1 2964   1.047   3.720   1.408 -0.8476  0.1600 -0.4785
  195MPD1    C2 2965   1.161   3.728   1.329  0.1823  0.3600 -0.1478
  195MPD1    C3 2966   1.188   3.620   1.238  0.8121 -0.5880 -0.6338
  195MPD1    C4 2967   1.102   3.517   1.223  0.1012 -0.2872  0.7079
  195MPD1    C5 2968   0.982   3.512   1.295  0.6404  0.6110  0.3147
  195MPD1     H 2969   1.236   3.805   1.343 -1.3973  1.5155  1.8431
  195MPD1    H1 2970   1.137   3.436   1.160 -0.3197  0.7867 -0.9043
  195MPD1    H2 2971   0.871   3.601   1.454 -0.8886  1.1867 -1.2859
  195MPD1    H3 2972   0.920   3.423   1.292  3.2157 -1.2586  1.3712
  195MPD1     N 2973   1.307   3.616   1.151 -0.4387 -0.6589  0.0841
  195MPD1    H5 2974   1.329   3.527   1.109 -2.3835 -1.0973  0.0221
  195MPD1    N1 2975   0.999   3.840   1.455  0.4728 -0.0014 -0.1463
  195MPD1    H6 2976   1.068   3.903   1.494  1.2002 -1.0904  0.3093
  195MPD1    H7 2977   0.921   3.832   1.520  2.4871 -1.9950  2.0478
  196MPD1     C 2978   1.069   3.742   0.775 -0.3082  0.5693  0.4440
  196MPD1    C1 2979   1.053   3.856   0.703  0.4497 -0.3387 -0.5204
  196MPD1    C2 2980   1.028   3.977   0.771  0.0349 -1.3115 -0.3180
  196MPD1    C3 2981   1.035   3.980   0.905 -0.1323  0.3525 -1.1367
  196MPD1    C4 2982   1.066   3.866   0.974  0.1119 -0.0550  0.0486
  196MPD1    C5 2983   1.080   3.742   0.912  0.1271  0.3942 -0.4398
  196MPD1     H 2984   0.994   4.060   0.711 -0.9728 -1.1930  0.4300
  196MPD1    H1 2985   1.066   3.864   1.083 -1.7223  1.0097  0.0728
  196MPD1    H2 2986   1.089   3.654   0.716  0.4259  0.2953  1.1014
  196MPD1    H3 2987   1.100   3.655   0.973 -0.1098 -0.1037 -1.0730
  196MPD1     N 2988   1.011   4.092   0.987 -0.1992  0.7485  0.0176
  196MPD1    H5 2989   0.994   4.080   1.086 -1.2573 -0.8566 -0.3604
  196MPD1    N1 2990   1.051   3.840   0.560 -0.2333 -0.1863  0.2499
  196MPD1    H6 2991   1.063   3.925   0.505  1.9641 -0.1759  0.7295
  196MPD1    H7 2992   1.115   3.772   0.520  0.1890  0.0869  0.4530
  197MPD1     C 2993   0.605   1.621  17.124 -0.0535  0.2430 -0.1253
  197MPD1    C1 2994   0.556   1.534  17.032 -0.3818 -1.3379  0.7058
  197MPD1    C2 2995   0.634   1.426  16.994 -0.1350  0.4486 -0.2221
  197MPD1    C3 2996   0.760   1.408  17.040  0.1701  0.1372 -0.8144
  197MPD1    C4 2997   0.811   1.509  17.115  0.8495 -0.5906  0.7387
  197MPD1    C5 2998   0.736   1.615  17.160 -0.1146  0.8802 -0.6787
  197MPD1     H 2999   0.587   1.365  16.918  0.1508  1.3448 -1.1108
  197MPD1    H1 3000   0.913   1.510  17.153  0.7666 -2.0817  1.0159
  197MPD1    H2 3001   0.554   1.706  17.169  0.1405 -1.5734  3.5117
  197MPD1    H3 3002   0.780   1.699  17.213 -0.0630  0.6369 -0.3352
  197MPD1     N 3003   0.847   1.305  16.994  0.1948  0.0388  0.3398
  197MPD1    H5 3004   0.934   1.293  17.045  0.8202 -1.1008 -0.9898
  197MPD1    N1 3005   0.423   1.539  16.998  0.3838  0.5930 -0.0992
  197MPD1    H6 3006   0.400   1.478  16.920  0.9409 -0.8141  0.8328
  197MPD1    H7 3007   0.374   1.627  16.998 -1.8806 -0.6765  2.0614
  198MPD1     C 3008   2.434   3.778  15.419 -0.3761 -0.8004  0.0871
  198MPD1    C1 3009   2.438   3.905  15.486  0.1046  0.0617 -0.1421
  198MPD1    C2 3010   2.562   3.951  15.531 -0.3244  0.6192  0.2134
  198MPD1    C3 3011   2.677   3.877  15.518 -0.1329  0.1278  0.5110
  198MPD1    C4 3012   2.668   3.753  15.458  0.1234 -0.3229  0.4471
  198MPD1    C5 3013   2.550   3.707  15.411 -0.4205 -0.1983 -0.2978
  198MPD1     H 3014   2.554   4.048  15.577 -0.8794  0.5779  0.2086
  198MPD1    H1 3015   2.753   3.694  15.425 -0.4093 -0.8253 -0.0287
  198MPD1    H2 3016   2.346   3.742  15.367 -0.9286  2.0678 -0.9358
  198MPD1    H3 3017   2.555   3.612  15.359 -0.4864 -1.2115  1.5316
  198MPD1     N 3018   2.798   3.932  15.572  0.2489 -0.0663  0.0593
  198MPD1    H5 3019   2.784   4.016  15.626 -1.5192  0.1627 -0.7446
  198MPD1    N1 3020   2.318   3.980  15.505  0.7046 -0.5021 -0.1052
  198MPD1    H6 3021   2.337   4.069  15.550 -2.2075 -0.4162  1.0142
  198MPD1    H7 3022   2.251   3.970  15.429  0.3996 -2.1155  0.3569
  199MPD1     C 3023   1.423   0.159   9.273  0.2533 -0.0574 -0.7047
  199MPD1    C1 3024   1.427   0.041   9.348 -0.0351  0.2775 -0.1281
  199MPD1    C2 3025   1.315   4.688   9.376 -0.4127 -0.0252  0.4440
  199MPD1    C3 3026   1.203   4.722   9.317  0.1758 -0.5301  0.3070
  199MPD1    C4 3027   1.192   0.110   9.240  0.5144  0.1178  0.1352
  199MPD1    C5 3028   1.299   0.189   9.221 -0.0871 -0.4062  0.2419
  199MPD1     H 3029   1.322   4.611   9.452 -0.1416 -0.8278 -0.3861
  199MPD1    H1 3030   1.102   0.125   9.182  0.4057 -0.8103  0.0562
  199MPD1    H2 3031   1.506   0.228   9.261  0.8723 -0.5335  0.7538
  199MPD1    H3 3032   1.291   0.282   9.166  0.3360 -0.2091  0.5123
  199MPD1     N 3033   1.078   4.655   9.333  0.0402  0.2805  0.0763
  199MPD1    H5 3034   0.998   4.702   9.292  1.4425  0.4697 -2.3963
  199MPD1    N1 3035   1.552   0.019   9.415 -0.3157  0.8484  0.2848
  199MPD1    H6 3036   1.631   0.028   9.351  0.0582  2.8380  1.0244
  199MPD1    H7 3037   1.563   4.651   9.461  1.5540  0.8246 -0.2089
  200MPD1     C 3038   3.580   0.036  15.622  0.0929  0.1391  0.2733
  200MPD1    C1 3039   3.458   0.003  15.568  0.1283 -0.5500 -0.0877
  200MPD1    C2 3040   3.450   0.007  15.427 -0.2146  0.5284  0.0381
  200MPD1    C3 3041   3.569   0.014  15.355  0.2150 -0.4584  0.0618
  200MPD1    C4 3042   3.694   0.011  15.416 -0.2248  0.0056 -0.5216
  200MPD1    C5 3043   3.695   0.033  15.547 -0.0826 -0.1956 -0.2751
  200MPD1     H 3044   3.357   4.720  15.372 -0.5160  1.1337  0.4567
  200MPD1    H1 3045   3.785   0.002  15.356  0.5406 -0.2672  0.6811
  200MPD1    H2 3046   3.594   0.049  15.728 -1.1490 -2.4513  0.7382
  200MPD1    H3 3047   3.795   0.045  15.588  0.4536 -1.6587 -1.1618
  200MPD1     N 3048   3.552   0.007  15.218  0.1329 -0.0279  0.2340
  200MPD1    H5 3049   3.456   4.717  15.187 -0.6085  3.0506  1.2943
  200MPD1    N1 3050   3.341   0.025  15.651  0.6591  0.9431 -0.2911
  200MPD1    H6 3051   3.262   4.697  15.612  0.7713  0.8003 -0.3374
  200MPD1    H7 3052   3.348   4.714  15.747  0.3941  1.5138 -0.0752
  201MPD1     C 3053   2.680   2.873  13.505  0.2192 -0.8143 -0.1540
  201MPD1    C1 3054   2.541   2.870  13.490  0.4413  0.3169  0.0004
  201MPD1    C2 3055   2.467   2.972  13.548 -0.0080  0.0877 -0.5274
  201MPD1    C3 3056   2.525   3.061  13.633 -0.4149  0.3290 -0.5849
  201MPD1    C4 3057   2.653   3.055  13.669  0.1658  0.2413 -0.7201
  201MPD1    C5 3058   2.735   2.969  13.593 -0.1997  0.4592 -0.8230
  201MPD1     H 3059   2.359   2.967  13.541  0.0884 -1.6350 -0.8721
  201MPD1    H1 3060   2.699   3.130  13.732  0.6651 -1.6966  1.2377
  201MPD1    H2 3061   2.743   2.803  13.452 -0.0122 -1.0194 -0.1584
  201MPD1    H3 3062   2.842   2.985  13.598  0.2529 -2.1776 -2.0725
  201MPD1     N 3063   2.435   3.148  13.691 -0.2091 -0.1859 -0.2223
  201MPD1    H5 3064   2.339   3.132  13.661 -0.3491 -3.3816  1.9629
  201MPD1    N1 3065   2.481   2.784  13.395  0.1135 -0.1196  0.6663
  201MPD1    H6 3066   2.380   2.772  13.388  0.4432 -2.2956 -0.4723
  201MPD1    H7 3067   2.524   2.694  13.377  1.4515  0.2350  2.0893
  202MPD1     C 3068   1.821   2.534   9.105 -0.1516 -0.3355 -0.0330
  202MPD1    C1 3069   1.788   2.644   9.183 -0.0526  0.1697 -0.7914
  202MPD1    C2 3070   1.863   2.655   9.298 -0.4945  0.2172  0.3219
  202MPD1    C3 3071   1.943   2.557   9.351 -0.2885  0.6651 -0.9669
  202MPD1    C4 3072   1.957   2.440   9.280  0.0291 -0.7273  0.1865
  202MPD1    C5 3073   1.898   2.430   9.161  0.0884 -0.3428 -0.3244
  202MPD1     H 3074   1.863   2.753   9.345 -1.3712  0.6764 -0.6217
  202MPD1    H1 3075   1.999   2.351   9.325 -2.3695 -2.5131 -1.1291
  202MPD1    H2 3076   1.785   2.529   9.002  0.5209 -1.0460 -0.2349
  202MPD1    H3 3077   1.908   2.336   9.107 -1.6294 -0.5617 -0.2839
  202MPD1     N 3078   2.012   2.575   9.475 -0.0727  0.3613 -0.3927
  202MPD1    H5 3079   2.072   2.496   9.500 -0.0874  0.2437 -0.7278
  202MPD1    N1 3080   1.746   2.769   9.124  0.1305  0.0114  0.3034
  202MPD1    H6 3081   1.710   2.833   9.195 -0.0594 -1.4569  1.5240
  202MPD1    H7 3082   1.684   2.747   9.046 -1.5731 -0.1352  1.6854
  203MPD1     C 3083   1.174   4.326  12.363 -0.1059 -0.0664 -0.2596
  203MPD1    C1 3084   1.255   4.214  12.387  0.4568  0.2613 -0.1896
  203MPD1    C2 3085   1.204   4.101  12.449 -0.3228  0.0835 -0.3423
  203MPD1    C3 3086   1.081   4.108  12.508  0.6714  0.7763 -0.4340
  203MPD1    C4 3087   1.006   4.228  12.503 -0.1279  0.4305 -0.3810
  203MPD1    C5 3088   1.049   4.330  12.424 -0.4277  0.5982  0.1616
  203MPD1     H 3089   1.259   4.009  12.463 -0.9997 -0.2379  0.2016
  203MPD1    H1 3090   0.910   4.236  12.552  0.8275 -2.8814  1.9759
  203MPD1    H2 3091   1.200   4.403  12.292  2.6485  1.7107  2.6459
  203MPD1    H3 3092   0.978   4.410  12.407 -0.2870  0.3750 -1.4734
  203MPD1     N 3093   1.027   3.991  12.579  0.0177 -0.0692  0.1471
  203MPD1    H5 3094   1.084   3.908  12.566  0.8814  0.5488 -0.0003
  203MPD1    N1 3095   1.379   4.201  12.319 -0.2938 -0.1227 -0.1473
  203MPD1    H6 3096   1.441   4.135  12.366 -3.2961 -0.4236  3.3560
  203MPD1    H7 3097   1.428   4.290  12.325  1.6090 -1.1048 -1.0402
  204MPD1     C 3098   4.271   0.520   0.384 -0.2405  0.2651  0.2243
  204MPD1    C1 3099   4.361   0.513   0.282  0.9366 -0.2054  0.7507
  204MPD1    C2 3100   4.301   0.508   0.160 -0.0387  0.0028 -0.2219
  204MPD1    C3 3101   4.163   0.508   0.135 -0.2107  0.0954  0.3570
  204MPD1    C4 3102   4.083   0.530   0.241  0.0131 -0.0276 -0.2212
  204MPD1    C5 3103   4.137   0.531   0.369  0.3458  0.4550 -0.1798
  204MPD1     H 3104   4.357   0.501   0.068 -0.3217  1.0823 -0.4758
  204MPD1    H1 3105   3.976   0.545   0.229 -0.3398 -2.4659 -0.2659
  204MPD1    H2 3106   4.307   0.509   0.486  1.6560 -0.8577 -0.5781
  204MPD1    H3 3107   4.071   0.554   0.452  0.1018  0.2206 -0.3066
  204MPD1     N 3108   4.109   0.501   0.002  0.0443  0.0340  0.6668
  204MPD1    H5 3109   4.173   0.508  17.615  0.0373 -0.9893  0.5772
  204MPD1    N1 3110   4.491   0.467   0.302  0.5656 -0.3447 -0.1699
  204MPD1    H6 3111   4.527   0.484   0.396  0.4106 -1.0920  0.0224
  204MPD1    H7 3112   4.558   0.492   0.230  1.4787  3.2483  1.9421
  205MPD1     C 3113   0.108   0.021  16.973  0.3599  0.0419  0.1530
  205MPD1    C1 3114   0.141   4.646  17.069 -0.6297 -1.1221  0.6735
  205MPD1    C2 3115   0.042   4.606  17.164 -0.0691 -0.4267 -0.4641
  205MPD1    C3 3116   4.632   4.645  17.147  0.4811  0.5562  0.1671
  205MPD1    C4 3117   4.602   4.722  17.034 -0.6249  0.2182 -0.1910
  205MPD1    C5 3118   4.698   0.053  16.953 -0.3017 -0.0794  0.6831
  205MPD1     H 3119   0.075   4.559  17.256  1.3414  0.2954 -0.5976
  205MPD1    H1 3120   4.501   0.032  17.011 -0.8915  0.5315  1.4278
  205MPD1    H2 3121   0.171   0.070  16.900  0.1130 -0.5795 -0.4727
  205MPD1    H3 3122   4.665   0.116  16.871 -0.8708 -1.0207  0.1950
  205MPD1     N 3123   4.523   4.581  17.220 -0.0615  0.3249  0.1055
  205MPD1    H5 3124   4.428   4.602  17.188 -0.8407 -3.0960  0.1974
  205MPD1    N1 3125   0.279   4.636  17.094  0.6556  0.2965 -0.3713
  205MPD1    H6 3126   0.312   4.560  17.153 -1.2545 -1.1749 -1.2139
  205MPD1    H7 3127   0.342   4.650  17.016 -1.2053 -3.3176 -2.5030
  206MPD1     C 3128   4.707   2.596  16.550 -0.3332  0.2123  0.1531
  206MPD1    C1 3129   4.570   2.610  16.549  0.0334  0.0510 -0.2911
  206MPD1    C2 3130   4.505   2.602  16.435  0.1809 -0.7952 -0.0312
  206MPD1    C3 3131   4.564   2.607  16.310 -0.0439 -0.2381  0.3907
  206MPD1    C4 3132   4.703   2.602  16.300  0.1507  0.1065  0.4100
  206MPD1    C5 3133   0.048   2.604  16.425  0.5407 -0.6825  0.5794
  206MPD1     H 3134   4.399   2.583  16.446  0.0913  0.3333  1.0427
  206MPD1    H1 3135   0.036   2.589  16.207  0.1208  1.0257  0.2616
  206MPD1    H2 3136   0.039   2.577  16.642 -1.6673  0.2245  0.9292
  206MPD1    H3 3137   0.156   2.588  16.422  0.6013  0.1818 -1.5173
  206MPD1     N 3138   4.487   2.591  16.192 -0.4073 -0.2571  0.4505
  206MPD1    H5 3139   4.538   2.574  16.105  1.2726 -0.9704  1.5778
  206MPD1    N1 3140   4.506   2.581  16.676  0.1431 -0.5435 -0.6709
  206MPD1    H6 3141   4.411   2.616  16.685  0.4304  0.1015 -0.1151
  206MPD1    H7 3142   4.554   2.630  16.751 -1.7050 -2.3402  1.6844
  207MPD1     C 3143   3.589   3.748   9.245  0.1064 -0.5207  0.4444
  207MPD1    C1 3144   3.493   3.695   9.327 -0.4332  0.5802  0.2551
  207MPD1    C2 3145   3.456   3.765   9.442 -0.1693 -0.1430 -0.0664
  207MPD1    C3 3146   3.524   3.876   9.486  0.5792 -0.5788  0.4408
  207MPD1    C4 3147   3.619   3.931   9.401  0.8874  0.5428 -0.5100
  207MPD1    C5 3148   3.643   3.871   9.277  0.7674  0.5716 -0.2221
  207MPD1     H 3149   3.373   3.726   9.499  1.1473 -0.2393  1.7830
  207MPD1    H1 3150   3.677   4.017   9.433 -1.4363  1.0528  2.2926
  207MPD1    H2 3151   3.607   3.697   9.151 -2.0749 -0.6009  0.0808
  207MPD1    H3 3152   3.721   3.916   9.217  3.9167 -1.8855  2.0074
  207MPD1     N 3153   3.491   3.949   9.600 -0.4405  0.3911  0.3659
  207MPD1    H5 3154   3.549   4.028   9.625  0.3575 -0.6427  1.8218
  207MPD1    N1 3155   3.431   3.575   9.286 -0.0231  0.4176 -0.4831
  207MPD1    H6 3156   3.389   3.535   9.370 -1.2166 -0.9408 -1.7389
  207MPD1    H7 3157   3.495   3.501   9.258 -0.0526  0.4067 -0.5209
  208MPD1     C 3158   0.629   4.122  17.229  0.5830  0.0696  0.7286
  208MPD1    C1 3159   0.494   4.135  17.244  0.0841 -1.0944 -0.6560
  208MPD1    C2 3160   0.436   4.090  17.361 -0.3010  0.0724  0.0317
  208MPD1    C3 3161   0.516   4.039  17.464 -0.3746  0.3287 -1.2100
  208MPD1    C4 3162   0.657   4.043  17.451  0.2387  0.0892 -0.3749
  208MPD1    C5 3163   0.710   4.084  17.336  0.3176 -0.3523 -0.0918
  208MPD1     H 3164   0.329   4.087  17.383 -0.2985 -0.9412 -0.0522
  208MPD1    H1 3165   0.725   3.988  17.516 -0.6288  0.5631  0.9484
  208MPD1    H2 3166   0.675   4.138  17.132  2.0831  0.7677  1.5526
  208MPD1    H3 3167   0.814   4.059  17.315  1.5271  3.7563  0.9937
  208MPD1     N 3168   0.452   3.991  17.584  0.0674 -0.3978  0.4180
  208MPD1    H5 3169   0.352   3.977  17.592 -0.0844  1.1959  1.3985
  208MPD1    N1 3170   0.415   4.175  17.132 -0.4602  0.2141  0.1692
  208MPD1    H6 3171   0.461   4.234  17.063 -0.1057  0.2353  0.4201
  208MPD1    H7 3172   0.328   4.218  17.163 -0.2098  0.9981 -0.2019
  209MPD1     C 3173   3.267   3.013  10.836  0.1660 -0.2658 -0.2830
  209MPD1    C1 3174   3.184   3.063  10.740  0.9356 -0.4571 -0.1727
  209MPD1    C2 3175   3.122   3.191  10.750  0.3061  0.4516  0.2424
  209MPD1    C3 3176   3.157   3.276  10.857  0.1044 -0.4545  0.7070
  209MPD1    C4 3177   3.243   3.221  10.948 -0.6630 -0.0667 -0.5948
  209MPD1    C5 3178   3.292   3.094  10.942 -0.5617 -0.3171  0.4582
  209MPD1     H 3179   3.061   3.229  10.669  2.2297 -0.2499 -1.5334
  209MPD1    H1 3180   3.276   3.285  11.029  0.9773 -0.5251 -0.9031
  209MPD1    H2 3181   3.316   2.916  10.839  3.2705  1.3157  0.3614
  209MPD1    H3 3182   3.350   3.061  11.027  1.5202 -0.1100 -0.8700
  209MPD1     N 3183   3.117   3.407  10.863 -0.7430  0.8247  0.0128
  209MPD1    H5 3184   3.078   3.442  10.776  0.1084 -2.0153 -1.5254
  209MPD1    N1 3185   3.177   2.995  10.616  0.2334 -0.1065 -0.4334
  209MPD1    H6 3186   3.176   2.897  10.641 -2.3997 -0.3762 -1.5532
  209MPD1    H7 3187   3.105   3.023  10.549  1.0932  0.0179 -1.3005
  210MPD1     C 3188   3.266   4.356  11.335  0.4141 -0.2129  0.7807
  210MPD1    C1 3189   3.306   4.365  11.207 -0.3979  0.0212 -0.9762
  210MPD1    C2 3190   3.259   4.271  11.116 -0.7214 -0.4224 -0.2179
  210MPD1    C3 3191   3.184   4.160  11.156  0.6094  0.0079  0.2956
  210MPD1    C4 3192   3.177   4.138  11.291 -0.1076  0.5013  0.2811
  210MPD1    C5 3193   3.207   4.240  11.376 -0.1090 -0.4971 -0.4266
  210MPD1     H 3194   3.274   4.285  11.010  1.4223 -0.6863  0.0422
  210MPD1    H1 3195   3.132   4.052  11.338  1.5068  0.6769  2.1902
  210MPD1    H2 3196   3.299   4.430  11.407 -1.9366  0.6670  0.9715
  210MPD1    H3 3197   3.194   4.221  11.481 -1.0627  2.0287 -0.0803
  210MPD1     N 3198   3.136   4.067  11.066 -0.7033 -0.2121  0.6643
  210MPD1    H5 3199   3.163   4.081  10.969  0.3590  0.8425  1.1146
  210MPD1    N1 3200   3.369   4.482  11.164 -0.1606 -0.2712 -0.2616
  210MPD1    H6 3201   3.411   4.465  11.073  1.2883 -1.6455  0.6564
  210MPD1    H7 3202   3.437   4.517  11.231 -0.8657  1.1153 -0.2676
  211MPD1     C 3203   0.367   3.509  17.611  0.5229  0.1769 -0.3956
  211MPD1    C1 3204   0.372   3.604  17.510 -0.1061  0.1567  0.1850
  211MPD1    C2 3205   0.257   3.632  17.442 -0.1298 -0.4666  0.2792
  211MPD1    C3 3206   0.135   3.568  17.462 -0.5006  0.2362 -0.1544
  211MPD1    C4 3207   0.132   3.489  17.574 -0.4163 -0.0836 -0.0302
  211MPD1    C5 3208   0.248   3.460  17.647  0.1071  0.1319 -0.2832
  211MPD1     H 3209   0.258   3.707  17.364 -1.3119  1.0968  1.7767
  211MPD1    H1 3210   0.039   3.448  17.612 -0.0335 -1.4928 -0.6436
  211MPD1    H2 3211   0.445   3.500  17.685 -0.0575  0.8379  0.2925
  211MPD1    H3 3212   0.228   3.399   0.043  0.0876  3.0140  1.7485
  211MPD1     N 3213   0.022   3.608  17.376 -0.6065 -0.2294  0.2308
  211MPD1    H5 3214   0.048   3.669  17.299 -0.3221  0.1368  0.6173
  211MPD1    N1 3215   0.495   3.642  17.454  0.9970  0.0962 -0.9278
  211MPD1    H6 3216   0.482   3.724  17.395 -0.5659  1.0944  0.8263
  211MPD1    H7 3217   0.570   3.655  17.522  0.4408  0.1937 -0.3432
  212MPD1     C 3218   3.950   2.954  16.287 -0.0985 -0.1811  0.5088
  212MPD1    C1 3219   3.920   2.982  16.417  0.1617  0.1545 -0.0236
  212MPD1    C2 3220   3.861   2.885  16.491  0.8560  0.0472 -0.8665
  212MPD1    C3 3221   3.830   2.760  16.442  0.4610 -0.1375 -0.5917
  212MPD1    C4 3222   3.853   2.733  16.306  0.4963  0.8657 -1.3816
  212MPD1    C5 3223   3.911   2.827  16.236  0.5194  0.7959 -0.6814
  212MPD1     H 3224   3.841   2.904  16.595 -2.2043 -2.5483 -0.9728
  212MPD1    H1 3225   3.821   2.637  16.268 -1.3855  1.3101 -0.8902
  212MPD1    H2 3226   4.004   3.014  16.214  0.5173  0.3920  1.4442
  212MPD1    H3 3227   3.933   2.818  16.130  0.9613  0.4625 -0.5596
  212MPD1     N 3228   3.766   2.661  16.518  0.7206 -0.1951 -0.5677
  212MPD1    H5 3229   3.726   2.589  16.460 -1.0053  0.2506  0.0773
  212MPD1    N1 3230   3.957   3.101  16.466 -0.1265 -0.3839 -0.7154
  212MPD1    H6 3231   3.886   3.129  16.533  0.6067 -0.0034 -0.0990
  212MPD1    H7 3232   3.934   3.168  16.393  1.5169  1.6552  0.6382
  213MPD1     C 3233   2.032   0.206  15.581  0.1022  0.1542 -0.3011
  213MPD1    C1 3234   2.027   0.123  15.476  0.4154 -0.6287 -0.0510
  213MPD1    C2 3235   2.049   4.716  15.503 -0.4381 -0.5801  0.8168
  213MPD1    C3 3236   2.044   4.667  15.637 -0.7253  0.4556  0.1917
  213MPD1    C4 3237   2.023   0.033  15.746  0.4214  0.4698  0.5849
  213MPD1    C5 3238   2.022   0.169  15.716  0.6161  0.3723 -0.0635
  213MPD1     H 3239   2.074   4.641  15.429  0.2167 -1.3143  1.7814
  213MPD1    H1 3240   1.995   0.003  15.846 -1.5396  0.6139  0.0941
  213MPD1    H2 3241   2.008   0.304  15.541  1.6615  0.7718  0.2695
  213MPD1    H3 3242   1.991   0.247  15.785 -1.2169  0.7237 -1.2978
  213MPD1     N 3243   2.035   4.526  15.646 -0.0422  0.1250  0.6197
  213MPD1    H5 3244   2.052   4.469  15.564  1.1803  1.2185  0.1113
  213MPD1    N1 3245   2.079   0.177  15.360  0.3070 -0.0625 -0.2497
  213MPD1    H6 3246   2.058   0.120  15.278 -1.3423 -0.9953  0.8214
  213MPD1    H7 3247   2.041   0.270  15.345  1.5516  0.5078  0.0798
  214MPD1     C 3248   2.613   3.790  15.968  0.2001 -0.8093  0.5473
  214MPD1    C1 3249   2.557   3.885  16.037 -0.2357 -0.1131  0.1788
  214MPD1    C2 3250   2.441   3.943  15.987 -0.1962  0.1383  0.0403
  214MPD1    C3 3251   2.385   3.903  15.868 -0.1792  0.3845 -0.7253
  214MPD1    C4 3252   2.442   3.798  15.802  0.1332  0.1652 -0.2881
  214MPD1    C5 3253   2.554   3.750  15.854  0.4097 -0.1984  0.4165
  214MPD1     H 3254   2.395   4.031  16.030  0.4409  0.0551  0.8978
  214MPD1    H1 3255   2.403   3.763  15.707  1.5637 -2.0300 -0.0681
  214MPD1    H2 3256   2.704   3.742  16.001  1.4398  1.1650  0.0019
  214MPD1    H3 3257   2.610   3.673  15.803  3.8354  0.9109  2.5589
  214MPD1     N 3258   2.273   3.968  15.811  0.2860  0.8616  0.3961
  214MPD1    H5 3259   2.274   3.967  15.710  3.1725  1.4475  0.4269
  214MPD1    N1 3260   2.621   3.949  16.149  0.4874  0.0111  0.2517
  214MPD1    H6 3261   2.673   3.886  16.209  0.7412  1.0017  1.0562
  214MPD1    H7 3262   2.549   3.997  16.202 -0.1418 -0.2976 -0.3137
  215MPD1     C 3263   1.989   3.485  10.401 -0.5155  0.6331 -0.3119
  215MPD1    C1 3264   2.101   3.446  10.335 -0.7298  0.0602  0.0764
  215MPD1    C2 3265   2.221   3.495  10.374 -0.4008 -0.3412  0.1044
  215MPD1    C3 3266   2.236   3.554  10.499 -0.2777  0.9263 -0.1243
  215MPD1    C4 3267   2.126   3.580  10.570 -0.1004 -0.6931  0.5712
  215MPD1    C5 3268   2.002   3.544  10.521  0.0415  0.2274 -0.3513
  215MPD1     H 3269   2.308   3.497  10.309  0.1149 -1.2276  0.7753
  215MPD1    H1 3270   2.127   3.630  10.666  2.7295 -0.7216  0.5698
  215MPD1    H2 3271   1.890   3.467  10.361 -0.9825 -0.1872  1.2133
  215MPD1    H3 3272   1.917   3.553  10.587 -0.3140  0.8712 -0.8922
  215MPD1     N 3273   2.367   3.593  10.547  0.5887 -0.3362  0.4203
  215MPD1    H5 3274   2.445   3.587  10.482  0.7574 -3.0727  0.8758
  215MPD1    N1 3275   2.092   3.376  10.215  0.4106  0.0333 -1.1699
  215MPD1    H6 3276   2.178   3.332  10.183  0.7477 -0.0748 -0.1184
  215MPD1    H7 3277   2.016   3.308  10.208 -0.6337  0.7348  3.6040
  216MPD1     C 3278   4.356   1.708  16.060 -0.5874 -0.6559 -0.3985
  216MPD1    C1 3279   4.331   1.571  16.080 -0.1212  0.2192 -0.9630
  216MPD1    C2 3280   4.327   1.523  16.208  1.0139 -0.3485 -0.8064
  216MPD1    C3 3281   4.313   1.608  16.320  0.7570 -0.0044 -0.0907
  216MPD1    C4 3282   4.344   1.745  16.299 -0.0561 -0.2043  0.8261
  216MPD1    C5 3283   4.373   1.784  16.169 -0.0312 -1.2405 -1.4576
  216MPD1     H 3284   4.312   1.416  16.219  0.4458 -0.0962  0.9138
  216MPD1    H1 3285   4.369   1.811  16.381 -3.2452 -2.9759  4.0553
  216MPD1    H2 3286   4.387   1.747  15.964  1.3358  2.9729  1.7210
  216MPD1    H3 3287   4.415   1.883  16.158 -0.9463 -0.6936 -0.0076
  216MPD1     N 3288   4.298   1.539  16.444  0.1384  0.7537 -0.0759
  216MPD1    H5 3289   4.285   1.438  16.442  3.7483  0.2637  1.4442
  216MPD1    N1 3290   4.337   1.489  15.967 -0.0778 -0.0403  0.6277
  216MPD1    H6 3291   4.299   1.539  15.886  0.4057 -0.6427  0.0279
  216MPD1    H7 3292   4.289   1.400  15.977 -1.2593  0.5244  0.1169
  217MPD1     C 3293   0.517   1.590   8.669  0.0063 -0.3790  1.1236
  217MPD1    C1 3294   0.649   1.584   8.630  0.7062 -0.4893  0.9000
  217MPD1    C2 3295   0.724   1.695   8.644 -0.3813  0.1642  0.7797
  217MPD1    C3 3296   0.683   1.808   8.713  0.2212 -0.5246 -0.1928
  217MPD1    C4 3297   0.558   1.805   8.764  0.0466 -0.1567 -0.1813
  217MPD1    C5 3298   0.474   1.700   8.743 -0.4423  0.0524 -0.4364
  217MPD1     H 3299   0.829   1.691   8.617  0.3584  2.3784  3.3270
  217MPD1    H1 3300   0.521   1.890   8.820  3.1373 -0.2763  2.0334
  217MPD1    H2 3301   0.444   1.512   8.649  0.1431 -0.1205 -0.4086
  217MPD1    H3 3302   0.375   1.695   8.785 -1.0351  0.7155 -1.7357
  217MPD1     N 3303   0.765   1.920   8.740 -0.2759 -0.0983 -0.4558
  217MPD1    H5 3304   0.736   1.986   8.812 -1.3443 -0.4404 -0.5655
  217MPD1    N1 3305   0.698   1.470   8.557  0.0063  0.1836 -0.2194
  217MPD1    H6 3306   0.799   1.462   8.556  0.1681  2.3221  0.1701
  217MPD1    H7 3307   0.645   1.385   8.575 -0.7295  0.9051  1.0086
  218MPD1     C 3308   2.857   0.107  12.384 -0.0977  0.5878 -0.0610
  218MPD1    C1 3309   2.864   4.700  12.436 -0.6080 -0.4963 -0.2662
  218MPD1    C2 3310   2.775   4.610  12.389 -0.4396 -0.0053 -0.7261
  218MPD1    C3 3311   2.674   4.636  12.297  0.0853  0.1130  0.1092
  218MPD1    C4 3312   2.669   0.043  12.245 -0.1522  0.0872 -0.5690
  218MPD1    C5 3313   2.760   0.136  12.289 -0.2550  0.0296  0.5511
  218MPD1     H 3314   2.788   4.508  12.423  0.6032  0.2197 -0.4542
  218MPD1    H1 3315   2.603   0.082  12.168  0.6566  1.4823 -0.5578
  218MPD1    H2 3316   2.912   0.193  12.420  1.1027 -0.4111  0.4913
  218MPD1    H3 3317   2.743   0.236  12.251  1.1352  0.1656  0.3012
  218MPD1     N 3318   2.583   4.530  12.266 -0.0868 -0.1554  0.6388
  218MPD1    H5 3319   2.596   4.446  12.321  0.0386 -0.1039  0.6888
  218MPD1    N1 3320   2.962   4.669  12.535  0.2652 -0.2870  0.1804
  218MPD1    H6 3321   3.028   0.021  12.558 -0.8985  0.1397  2.1433
  218MPD1    H7 3322   3.011   4.588  12.500  2.0854  0.5605  0.7941
  219MPD1     C 3323   2.331   3.882  11.483  0.1884  0.0532 -0.0352
  219MPD1    C1 3324   2.427   3.972  11.510 -0.0390  0.2865  0.3106
  219MPD1    C2 3325   2.425   4.033  11.627  0.0470  0.2843  0.1267
  219MPD1    C3 3326   2.349   3.991  11.734  0.3671  0.2740  0.1764
  219MPD1    C4 3327   2.260   3.888  11.714 -0.4389 -0.4572 -0.2878
  219MPD1    C5 3328   2.259   3.829  11.594 -0.1994 -0.4003 -0.0568
  219MPD1     H 3329   2.498   4.113  11.630 -1.1020  1.2687  2.2740
  219MPD1    H1 3330   2.200   3.848  11.795  0.8469 -2.0307 -0.1331
  219MPD1    H2 3331   2.323   3.840  11.384  0.3146 -2.8228  1.1712
  219MPD1    H3 3332   2.194   3.743  11.583  0.8774 -1.1765 -0.3566
  219MPD1     N 3333   2.340   4.056  11.853 -0.4257 -0.2223  0.0148
  219MPD1    H5 3334   2.268   4.019  11.914 -1.7029  2.1749 -0.0501
  219MPD1    N1 3335   2.486   4.035  11.402  0.2793 -0.4483  0.1278
  219MPD1    H6 3336   2.567   4.088  11.431  0.3630 -1.7755  2.2893
  219MPD1    H7 3337   2.518   3.966  11.334  0.2833  0.2860 -0.6177
  220MPD1     C 3338   2.848   3.523   9.105  0.4816  0.3888  0.6811
  220MPD1    C1 3339   2.863   3.650   9.146 -0.0790 -0.2185  0.5535
  220MPD1    C2 3340   2.773   3.714   9.233 -0.7848 -0.1627 -0.3980
  220MPD1    C3 3341   2.659   3.650   9.278 -0.1225 -0.2206  0.2066
  220MPD1    C4 3342   2.637   3.521   9.231 -0.0012 -0.2618 -0.5056
  220MPD1    C5 3343   2.739   3.458   9.164  0.3901  0.3718 -0.4419
  220MPD1     H 3344   2.786   3.817   9.263 -0.6869  0.0748 -1.2651
  220MPD1    H1 3345   2.551   3.466   9.269 -1.1973  2.4042  0.5996
  220MPD1    H2 3346   2.902   3.471   9.026  0.9674  0.5662  0.8997
  220MPD1    H3 3347   2.727   3.352   9.142 -0.6033  0.3507  0.2218
  220MPD1     N 3348   2.582   3.719   9.376 -0.2393  0.5834 -0.8965
  220MPD1    H5 3349   2.617   3.810   9.405  0.2855 -0.1791  0.8151
  220MPD1    N1 3350   2.958   3.724   9.076  0.6603 -0.1871  0.4495
  220MPD1    H6 3351   3.033   3.663   9.045  0.2256 -0.8148  0.6431
  220MPD1    H7 3352   2.993   3.806   9.126  0.6582 -0.1593  0.4056
  221MPD1     C 3353   3.621   4.337  16.134 -0.7007 -0.2532 -0.5520
  221MPD1    C1 3354   3.654   4.442  16.220 -0.8533  0.3839  0.2705
  221MPD1    C2 3355   3.765   4.419  16.299 -0.2293 -0.7115 -0.5335
  221MPD1    C3 3356   3.834   4.297  16.296 -0.3189  0.2410 -0.2110
  221MPD1    C4 3357   3.792   4.192  16.220 -0.3302  0.5204 -0.3788
  221MPD1    C5 3358   3.682   4.215  16.137  0.3625  0.5486  1.0649
  221MPD1     H 3359   3.802   4.495  16.366 -1.7147 -1.8272  1.5605
  221MPD1    H1 3360   3.821   4.088  16.229 -2.9001 -0.0395  1.3918
  221MPD1    H2 3361   3.548   4.347  16.055  0.3616  1.5769 -1.3278
  221MPD1    H3 3362   3.671   4.141  16.058 -0.8480  1.9640 -0.0880
  221MPD1     N 3363   3.955   4.269  16.373 -0.1213  0.3657  0.3523
  221MPD1    H5 3364   3.980   4.171  16.379  1.3162  0.8407  1.7750
  221MPD1    N1 3365   3.596   4.569  16.202  0.1234  0.6119 -0.0603
  221MPD1    H6 3366   3.496   4.568  16.183 -0.4089  2.3688  2.5648
  221MPD1    H7 3367   3.628   4.624  16.282 -1.6359 -0.1463  1.1688
  222MPD1     C 3368   0.017   3.430  16.545 -0.2228  0.2950  0.0277
  222MPD1    C1 3369   4.688   3.435  16.675  0.2422 -0.4871 -0.6634
  222MPD1    C2 3370   4.565   3.376  16.704  0.6137 -0.2067 -0.3488
  222MPD1    C3 3371   4.503   3.301  16.603 -0.0904 -0.0804  0.0662
  222MPD1    C4 3372   4.567   3.292  16.482 -0.3946  0.4437  0.1643
  222MPD1    C5 3373   4.678   3.355  16.446 -1.1268 -0.7769  0.4116
  222MPD1     H 3374   4.544   3.378  16.810 -0.8852  1.6478 -0.6816
  222MPD1    H1 3375   4.529   3.228  16.403  0.0490  0.2569  0.1052
  222MPD1    H2 3376   0.114   3.472  16.523  0.4067  0.7764  3.6420
  222MPD1    H3 3377   4.719   3.356  16.345 -2.2590  1.9915 -0.0033
  222MPD1     N 3378   4.387   3.222  16.616  0.3934  0.1206 -0.8669
  222MPD1    H5 3379   4.364   3.158  16.540  1.4721  2.1634 -2.9057
  222MPD1    N1 3380   0.028   3.519  16.766 -0.0134 -0.4784  0.1861
  222MPD1    H6 3381   0.009   3.498  16.864  3.1193  0.6333  1.0158
  222MPD1    H7 3382   0.128   3.508  16.751  0.0363 -0.2511  0.3619
  223MPD1     C 3383   4.064   2.277  16.831  0.1225 -0.2871  0.2070
  223MPD1    C1 3384   3.978   2.356  16.896 -0.1946  0.2821 -0.5769
  223MPD1    C2 3385   3.987   2.493  16.885  0.4066 -0.1883  0.7320
  223MPD1    C3 3386   4.075   2.547  16.792 -0.3063 -0.1147  0.0293
  223MPD1    C4 3387   4.141   2.462  16.703  0.4548  0.7640 -0.1366
  223MPD1    C5 3388   4.136   2.325  16.725  0.0845  1.0889 -0.4879
  223MPD1     H 3389   3.926   2.564  16.939 -0.4285 -0.9175  0.7489
  223MPD1    H1 3390   4.216   2.500  16.635 -1.4106  1.6279 -1.6789
  223MPD1    H2 3391   4.081   2.172  16.854  1.7213 -0.2202 -0.6598
  223MPD1    H3 3392   4.223   2.269  16.693  0.7665  0.6363  2.1482
  223MPD1     N 3393   4.086   2.689  16.787 -0.2996 -0.6396  0.4197
  223MPD1    H5 3394   4.045   2.734  16.868 -2.4071 -0.0390 -0.9915
  223MPD1    N1 3395   3.892   2.307  16.998 -0.6989 -0.1501  0.1197
  223MPD1    H6 3396   3.811   2.364  17.022  1.0368  1.1832  2.8493
  223MPD1    H7 3397   3.861   2.211  16.982  0.5903 -0.0377 -2.9742
  224MPD1     C 3398   2.203   3.896   9.287 -0.6291  1.4408  0.7824
  224MPD1    C1 3399   2.184   3.768   9.253  0.5643 -0.1778  0.4639
  224MPD1    C2 3400   2.080   3.694   9.313 -0.6117  0.6490 -0.1666
  224MPD1    C3 3401   1.995   3.752   9.409  0.5016 -0.0238 -0.0664
  224MPD1    C4 3402   2.020   3.886   9.447 -0.2478 -0.3072 -0.4587
  224MPD1    C5 3403   2.130   3.953   9.384 -0.6316  0.2811 -0.5896
  224MPD1     H 3404   2.053   3.591   9.289  1.0834 -0.1524  1.3106
  224MPD1    H1 3405   1.955   3.936   9.517  0.7221  0.8735 -0.3953
  224MPD1    H2 3406   2.282   3.955   9.242 -1.7531  0.8440 -2.0244
  224MPD1    H3 3407   2.155   4.055   9.411  2.4364 -0.5711 -0.1931
  224MPD1     N 3408   1.893   3.682   9.478  0.9115  0.2217  0.6951
  224MPD1    H5 3409   1.837   3.738   9.542  0.0271  1.2319 -0.9905
  224MPD1    N1 3410   2.262   3.712   9.145  0.0928  0.1089 -1.0989
  224MPD1    H6 3411   2.355   3.754   9.147  0.8639 -1.6133 -0.8036
  224MPD1    H7 3412   2.274   3.612   9.157  0.0375  0.2451  0.0872
  225MPD1     C 3413   2.329   0.157  12.207 -0.3515 -0.3179 -0.0654
  225MPD1    C1 3414   2.265   0.248  12.127 -0.2113 -0.3114 -0.5178
  225MPD1    C2 3415   2.135   0.226  12.101 -0.1009  0.2090 -0.2184
  225MPD1    C3 3416   2.068   0.110  12.145  0.0065 -0.2535  0.4703
  225MPD1    C4 3417   2.145   0.017  12.212  0.1607  0.2253 -0.5714
  225MPD1    C5 3418   2.271   0.044  12.242 -0.4380  0.1695  0.0584
  225MPD1     H 3419   2.086   0.301  12.039 -0.3354  0.7963  0.6717
  225MPD1    H1 3420   2.104   4.641  12.233  1.2337 -0.3178 -1.0360
  225MPD1    H2 3421   2.432   0.173  12.236  0.3732 -1.1661 -2.1937
  225MPD1    H3 3422   2.328   4.688  12.290  0.0237  0.0677 -0.6627
  225MPD1     N 3423   1.932   0.103  12.116 -0.1914 -0.3759  0.3326
  225MPD1    H5 3424   1.888   0.176  12.061  2.4454  0.5662 -0.5009
  225MPD1    N1 3425   2.324   0.367  12.094  0.3131 -0.5276  0.1142
  225MPD1    H6 3426   2.425   0.357  12.082  0.3845 -0.2383  0.4475
  225MPD1    H7 3427   2.285   0.405  12.009  0.0702 -0.9978  0.0180
  226MPD1     C 3428   3.581   0.471   9.581 -0.5179 -0.4579 -0.2706
  226MPD1    C1 3429   3.625   0.350   9.529 -0.1618 -0.1268 -0.2180
  226MPD1    C2 3430   3.548   0.235   9.542  0.4064 -0.0655 -0.9485
  226MPD1    C3 3431   3.428   0.237   9.609 -0.2540 -0.0908  0.3459
  226MPD1    C4 3432   3.378   0.360   9.652 -0.3465 -0.3631  0.0925
  226MPD1    C5 3433   3.452   0.470   9.629 -0.1176  0.3029  0.4940
  226MPD1     H 3434   3.581   0.143   9.493 -2.1543 -1.8781  0.7712
  226MPD1    H1 3435   3.288   0.394   9.702 -0.4659 -0.0113 -0.3691
  226MPD1    H2 3436   3.642   0.560   9.572  1.6634 -1.8817  0.5268
  226MPD1    H3 3437   3.420   0.565   9.671  1.5468  1.3283 -0.5734
  226MPD1     N 3438   3.353   0.118   9.610 -0.2895 -0.3399 -0.0330
  226MPD1    H5 3439   3.390   0.026   9.588 -1.8463 -0.7401 -0.9818
  226MPD1    N1 3440   3.741   0.350   9.450  0.0882  0.1634 -0.0362
  226MPD1    H6 3441   3.803   0.430   9.454  0.0204  0.0943  2.3090
  226MPD1    H7 3442   3.770   0.252   9.450 -0.6229 -0.0324  2.3451
  227MPD1     C 3443   2.336   4.611   9.632  0.3078 -0.9690  0.2146
  227MPD1    C1 3444   2.398   4.701   9.546  0.0371 -0.3757 -0.5276
  227MPD1    C2 3445   2.539   4.720   9.560 -0.1205  0.3006  0.3782
  227MPD1    C3 3446   2.612   4.640   9.653 -0.8785  0.4005 -0.3683
  227MPD1    C4 3447   2.543   4.557   9.734  0.3398 -0.1587  0.3072
  227MPD1    C5 3448   2.408   4.537   9.723  0.1255 -0.6006  0.6819
  227MPD1     H 3449   2.591   0.069   9.498 -0.9575 -1.2486 -2.1184
  227MPD1    H1 3450   2.594   4.498   9.809  1.6634 -0.1185 -0.5590
  227MPD1    H2 3451   2.228   4.602   9.635  0.1068  0.8697 -1.3049
  227MPD1    H3 3452   2.367   4.466   9.794 -1.4798 -1.0795 -0.7369
  227MPD1     N 3453   2.752   4.644   9.658 -0.1606 -0.2186 -0.1164
  227MPD1    H5 3454   2.794   0.010   9.629  0.8814 -0.5034  0.5367
  227MPD1    N1 3455   2.322   0.077   9.477  0.2652 -0.5879 -0.5724
  227MPD1    H6 3456   2.362   0.103   9.387 -0.3866  0.2200 -0.6297
  227MPD1    H7 3457   2.224   0.057   9.462  0.0073  1.3238 -1.5317
  228MPD1     C 3458   3.707   2.617  12.073 -0.0169 -0.3633 -0.3667
  228MPD1    C1 3459   3.592   2.664  12.025  0.0446  0.0789 -0.3961
  228MPD1    C2 3460   3.484   2.666  12.115  0.3381  0.4019  1.6372
  228MPD1    C3 3461   3.494   2.625  12.253 -0.2016 -0.0766  0.7624
  228MPD1    C4 3462   3.620   2.584  12.291 -0.3641 -0.5358 -0.7690
  228MPD1    C5 3463   3.727   2.581  12.204  0.4940  0.1739 -0.0733
  228MPD1     H 3464   3.387   2.701  12.080  1.3735  2.7495  1.1560
  228MPD1    H1 3465   3.644   2.573  12.396  0.7461  0.4239 -0.9267
  228MPD1    H2 3466   3.787   2.601  12.002  0.9653 -1.2640  0.9371
  228MPD1    H3 3467   3.826   2.550  12.236  1.7140  1.7774 -2.3168
  228MPD1     N 3468   3.388   2.634  12.343  0.1835  0.3784  0.1611
  228MPD1    H5 3469   3.296   2.659  12.307 -0.2381  1.2522  1.8508
  228MPD1    N1 3470   3.585   2.724  11.899 -0.5397 -0.0920  0.2448
  228MPD1    H6 3471   3.490   2.741  11.869  0.7111  1.4633 -2.8323
  228MPD1    H7 3472   3.652   2.695  11.828 -0.3390 -1.1121  0.8457
  229MPD1     C 3473   2.216   1.793  15.109 -0.6123 -0.7374 -0.4153
  229MPD1    C1 3474   2.305   1.868  15.181 -0.3574  0.2235 -0.5949
  229MPD1    C2 3475   2.417   1.809  15.227  0.3727 -0.9048 -0.2021
  229MPD1    C3 3476   2.442   1.676  15.209 -0.0812 -0.0665 -0.3359
  229MPD1    C4 3477   2.348   1.607  15.143 -0.6231  0.8865  0.8157
  229MPD1    C5 3478   2.238   1.662  15.082  0.5754  0.9264  0.2541
  229MPD1     H 3479   2.484   1.863  15.293 -0.1150  0.3790 -0.7535
  229MPD1    H1 3480   2.372   1.502  15.137  1.7300  1.3695  2.0899
  229MPD1    H2 3481   2.134   1.843  15.058 -1.9568 -0.8016  1.6852
  229MPD1    H3 3482   2.183   1.601  15.011  0.8665  1.0756 -0.0978
  229MPD1     N 3483   2.544   1.602  15.275 -0.1421 -0.5075 -0.0584
  229MPD1    H5 3484   2.547   1.501  15.270 -0.6759 -0.5445  0.3764
  229MPD1    N1 3485   2.281   2.004  15.199 -0.1140 -0.1696 -0.3993
  229MPD1    H6 3486   2.313   2.040  15.289 -2.1808  1.0282 -0.1420
  229MPD1    H7 3487   2.180   2.011  15.209 -0.3473 -0.4664 -2.6227
  230MPD1     C 3488   3.344   1.860  15.850  0.2176  0.8369  0.4446
  230MPD1    C1 3489   3.258   1.924  15.765  0.3533 -0.2678 -0.8987
  230MPD1    C2 3490   3.154   1.849  15.706 -0.0212  0.9766  0.4881
  230MPD1    C3 3491   3.168   1.710  15.705 -0.0287  0.7566  0.2302
  230MPD1    C4 3492   3.265   1.646  15.775  0.1283  0.1172  0.1962
  230MPD1    C5 3493   3.354   1.723  15.855 -0.0892 -0.1827  0.0221
  230MPD1     H 3494   3.071   1.884  15.646  0.6370  0.9010 -0.4719
  230MPD1    H1 3495   3.275   1.538  15.779 -0.5889  0.0041 -1.1964
  230MPD1    H2 3496   3.406   1.913  15.921  2.4504 -0.6694 -0.4047
  230MPD1    H3 3497   3.424   1.664  15.912  1.1861  2.2420  0.9329
  230MPD1     N 3498   3.058   1.651  15.637 -0.5939 -0.2099  0.5174
  230MPD1    H5 3499   2.993   1.715  15.592 -0.7433  2.0291  3.9466
  230MPD1    N1 3500   3.254   2.068  15.769 -0.5171 -0.0977  0.3840
  230MPD1    H6 3501   3.348   2.107  15.769 -0.3930 -0.3923  0.2859
  230MPD1    H7 3502   3.205   2.103  15.687 -2.5758  1.3316  2.2423
  231MPD1     C 3503   1.452   3.750  15.431  0.0552 -0.3375  0.5078
  231MPD1    C1 3504   1.415   3.729  15.297 -0.8361 -0.1785 -0.5722
  231MPD1    C2 3505   1.470   3.801  15.194  0.1242 -0.6650 -0.1052
  231MPD1    C3 3506   1.574   3.884  15.218  0.8631 -0.3840 -0.2566
  231MPD1    C4 3507   1.620   3.898  15.346 -0.0844 -0.4506 -1.3214
  231MPD1    C5 3508   1.551   3.845  15.454 -0.6177  0.1459  0.6082
  231MPD1     H 3509   1.427   3.792  15.095  0.1412  1.0939 -0.2679
  231MPD1    H1 3510   1.709   3.952  15.376 -1.2599  1.1610 -0.7221
  231MPD1    H2 3511   1.399   3.699  15.511 -0.9553 -0.7981 -0.4579
  231MPD1    H3 3512   1.583   3.864  15.556  0.5663 -1.3412  0.5064
  231MPD1     N 3513   1.645   3.930  15.100 -0.0634 -0.1734  0.3802
  231MPD1    H5 3514   1.616   3.890  15.011 -1.0718 -1.9989  1.5227
  231MPD1    N1 3515   1.297   3.651  15.272  0.7058  0.1742  0.6107
  231MPD1    H6 3516   1.298   3.615  15.177 -1.4596 -1.4356  1.1859
  231MPD1    H7 3517   1.268   3.586  15.346  0.9666  0.3928  0.9045
  232MPD1     C 3518   3.226   1.048  17.448  0.1148 -0.6055  0.2708
  232MPD1    C1 3519   3.145   0.937  17.459 -0.1825  0.2029 -0.3020
  232MPD1    C2 3520   3.011   0.957  17.483 -0.1152  0.4100 -0.5057
  232MPD1    C3 3521   2.961   1.085  17.515 -0.1278 -0.2389  0.3714
  232MPD1    C4 3522   3.041   1.195  17.507 -0.1062 -0.3338 -0.8489
  232MPD1    C5 3523   3.174   1.177  17.467  0.7027  0.2496 -0.0407
  232MPD1     H 3524   2.945   0.871  17.488  0.8709 -0.2864  0.5694
  232MPD1    H1 3525   3.019   1.298  17.535 -0.2134 -0.3036 -1.0487
  232MPD1    H2 3526   3.333   1.036  17.432  0.0032 -1.3657  0.1183
  232MPD1    H3 3527   3.238   1.262  17.450 -0.5391  1.0266 -0.8462
  232MPD1     N 3528   2.825   1.090  17.550  0.2931 -0.4135 -0.1077
  232MPD1    H5 3529   2.767   1.007  17.536 -1.4190  1.0535 -1.7430
  232MPD1    N1 3530   3.192   0.812  17.417 -0.1208  0.2130  0.3244
  232MPD1    H6 3531   3.147   0.734  17.465  1.5427 -1.5830 -1.0247
  232MPD1    H7 3532   3.292   0.797  17.432 -0.4283  1.0432  3.0171
  233MPD1     C 3533   3.304   4.424   0.901 -0.3981 -0.3988 -0.0113
  233MPD1    C1 3534   3.323   4.288   0.920 -0.2224 -0.0225 -0.6500
  233MPD1    C2 3535   3.455   4.245   0.952  0.5607  0.1890 -0.2863
  233MPD1    C3 3536   3.561   4.334   0.965 -0.1128 -0.2813  0.1468
  233MPD1    C4 3537   3.541   4.470   0.944 -0.7368 -0.6750  0.1808
  233MPD1    C5 3538   3.407   4.514   0.922  0.2428 -0.9639 -0.4746
  233MPD1     H 3539   3.466   4.137   0.963 -0.1956  0.2513  1.1564
  233MPD1    H1 3540   3.618   4.546   0.960 -1.9627  0.8617 -1.1936
  233MPD1    H2 3541   3.205   4.460   0.875 -1.1248 -2.9478 -0.7397
  233MPD1    H3 3542   3.379   4.617   0.903 -0.6373 -0.5914  2.7077
  233MPD1     N 3543   3.687   4.290   1.002  0.5859  0.5378  0.3631
  233MPD1    H5 3544   3.764   4.356   1.000  1.1062 -0.1136 -1.9038
  233MPD1    N1 3545   3.213   4.199   0.881 -0.7583  0.1783 -0.2819
  233MPD1    H6 3546   3.120   4.238   0.871 -0.4654  0.4400 -2.0982
  233MPD1    H7 3547   3.202   4.120   0.944 -3.4958  1.1293  0.4081
  234MPD1     C 3548   2.048   1.668   9.811 -1.0772  0.0285 -0.0132
  234MPD1    C1 3549   2.006   1.701   9.683 -0.7405 -0.3473  0.0989
  234MPD1    C2 3550   1.936   1.818   9.670  0.2783 -0.1399 -0.2972
  234MPD1    C3 3551   1.915   1.888   9.784 -0.0425 -0.0580  0.4473
  234MPD1    C4 3552   1.948   1.839   9.910  0.0615 -0.2970  0.9277
  234MPD1    C5 3553   2.013   1.731   9.927 -0.4407  0.8349 -0.7302
  234MPD1     H 3554   1.910   1.870   9.579  1.6425 -1.3792 -1.3843
  234MPD1    H1 3555   1.917   1.898   9.996 -1.2606  0.1255  0.1779
  234MPD1    H2 3556   2.109   1.579   9.827 -1.4836 -0.5443 -1.6214
  234MPD1    H3 3557   2.056   1.694  10.020  0.6646 -1.1736 -2.0304
  234MPD1     N 3558   1.851   2.006   9.758  0.0132  0.2301 -0.0479
  234MPD1    H5 3559   1.848   2.033   9.660 -2.6324 -0.3492 -0.1235
  234MPD1    N1 3560   2.061   1.622   9.578  0.3157 -0.7349  0.3508
  234MPD1    H6 3561   2.067   1.525   9.608  0.6186 -0.3478  1.5371
  234MPD1    H7 3562   1.993   1.611   9.503 -0.4993  1.3002  0.7986
  235MPD1     C 3563   2.815   1.866   8.274  0.6009  0.6215 -0.0257
  235MPD1    C1 3564   2.932   1.796   8.288  0.6653  0.6459  0.3189
  235MPD1    C2 3565   3.008   1.845   8.391  0.6854 -0.7050  0.8908
  235MPD1    C3 3566   2.967   1.941   8.480 -0.5227 -0.4387 -0.7303
  235MPD1    C4 3567   2.847   2.009   8.458  0.2749  0.1119 -0.4105
  235MPD1    C5 3568   2.767   1.964   8.358  0.0522  0.0408  0.5111
  235MPD1     H 3569   3.093   1.785   8.420  2.7243  1.9283  0.3834
  235MPD1    H1 3570   2.806   2.085   8.524  0.1517  0.1015 -0.4751
  235MPD1    H2 3571   2.746   1.846   8.193  0.5475  0.1061  0.1474
  235MPD1    H3 3572   2.681   2.027   8.345  0.7825  0.5728 -1.8538
  235MPD1     N 3573   3.054   1.962   8.589 -0.3182 -0.0928 -0.2400
  235MPD1    H5 3574   3.142   1.912   8.598  0.2498  0.5537 -2.1476
  235MPD1    N1 3575   2.982   1.711   8.186  0.3434 -0.1452 -0.1865
  235MPD1    H6 3576   3.060   1.647   8.200  0.2143 -0.3632 -0.4621
  235MPD1    H7 3577   2.918   1.659   8.127 -0.6312  2.6274 -1.5725
  236MPD1     C 3578   2.433   0.396   9.492 -0.3761  0.1366  0.0430
  236MPD1    C1 3579   2.402   0.359   9.619  0.3350  0.2212 -0.7233
  236MPD1    C2 3580   2.465   0.429   9.713 -0.6032  0.2981 -0.2582
  236MPD1    C3 3581   2.570   0.525   9.686  0.6346  0.4365 -0.3630
  236MPD1    C4 3582   2.596   0.556   9.556  0.3246  0.2284 -0.2625
  236MPD1    C5 3583   2.525   0.489   9.457  0.9770 -0.1471  1.0096
  236MPD1     H 3584   2.438   0.428   9.818 -1.2515  0.3951 -0.4237
  236MPD1    H1 3585   2.668   0.631   9.524 -0.0949  0.6295 -0.2732
  236MPD1    H2 3586   2.391   0.344   9.407 -1.8634  1.1321  0.1749
  236MPD1    H3 3587   2.550   0.507   9.353 -1.1392  0.7124  0.6559
  236MPD1     N 3588   2.634   0.594   9.793  0.1922  0.9793 -0.1372
  236MPD1    H5 3589   2.618   0.545   9.881  0.7948  0.2824 -0.4178
  236MPD1    N1 3590   2.288   0.288   9.653  0.4062 -0.6086  0.0411
  236MPD1    H6 3591   2.314   0.245   9.741 -0.9325 -0.9366  0.2708
  236MPD1    H7 3592   2.271   0.214   9.586 -0.1938 -0.9672  0.5910
  237MPD1     C 3593   1.855   0.530  15.702  0.0882 -0.7341 -0.3835
  237MPD1    C1 3594   1.846   0.471  15.827  0.7267 -0.7535 -0.3878
  237MPD1    C2 3595   1.753   0.372  15.847  0.2866  0.2204  0.1812
  237MPD1    C3 3596   1.670   0.326  15.742 -0.5415  0.5561  0.3319
  237MPD1    C4 3597   1.690   0.385  15.617  0.8748  0.5724 -0.6355
  237MPD1    C5 3598   1.779   0.485  15.598  0.0439 -0.3567 -0.6124
  237MPD1     H 3599   1.734   0.329  15.945 -0.8564  0.5428  0.0967
  237MPD1    H1 3600   1.626   0.357  15.533 -0.0907 -0.4860  0.4628
  237MPD1    H2 3601   1.926   0.606  15.673  1.0723 -1.5625 -0.1375
  237MPD1    H3 3602   1.808   0.515  15.498 -0.2220  2.0777  0.0368
  237MPD1     N 3603   1.559   0.240  15.743  0.2823  0.3820 -0.4579
  237MPD1    H5 3604   1.508   0.222  15.657 -1.7262 -1.1959  1.0721
  237MPD1    N1 3605   1.939   0.510  15.923  0.0840  0.1508 -0.3059
  237MPD1    H6 3606   1.961   0.609  15.910 -0.3686  0.2597 -0.2665
  237MPD1    H7 3607   1.910   0.496  16.019 -0.5318  0.2658 -0.4736
  238MPD1     C 3608   3.625   3.009  15.290 -0.4311 -0.8253 -0.2651
  238MPD1    C1 3609   3.661   3.063  15.165  0.3505  0.1409  0.1273
  238MPD1    C2 3610   3.582   3.160  15.110  0.1305 -0.2172  0.5452
  238MPD1    C3 3611   3.484   3.219  15.178  0.6262  0.1508  0.3392
  238MPD1    C4 3612   3.453   3.172  15.306 -0.4570  0.0229 -0.0238
  238MPD1    C5 3613   3.523   3.067  15.359  0.0137  0.1637 -0.0823
  238MPD1     H 3614   3.623   3.216  15.027  0.1851  0.1441  0.8196
  238MPD1    H1 3615   3.371   3.212  15.366 -1.7394 -3.6028  0.6059
  238MPD1    H2 3616   3.666   2.917  15.331 -3.2931 -1.8599  0.2598
  238MPD1    H3 3617   3.478   3.021  15.447  0.1775 -0.6293 -0.4087
  238MPD1     N 3618   3.405   3.319  15.116 -0.3541  0.2277  0.2523
  238MPD1    H5 3619   3.339   3.362  15.179 -1.9220 -1.4421 -0.2453
  238MPD1    N1 3620   3.773   3.003  15.093  0.1228 -0.0229  0.0761
  238MPD1    H6 3621   3.850   2.975  15.153  1.0419 -0.3014 -1.2414
  238MPD1    H7 3622   3.819   3.050  15.015  0.5337  0.7251  0.7773
  239MPD1     C 3623   3.756   4.385  15.216  0.1970  0.2398  0.0650
  239MPD1    C1 3624   3.869   4.346  15.143 -0.1390 -0.3179  0.4153
  239MPD1    C2 3625   3.856   4.333  15.008 -0.5258  0.2991  0.3187
  239MPD1    C3 3626   3.731   4.347  14.941  0.3949  0.2621 -0.7078
  239MPD1    C4 3627   3.619   4.375  15.015  0.7748 -0.0002 -1.0066
  239MPD1    C5 3628   3.638   4.406  15.150  0.0154  1.0648  0.0399
  239MPD1     H 3629   3.940   4.323  14.941 -0.2655  2.0324  0.3797
  239MPD1    H1 3630   3.518   4.369  14.976  0.5058 -1.7752 -0.0802
  239MPD1    H2 3631   3.757   4.423  15.317 -1.2059 -0.1822  0.2456
  239MPD1    H3 3632   3.551   4.415  15.214 -0.2655 -2.1321  0.1308
  239MPD1     N 3633   3.707   4.312  14.805  0.2899  0.7062 -0.7053
  239MPD1    H5 3634   3.611   4.319  14.772  0.4160 -1.1875 -1.4768
  239MPD1    N1 3635   3.987   4.340  15.211 -0.0625  0.2561 -0.3711
  239MPD1    H6 3636   4.051   4.280  15.160  2.0354  2.2128 -0.0698
  239MPD1    H7 3637   3.982   4.320  15.310  0.5769 -0.3733 -0.4689
  240MPD1     C 3638   3.263   3.922  13.773 -0.2505 -0.6692  0.1201
  240MPD1    C1 3639   3.334   3.980  13.876 -0.1609 -0.5589 -0.7676
  240MPD1    C2 3640   3.279   3.984  14.004  0.1747 -0.7322  0.3923
  240MPD1    C3 3641   3.149   3.954  14.031 -0.0751 -0.4110  0.3170
  240MPD1    C4 3642   3.079   3.909  13.926 -0.1577 -0.3109 -0.1231
  240MPD1    C5 3643   3.130   3.894  13.801  0.0877 -0.5433  0.2625
  240MPD1     H 3644   3.340   4.021  14.087  0.0111 -3.8451  1.9078
  240MPD1    H1 3645   2.977   3.871  13.934  0.0761 -0.5281  1.7388
  240MPD1    H2 3646   3.300   3.923  13.671  2.2573 -0.9286  1.0260
  240MPD1    H3 3647   3.067   3.857  13.721 -1.5352 -0.1425  1.3413
  240MPD1     N 3648   3.101   3.975  14.155  0.0570 -0.1610  0.5666
  240MPD1    H5 3649   3.164   4.005  14.230 -0.7540 -0.1150  1.2258
  240MPD1    N1 3650   3.469   4.016  13.856 -0.0330  0.4591  0.4743
  240MPD1    H6 3651   3.483   4.059  13.765 -2.9474 -1.3216 -0.8491
  240MPD1    H7 3652   3.491   4.091  13.921 -1.5464  0.4753  0.9693
  241MPD1     C 3653   3.539   4.030  14.868  0.4583 -0.3565 -0.0804
  241MPD1    C1 3654   3.418   4.053  14.932  0.2524  0.4101  0.9436
  241MPD1    C2 3655   3.302   4.055  14.848  0.0459  0.0700  0.9191
  241MPD1    C3 3656   3.308   4.037  14.711  0.0293  0.4224  0.4346
  241MPD1    C4 3657   3.432   4.019  14.656  0.0896 -0.7066 -0.0666
  241MPD1    C5 3658   3.539   4.010  14.732  0.6007  0.5498 -0.3700
  241MPD1     H 3659   3.209   4.070  14.902 -0.4899  0.2398 -0.0549
  241MPD1    H1 3660   3.435   3.992  14.551  1.5434 -1.4717  0.1650
  241MPD1    H2 3661   3.629   4.026  14.929 -0.1858 -1.6500  0.7932
  241MPD1    H3 3662   3.633   3.987  14.682  0.4148 -2.2711  0.5717
  241MPD1     N 3663   3.196   4.041  14.632 -0.4117  0.2609 -0.4426
  241MPD1    H5 3664   3.208   4.037  14.531 -0.3374  1.4082 -0.4694
  241MPD1    N1 3665   3.408   4.053  15.067 -0.5457 -0.1045 -0.0118
  241MPD1    H6 3666   3.338   3.987  15.101 -0.9403 -0.8092 -2.2373
  241MPD1    H7 3667   3.486   4.011  15.117  0.2877  2.3688  0.7524
  242MPD1     C 3668   2.333   3.158  15.565 -0.6161  0.1138  0.4117
  242MPD1    C1 3669   2.238   3.075  15.510 -0.4107  0.1671 -0.0499
  242MPD1    C2 3670   2.276   2.995  15.401 -0.3716 -0.1337  0.5062
  242MPD1    C3 3671   2.400   3.004  15.353 -0.4484 -0.4443  0.0698
  242MPD1    C4 3672   2.489   3.093  15.405  0.5633  0.5483  0.5528
  242MPD1    C5 3673   2.457   3.175  15.507  0.0651 -0.3616 -0.5526
  242MPD1     H 3674   2.205   2.915  15.380  1.9111 -2.1766  0.6147
  242MPD1    H1 3675   2.589   3.104  15.366 -0.9039  0.9186 -3.1455
  242MPD1    H2 3676   2.305   3.224  15.647 -0.7312  2.4891 -1.5237
  242MPD1    H3 3677   2.523   3.252  15.545  0.2891 -0.7358 -0.1883
  242MPD1     N 3678   2.448   2.914  15.257  0.4651 -0.0183  0.3023
  242MPD1    H5 3679   2.546   2.923  15.235  1.0038 -0.4819  2.4812
  242MPD1    N1 3680   2.113   3.060  15.569  0.2032  0.1967 -0.1013
  242MPD1    H6 3681   2.089   3.141  15.625  0.1420 -0.2571  0.5227
  242MPD1    H7 3682   2.047   3.040  15.494 -0.2847  1.1486  0.0812
  243MPD1     C 3683   0.261   1.235   0.084  0.2107 -0.1918 -0.1024
  243MPD1    C1 3684   0.288   1.265  17.640  0.3405 -0.2962  0.2529
  243MPD1    C2 3685   0.193   1.243  17.542  0.2994 -0.0275 -0.1017
  243MPD1    C3 3686   0.064   1.218  17.582 -0.0352  0.1325  0.1997
  243MPD1    C4 3687   0.038   1.211   0.025 -0.0392 -0.2157  0.0526
  243MPD1    C5 3688   0.134   1.202   0.121  0.6569 -0.8041 -0.7089
  243MPD1     H 3689   0.221   1.256  17.438  1.3124  1.3073  0.3308
  243MPD1    H1 3690   4.661   1.202   0.068  1.1411 -1.8239  2.4018
  243MPD1    H2 3691   0.347   1.232   0.150 -1.7821 -0.3917  2.4837
  243MPD1    H3 3692   0.110   1.163   0.220  1.7042  0.3158 -0.0155
  243MPD1     N 3693   4.687   1.194  17.486 -0.8508  0.3970  0.1975
  243MPD1    H5 3694   4.722   1.197  17.390  0.0662  0.9435  0.5471
  243MPD1    N1 3695   0.413   1.291  17.597 -0.0864  0.3544 -0.2041
  243MPD1    H6 3696   0.420   1.367  17.529 -0.4496 -1.9506 -2.8169
  243MPD1    H7 3697   0.474   1.320  17.674 -0.5026 -2.1968  1.0534
  244MPD1     C 3698   3.661   1.127  17.637  0.1940  0.6548  0.7077
  244MPD1    C1 3699   3.769   1.169   0.012  0.0764 -0.2195 -0.5206
  244MPD1    C2 3700   3.891   1.154  17.652 -0.0498 -0.7691  0.2923
  244MPD1    C3 3701   3.903   1.103  17.525  0.4986 -0.6473  0.3224
  244MPD1    C4 3702   3.790   1.060  17.456  0.0695  0.1335  0.2220
  244MPD1    C5 3703   3.670   1.068  17.524  0.3608  0.5174  0.7987
  244MPD1     H 3704   3.976   1.197   0.013 -1.2484 -0.5368  2.0416
  244MPD1    H1 3705   3.794   1.023  17.354 -0.9334 -1.2644  0.6944
  244MPD1    H2 3706   3.565   1.145  17.683  0.0960  0.1312  0.7065
  244MPD1    H3 3707   3.576   1.032  17.482  3.2757 -0.8051 -4.5788
  244MPD1     N 3708   4.041   1.118  17.476  0.1946 -0.4289  0.3220
  244MPD1    H5 3709   4.111   1.153  17.541 -1.3273  0.7195  1.3625
  244MPD1    N1 3710   3.761   1.246   0.129 -0.6868  0.1336 -0.0588
  244MPD1    H6 3711   3.677   1.224   0.184  0.7902 -2.8739  1.0215
  244MPD1    H7 3712   3.842   1.247   0.190 -1.4256 -1.2770  0.9493
  245MPD1     C 3713   1.132   1.444  13.165  0.8038  0.0996  0.8265
  245MPD1    C1 3714   1.270   1.462  13.198  0.1330 -0.4340  0.4777
  245MPD1    C2 3715   1.303   1.572  13.268 -0.2468 -0.2208 -0.2413
  245MPD1    C3 3716   1.217   1.659  13.316 -0.0331 -0.0990 -0.8524
  245MPD1    C4 3717   1.079   1.635  13.303  0.6240  0.5762  0.2872
  245MPD1    C5 3718   1.047   1.536  13.217 -0.8660 -0.4222 -0.3633
  245MPD1     H 3719   1.407   1.594  13.291  0.2654 -2.3639 -0.5678
  245MPD1    H1 3720   1.000   1.705  13.331 -1.1555 -1.0041 -0.7614
  245MPD1    H2 3721   1.092   1.375  13.091 -1.7499  2.7955 -0.3083
  245MPD1    H3 3722   0.941   1.524  13.195 -0.6928 -2.5231 -0.0363
  245MPD1     N 3723   1.279   1.760  13.379 -0.1459 -0.0173 -0.1139
  245MPD1    H5 3724   1.379   1.766  13.392 -0.0917  0.3790 -0.6939
  245MPD1    N1 3725   1.356   1.372  13.138 -0.4226  0.0841  0.2558
  245MPD1    H6 3726   1.306   1.283  13.135  0.1199 -0.1991 -0.5155
  245MPD1    H7 3727   1.441   1.368  13.195 -0.5861  1.6481  0.6196
  246MPD1     C 3728   2.770   4.333   9.268 -0.0963 -0.2261  0.8337
  246MPD1    C1 3729   2.898   4.276   9.247 -0.2696  0.1575 -0.6783
  246MPD1    C2 3730   2.997   4.367   9.229  0.1314  0.0180  0.4804
  246MPD1    C3 3731   2.989   4.500   9.250 -0.0875  0.7471  0.0840
  246MPD1    C4 3732   2.863   4.550   9.283 -0.1591  0.4434 -0.0652
  246MPD1    C5 3733   2.758   4.467   9.278 -0.2680  0.0825 -0.1428
  246MPD1     H 3734   3.095   4.337   9.194 -0.2626 -0.9762  0.2112
  246MPD1    H1 3735   2.846   4.657   9.293  0.5674  0.4433  1.1360
  246MPD1    H2 3736   2.674   4.286   9.255  0.0122 -0.5120  1.0796
  246MPD1    H3 3737   2.658   4.510   9.284  0.4436  1.5823  0.9356
  246MPD1     N 3738   3.105   4.580   9.242  0.0225 -0.2148 -0.0621
  246MPD1    H5 3739   3.185   4.539   9.197 -1.8460 -2.2308 -1.5390
  246MPD1    N1 3740   2.914   4.142   9.215 -0.6819 -0.8084 -0.4398
  246MPD1    H6 3741   3.012   4.116   9.226 -0.6736 -0.6853 -0.2233
  246MPD1    H7 3742   2.857   4.090   9.281 -2.2499 -1.1878 -2.0852
  247MPD1     C 3743   4.635   1.313  16.223  0.2005  0.6798 -0.1368
  247MPD1    C1 3744   4.652   1.276  16.095 -0.4084 -0.3918 -0.3196
  247MPD1    C2 3745   0.047   1.215  16.059 -0.6008  0.1392 -0.5484
  247MPD1    C3 3746   0.156   1.224  16.141 -0.2552  0.1301  0.4189
  247MPD1    C4 3747   0.137   1.273  16.271 -0.5205 -0.7762  0.6699
  247MPD1    C5 3748   0.013   1.317  16.312  0.0834 -0.2469 -0.1624
  247MPD1     H 3749   0.056   1.172  15.960  0.3771 -1.6374  0.3177
  247MPD1    H1 3750   0.221   1.273  16.340  1.6276  1.2275 -1.9402
  247MPD1    H2 3751   4.537   1.348  16.252 -0.6982 -1.5664 -0.4577
  247MPD1    H3 3752   0.008   1.364  16.409 -2.4667  0.5470 -0.6854
  247MPD1     N 3753   0.288   1.191  16.104  0.1035 -0.0235 -0.4179
  247MPD1    H5 3754   0.360   1.222  16.168 -1.0933  0.1368  0.8560
  247MPD1    N1 3755   4.547   1.283  16.003  0.5672  0.1693  0.0194
  247MPD1    H6 3756   4.486   1.364  16.009 -0.4924 -0.5616 -0.7058
  247MPD1    H7 3757   4.590   1.279  15.910 -0.7498 -1.9835 -0.5027
  248MPD1     C 3758   2.042   1.315  17.032 -0.4904  0.3856  0.1750
  248MPD1    C1 3759   2.022   1.452  17.011  0.3052 -0.0915 -0.1203
  248MPD1    C2 3760   1.940   1.517  17.098  0.6161  0.4943  0.5685
  248MPD1    C3 3761   1.871   1.452  17.194  0.5511  0.6377 -0.4872
  248MPD1    C4 3762   1.893   1.320  17.217 -0.7264 -0.0760  0.1922
  248MPD1    C5 3763   1.979   1.248  17.138 -0.6611 -0.3904 -0.1475
  248MPD1     H 3764   1.932   1.623  17.078  2.2880  0.3045 -1.1593
  248MPD1    H1 3765   1.839   1.275  17.299 -1.9745 -1.9107 -1.6527
  248MPD1    H2 3766   2.111   1.260  16.969 -0.0503 -1.8385  2.6111
  248MPD1    H3 3767   1.997   1.143  17.158  1.1498 -0.2179 -0.9376
  248MPD1     N 3768   1.794   1.536  17.279  0.4920  0.0506 -0.5940
  248MPD1    H5 3769   1.796   1.632  17.249 -0.1872  0.2900  0.1258
  248MPD1    N1 3770   2.103   1.518  16.923  0.0452  0.9393  0.0321
  248MPD1    H6 3771   2.093   1.619  16.911 -2.1541  0.7117  0.0407
  248MPD1    H7 3772   2.094   1.468  16.835 -1.8624 -0.6186  1.1303
  249MPD1     C 3773   3.583   3.831  10.137  0.3974 -0.6660 -0.7037
  249MPD1    C1 3774   3.600   3.950  10.201 -0.3355  0.5604  0.0539
  249MPD1    C2 3775   3.647   4.052  10.129  0.0365 -0.2683 -0.7928
  249MPD1    C3 3776   3.670   4.042   9.994 -0.2187 -0.0642 -0.3057
  249MPD1    C4 3777   3.646   3.922   9.929  0.2550  0.7233  0.1042
  249MPD1    C5 3778   3.607   3.814  10.003 -0.2657  0.3511 -0.1899
  249MPD1     H 3779   3.673   4.143  10.182 -1.2250 -0.7403  0.6300
  249MPD1    H1 3780   3.672   3.901   9.826 -3.0128  1.9428 -0.9779
  249MPD1    H2 3781   3.569   3.734  10.184 -0.3535 -0.3209 -0.2137
  249MPD1    H3 3782   3.586   3.725   9.946  1.0606  0.4361 -0.8078
  249MPD1     N 3783   3.717   4.151   9.917 -0.5990  0.5389  0.6764
  249MPD1    H5 3784   3.727   4.238   9.969  0.0388  0.1103  1.2708
  249MPD1    N1 3785   3.612   3.957  10.342 -0.1310  0.6714  0.3165
  249MPD1    H6 3786   3.539   3.900  10.385  1.3736 -0.5013  1.3359
  249MPD1    H7 3787   3.593   4.050  10.378 -0.8326  2.1838 -3.9369
  250MPD2     C 3788   0.322   4.216  12.604  0.5743  0.4647 -0.6009
  250MPD2    C1 3789   0.201   4.259  12.548 -0.2851  0.1598  0.5068
  250MPD2    C2 3790   0.134   4.183  12.455 -0.7460  0.4073  0.1387
  250MPD2    C3 3791   0.185   4.062  12.417  0.1754  0.1136 -0.4143
  250MPD2    C4 3792   0.296   4.011  12.478 -0.3136 -0.4291 -0.0725
  250MPD2    C5 3793   0.367   4.089  12.570  0.5391 -0.1999 -0.1438
  250MPD2     H 3794   0.047   4.215  12.399 -1.2904 -1.1522  0.0849
  250MPD2    H1 3795   0.341   3.915  12.458  1.6154  0.7962 -1.7314
  250MPD2    H2 3796   0.376   4.266  12.684 -0.5781 -0.7253  0.9351
  250MPD2    H3 3797   0.462   4.052  12.607  0.4068  1.5006  1.9050
  250MPD2     N 3798   0.135   3.989  12.311 -0.9653 -0.2021  0.0464
  250MPD2    H5 3799   0.191   3.908  12.288  0.2682  0.6588  0.0137
  250MPD2    N1 3800   0.159   4.384  12.589 -0.0390  1.1940  0.3503
  250MPD2    H7 3801   0.220   4.426  12.658  0.9959  1.1275 -0.5098
  251TMC3    C1 3802   0.011   4.553  12.641  0.2508  0.3864  0.0873
  251TMC3    C2 3803   4.601   4.583  12.673 -0.4893  0.0898  0.5072
  251TMC3    C3 3804   4.567   4.704  12.729 -0.4677 -0.1269  0.7707
  251TMC3    C4 3805   0.112   4.648  12.641 -0.3678  0.0032  0.3444
  251TMC3    C5 3806   0.070   0.047  12.700  0.1016  0.1092  0.1042
  251TMC3    C6 3807   4.662   0.075  12.732 -0.3002 -0.2294  0.2780
  251TMC3     C 3808   0.033   4.431  12.565 -0.2783  0.4552 -0.3654
  251TMC3     O 3809   4.678   4.399  12.475  0.6119  0.4727  0.8635
  251TMC3     H 3810   4.528   4.512  12.636  1.5932 -1.1944 -1.1390
  251TMC3    H1 3811   0.210   4.643  12.594 -1.1776 -1.3641 -1.1949
  251TMC3    H2 3812   4.632   0.168  12.777 -1.5724 -1.0651  1.1678
  251TMC3    C7 3813   0.166   0.141  12.760  0.6013 -0.3199  0.7443
  251TMC3    C8 3814   4.429   0.022  12.752 -0.9643  0.3977 -0.0170
  251TMC3    O1 3815   0.132   0.258  12.777 -0.0770  0.7594  0.0730
  251TMC3    O2 3816   4.393   0.138  12.736 -0.1915 -0.0424 -0.4295
  252TMC3    C1 3817   0.027   0.739   9.126 -0.3572 -0.1836  0.4362
  252TMC3    C2 3818   0.144   0.787   9.088 -0.0063 -0.2983 -0.3245
  252TMC3    C3 3819   0.258   0.717   9.127 -0.9011  0.2271  0.0173
  252TMC3    C4 3820   0.028   0.639   9.218  0.7112 -0.0530 -0.1332
  252TMC3    C5 3821   0.140   0.579   9.265  0.2244 -0.7347  0.1036
  252TMC3    C6 3822   0.263   0.617   9.219  0.7022  0.4378  0.1469
  252TMC3     C 3823   4.637   0.829   9.121  0.0412 -0.2654 -0.2784
  252TMC3     O 3824   4.672   0.944   9.100  0.1011  0.5517  0.4255
  252TMC3     H 3825   0.146   0.871   9.019 -0.9059  0.8741  1.0940
  252TMC3    H1 3826   4.655   0.590   9.233 -0.0816  1.2472 -0.9223
  252TMC3    H2 3827   0.356   0.570   9.248 -1.9239 -4.7087  0.3180
  252TMC3    C7 3828   0.114   0.462   9.346 -0.2362 -0.5759  0.0211
  252TMC3    C8 3829   0.378   0.799   9.101 -0.1444  0.7381 -0.3714
  252TMC3    O1 3830   0.008   0.461   9.408  0.4917  0.4852 -0.1243
  252TMC3    O2 3831   0.375   0.877   9.010  0.1338  0.5355 -0.5918
  253MPD2     C 3832   1.282   0.667  15.671 -0.7362  0.5514  0.0266
  253MPD2    C1 3833   1.146   0.640  15.680 -0.0099  1.2442 -0.1676
  253MPD2    C2 3834   1.097   0.576  15.787  0.2958  0.6562 -0.1086
  253MPD2    C3 3835   1.186   0.533  15.888  0.3325  0.0112  0.6806
  253MPD2    C4 3836   1.322   0.550  15.883 -0.5184  0.2033 -0.9190
  253MPD2    C5 3837   1.367   0.630  15.776  0.4664  0.6326 -0.6526
  253MPD2     H 3838   0.991   0.555  15.786  0.2790  0.7634 -0.6919
  253MPD2    H1 3839   1.392   0.516  15.958  1.2943  3.1070 -1.2984
  253MPD2    H2 3840   1.331   0.732  15.599 -0.1649 -2.0431 -1.9234
  253MPD2    H3 3841   1.469   0.666  15.776  1.2241 -1.5421  0.8588
  253MPD2     N 3842   1.140   0.473  16.009 -0.2557  0.0380  0.2593
  253MPD2    H5 3843   1.202   0.440  16.083  1.9044 -0.8197 -1.9456
  253MPD2    N1 3844   1.056   0.668  15.576 -0.3995  0.0348 -0.0454
  253MPD2    H7 3845   0.958   0.644  15.585 -0.6366  1.3290  0.8290
  254TMC3    C1 3846   0.963   0.415  16.171  0.3727  0.3977 -0.6871
  254TMC3    C2 3847   0.827   0.413  16.184  0.0429  1.1782 -0.3660
  254TMC3    C3 3848   0.776   0.435  16.309  0.3457 -0.5768 -0.1080
  254TMC3    C4 3849   1.042   0.434  16.286 -0.5720 -0.3970 -0.3684
  254TMC3    C5 3850   0.985   0.460  16.412 -0.5780  0.2112  0.1278
  254TMC3    C6 3851   0.850   0.470  16.418  0.1333  0.9003 -0.0201
  254TMC3     C 3852   1.005   0.468  16.041  0.1810 -0.2114  0.0961
  254TMC3     O 3853   0.907   0.488  15.973 -0.2898  0.0127  0.3345
  254TMC3     H 3854   0.769   0.377  16.100 -0.6620  1.2489  0.0999
  254TMC3    H1 3855   1.151   0.430  16.284 -0.5589  0.1490 -0.6669
  254TMC3    H2 3856   0.791   0.498  16.504  0.1527  0.8757  0.0008
  254TMC3    C7 3857   1.054   0.399  16.530  0.1844 -0.3774 -0.3194
  254TMC3    C8 3858   0.633   0.456  16.323 -0.2009  0.2084 -0.2491
  254TMC3    O1 3859   0.973   0.377  16.620  0.3078  0.0231  0.1960
  254TMC3    O2 3860   0.592   0.479  16.437 -0.3407 -0.0002 -0.3561
  255MPD2     C 3861   0.490   2.208  10.472  0.6646  0.0292 -0.0470
  255MPD2    C1 3862   0.527   2.287  10.370  0.0416  0.5366  0.0434
  255MPD2    C2 3863   0.567   2.228  10.249  0.8482  0.3894  0.1772
  255MPD2    C3 3864   0.573   2.094  10.237  0.1212 -0.4243 -0.1013
  255MPD2    C4 3865   0.545   2.016  10.345 -0.2814  0.6251  0.8443
  255MPD2    C5 3866   0.501   2.069  10.460 -0.5522  0.2704  0.2783
  255MPD2     H 3867   0.610   2.282  10.165  0.1258 -0.6454 -0.8544
  255MPD2    H1 3868   0.568   1.910  10.349 -0.9862  0.5232  2.6497
  255MPD2    H2 3869   0.463   2.250  10.568 -3.6489 -2.0262 -0.3783
  255MPD2    H3 3870   0.481   2.007  10.547  0.7703  1.1726  1.2241
  255MPD2     N 3871   0.618   2.034  10.113 -0.1423 -0.1568  0.0516
  255MPD2    H5 3872   0.660   2.094  10.043 -1.3085  1.3705  0.6681
  255MPD2    N1 3873   0.523   2.428  10.399  0.3448 -0.1310  0.2317
  255MPD2    H7 3874   0.499   2.443  10.497  0.8441 -0.8418  0.4700
  256TMC3    C1 3875   0.478   2.648  10.351 -0.3960 -0.1779 -0.4649
  256TMC3    C2 3876   0.487   2.760  10.264  0.2802 -0.3022  0.9024
  256TMC3    C3 3877   0.379   2.849  10.282 -0.2501 -0.2013  0.3745
  256TMC3    C4 3878   0.381   2.640  10.454 -0.5023 -0.7091  0.4329
  256TMC3    C5 3879   0.279   2.730  10.460 -0.0172 -0.1100  0.1664
  256TMC3    C6 3880   0.275   2.838  10.371 -0.2589 -0.3585 -0.5009
  256TMC3     C 3881   0.536   2.527  10.307 -0.8548 -0.4238 -0.1801
  256TMC3     O 3882   0.570   2.512  10.188 -0.3718 -0.4359  0.0353
  256TMC3     H 3883   0.568   2.771  10.193 -0.7346  2.3080  0.1465
  256TMC3    H1 3884   0.360   2.549  10.509 -2.0509 -0.4160  0.3084
  256TMC3    H2 3885   0.195   2.911  10.368  0.0679 -0.0612 -1.8334
  256TMC3    C7 3886   0.155   2.664  10.488 -0.5550  0.7123 -0.1016
  256TMC3    C8 3887   0.367   2.966  10.193 -0.8115  0.2578  0.1192
  256TMC3    O1 3888   0.144   2.544  10.455 -0.4822  0.3758  0.2752
  256TMC3    O2 3889   0.267   3.037  10.210  0.0473 -0.3578  0.6745
  257MPD2     C 3890   3.561   3.502  12.807  0.9984  0.5129  0.6991
  257MPD2    C1 3891   3.649   3.607  12.777 -0.1258 -0.5838  0.1650
  257MPD2    C2 3892   3.752   3.629  12.869  0.5196  0.1185 -0.3307
  257MPD2    C3 3893   3.779   3.548  12.973  0.1498  0.0271 -0.5762
  257MPD2    C4 3894   3.699   3.443  12.997 -0.1669 -0.1853 -0.1923
  257MPD2    C5 3895   3.580   3.432  12.922  0.5802 -0.5235 -0.2781
  257MPD2     H 3896   3.826   3.706  12.853 -0.4847  0.7195 -2.0510
  257MPD2    H1 3897   3.721   3.360  13.062  1.7093  0.5209  0.0674
  257MPD2    H2 3898   3.473   3.478  12.748  2.3397 -1.3033 -0.5603
  257MPD2    H3 3899   3.523   3.342  12.945  0.1025 -0.1012  0.2089
  257MPD2     N 3900   3.900   3.577  13.049 -0.5870 -0.3212  0.3687
  257MPD2    H5 3901   3.944   3.668  13.050  0.1966 -0.6486 -1.8558
  257MPD2    N1 3902   3.616   3.697  12.671 -0.2514 -0.6007  0.4694
  257MPD2    H7 3903   3.528   3.672  12.629 -0.7437  0.2200  0.9989
  258TMC3    C1 3904   4.081   3.531  13.203 -0.5622  0.1332  0.1262
  258TMC3    C2 3905   4.121   3.660  13.190  0.2472 -0.1850 -0.0535
  258TMC3    C3 3906   4.232   3.701  13.267  0.3655  0.6022 -0.1562
  258TMC3    C4 3907   4.124   3.444  13.296 -0.2824  0.8712  0.5998
  258TMC3    C5 3908   4.222   3.499  13.382 -0.5878  0.1773 -0.3171
  258TMC3    C6 3909   4.276   3.623  13.368 -0.3951  0.4411 -0.4183
  258TMC3     C 3910   3.965   3.480  13.125  0.1042  0.0514 -0.0157
  258TMC3     O 3911   3.928   3.370  13.162  0.2148  0.0437  0.1712
  258TMC3     H 3912   4.087   3.727  13.112 -0.4114 -3.3377 -2.4405
  258TMC3    H1 3913   4.089   3.342  13.301  2.7789 -0.2271 -0.5547
  258TMC3    H2 3914   4.359   3.651  13.431 -0.5078  0.0450 -0.0930
  258TMC3    C7 3915   4.231   3.430  13.515 -0.1201 -0.5464  0.5930
  258TMC3    C8 3916   4.245   3.840  13.285 -0.5989  0.3872  0.2896
  258TMC3    O1 3917   4.241   3.308  13.506  0.0838 -0.3858  0.2643
  258TMC3    O2 3918   4.152   3.912  13.265 -0.4411 -0.0090 -0.3236
  259MPD2     C 3919   1.239   2.030   1.002 -0.6212 -0.6104 -0.0429
  259MPD2    C1 3920   1.285   1.924   1.074 -0.5687  0.0861  0.1950
  259MPD2    C2 3921   1.392   1.857   1.017 -0.7083  1.0830  0.3691
  259MPD2    C3 3922   1.446   1.889   0.896 -0.7417 -0.7212  0.4551
  259MPD2    C4 3923   1.388   1.986   0.820 -0.5697 -0.3605 -0.5501
  259MPD2    C5 3924   1.283   2.055   0.872  0.4052 -0.1065 -0.2698
  259MPD2     H 3925   1.444   1.780   1.072 -0.5821  0.7955 -0.1534
  259MPD2    H1 3926   1.428   2.023   0.727 -1.4825 -2.1166 -1.6257
  259MPD2    H2 3927   1.165   2.098   1.042 -0.4656 -0.8096  0.5740
  259MPD2    H3 3928   1.240   2.135   0.811  0.5937 -0.4645 -0.8734
  259MPD2     N 3929   1.561   1.813   0.857 -0.1379 -0.2831  0.1051
  259MPD2    H5 3930   1.593   1.735   0.914 -0.4627 -0.1210  0.5068
  259MPD2    N1 3931   1.254   1.910   1.210 -0.4137 -0.3380  0.4166
  259MPD2    H7 3932   1.299   1.847   1.276  0.8206 -0.0120 -0.1124
  260TMC3    C1 3933   1.744   1.743   0.732  0.6319 -0.3742  0.5324
  260TMC3    C2 3934   1.849   1.778   0.653  0.2169  0.4866  0.7985
  260TMC3    C3 3935   1.909   1.688   0.571 -0.0820 -0.9725 -0.2916
  260TMC3    C4 3936   1.712   1.607   0.745 -0.1441 -0.4806 -0.6920
  260TMC3    C5 3937   1.758   1.521   0.645 -0.6308 -0.5349  0.0219
  260TMC3    C6 3938   1.851   1.563   0.552 -0.0043  0.1043  0.0582
  260TMC3     C 3939   1.645   1.846   0.760 -0.0446  0.0866  0.2771
  260TMC3     O 3940   1.639   1.946   0.691 -0.2537  0.4422 -0.0897
  260TMC3     H 3941   1.877   1.883   0.649 -0.7945  0.8137  2.3066
  260TMC3    H1 3942   1.616   1.581   0.789 -0.7353  2.5531 -0.1411
  260TMC3    H2 3943   1.899   1.489   0.490  0.6320 -0.1365  0.8400
  260TMC3    C7 3944   1.718   1.382   0.638  0.1434 -0.3520  0.0288
  260TMC3    C8 3945   1.987   1.748   0.468 -0.6497 -0.2597 -0.9634
  260TMC3    O1 3946   1.737   1.321   0.534 -0.1682  0.1264  0.3239
  260TMC3    O2 3947   1.974   1.864   0.430  0.2838 -1.0037  0.2407
  261MPD2     C 3948   4.579   3.910  11.518  0.4191 -0.3941  0.1369
  261MPD2    C1 3949   4.590   4.008  11.617  1.1610  0.4881 -0.4713
  261MPD2    C2 3950   4.603   4.140  11.581  0.2418 -0.5204 -0.0434
  261MPD2    C3 3951   4.598   4.181  11.447  0.3594 -0.2382 -0.8234
  261MPD2    C4 3952   4.603   4.085  11.349 -0.4226  0.3063  0.0374
  261MPD2    C5 3953   4.599   3.950  11.383 -0.5121  1.0819 -1.4991
  261MPD2     H 3954   4.607   4.216  11.658  0.8561  1.1631 -1.7384
  261MPD2    H1 3955   4.596   4.111  11.243  1.3711 -1.6759 -0.5654
  261MPD2    H2 3956   4.587   3.805  11.543 -0.6606 -0.3128  0.8355
  261MPD2    H3 3957   4.609   3.874  11.306  0.2665  1.1057 -1.4250
  261MPD2     N 3958   4.602   4.318  11.409 -0.5440  0.7345  0.1546
  261MPD2    H5 3959   4.604   4.334  11.309 -0.7122 -0.8796 -0.1064
  261MPD2    N1 3960   4.603   3.975  11.752  0.2862  0.0613  0.0512
  261MPD2    H7 3961   4.612   4.048  11.823  0.7161 -0.8603  0.9375
  262TMC3    C1 3962   4.634   4.547  11.419  0.1336 -0.3612 -0.1911
  262TMC3    C2 3963   4.568   4.659  11.440 -0.0230  0.2350  0.0573
  262TMC3    C3 3964   4.606   0.044  11.358  0.7658 -0.1194 -0.7817
  262TMC3    C4 3965   0.027   4.539  11.349  0.0566 -0.6584 -0.1349
  262TMC3    C5 3966   0.065   4.647  11.271 -0.0581 -0.4209 -0.1744
  262TMC3    C6 3967   4.718   0.044  11.273 -0.7360  0.1702  1.3432
  262TMC3     C 3968   4.589   4.426  11.490  0.2142  0.1106  0.5729
  262TMC3     O 3969   4.550   4.440  11.606 -0.0281  0.3299  0.8223
  262TMC3     H 3970   4.488   4.669  11.511  1.4470  1.4890  1.5441
  262TMC3    H1 3971   0.083   4.447  11.350 -0.1287 -0.7786 -1.7892
  262TMC3    H2 3972   0.012   0.130  11.208 -1.6136 -0.1960  0.6470
  262TMC3    C7 3973   0.203   4.645  11.219 -0.3353 -0.3678 -0.9105
  262TMC3    C8 3974   4.540   0.170  11.372 -0.6779 -0.6112 -0.1505
  262TMC3    O1 3975   0.242   4.530  11.205  0.0711  0.6720  0.3990
  262TMC3    O2 3976   4.604   0.265  11.316  0.6817  0.4742  0.4622
  263MPD2     C 3977   0.547   3.373  11.567 -0.2540  0.2796  0.0556
  263MPD2    C1 3978   0.682   3.367  11.532 -0.0734 -0.0115  0.2413
  263MPD2    C2 3979   0.717   3.423  11.407  0.3756  0.6354 -0.0203
  263MPD2    C3 3980   0.628   3.478  11.321 -0.3426 -0.3828  0.1906
  263MPD2    C4 3981   0.500   3.479  11.362 -0.4448  0.8135  0.3410
  263MPD2    C5 3982   0.461   3.432  11.483  0.3941  0.1065 -0.4806
  263MPD2     H 3983   0.820   3.417  11.374  0.8179 -4.7201  2.2941
  263MPD2    H1 3984   0.425   3.532  11.305 -0.2807  0.0097 -0.6186
  263MPD2    H2 3985   0.516   3.334  11.664  1.0399 -1.7236 -0.3335
  263MPD2    H3 3986   0.361   3.461  11.513  0.7491 -1.8988  2.6301
  263MPD2     N 3987   0.668   3.549  11.201 -0.1205  0.0499 -0.2528
  263MPD2    H5 3988   0.763   3.529  11.169 -0.4804  0.9895 -1.9064
  263MPD2    N1 3989   0.781   3.313  11.623 -0.0061 -0.0516 -0.0141
  263MPD2    H7 3990   0.754   3.290  11.718 -0.0370  1.0511  0.2405
  264TMC3    C1 3991   0.644   3.712  11.026 -0.1755 -0.4426 -0.3079
  264TMC3    C2 3992   0.610   3.847  11.014  0.0082 -0.3824 -0.5273
  264TMC3    C3 3993   0.661   3.921  10.910  0.4626 -0.0544  1.0426
  264TMC3    C4 3994   0.714   3.641  10.933 -0.2279  0.4918  0.4606
  264TMC3    C5 3995   0.763   3.713  10.826 -0.1455  0.1642  0.0581
  264TMC3    C6 3996   0.724   3.848  10.806  0.0653 -0.5933 -0.2304
  264TMC3     C 3997   0.593   3.649  11.146 -0.1804  0.1620  0.1398
  264TMC3     O 3998   0.511   3.721  11.204 -0.3728  0.2728 -0.5157
  264TMC3     H 3999   0.559   3.890  11.099  1.4464 -1.6499  0.9624
  264TMC3    H1 4000   0.745   3.541  10.961  0.1897  1.1116  2.1875
  264TMC3    H2 4001   0.768   3.896  10.719 -2.9219  0.1637 -1.3095
  264TMC3    C7 4002   0.902   3.693  10.801 -0.0256 -0.5983  0.5103
  264TMC3    C8 4003   0.734   4.038  10.937  0.2661 -0.1931 -0.1365
  264TMC3    O1 4004   0.943   3.575  10.793  0.2893 -0.4366  0.3587
  264TMC3    O2 4005   0.838   4.048  10.872 -0.3222 -0.3697  0.3119
  265MPD2     C 4006   2.833   0.253  15.416  0.0913  0.7845 -0.3019
  265MPD2    C1 4007   2.702   0.232  15.372  0.3743  0.1582  0.2657
  265MPD2    C2 4008   2.677   0.150  15.265 -0.0697  0.2647 -0.3032
  265MPD2    C3 4009   2.779   0.099  15.197  0.2163  0.6519 -0.2866
  265MPD2    C4 4010   2.910   0.126  15.229  0.4909 -0.0024  0.6950
  265MPD2    C5 4011   2.936   0.206  15.334 -0.5655  0.1487  0.1267
  265MPD2     H 4012   2.575   0.125  15.239 -0.2568  0.5740  0.1406
  265MPD2    H1 4013   2.998   0.093  15.175 -1.6425 -2.6088 -1.2308
  265MPD2    H2 4014   2.863   0.313  15.501  2.1075  1.1545 -1.2708
  265MPD2    H3 4015   3.038   0.216  15.371  0.3814  0.1193 -2.4228
  265MPD2     N 4016   2.770   0.008  15.092 -0.2126  0.3537  0.0777
  265MPD2    H5 4017   2.860   4.695  15.062 -0.1684 -0.1958  0.8664
  265MPD2    N1 4018   2.594   0.284  15.445 -0.0785 -0.7531 -0.0117
  265MPD2    H7 4019   2.502   0.259  15.412  0.1598  0.1181 -1.3123
  266TMC3    C1 4020   2.478   0.388  15.631 -0.3787 -0.2899  0.0899
  266TMC3    C2 4021   2.471   0.356  15.767  0.5652 -0.1718 -0.2880
  266TMC3    C3 4022   2.353   0.390  15.831  0.6601 -0.2635  0.0379
  266TMC3    C4 4023   2.378   0.454  15.564  0.0438  0.2218  0.0123
  266TMC3    C5 4024   2.268   0.477  15.631  0.0539 -0.6509  0.3484
  266TMC3    C6 4025   2.253   0.455  15.766 -0.1498 -0.1934  0.1649
  266TMC3     C 4026   2.606   0.362  15.562  0.6908 -0.1652  0.0214
  266TMC3     O 4027   2.701   0.424  15.613  0.5727  0.1256 -0.2154
  266TMC3     H 4028   2.554   0.309  15.819  0.8433  1.9167  1.1236
  266TMC3    H1 4029   2.389   0.490  15.462 -0.6907 -1.1800 -0.5680
  266TMC3    H2 4030   2.166   0.498  15.814  1.2823  1.0134  1.7127
  266TMC3    C7 4031   2.186   0.578  15.573  0.4153 -0.2006  0.3196
  266TMC3    C8 4032   2.344   0.371  15.968  0.0295 -0.9540  0.3338
  266TMC3    O1 4033   2.133   0.565  15.465  0.5940  0.1995 -0.5964
  266TMC3    O2 4034   2.443   0.353  16.035 -0.1983  0.3072  0.5223
  267MPD2     C 4035   4.161   1.506  17.535 -0.3911  0.0897  0.3960
  267MPD2    C1 4036   4.278   1.507  17.466 -0.3763  0.2608 -0.4380
  267MPD2    C2 4037   4.269   1.501  17.328 -0.2786  0.3439 -0.6220
  267MPD2    C3 4038   4.147   1.488  17.265  0.8589 -0.1357 -0.0708
  267MPD2    C4 4039   4.032   1.482  17.341  0.0769  0.2339  0.0912
  267MPD2    C5 4040   4.041   1.491  17.479 -0.3678  0.8049  0.2241
  267MPD2     H 4041   4.355   1.508  17.262 -0.7517  0.8467 -1.1862
  267MPD2    H1 4042   3.938   1.467  17.289 -1.0362 -0.5012  2.3132
  267MPD2    H2 4043   4.160   1.522  17.643  0.4033 -1.6891  0.6687
  267MPD2    H3 4044   3.953   1.471  17.540  0.9104 -1.4535  1.3267
  267MPD2     N 4045   4.137   1.479  17.127  0.1230 -0.6026 -0.0814
  267MPD2    H5 4046   4.043   1.461  17.094  0.9417 -0.9868 -2.2078
  267MPD2    N1 4047   4.409   1.516  17.525  0.4342  0.4620 -0.0881
  267MPD2    H7 4048   4.485   1.498  17.460 -0.1291  1.8044 -1.1084
  268TMC3    C1 4049   4.583   1.519   0.011  0.6473 -0.3507  0.5795
  268TMC3    C2 4050   4.676   1.569  17.616  0.6312 -0.5876 -0.2157
  268TMC3    C3 4051   0.080   1.593  17.671  0.7096 -0.4147 -0.2485
  268TMC3    C4 4052   4.613   1.491   0.136  0.1803 -0.8526 -0.1682
  268TMC3    C5 4053   0.015   1.519   0.188  0.8029  0.2128 -0.0984
  268TMC3    C6 4054   0.113   1.573   0.111 -0.3643  0.3624  0.4445
  268TMC3     C 4055   4.437   1.519  17.664  0.0098  0.2704  0.5837
  268TMC3     O 4056   4.359   1.525   0.066  0.3877 -0.1033 -0.2851
  268TMC3     H 4057   4.666   1.583  17.509  2.4317  0.2287 -0.2653
  268TMC3    H1 4058   4.542   1.448   0.206  0.9144 -1.6382  0.1037
  268TMC3    H2 4059   0.204   1.610   0.157 -0.3476 -0.2213  0.8813
  268TMC3    C7 4060   0.050   1.484   0.323 -0.0392 -0.6008 -0.1885
  268TMC3    C8 4061   0.165   1.678  17.591 -0.7159  0.3319 -0.2905
  268TMC3    O1 4062   4.679   1.443   0.387  0.2270 -0.2952 -0.6444
  268TMC3    O2 4063   0.110   1.745  17.506 -0.2121  0.6568  0.0399
  269MPD2     C 4064   0.159   0.574  15.511  0.3264 -0.0179  0.3807
  269MPD2    C1 4065   0.019   0.566  15.483 -0.1039 -0.7811  0.5101
  269MPD2    C2 4066   4.682   0.665  15.410 -0.6432 -0.8135  0.6889
  269MPD2    C3 4067   0.030   0.781  15.390  0.5472  0.7311 -0.3582
  269MPD2    C4 4068   0.158   0.800  15.430  0.8756  0.0589 -0.0159
  269MPD2    C5 4069   0.219   0.694  15.491 -0.7148 -0.1064 -0.6632
  269MPD2     H 4070   4.584   0.660  15.364  0.4409 -1.1827 -1.5736
  269MPD2    H1 4071   0.209   0.888  15.392  1.4073  0.5642  1.8497
  269MPD2    H2 4072   0.218   0.492  15.552 -0.9909 -0.3787  1.5513
  269MPD2    H3 4073   0.327   0.691  15.498 -0.5392  1.8171 -2.4748
  269MPD2     N 4074   4.680   0.887  15.329  0.1226  0.6553 -0.3715
  269MPD2    H5 4075   4.583   0.874  15.303 -0.0203  0.2625  0.3607
  269MPD2    N1 4076   4.673   0.455  15.519  0.6162 -0.0524 -0.3027
  269MPD2    H7 4077   4.720   0.388  15.580 -0.5646 -0.7849 -0.2021
  270TMC3    C1 4078   4.498   0.296  15.520 -0.3711  0.0943  0.2999
  270TMC3    C2 4079   4.477   0.195  15.430 -1.4014  0.3004 -0.3828
  270TMC3    C3 4080   4.445   0.076  15.489 -0.6243  0.2996  0.3658
  270TMC3    C4 4081   4.512   0.281  15.655 -0.1050  0.0196 -0.0054
  270TMC3    C5 4082   4.463   0.165  15.704 -0.0153 -0.0219 -0.3129
  270TMC3    C6 4083   4.423   0.061  15.625 -0.1414  0.0166 -0.3533
  270TMC3     C 4084   4.556   0.410  15.456  0.2597  0.4898 -0.4473
  270TMC3     O 4085   4.502   0.443  15.352  0.9539 -0.1202 -0.4527
  270TMC3     H 4086   4.467   0.219  15.324 -2.0581  0.5522 -0.2658
  270TMC3    H1 4087   4.532   0.371  15.713 -1.2424 -0.3850  1.0170
  270TMC3    H2 4088   4.402   4.689  15.673 -1.6506 -0.1949 -1.4212
  270TMC3    C7 4089   4.503   0.126  15.838 -0.2468  1.0691 -0.7766
  270TMC3    C8 4090   4.404   4.688  15.409  0.4119  1.0175  0.3855
  270TMC3    O1 4091   4.618   0.159  15.866 -0.3794 -0.5170  0.0878
  270TMC3    O2 4092   4.339   4.596  15.455 -0.0005 -0.0738 -0.0379
  271MPD2     C 4093   4.048   0.298  13.942 -0.6069  0.1940 -0.4125
  271MPD2    C1 4094   3.962   0.187  13.952 -0.3995  0.2283 -0.2395
  271MPD2    C2 4095   3.828   0.211  13.939  0.2155 -0.4706  0.3714
  271MPD2    C3 4096   3.777   0.339  13.893 -0.7672 -0.5660 -0.4175
  271MPD2    C4 4097   3.865   0.443  13.896 -0.6892  0.1371  0.0495
  271MPD2    C5 4098   4.003   0.430  13.923 -0.0300 -0.0036  0.7503
  271MPD2     H 4099   3.756   0.130  13.948 -0.1085 -0.4783 -2.4711
  271MPD2    H1 4100   3.830   0.538  13.857 -1.9948  0.4602  2.0452
  271MPD2    H2 4101   4.155   0.283  13.945 -0.5622  0.0962 -2.3045
  271MPD2    H3 4102   4.071   0.514  13.917  0.1117 -0.1683  0.0335
  271MPD2     N 4103   3.643   0.363  13.850 -0.4653  0.1955  0.6652
  271MPD2    H5 4104   3.630   0.458  13.816  0.5650 -0.1914 -0.8498
  271MPD2    N1 4105   4.007   0.057  13.992 -0.2404  0.1091 -1.2873
  271MPD2    H7 4106   3.943   4.704  14.018  1.0368 -0.8577 -0.9114
  272TMC3    C1 4107   4.174   4.631  14.079 -0.2137  0.0530 -0.3637
  272TMC3    C2 4108   4.300   4.583  14.071 -0.3569  0.3469 -0.0065
  272TMC3    C3 4109   4.359   4.533  14.180 -0.8542 -0.4072 -0.0124
  272TMC3    C4 4110   4.105   4.611  14.194  0.1731 -0.0643  0.5264
  272TMC3    C5 4111   4.172   4.567  14.306  0.3855  1.1883  0.4578
  272TMC3    C6 4112   4.301   4.524  14.303  0.6752 -0.6611 -0.3837
  272TMC3     C 4113   4.138   0.017  13.992  0.4096 -0.4429  0.7379
  272TMC3     O 4114   4.223   0.068  13.923  0.1536  0.1952 -0.3263
  272TMC3     H 4115   4.364   4.615  13.990 -1.5434  0.1544 -1.0129
  272TMC3    H1 4116   4.007   4.652  14.214 -0.9580 -2.2274 -0.5821
  272TMC3    H2 4117   4.358   4.518  14.395  4.0066  0.3639 -2.3915
  272TMC3    C7 4118   4.108   4.599  14.431 -1.6943  0.3519  0.3180
  272TMC3    C8 4119   4.512   4.542  14.185  0.0611 -0.1435 -0.0898
  272TMC3    O1 4120   3.993   4.575  14.458 -0.3699 -0.6354 -0.2959
  272TMC3    O2 4121   4.567   4.599  14.091  0.3786  0.3685  0.5520
  273MPD2     C 4122   1.270   2.370  12.147 -0.1687 -0.2917 -0.1726
  273MPD2    C1 4123   1.397   2.352  12.086 -0.1907 -0.1295  0.0236
  273MPD2    C2 4124   1.405   2.332  11.950 -0.1686  0.3984  0.1638
  273MPD2    C3 4125   1.293   2.333  11.869  0.0607  0.1524  0.3735
  273MPD2    C4 4126   1.174   2.365  11.931  0.5323  0.3250 -0.4659
  273MPD2    C5 4127   1.162   2.376  12.066  0.0120  0.6321  0.8715
  273MPD2     H 4128   1.502   2.301  11.913 -0.3231 -2.0698  1.8350
  273MPD2    H1 4129   1.085   2.370  11.869  0.0408 -1.8062  0.0639
  273MPD2    H2 4130   1.253   2.368  12.254  1.9148 -1.1851  0.1395
  273MPD2    H3 4131   1.065   2.394  12.111 -0.5624 -3.0645  1.1381
  273MPD2     N 4132   1.302   2.330  11.730  0.3347  0.0451 -0.1859
  273MPD2    H5 4133   1.228   2.375  11.677  1.7821  2.7029  0.0197
  273MPD2    N1 4134   1.517   2.357  12.165  0.0714 -0.1747 -0.6377
  273MPD2    H7 4135   1.498   2.373  12.264 -0.0097  2.3901 -1.0723
  274TMC3    C1 4136   1.419   2.379  11.540  0.5631 -0.2649 -0.2478
  274TMC3    C2 4137   1.331   2.380  11.434  0.0073  0.5595 -0.3343
  274TMC3    C3 4138   1.374   2.429  11.314  0.5495  0.6394 -0.1108
  274TMC3    C4 4139   1.534   2.459  11.539  0.5371 -0.2755  0.1404
  274TMC3    C5 4140   1.566   2.507  11.420 -0.7859 -0.5325  0.2186
  274TMC3    C6 4141   1.500   2.489  11.304 -0.6970  0.4394  0.4389
  274TMC3     C 4142   1.412   2.297  11.660 -0.2082  1.2690 -0.3996
  274TMC3     O 4143   1.523   2.255  11.685 -0.0415  0.4264  0.8343
  274TMC3     H 4144   1.253   2.305  11.428  0.2644 -0.0831  3.7506
  274TMC3    H1 4145   1.594   2.461  11.630  1.2716 -0.4575 -0.3408
  274TMC3    H2 4146   1.524   2.558  11.224 -3.8488  0.3903 -0.5526
  274TMC3    C7 4147   1.617   2.639  11.433 -0.3617 -0.3688 -0.6338
  274TMC3    C8 4148   1.279   2.446  11.213 -0.1010 -0.0852 -0.4901
  274TMC3    O1 4149   1.718   2.683  11.369 -0.8013 -0.1065 -0.2072
  274TMC3    O2 4150   1.164   2.452  11.248  0.5269 -0.2590 -0.1892
  275MPD2     C 4151   0.667   1.078  13.798 -0.3617 -0.4912  0.4030
  275MPD2    C1 4152   0.653   1.041  13.931 -0.4480 -0.7236  0.2761
  275MPD2    C2 4153   0.527   1.019  13.981 -0.6967  0.8237  0.1226
  275MPD2    C3 4154   0.414   1.009  13.897 -0.2786  0.1277 -0.7389
  275MPD2    C4 4155   0.432   1.041  13.763 -0.0040  0.0789  0.2483
  275MPD2    C5 4156   0.558   1.071  13.716 -0.2236  0.2986 -0.5243
  275MPD2     H 4157   0.517   1.019  14.089 -1.1598  0.5527  0.0785
  275MPD2    H1 4158   0.348   1.029  13.696  0.1699 -1.7803  0.3683
  275MPD2    H2 4159   0.766   1.104  13.764 -0.6391  1.4246  1.0377
  275MPD2    H3 4160   0.567   1.086  13.609  0.2374  1.7606 -0.2772
  275MPD2     N 4161   0.285   0.979  13.941  0.5694 -0.6022 -0.6601
  275MPD2    H5 4162   0.213   0.967  13.871 -0.5091 -1.0637  0.5335
  275MPD2    N1 4163   0.761   1.038  14.024 -0.3579  0.6799 -0.3500
  275MPD2    H7 4164   0.746   0.997  14.116 -0.8459  1.3080 -0.1470
  276TMC3    C1 4165   0.970   1.037  14.122  0.1080  0.1672  0.2895
  276TMC3    C2 4166   0.951   0.912  14.168  0.0612  0.0649 -0.6502
  276TMC3    C3 4167   1.017   0.879  14.281 -0.0978  0.0029  0.1591
  276TMC3    C4 4168   1.039   1.140  14.185  0.6021  0.2597 -0.2046
  276TMC3    C5 4169   1.111   1.098  14.297  0.4483  0.1485  0.0693
  276TMC3    C6 4170   1.111   0.965  14.341 -0.4199  0.4798 -0.6653
  276TMC3     C 4171   0.894   1.064  14.001 -0.0990  0.8252 -0.5921
  276TMC3     O 4172   0.948   1.128  13.912 -0.5725  0.4266  0.6173
  276TMC3     H 4173   0.882   0.843  14.122  0.3742 -0.6327 -0.0755
  276TMC3    H1 4174   1.048   1.240  14.145 -0.1568  0.2281 -0.4668
  276TMC3    H2 4175   1.183   0.940  14.418  1.6006  0.4033 -2.5864
  276TMC3    C7 4176   1.162   1.208  14.382  0.1138 -0.7127 -0.6891
  276TMC3    C8 4177   0.992   0.759  14.347 -0.7481  0.2462  0.6982
  276TMC3    O1 4178   1.211   1.178  14.488  0.5088 -0.4029 -0.3767
  276TMC3    O2 4179   0.962   0.661  14.283 -0.0641  0.1162  0.2202
  277MPD2     C 4180   2.666   4.608  13.088  0.6695  0.2207 -0.6817
  277MPD2    C1 4181   2.571   4.700  13.118 -0.0769  0.0704  0.2672
  277MPD2    C2 4182   2.470   4.670  13.206  0.0610  0.1150  0.0491
  277MPD2    C3 4183   2.467   4.564  13.286 -0.0163  0.1947 -0.3248
  277MPD2    C4 4184   2.571   4.476  13.268 -0.0178 -0.4324  0.2174
  277MPD2    C5 4185   2.663   4.492  13.160  0.3334 -0.6097 -0.1335
  277MPD2     H 4186   2.394   0.022  13.231  1.2097  1.4357 -0.4305
  277MPD2    H1 4187   2.577   4.383  13.323 -1.6608 -1.4945 -1.3819
  277MPD2    H2 4188   2.738   4.634  13.011 -0.4630 -3.2518 -2.9327
  277MPD2    H3 4189   2.741   4.422  13.133  2.5105  0.9919  2.0001
  277MPD2     N 4190   2.357   4.549  13.377  0.0536  0.3683  0.2199
  277MPD2    H5 4191   2.289   4.623  13.384  1.3517  1.4771  1.0114
  277MPD2    N1 4192   2.591   0.108  13.070 -0.4471  0.3433  0.6447
  277MPD2    H7 4193   2.672   0.136  13.015 -1.2033  1.2448 -0.0131
  278TMC3    C1 4194   2.241   4.455  13.553  0.4288 -0.1978 -0.2111
  278TMC3    C2 4195   2.265   4.385  13.670  0.3071 -0.6350 -0.2437
  278TMC3    C3 4196   2.174   4.405  13.768  0.9637  0.0549  0.0177
  278TMC3    C4 4197   2.136   4.539  13.528 -0.3036  0.8583  1.4734
  278TMC3    C5 4198   2.049   4.554  13.634  0.6681 -0.0151  0.0829
  278TMC3    C6 4199   2.070   4.495  13.755 -0.0913 -0.4030  0.2959
  278TMC3     C 4200   2.347   4.444  13.459 -1.1395 -0.4274  0.1072
  278TMC3     O 4201   2.414   4.342  13.463 -0.8923 -0.6334  0.0560
  278TMC3     H 4202   2.350   4.320  13.685  0.5014 -0.3999 -0.3227
  278TMC3    H1 4203   2.115   4.582  13.431  1.7907 -0.0074  0.6345
  278TMC3    H2 4204   2.006   4.525  13.837 -1.3805 -0.2395 -0.7713
  278TMC3    C7 4205   1.925   4.627  13.606 -0.4782  0.5621 -0.0725
  278TMC3    C8 4206   2.194   4.328  13.892  0.1152  0.1904  0.2699
  278TMC3    O1 4207   1.927   0.008  13.539 -0.5487 -0.3239  0.5096
  278TMC3    O2 4208   2.168   4.370  14.002 -0.2591  0.1359 -0.0275
  279MPD2     C 4209   1.176   3.958   0.268 -0.0639  0.0025  0.0072
  279MPD2    C1 4210   1.181   4.076   0.338 -0.2571  0.5608 -0.1752
  279MPD2    C2 4211   1.302   4.143   0.357 -0.1197  1.0364  0.0483
  279MPD2    C3 4212   1.416   4.101   0.290  0.0420  0.9522  0.4543
  279MPD2    C4 4213   1.410   3.980   0.226 -0.2567 -0.1254 -0.1110
  279MPD2    C5 4214   1.298   3.909   0.223  0.5604 -0.5634  0.0220
  279MPD2     H 4215   1.303   4.234   0.415 -0.8545 -0.6109  2.6755
  279MPD2    H1 4216   1.492   3.933   0.173 -0.2276  1.6000 -1.6130
  279MPD2    H2 4217   1.084   3.905   0.246 -0.4621  0.4129  0.6919
  279MPD2    H3 4218   1.301   3.814   0.171 -0.8280 -0.3434 -0.4812
  279MPD2     N 4219   1.529   4.183   0.291  1.0838 -0.2132  0.5380
  279MPD2    H5 4220   1.516   4.277   0.329 -0.6993  0.3776 -1.5305
  279MPD2    N1 4221   1.068   4.146   0.390 -0.8667  0.6920  0.0844
  279MPD2    H7 4222   1.085   4.234   0.438  0.1422  0.9730 -0.7722
  280TMC3    C1 4223   0.851   4.236   0.381 -1.0645 -0.0498  0.3484
  280TMC3    C2 4224   0.729   4.234   0.325  0.3043 -0.4392  0.3530
  280TMC3    C3 4225   0.671   4.353   0.331 -0.3772  0.3424  0.3887
  280TMC3    C4 4226   0.912   4.349   0.435 -0.4707  0.2735 -0.2201
  280TMC3    C5 4227   0.852   4.469   0.417  0.4900  0.5184 -0.1176
  280TMC3    C6 4228   0.729   4.471   0.363 -1.1540 -0.7207  0.2200
  280TMC3     C 4229   0.932   4.117   0.374 -0.3620 -0.2530  0.6255
  280TMC3     O 4230   0.870   4.015   0.340  0.4126  0.3258  0.3636
  280TMC3     H 4231   0.699   4.148   0.267 -0.6021  0.4015 -0.4132
  280TMC3    H1 4232   1.001   4.348   0.496  0.3679  1.1862 -1.4357
  280TMC3    H2 4233   0.668   4.557   0.336 -2.6658 -1.7332  0.3777
  280TMC3    C7 4234   0.935   4.587   0.434  0.8490  0.3845  0.2305
  280TMC3    C8 4235   0.538   4.355   0.276  0.2974 -0.9427 -0.1218
  280TMC3    O1 4236   1.047   4.572   0.479 -0.1809 -0.6462 -0.7050
  280TMC3    O2 4237   0.516   4.446   0.192  0.4900  0.1710  0.5133
  281TMC3    C1 4238   0.472   0.846  12.939 -0.8556  0.4863  0.2116
  281TMC3    C2 4239   0.535   0.724  12.945 -0.5851 -0.5846  0.2611
  281TMC3    C3 4240   0.556   0.679  13.070 -1.3536  0.2914 -0.4180
  281TMC3    C4 4241   0.419   0.904  13.051  0.3588  0.5007  0.2943
  281TMC3    C5 4242   0.441   0.852  13.172  0.4497 -0.0218 -0.3057
  281TMC3    C6 4243   0.515   0.732  13.187  0.3491 -0.1493 -0.0027
  281TMC3     C 4244   0.432   0.886  12.804 -0.3470 -0.8852 -0.4026
  281TMC3     O 4245   0.519   0.859  12.720 -0.2573  0.3440 -0.8006
  281TMC3     H 4246   0.567   0.674  12.854 -1.4157 -0.0030 -0.3482
  281TMC3    H1 4247   0.373   1.000  13.031 -0.8167 -0.1543 -0.1854
  281TMC3    H2 4248   0.538   0.698  13.287 -1.4297  1.3086  0.8993
  281TMC3    C7 4249   0.304   0.838  13.229  0.2243 -0.1241  0.4589
  281TMC3    C8 4250   0.590   0.535  13.074 -0.6280  0.0243 -0.0015
  281TMC3    O1 4251   0.220   0.920  13.192  0.5896  0.1605 -0.5894
  281TMC3    O2 4252   0.640   0.503  13.179  0.3190  0.3533 -0.0745
  282MPD2     C 4253   1.902   1.820  14.853  0.3466 -0.1705  0.3198
  282MPD2    C1 4254   1.836   1.936  14.826  0.6714 -0.4073 -0.6643
  282MPD2    C2 4255   1.840   1.995  14.705 -0.5090 -1.0441  0.4052
  282MPD2    C3 4256   1.918   1.935  14.605 -0.0909 -1.0284 -0.7625
  282MPD2    C4 4257   1.985   1.814  14.629  0.4113  0.1995 -0.2618
  282MPD2    C5 4258   1.979   1.756  14.758  0.5334 -0.1883 -0.5667
  282MPD2     H 4259   1.783   2.081  14.673  1.1062  0.3350  1.2737
  282MPD2    H1 4260   2.046   1.767  14.553  0.3130 -0.2167 -0.0790
  282MPD2    H2 4261   1.888   1.783  14.953  0.5345  1.2155  0.8559
  282MPD2    H3 4262   2.029   1.662  14.783  3.9553  1.5054 -0.9956
  282MPD2     N 4263   1.894   1.986  14.481  0.2154  0.0287 -0.2499
  282MPD2    H5 4264   1.856   2.080  14.473 -0.9145 -0.5380 -1.6106
  282MPD2    N1 4265   1.749   1.985  14.929  0.7188 -0.1748 -0.1588
  282MPD2    H7 4266   1.725   1.927  15.008  2.0656 -0.9265 -0.3052
  283TMC3    C1 4267   1.650   2.135  15.076 -0.4732  0.0428  0.1197
  283TMC3    C2 4268   1.658   2.261  15.131 -0.0117 -0.1743 -0.2764
  283TMC3    C3 4269   1.598   2.285  15.258  0.6035  0.2096 -1.4321
  283TMC3    C4 4270   1.579   2.033  15.138 -0.2986 -0.6592  0.3220
  283TMC3    C5 4271   1.508   2.059  15.253 -0.7208  0.0644 -0.1675
  283TMC3    C6 4272   1.521   2.183  15.317 -0.1833  0.0937  0.0013
  283TMC3     C 4273   1.715   2.115  14.947  0.5989  0.1744  0.3837
  283TMC3     O 4274   1.743   2.213  14.879 -0.1948  0.4505 -0.4249
  283TMC3     H 4275   1.712   2.333  15.071 -0.0300  0.1419  0.0818
  283TMC3    H1 4276   1.559   1.938  15.089  1.3270 -1.2093  0.7150
  283TMC3    H2 4277   1.469   2.212  15.408  1.6005  1.3987  0.6151
  283TMC3    C7 4278   1.452   1.950  15.335 -0.0690 -0.0377 -0.5667
  283TMC3    C8 4279   1.583   2.426  15.313  0.4659  0.4392 -0.1378
  283TMC3    O1 4280   1.465   1.967  15.458 -0.3881  0.0587 -0.7318
  283TMC3    O2 4281   1.519   2.430  15.419  0.8288  0.3703 -1.0103
  284MPD2     C 4282   0.732   0.593  11.690  0.1966  0.2432  0.3682
  284MPD2    C1 4283   0.840   0.542  11.626  1.0398 -0.6617  0.4150
  284MPD2    C2 4284   0.813   0.431  11.553  0.4370 -0.0543  0.0861
  284MPD2    C3 4285   0.686   0.380  11.535 -0.3302 -0.3747 -0.2167
  284MPD2    C4 4286   0.577   0.439  11.605  0.1586  0.2508 -0.5003
  284MPD2    C5 4287   0.605   0.547  11.680  0.0309  0.2123 -0.2236
  284MPD2     H 4288   0.893   0.360  11.536  0.3439 -0.3279  0.7849
  284MPD2    H1 4289   0.473   0.409  11.610  0.0250  0.8073  0.2056
  284MPD2    H2 4290   0.746   0.683  11.750 -1.0272  1.7119 -1.5347
  284MPD2    H3 4291   0.524   0.591  11.736  0.0676  0.4198 -0.3325
  284MPD2     N 4292   0.687   0.246  11.480 -0.3528  0.2550  0.5926
  284MPD2    H5 4293   0.774   0.208  11.445 -1.1636 -1.9800  1.0256
  284MPD2    N1 4294   0.972   0.579  11.643 -0.5910 -0.3763 -0.6327
  284MPD2    H7 4295   1.045   0.525  11.598 -1.6179 -1.9079 -0.4427
  285TMC3    C1 4296   1.170   0.698  11.694  0.4858 -0.6154  0.6961
  285TMC3    C2 4297   1.232   0.592  11.617 -0.0025 -0.9906 -0.2848
  285TMC3    C3 4298   1.339   0.626  11.529  0.0088  0.4357  0.5926
  285TMC3    C4 4299   1.212   0.825  11.685  0.0968  0.1977  0.3824
  285TMC3    C5 4300   1.297   0.856  11.578  0.3244  0.2134  0.0813
  285TMC3    C6 4301   1.364   0.761  11.504  0.6123  0.0639 -0.5266
  285TMC3     C 4302   1.021   0.689  11.709  0.3765  0.5645 -0.3038
  285TMC3     O 4303   0.961   0.773  11.768  0.1926  0.4239 -0.4375
  285TMC3     H 4304   1.202   0.488  11.624 -1.7383 -0.6038 -2.1792
  285TMC3    H1 4305   1.159   0.900  11.743 -1.7630  0.7078 -1.9484
  285TMC3    H2 4306   1.408   0.790  11.409 -2.6761  3.1240 -1.1110
  285TMC3    C7 4307   1.340   0.995  11.560 -0.1685  0.1190  0.6700
  285TMC3    C8 4308   1.364   0.526  11.422  0.1952  0.1059  0.0840
  285TMC3    O1 4309   1.442   1.015  11.499  0.4803  0.1970  0.3064
  285TMC3    O2 4310   1.289   0.431  11.417  0.7502 -0.4908  0.7935
  286MPD2     C 4311   4.519   0.117   1.813 -0.7130 -0.4401  0.1495
  286MPD2    C1 4312   4.566   0.081   1.687 -0.5174  0.2601 -0.3518
  286MPD2    C2 4313   4.705   0.066   1.674 -0.0753 -0.2388 -0.7437
  286MPD2    C3 4314   0.076   0.085   1.777  0.3582  1.0884 -0.1667
  286MPD2    C4 4315   0.025   0.103   1.904  0.1213 -0.9695 -0.3961
  286MPD2    C5 4316   4.613   0.125   1.919 -0.2865  1.3781  0.2787
  286MPD2     H 4317   0.022   0.022   1.583 -0.2540  1.2148 -1.5304
  286MPD2    H1 4318   0.098   0.120   1.983  1.0129 -0.7877 -1.2575
  286MPD2    H2 4319   4.412   0.130   1.827 -0.3764 -0.1862  2.4587
  286MPD2    H3 4320   4.579   0.154   2.018  2.6612  0.3236  1.5846
  286MPD2     N 4321   0.217   0.056   1.762 -0.3652  0.2802  0.1343
  286MPD2    H5 4322   0.271   0.048   1.848 -1.6835 -1.5607  0.7916
  286MPD2    N1 4323   4.485   0.048   1.576  0.3669 -0.4079 -0.0602
  286MPD2    H7 4324   4.531   0.019   1.491  1.7238  0.2186  0.4706
  287TMC3    C1 4325   0.432   0.006   1.643 -0.9639 -0.4429  0.0070
  287TMC3    C2 4326   0.479   4.652   1.538 -0.5959  0.1392  0.3458
  287TMC3    C3 4327   0.612   4.620   1.543  1.2733 -0.4964 -0.2106
  287TMC3    C4 4328   0.515   0.060   1.737  0.5999 -0.2513 -0.2919
  287TMC3    C5 4329   0.647   0.020   1.742 -0.2664 -0.1004 -1.1994
  287TMC3    C6 4330   0.699   4.657   1.645 -0.0194 -0.0454 -0.4469
  287TMC3     C 4331   0.280   0.026   1.640 -0.8690  0.2778 -0.2238
  287TMC3     O 4332   0.233   0.012   1.530  0.2296 -0.2729  0.5748
  287TMC3     H 4333   0.410   4.597   1.476 -0.0755 -0.4651  0.3002
  287TMC3    H1 4334   0.482   0.134   1.808  1.7029 -0.6089  0.6040
  287TMC3    H2 4335   0.803   4.632   1.629 -0.0006  0.1633 -0.6420
  287TMC3    C7 4336   0.726   0.083   1.843 -0.0564 -0.3050  0.1084
  287TMC3    C8 4337   0.668   4.544   1.435 -0.7120  0.5014 -0.8053
  287TMC3    O1 4338   0.674   0.142   1.939  0.4104  0.3374 -0.1902
  287TMC3    O2 4339   0.777   4.488   1.445  0.4203 -0.3312  0.6281
  288TMC3    C1 4340   2.925   4.362  14.250 -0.3056 -0.7975  0.2969
  288TMC3    C2 4341   2.875   4.398  14.372  0.1813 -0.3531  0.6093
  288TMC3    C3 4342   2.737   4.404  14.381  0.1311 -1.1124 -0.0840
  288TMC3    C4 4343   2.844   4.343  14.140  0.1715  0.4678 -0.7072
  288TMC3    C5 4344   2.707   4.356  14.150  0.2814 -0.3464  0.1718
  288TMC3    C6 4345   2.651   4.387  14.280 -0.6504 -0.2069 -0.3730
  288TMC3     C 4346   3.067   4.361  14.226 -0.3510 -0.2409 -0.0062
  288TMC3     O 4347   3.137   4.299  14.303 -0.3836 -0.2491  0.0705
  288TMC3     H 4348   2.950   4.418  14.447  3.3625  1.7314 -3.1038
  288TMC3    H1 4349   2.892   4.319  14.046  0.5894 -2.2605  0.2045
  288TMC3    H2 4350   2.545   4.405  14.286 -0.3953  1.5237 -1.1154
  288TMC3    C7 4351   2.628   4.382  14.029 -0.2789 -0.2772 -0.1191
  288TMC3    C8 4352   2.668   4.480  14.489 -0.4976 -0.1265 -0.2347
  288TMC3    O1 4353   2.668   4.326  13.929  0.4014  0.2100  0.0125
  288TMC3    O2 4354   2.714   4.585  14.535 -0.6150 -0.2082 -0.3184
  289MPD2     C 4355   2.487   3.821  14.718  0.1881 -0.2102  0.1362
  289MPD2    C1 4356   2.484   3.927  14.631  0.1920  0.1693 -0.2146
  289MPD2    C2 4357   2.370   3.950  14.553  0.0053 -0.2018 -0.3410
  289MPD2    C3 4358   2.258   3.865  14.571  0.5419 -0.2400 -0.1151
  289MPD2    C4 4359   2.266   3.764  14.666 -0.8112 -0.3339  0.4037
  289MPD2    C5 4360   2.380   3.741  14.736 -0.4751 -0.2071  0.3486
  289MPD2     H 4361   2.378   4.017  14.468  0.7289 -0.0181 -0.1258
  289MPD2    H1 4362   2.188   3.690  14.677 -0.5963 -0.3880  1.5533
  289MPD2    H2 4363   2.572   3.794  14.779  0.2570 -3.5181 -1.3990
  289MPD2    H3 4364   2.398   3.647  14.786  0.8553  0.4619  1.1462
  289MPD2     N 4365   2.143   3.874  14.485 -0.2077  0.1965  0.2655
  289MPD2    H5 4366   2.072   3.801  14.489 -0.3573  0.4279  1.8484
  289MPD2    N1 4367   2.608   3.991  14.597  0.5821  0.2453  0.2447
  289MPD2    H7 4368   2.681   3.958  14.660 -0.8765 -2.4294  0.5265
  290TMC3    C1 4369   2.023   3.955  14.305  0.7502 -0.2226 -0.6532
  290TMC3    C2 4370   1.981   4.065  14.232 -0.3610 -0.6528 -0.4699
  290TMC3    C3 4371   1.909   4.043  14.113 -0.9879 -0.6246 -0.2169
  290TMC3    C4 4372   1.983   3.830  14.269 -0.0451  0.3863  0.3830
  290TMC3    C5 4373   1.908   3.815  14.151 -0.0983 -0.5260  0.2676
  290TMC3    C6 4374   1.871   3.922  14.071 -0.0892  0.7394  0.3827
  290TMC3     C 4375   2.117   3.982  14.409 -0.5947 -0.2946  0.1869
  290TMC3     O 4376   2.158   4.094  14.432  0.3869  0.6814  0.5790
  290TMC3     H 4377   2.004   4.165  14.267 -1.2573 -0.6169  0.0024
  290TMC3    H1 4378   2.017   3.744  14.326 -0.0558 -1.5539 -2.5409
  290TMC3    H2 4379   1.832   3.913  13.970  2.8777  1.3534 -0.8266
  290TMC3    C7 4380   1.832   3.693  14.121 -0.2328  0.0241 -0.4083
  290TMC3    C8 4381   1.826   4.152  14.063  0.2166 -0.0793 -0.6526
  290TMC3    O1 4382   1.740   3.703  14.043 -0.2794 -0.1254 -0.5346
  290TMC3    O2 4383   1.713   4.119  14.030  0.2947 -1.3475 -0.0221
  291MPD2     C 4384   1.743   2.989   0.610  0.3431 -0.0263 -0.9468
  291MPD2    C1 4385   1.615   3.038   0.612 -0.3646  0.2627  0.1113
  291MPD2    C2 4386   1.593   3.163   0.664  0.5550  0.1643  0.3576
  291MPD2    C3 4387   1.702   3.244   0.699  0.1366  0.2565 -0.2182
  291MPD2    C4 4388   1.824   3.191   0.684 -0.4917  0.8301 -0.2071
  291MPD2    C5 4389   1.851   3.066   0.634  1.2650  0.1776  0.0363
  291MPD2     H 4390   1.489   3.191   0.672  0.1866 -1.1201 -0.0618
  291MPD2    H1 4391   1.907   3.254   0.717  1.2964  0.2875 -3.6733
  291MPD2    H2 4392   1.766   2.887   0.581  0.5181 -0.6992  1.5747
  291MPD2    H3 4393   1.948   3.018   0.645  0.7558 -0.9706 -0.5559
  291MPD2     N 4394   1.687   3.371   0.759  0.1863 -0.2048  0.2821
  291MPD2    H5 4395   1.768   3.432   0.763 -2.0615  2.6595  1.7327
  291MPD2    N1 4396   1.504   2.964   0.583 -0.0169 -0.1429 -1.2072
  291MPD2    H7 4397   1.416   3.011   0.601 -0.9809 -1.8183 -1.5560
  292TMC3    C1 4398   1.363   2.791   0.494 -0.0786  0.9124  0.1360
  292TMC3    C2 4399   1.252   2.855   0.543 -0.5267 -0.2525  0.9013
  292TMC3    C3 4400   1.134   2.841   0.473 -0.0001 -0.3206  0.4758
  292TMC3    C4 4401   1.353   2.708   0.382 -0.1220 -0.7386 -0.9472
  292TMC3    C5 4402   1.242   2.700   0.311  0.0039  0.0438  0.2382
  292TMC3    C6 4403   1.130   2.768   0.354  0.3217 -0.0719  0.6644
  292TMC3     C 4404   1.501   2.840   0.517 -0.3018 -0.3728 -0.2131
  292TMC3     O 4405   1.593   2.782   0.455 -0.2022 -0.0961 -0.7651
  292TMC3     H 4406   1.257   2.917   0.632  0.0755  0.3412  0.4485
  292TMC3    H1 4407   1.443   2.653   0.358  0.9964  1.6438 -2.2783
  292TMC3    H2 4408   1.041   2.785   0.296  1.8623  2.6675 -0.9018
  292TMC3    C7 4409   1.253   2.630   0.180  0.2503  0.3417  0.1000
  292TMC3    C8 4410   1.023   2.921   0.514 -0.2778 -0.0912  0.1145
  292TMC3    O1 4411   1.358   2.568   0.154  0.4188  0.5605  0.0611
  292TMC3    O2 4412   1.045   3.013   0.592 -0.6735 -0.2212 -0.2100
  293MPD2     C 4413   4.449   3.970  12.970  0.0082 -0.1580 -0.1820
  293MPD2    C1 4414   4.319   3.977  12.934 -0.0870  0.3221 -0.6014
  293MPD2    C2 4415   4.246   4.082  12.986  0.2828  0.7130  0.3175
  293MPD2    C3 4416   4.303   4.183  13.052 -0.5185 -0.1777 -0.3633
  293MPD2    C4 4417   4.439   4.187  13.077  0.7294 -0.4805 -0.1016
  293MPD2    C5 4418   4.512   4.082  13.026  0.8213  0.1947  0.1054
  293MPD2     H 4419   4.138   4.083  12.976  0.2372  0.7679  0.8312
  293MPD2    H1 4420   4.485   4.260  13.142 -0.0766 -0.4311  0.4162
  293MPD2    H2 4421   4.515   3.890  12.938 -2.5153 -1.4526 -2.1261
  293MPD2    H3 4422   4.620   4.080  13.032  0.8193  1.4545  0.5711
  293MPD2     N 4423   4.205   4.278  13.101  0.0174  0.1754  0.1223
  293MPD2    H5 4424   4.106   4.262  13.087  0.3357  0.1939 -2.1482
  293MPD2    N1 4425   4.268   3.874  12.854 -0.3388  0.2719 -0.3778
  293MPD2    H7 4426   4.332   3.796  12.843 -0.9451 -0.0774 -1.4758
  294TMC3    C1 4427   4.124   3.754  12.727  0.6097 -0.1003 -0.6479
  294TMC3    C2 4428   4.160   3.627  12.771  0.5467 -0.4397  0.8749
  294TMC3    C3 4429   4.127   3.518  12.690  0.2246 -0.0817 -0.4233
  294TMC3    C4 4430   4.061   3.777  12.604 -0.4245 -0.2113  0.1924
  294TMC3    C5 4431   4.041   3.664  12.526 -0.1660 -0.4110  0.2809
  294TMC3    C6 4432   4.065   3.536  12.569 -0.1986  0.1843  0.0444
  294TMC3     C 4433   4.139   3.866  12.814 -0.5387 -0.5232 -0.0186
  294TMC3     O 4434   4.060   3.954  12.787 -0.7482 -0.2411  0.0378
  294TMC3     H 4435   4.173   3.608  12.877  0.6970  1.7129  1.2443
  294TMC3    H1 4436   4.016   3.873  12.579 -2.0878 -1.0151  0.1577
  294TMC3    H2 4437   4.046   3.449  12.507  1.2079  0.6916 -1.0943
  294TMC3    C7 4438   3.961   3.673  12.407 -0.2274 -0.6198 -0.2941
  294TMC3    C8 4439   4.086   3.394  12.761 -0.0846  0.5854  0.2311
  294TMC3    O1 4440   3.904   3.574  12.367  0.4787 -0.1759  0.2330
  294TMC3    O2 4441   4.134   3.390  12.873 -0.3292  0.1461 -0.0089
  295MPD2     C 4442   3.342   2.356  17.618  0.4177 -0.4241 -0.3038
  295MPD2    C1 4443   3.295   2.474  17.663 -0.0035 -0.4451 -0.2727
  295MPD2    C2 4444   3.241   2.481   0.102  0.1295  0.6719 -0.5509
  295MPD2    C3 4445   3.240   2.371   0.187  0.0149 -0.4482  0.0727
  295MPD2    C4 4446   3.291   2.253   0.135  0.1118  0.7626  0.9550
  295MPD2    C5 4447   3.342   2.249   0.010 -0.4606 -0.1299  0.4660
  295MPD2     H 4448   3.192   2.575   0.122 -1.0725 -0.2434  0.7613
  295MPD2    H1 4449   3.280   2.162   0.192  1.8033 -0.4509 -0.6405
  295MPD2    H2 4450   3.382   2.347  17.517  0.1434  0.7227 -0.5130
  295MPD2    H3 4451   3.374   2.151  17.669 -1.0686  0.1240 -0.9359
  295MPD2     N 4452   3.187   2.372   0.316  0.0282  0.4984 -0.5790
  295MPD2    H5 4453   3.196   2.286   0.369  0.2576  1.1722  0.4837
  295MPD2    N1 4454   3.281   2.592  17.586 -0.1021 -0.0270 -0.0587
  295MPD2    H7 4455   3.235   2.671  17.629 -0.4090 -0.6621  0.7770
  296TMC3    C1 4456   3.096   2.471   0.514  0.6031  0.0110 -0.7200
  296TMC3    C2 4457   3.202   2.421   0.583  0.0591  0.0545 -0.1428
  296TMC3    C3 4458   3.231   2.475   0.705 -0.4631  0.5696  0.4622
  296TMC3    C4 4459   3.015   2.561   0.569 -0.1155  0.6531  0.0639
  296TMC3    C5 4460   3.047   2.610   0.691 -0.8544  0.8527 -0.9992
  296TMC3    C6 4461   3.150   2.566   0.764 -0.5126  0.0480  0.3147
  296TMC3     C 4462   3.119   2.481   0.370  0.4616 -0.2389  0.2298
  296TMC3     O 4463   3.114   2.595   0.319  0.7653  0.0381  0.1647
  296TMC3     H 4464   3.278   2.358   0.539  1.5169  0.1006  2.3318
  296TMC3    H1 4465   2.920   2.579   0.520 -0.1031  0.5665  0.0100
  296TMC3    H2 4466   3.168   2.602   0.865 -1.4509 -1.7603  1.1082
  296TMC3    C7 4467   2.931   2.654   0.760 -0.2683 -0.6351 -0.4840
  296TMC3    C8 4468   3.329   2.410   0.789 -0.5649  0.1528 -0.5910
  296TMC3    O1 4469   2.859   2.722   0.692 -0.3637  0.1580 -0.2430
  296TMC3    O2 4470   3.372   2.301   0.760 -0.1178 -0.6616  0.1248
  297MPD2     C 4471   1.530   0.607  16.221 -0.3672 -0.4103  0.2981
  297MPD2    C1 4472   1.499   0.737  16.191 -0.0758  0.0442 -0.6072
  297MPD2    C2 4473   1.605   0.822  16.167 -0.4070  0.0930  0.6566
  297MPD2    C3 4474   1.737   0.780  16.159  0.2098 -0.2706  0.3500
  297MPD2    C4 4475   1.761   0.653  16.190  0.0925  0.0848 -0.4071
  297MPD2    C5 4476   1.658   0.571  16.223  0.1682  0.5973 -0.8310
  297MPD2     H 4477   1.591   0.930  16.165 -1.8786 -0.1193 -0.5250
  297MPD2    H1 4478   1.863   0.616  16.185  0.4784  0.9435  1.2316
  297MPD2    H2 4479   1.456   0.531  16.242 -0.2666 -0.9703 -1.3641
  297MPD2    H3 4480   1.690   0.469  16.239  0.4386  0.4356 -2.5137
  297MPD2     N 4481   1.832   0.879  16.116  0.2881 -0.3656  0.5692
  297MPD2    H5 4482   1.795   0.973  16.103  1.9574  0.3544  0.9795
  297MPD2    N1 4483   1.370   0.792  16.166  0.1491 -0.8031 -0.2729
  297MPD2    H7 4484   1.368   0.879  16.113 -1.3208 -0.5846  0.1313
  298TMC3    C1 4485   1.136   0.816  16.156  0.3186 -0.2479  0.2926
  298TMC3    C2 4486   1.132   0.864  16.029 -0.3376 -0.4227 -0.2886
  298TMC3    C3 4487   1.015   0.888  15.972  0.9690 -0.1081 -0.5484
  298TMC3    C4 4488   1.019   0.803  16.225 -0.1683  0.1300 -0.5235
  298TMC3    C5 4489   0.904   0.833  16.164 -0.0052  0.5243 -0.1831
  298TMC3    C6 4490   0.899   0.878  16.043 -0.1383 -0.8342  0.1157
  298TMC3     C 4491   1.250   0.746  16.217 -0.2416 -0.0835  0.5833
  298TMC3     O 4492   1.240   0.638  16.282  0.3815 -0.0547 -0.3099
  298TMC3     H 4493   1.222   0.856  15.969 -1.8140  0.4388 -2.6608
  298TMC3    H1 4494   1.020   0.759  16.324  0.9439 -1.0897 -1.0796
  298TMC3    H2 4495   0.808   0.917  15.999 -0.3265 -3.2107 -1.5855
  298TMC3    C7 4496   0.786   0.815  16.248  0.3921  0.2908  0.2714
  298TMC3    C8 4497   1.009   0.943  15.840 -0.0874  0.0408 -0.1629
  298TMC3    O1 4498   0.800   0.828  16.372 -0.4785 -0.2542 -0.5812
  298TMC3    O2 4499   0.895   0.951  15.791 -0.5975  0.4208  0.2281
  299MPD2     C 4500   2.400   4.201  10.559 -0.2304 -0.2072  0.8735
  299MPD2    C1 4501   2.414   4.196  10.424 -0.0951  0.0541 -0.7277
  299MPD2    C2 4502   2.333   4.112  10.352 -0.0310 -0.1297  0.2029
  299MPD2    C3 4503   2.261   4.013  10.422  0.4883  0.0876 -0.1473
  299MPD2    C4 4504   2.249   4.019  10.560 -0.1855 -0.8174  0.2104
  299MPD2    C5 4505   2.312   4.119  10.628  0.3073  0.1524  0.2459
  299MPD2     H 4506   2.335   4.118  10.243  2.0976 -0.1015  0.2533
  299MPD2    H1 4507   2.189   3.946  10.613 -3.5284  0.1715 -2.2205
  299MPD2    H2 4508   2.464   4.266  10.617 -2.7235  1.5084  1.6775
  299MPD2    H3 4509   2.299   4.122  10.736  0.3044  2.2109  0.1874
  299MPD2     N 4510   2.170   3.922  10.359 -0.2532 -0.9950 -0.2031
  299MPD2    H5 4511   2.106   3.878  10.424 -1.0657  0.8681  0.2662
  299MPD2    N1 4512   2.518   4.270  10.364 -0.2686 -0.4334  0.2323
  299MPD2    H7 4513   2.591   4.314  10.419 -1.9996  1.1635  1.2767
  300TMC3    C1 4514   2.000   3.878  10.201 -0.2222  1.1607 -0.0891
  300TMC3    C2 4515   1.915   3.969  10.138 -0.1253  0.2626  0.6068
  300TMC3    C3 4516   1.798   4.006  10.199 -0.5233 -0.1302 -0.4884
  300TMC3    C4 4517   1.962   3.818  10.315 -0.1040  0.1550  0.3604
  300TMC3    C5 4518   1.847   3.863  10.377 -0.8447 -0.0529  0.4356
  300TMC3    C6 4519   1.764   3.952  10.321  0.3091 -0.1571 -0.0364
  300TMC3     C 4520   2.136   3.932  10.220 -0.3586 -0.4739  0.6735
  300TMC3     O 4521   2.174   4.016  10.140 -0.1998  0.0437  0.3739
  300TMC3     H 4522   1.961   3.999  10.045  0.7657 -2.0005  0.2930
  300TMC3    H1 4523   2.030   3.740  10.349  0.5074  1.1385  1.3558
  300TMC3    H2 4524   1.680   3.998  10.372 -0.5058 -0.7886 -0.7857
  300TMC3    C7 4525   1.884   3.899  10.513  0.5534  0.2277 -0.1381
  300TMC3    C8 4526   1.783   4.147  10.210  0.7161  0.0377 -0.0638
  300TMC3    O1 4527   1.995   3.858  10.548 -0.0809 -0.2325  0.2861
  300TMC3    O2 4528   1.769   4.190  10.321  0.3323 -0.3343  0.2565
  301MPD2     C 4529   2.820   1.060   1.366 -0.3336 -0.4156 -0.3121
  301MPD2    C1 4530   2.871   1.071   1.235  0.9459 -0.4380  0.1622
  301MPD2    C2 4531   2.903   0.955   1.171  0.2944  0.3483 -0.6346
  301MPD2    C3 4532   2.874   0.829   1.222 -0.2338  0.0361  0.1575
  301MPD2    C4 4533   2.808   0.825   1.341 -0.3601 -0.2131  0.3418
  301MPD2    C5 4534   2.777   0.938   1.411 -0.1457  0.1113  0.1859
  301MPD2     H 4535   2.974   0.964   1.089 -0.5050 -1.2905 -1.5012
  301MPD2    H1 4536   2.772   0.733   1.384  0.2310 -0.7381 -0.2788
  301MPD2    H2 4537   2.794   1.143   1.431  1.9619  0.9326 -1.1371
  301MPD2    H3 4538   2.732   0.934   1.510 -0.6518 -0.2142 -0.0566
  301MPD2     N 4539   2.894   0.709   1.162  0.6462 -0.7139  0.4454
  301MPD2    H5 4540   2.873   0.622   1.209  1.3866 -0.3774  1.3997
  301MPD2    N1 4541   2.906   1.192   1.175 -0.6330  0.0797 -0.6477
  301MPD2    H7 4542   2.959   1.184   1.089 -2.9749 -1.3168 -1.9370
  302TMC3    C1 4543   2.971   0.557   1.006  0.1438 -0.6487 -0.6588
  302TMC3    C2 4544   3.035   0.492   1.103 -0.1106  0.5994  0.0269
  302TMC3    C3 4545   3.111   0.378   1.070  0.6365  0.0854 -0.1469
  302TMC3    C4 4546   2.990   0.525   0.874 -0.3667  0.4194  0.5685
  302TMC3    C5 4547   3.067   0.410   0.847 -0.3467  0.3811 -0.9571
  302TMC3    C6 4548   3.124   0.334   0.940  0.7922  0.0144 -0.0567
  302TMC3     C 4549   2.928   0.690   1.032  0.1187  0.2174 -0.4524
  302TMC3     O 4550   2.944   0.772   0.943 -0.2568 -0.5084 -0.0580
  302TMC3     H 4551   3.030   0.526   1.206 -0.7310  0.3581  0.0739
  302TMC3    H1 4552   2.950   0.593   0.799  1.0031 -0.5680 -1.0476
  302TMC3    H2 4553   3.176   0.242   0.915  2.4056  0.4261  1.7227
  302TMC3    C7 4554   3.114   0.388   0.708 -0.7245  0.1376 -0.0673
  302TMC3    C8 4555   3.216   0.347   1.162 -0.5349  0.3183 -0.0513
  302TMC3    O1 4556   3.209   0.312   0.694  0.3480 -0.2577  0.0485
  302TMC3    O2 4557   3.239   0.421   1.260  0.1298 -0.0252 -1.1523
  303MPD2     C 4558   0.131   4.144  10.489  0.2936 -0.2552  0.1724
  303MPD2    C1 4559   0.074   4.024  10.473  0.0655  0.0411  0.2551
  303MPD2    C2 4560   0.033   3.984  10.346 -1.0177  0.2381 -0.7342
  303MPD2    C3 4561   0.061   4.063  10.242 -0.0963 -0.1246 -0.3597
  303MPD2    C4 4562   0.127   4.179  10.260 -0.1283  0.3527  0.7858
  303MPD2    C5 4563   0.167   4.219  10.384  0.1846 -0.6610  0.1037
  303MPD2     H 4564   4.689   3.898  10.336  0.7090 -1.1631 -0.0411
  303MPD2    H1 4565   0.150   4.242  10.175  0.4085  0.5548  1.0830
  303MPD2    H2 4566   0.159   4.170  10.591 -1.9496  2.3576  0.1342
  303MPD2    H3 4567   0.213   4.316  10.400 -2.1231  0.5628 -0.7000
  303MPD2     N 4568   0.023   4.045  10.110  0.0622  0.0905  0.5282
  303MPD2    H5 4569   0.046   4.114  10.040  0.9294  0.0061  0.7276
  303MPD2    N1 4570   0.028   3.963  10.589 -0.0154 -0.1115  0.2782
  303MPD2    H7 4571   0.013   4.021  10.670 -0.9610 -1.0735  0.7983
  304TMC3    C1 4572   4.640   3.790  10.700  0.0717 -0.4331  0.4638
  304TMC3    C2 4573   4.532   3.872  10.730 -0.4715 -0.3552 -0.1610
  304TMC3    C3 4574   4.438   3.826  10.823  0.9700  0.1868 -0.0078
  304TMC3    C4 4575   4.648   3.661  10.749 -0.0915 -0.3247 -0.5170
  304TMC3    C5 4576   4.554   3.624  10.845  0.7717 -1.1255 -0.5387
  304TMC3    C6 4577   4.456   3.707  10.878  0.5875 -0.0858 -0.2971
  304TMC3     C 4578   4.722   3.829  10.590 -0.1367  0.1599 -0.2410
  304TMC3     O 4579   0.024   3.741  10.511  0.0462  0.6066  0.2248
  304TMC3     H 4580   4.519   3.971  10.687  0.1662  0.8594  2.4804
  304TMC3    H1 4581   4.711   3.582  10.709 -0.8767 -1.4052  0.4077
  304TMC3    H2 4582   4.390   3.668  10.955 -0.2403  2.9990  0.5690
  304TMC3    C7 4583   4.512   3.486  10.811 -0.4838  0.2706 -0.7347
  304TMC3    C8 4584   4.298   3.854  10.791  0.5201  0.1465  0.6300
  304TMC3    O1 4585   4.588   3.395  10.796  0.5870 -0.0648 -0.3192
  304TMC3    O2 4586   4.214   3.776  10.829  0.2695 -0.1173 -0.0989
  305MPD2     C 4587   2.449   2.059  13.752 -0.7664  0.3597 -0.7022
  305MPD2    C1 4588   2.361   1.956  13.783 -0.1397  0.0630 -0.0001
  305MPD2    C2 4589   2.340   1.856  13.689  0.4074 -1.3484 -0.2924
  305MPD2    C3 4590   2.402   1.862  13.567 -0.0310  0.1478  0.4338
  305MPD2    C4 4591   2.486   1.964  13.533 -0.5906  0.1829 -0.3736
  305MPD2    C5 4592   2.508   2.060  13.626  0.2328  0.6052  0.2610
  305MPD2     H 4593   2.277   1.771  13.714 -0.2936 -0.9113 -0.5741
  305MPD2    H1 4594   2.550   1.975  13.446  0.8460  0.8045  0.7584
  305MPD2    H2 4595   2.475   2.136  13.825  1.5942 -0.5670 -0.5549
  305MPD2    H3 4596   2.568   2.145  13.598 -1.2391  1.3882 -0.5390
  305MPD2     N 4597   2.387   1.761  13.463  0.3626 -0.0933 -0.0737
  305MPD2    H5 4598   2.432   1.779  13.374  0.7752 -0.2272  0.1107
  305MPD2    N1 4599   2.304   1.957  13.912 -0.2456 -0.1320 -0.0965
  305MPD2    H7 4600   2.324   2.041  13.965 -3.5273  1.6764 -1.7450
  306TMC3    C1 4601   2.217   1.902  14.112 -0.3225  0.0657  0.7716
  306TMC3    C2 4602   2.255   1.806  14.208  0.6764  0.3397  0.0164
  306TMC3    C3 4603   2.267   1.851  14.336 -0.1094 -0.2624 -0.2122
  306TMC3    C4 4604   2.199   2.038  14.142  0.5796 -0.0447  0.6006
  306TMC3    C5 4605   2.229   2.079  14.270 -0.5415 -0.2977 -0.2021
  306TMC3    C6 4606   2.265   1.987  14.368 -0.0431  0.7018 -0.9563
  306TMC3     C 4607   2.240   1.861  13.974 -0.5290 -0.3451 -0.5085
  306TMC3     O 4608   2.227   1.742  13.936 -0.7690 -0.4483 -0.1280
  306TMC3     H 4609   2.279   1.706  14.174  1.2180 -0.3040  2.2762
  306TMC3    H1 4610   2.182   2.109  14.062  0.1159 -1.2998 -0.4114
  306TMC3    H2 4611   2.273   2.015  14.472 -2.1185 -1.1477 -0.3056
  306TMC3    C7 4612   2.188   2.221  14.293 -0.6860  0.7915 -0.3158
  306TMC3    C8 4613   2.310   1.746  14.431  0.7498  0.8702  0.4325
  306TMC3    O1 4614   2.114   2.272  14.215  0.5817 -0.3965  0.2743
  306TMC3    O2 4615   2.287   1.629  14.405  0.0258  0.0986 -0.3626
  307MPD2     C 4616   4.667   0.660   1.050 -0.5750 -0.1518 -0.7314
  307MPD2    C1 4617   4.590   0.714   0.951 -0.6137 -0.7201  0.3846
  307MPD2    C2 4618   4.463   0.665   0.935 -0.3097  0.1245  0.2343
  307MPD2    C3 4619   4.405   0.577   1.026  0.1601  0.8061  0.4432
  307MPD2    C4 4620   4.478   0.534   1.132  0.2732 -0.0614  0.0680
  307MPD2    C5 4621   4.608   0.565   1.134  0.0912  0.1193 -0.2254
  307MPD2     H 4622   4.411   0.708   0.850  0.8580 -0.9193 -1.0045
  307MPD2    H1 4623   4.436   0.479   1.216 -2.0451  1.0343 -0.3578
  307MPD2    H2 4624   0.053   0.666   1.044 -0.6213  0.1724 -1.2540
  307MPD2    H3 4625   4.677   0.523   1.206 -0.6793  0.8082  0.9196
  307MPD2     N 4626   4.273   0.542   1.002 -0.3402  0.3107  0.3061
  307MPD2    H5 4627   4.228   0.585   0.922 -1.2017 -0.7539  0.2090
  307MPD2    N1 4628   4.647   0.798   0.849  0.0649  0.5383  0.3687
  307MPD2    H7 4629   4.594   0.806   0.763  1.2736  2.5778 -0.1911
  308TMC3    C1 4630   3.869   0.306   1.056  0.0897 -0.5482 -0.1922
  308TMC3    C2 4631   3.798   0.409   1.006  0.3995  0.1249  0.4459
  308TMC3    C3 4632   3.866   0.525   0.982 -0.1532  0.5458 -0.7865
  308TMC3    C4 4633   4.001   0.324   1.086 -0.8415  0.7879 -0.1580
  308TMC3    C5 4634   4.072   0.435   1.039 -0.0754 -0.2328 -0.4986
  308TMC3    C6 4635   4.008   0.544   0.995 -0.3655  0.0147 -0.2742
  308TMC3     C 4636   3.849   0.187   0.980  0.0285 -0.5364  0.3456
  308TMC3     O 4637   3.954   0.123   0.950  0.6456 -0.3782  0.1121
  308TMC3     H 4638   3.690   0.409   0.993  0.3008 -1.0216  1.2165
  308TMC3    H1 4639   4.058   0.237   1.117 -0.2971  0.9116 -0.7906
  308TMC3    H2 4640   4.058   0.639   0.981  0.9876 -0.5255  0.7926
  308TMC3    C7 4641   4.206   0.461   1.083 -0.6907  0.3753 -0.3633
  308TMC3    C8 4642   3.776   0.633   0.936 -0.5909  0.5065  0.5847
  308TMC3    O1 4643   4.245   0.394   1.176  0.1337  0.6584  0.2413
  308TMC3    O2 4644   3.669   0.630   0.994 -0.1077  0.4578  0.2728
  309MPD2     C 4645   3.468   4.619  17.152  0.0518  0.1792  0.7189
  309MPD2    C1 4646   3.479   4.714  17.050  0.8503  0.1611 -0.0043
  309MPD2    C2 4647   3.403   0.107  17.062  0.2283  0.3238  0.1417
  309MPD2    C3 4648   3.307   0.120  17.161 -1.4372 -0.0147  0.3569
  309MPD2    C4 4649   3.293   0.018  17.253 -0.1333  0.5248 -0.6565
  309MPD2    C5 4650   3.369   4.629  17.245  0.0836 -0.1839  1.1777
  309MPD2     H 4651   3.429   0.185  16.992  0.6590  0.9446  0.9919
  309MPD2    H1 4652   3.220   0.023  17.333  0.4738  0.3893 -0.0884
  309MPD2    H2 4653   3.526   4.528  17.159 -1.5343 -1.0682 -2.4801
  309MPD2    H3 4654   3.369   4.554  17.323  1.0864 -1.7112 -0.2825
  309MPD2     N 4655   3.218   0.234  17.185 -0.6437 -0.0991  0.4162
  309MPD2    H5 4656   3.141   0.226  17.251  0.4584 -0.6872  1.6262
  309MPD2    N1 4657   3.586   4.711  16.957 -0.0682 -0.0299 -0.6112
  309MPD2    H7 4658   3.606   0.076  16.910 -0.4124 -0.5924 -1.8256
  310TMC3    C1 4659   3.775   4.603  16.860  0.1954 -0.5122 -0.4359
  310TMC3    C2 4660   3.800   4.693  16.763  0.1751 -0.0134  0.6061
  310TMC3    C3 4661   3.920   4.680  16.700 -0.0948 -0.3277 -0.1323
  310TMC3    C4 4662   3.858   4.499  16.889 -0.0094 -0.1167 -0.3438
  310TMC3    C5 4663   3.984   4.501  16.845  0.7164  0.4347 -0.0147
  310TMC3    C6 4664   4.016   4.590  16.740  0.1484 -0.3420  0.6515
  310TMC3     C 4665   3.643   4.588  16.919  0.1537  0.2025 -0.3551
  310TMC3     O 4666   3.607   4.473  16.934  0.0430 -0.6610 -0.3510
  310TMC3     H 4667   3.724   0.039  16.726  0.1818  0.0313  0.6745
  310TMC3    H1 4668   3.836   4.435  16.974  1.6252  0.3049  0.4050
  310TMC3    H2 4669   4.107   4.574  16.684  0.8905 -1.9267  2.3220
  310TMC3    C7 4670   4.084   4.409  16.908 -0.2986  0.1645  0.5099
  310TMC3    C8 4671   3.941   0.041  16.582  0.2680  0.2795 -0.5339
  310TMC3    O1 4672   4.035   4.316  16.973 -0.0495 -0.3204 -0.2642
  310TMC3    O2 4673   3.847   0.100  16.523 -0.3334  0.0358  0.4778
  311MPD2     C 4674   1.359   1.336  12.613  0.4627  0.2701 -0.5390
  311MPD2    C1 4675   1.319   1.371  12.738 -0.1146  0.6283 -0.4834
  311MPD2    C2 4676   1.183   1.383  12.767 -0.0718 -0.0026 -0.0220
  311MPD2    C3 4677   1.089   1.330  12.671  0.8730 -0.2673  0.7037
  311MPD2    C4 4678   1.142   1.276  12.551 -0.4277  0.4885 -0.7058
  311MPD2    C5 4679   1.272   1.282  12.521  0.6532  0.5479 -0.0536
  311MPD2     H 4680   1.158   1.426  12.863  0.9181 -0.1436  0.2907
  311MPD2    H1 4681   1.072   1.216  12.495  0.8114 -0.0475 -1.6785
  311MPD2    H2 4682   1.464   1.339  12.586  0.8217  0.8056  0.8895
  311MPD2    H3 4683   1.291   1.243  12.421 -2.8309 -1.4978  0.1154
  311MPD2     N 4684   0.950   1.336  12.696 -0.1048 -0.0740 -0.4100
  311MPD2    H5 4685   0.920   1.380  12.783  0.3103 -3.0133  1.2129
  311MPD2    N1 4686   1.418   1.405  12.839 -0.4782  0.1384 -0.3129
  311MPD2    H7 4687   1.387   1.457  12.920  0.4724  0.5351 -0.2048
  312TMC3    C1 4688   0.718   1.338  12.656 -0.4701 -0.0867 -0.9185
  312TMC3    C2 4689   0.630   1.329  12.554 -0.1791 -0.1427  0.2392
  312TMC3    C3 4690   0.503   1.296  12.572  0.1289 -0.6368  0.1502
  312TMC3    C4 4691   0.675   1.300  12.777  0.2197  0.5131 -0.0493
  312TMC3    C5 4692   0.548   1.265  12.799 -0.0454  0.2556  0.5639
  312TMC3    C6 4693   0.459   1.266  12.695 -0.3328  0.5977  0.0935
  312TMC3     C 4694   0.853   1.297  12.612 -0.0996 -0.1110  0.7241
  312TMC3     O 4695   0.864   1.251  12.500 -0.4786 -0.4646  0.0706
  312TMC3     H 4696   0.648   1.368  12.455 -0.7291  2.8123  1.3057
  312TMC3    H1 4697   0.752   1.274  12.849  0.0889 -0.7470 -0.3635
  312TMC3    H2 4698   0.352   1.257  12.715 -0.2981 -0.1047 -0.0283
  312TMC3    C7 4699   0.492   1.273  12.934  0.2050  0.3210 -0.2595
  312TMC3    C8 4700   0.413   1.314  12.457 -0.1519 -0.4369  0.0719
  312TMC3    O1 4701   0.371   1.281  12.937  0.4637 -0.5935  0.1641
  312TMC3    O2 4702   0.459   1.284  12.350  0.3042  0.0981  0.1118
  313MPD2     C 4703   1.552   0.338  10.524  0.0342 -0.3906 -0.8976
  313MPD2    C1 4704   1.428   0.319  10.467 -0.8762 -0.1429 -0.8020
  313MPD2    C2 4705   1.419   0.297  10.333 -0.3351  0.3015 -0.0353
  313MPD2    C3 4706   1.529   0.299  10.252  0.0601  0.5913  0.0832
  313MPD2    C4 4707   1.654   0.320  10.312 -0.0765 -0.1669 -0.2148
  313MPD2    C5 4708   1.663   0.339  10.445 -0.1334 -0.2090  0.4011
  313MPD2     H 4709   1.322   0.268  10.293  0.0351 -1.9293  0.6820
  313MPD2    H1 4710   1.750   0.312  10.262 -0.1169 -1.6093 -0.0651
  313MPD2    H2 4711   1.570   0.363  10.627  1.3223 -0.9765 -0.9762
  313MPD2    H3 4712   1.764   0.342  10.484  0.6611 -2.4434 -1.5245
  313MPD2     N 4713   1.532   0.279  10.112 -0.0239 -0.1535 -0.0254
  313MPD2    H5 4714   1.626   0.275  10.073 -0.0924 -0.6855 -0.1313
  313MPD2    N1 4715   1.309   0.319  10.537  0.3777  0.1358 -0.6815
  313MPD2    H7 4716   1.230   0.293  10.479 -0.2505 -2.2195  1.2338
  314TMC3    C1 4717   1.154   0.345  10.722 -0.9523 -1.0240  1.0649
  314TMC3    C2 4718   1.136   0.343  10.857 -0.9871 -0.4108 -0.0543
  314TMC3    C3 4719   1.009   0.336  10.911 -0.5258  0.3378 -0.1228
  314TMC3    C4 4720   1.047   0.348  10.637  0.6629  0.4596 -0.8445
  314TMC3    C5 4721   0.924   0.350  10.701 -0.2465 -0.0680 -0.0701
  314TMC3    C6 4722   0.898   0.338  10.835 -0.5306 -0.1001 -0.3268
  314TMC3     C 4723   1.293   0.351  10.671  0.5078 -0.2750  0.5061
  314TMC3     O 4724   1.381   0.377  10.757 -0.5640 -0.2893  0.5618
  314TMC3     H 4725   1.225   0.338  10.920 -0.4435 -2.9428 -0.9991
  314TMC3    H1 4726   1.052   0.338  10.530  0.6289 -1.3437 -0.6909
  314TMC3    H2 4727   0.801   0.351  10.882 -0.9925 -2.8450 -0.4829
  314TMC3    C7 4728   0.814   0.398  10.618 -0.1934 -0.3283  0.7846
  314TMC3    C8 4729   0.995   0.402  11.037 -0.4355 -0.5939 -0.7127
  314TMC3    O1 4730   0.704   0.372  10.654  0.1713  0.1411  0.0014
  314TMC3    O2 4731   0.889   0.394  11.095 -0.1012  0.0951  0.2713
  315MPD2     C 4732   0.016   0.291   0.197  0.0980 -0.0114 -0.9776
  315MPD2    C1 4733   0.116   0.288   0.299  0.2723  0.7972  0.0291
  315MPD2    C2 4734   0.230   0.357   0.268 -0.1415  0.2650 -0.3058
  315MPD2    C3 4735   0.252   0.424   0.151  0.2614 -0.4475  0.0720
  315MPD2    C4 4736   0.151   0.429   0.061  0.0011 -1.2090  0.3089
  315MPD2    C5 4737   0.032   0.365   0.082 -0.3284 -0.4701  0.3150
  315MPD2     H 4738   0.312   0.351   0.339  0.3043 -1.8532 -1.0006
  315MPD2    H1 4739   0.145   0.489  17.662 -0.4053 -1.7564 -0.0342
  315MPD2    H2 4740   4.650   0.233   0.222 -0.0767  0.9333  0.6634
  315MPD2    H3 4741   4.679   0.377   0.004 -1.2632 -2.8877  0.8565
  315MPD2     N 4742   0.370   0.492   0.131  0.5175  0.4889 -0.0228
  315MPD2    H5 4743   0.437   0.501   0.206  1.3045 -1.1684 -0.5224
  315MPD2    N1 4744   0.110   0.230   0.427  0.7073  0.3333  0.0161
  315MPD2    H7 4745   0.188   0.233   0.492 -0.0143 -0.5429  0.9325
  316TMC3    C1 4746   0.521   0.640   0.034  0.3098 -0.3053 -0.4921
  316TMC3    C2 4747   0.614   0.575   0.108 -0.3851  0.3171  0.4716
  316TMC3    C3 4748   0.747   0.607   0.084 -0.0490 -0.4806 -0.3776
  316TMC3    C4 4749   0.557   0.725  17.618 -0.0511 -0.2106  0.0014
  316TMC3    C5 4750   0.688   0.758  17.599 -0.1715  0.1861  0.7271
  316TMC3    C6 4751   0.781   0.698  17.682 -0.4023  0.5964 -0.1918
  316TMC3     C 4752   0.391   0.585   0.028  0.8015  0.0160 -0.1662
  316TMC3     O 4753   0.325   0.612  17.619 -0.3084  0.2151 -1.0649
  316TMC3     H 4754   0.588   0.516   0.195  0.3381  0.6887  0.9354
  316TMC3    H1 4755   0.474   0.779  17.573 -0.3633 -0.8925 -0.2433
  316TMC3    H2 4756   0.886   0.708  17.657 -0.1373 -0.8084  0.3929
  316TMC3    C7 4757   0.730   0.798  17.465 -0.0257 -0.1759  0.7338
  316TMC3    C8 4758   0.859   0.545   0.161  0.0120 -0.2792  0.4558
  316TMC3    O1 4759   0.853   0.810  17.452 -0.0275 -0.4342  0.4624
  316TMC3    O2 4760   0.966   0.601   0.154 -0.1991  0.2821 -0.4210
  317MPD2     C 4761   2.248   3.246  12.840  0.3472  0.5670  0.4052
  317MPD2    C1 4762   2.279   3.119  12.799 -0.6672  0.3357  0.0408
  317MPD2    C2 4763   2.378   3.056  12.869 -0.6281 -0.0443  0.6371
  317MPD2    C3 4764   2.454   3.106  12.972 -0.5593  0.0955  0.8331
  317MPD2    C4 4765   2.416   3.231  13.018  0.2735  0.2937  0.4220
  317MPD2    C5 4766   2.320   3.297  12.952 -0.3352  0.2802  0.1076
  317MPD2     H 4767   2.421   2.965  12.829 -0.8511 -0.3328  1.0542
  317MPD2    H1 4768   2.469   3.284  13.096  2.3023  1.1785 -1.5337
  317MPD2    H2 4769   2.189   3.317  12.782 -1.3988 -2.5522 -1.6368
  317MPD2    H3 4770   2.309   3.401  12.979  0.2249  0.2806  0.3273
  317MPD2     N 4771   2.563   3.032  13.023  0.0657  0.7449  0.0860
  317MPD2    H5 4772   2.587   2.942  12.982 -0.2483 -0.0020  1.5477
  317MPD2    N1 4773   2.219   3.049  12.691 -0.5567 -0.3558  0.2500
  317MPD2    H7 4774   2.259   2.957  12.674 -1.4667 -0.5128 -1.0179
  318TMC3    C1 4775   2.765   2.976  13.140  0.0216 -0.7267 -0.0455
  318TMC3    C2 4776   2.738   2.842  13.122 -0.0466 -0.4672 -0.5142
  318TMC3    C3 4777   2.811   2.757  13.198  0.2049 -0.3602  0.8562
  318TMC3    C4 4778   2.857   3.026  13.226 -0.1554  0.1492  0.5507
  318TMC3    C5 4779   2.947   2.939  13.282  0.3427  0.3737 -0.2742
  318TMC3    C6 4780   2.918   2.804  13.272  0.3067 -0.1077  0.4257
  318TMC3     C 4781   2.659   3.076  13.109  0.2930 -0.0318 -0.5105
  318TMC3     O 4782   2.650   3.179  13.178 -0.1797 -0.8094  0.2422
  318TMC3     H 4783   2.660   2.803  13.059 -1.3691 -0.4064  1.0925
  318TMC3    H1 4784   2.864   3.132  13.246 -1.6335  0.3774 -0.1335
  318TMC3    H2 4785   2.974   2.728  13.324 -3.0657 -3.4406 -0.8694
  318TMC3    C7 4786   3.050   2.996  13.361 -0.0615 -0.0845 -0.5661
  318TMC3    C8 4787   2.778   2.617  13.218  0.2526 -0.1001  0.0322
  318TMC3    O1 4788   3.040   3.109  13.407 -0.3182  0.1282 -0.6067
  318TMC3    O2 4789   2.859   2.543  13.271  0.1827  0.0298  0.4165
  319MPD2     C 4790   3.173   4.425  16.847 -0.2442 -0.5520 -0.0903
  319MPD2    C1 4791   3.057   4.413  16.919  0.4796  0.2768  0.6476
  319MPD2    C2 4792   2.933   4.416  16.860 -0.1692 -0.3269 -0.1890
  319MPD2    C3 4793   2.924   4.438  16.721 -0.1577  0.9920 -0.1666
  319MPD2    C4 4794   3.041   4.472  16.653 -0.6296  0.1322  0.3981
  319MPD2    C5 4795   3.158   4.455  16.719  0.1512 -0.3454  1.2050
  319MPD2     H 4796   2.843   4.402  16.918 -1.3930  0.5016 -1.8764
  319MPD2    H1 4797   3.048   4.503  16.550 -1.4885  0.1524  0.3470
  319MPD2    H2 4798   3.274   4.421  16.886  0.1716  1.3349 -0.9715
  319MPD2    H3 4799   3.241   4.477  16.652  0.0124  0.0986  1.1793
  319MPD2     N 4800   2.807   4.445  16.650  0.1564 -0.2396 -0.0520
  319MPD2    H5 4801   2.824   4.454  16.551 -2.0530  0.3373 -0.3871
  319MPD2    N1 4802   3.066   4.394  17.058 -0.3977 -0.1341 -0.3108
  319MPD2    H7 4803   2.982   4.410  17.113 -0.4626 -0.6022 -0.2737
  320TMC3    C1 4804   2.585   4.444  16.584 -0.1140  0.0257  1.2790
  320TMC3    C2 4805   2.629   4.526  16.488 -0.2525 -0.7741  0.5190
  320TMC3    C3 4806   2.620   4.482  16.364  0.8790 -0.9481  0.2416
  320TMC3    C4 4807   2.515   4.327  16.567 -0.4573  0.1485 -0.1349
  320TMC3    C5 4808   2.504   4.291  16.438  0.3331 -0.4621  0.1846
  320TMC3    C6 4809   2.558   4.362  16.336  0.0479 -0.0161 -0.0065
  320TMC3     C 4810   2.679   4.429  16.695  0.6809 -1.0601 -0.1208
  320TMC3     O 4811   2.641   4.382  16.802 -0.4427 -0.3382  0.2899
  320TMC3     H 4812   2.697   4.607  16.510 -1.0661 -0.4121  1.7248
  320TMC3    H1 4813   2.467   4.279  16.651 -2.9249  0.4993 -1.3534
  320TMC3    H2 4814   2.536   4.323  16.237  0.1239  0.2757 -0.1420
  320TMC3    C7 4815   2.472   4.157  16.410 -0.1452  0.7640  0.0894
  320TMC3    C8 4816   2.674   4.565  16.266 -0.6667  0.1560  0.1853
  320TMC3    O1 4817   2.435   4.119  16.302  0.2981 -0.1119 -0.1157
  320TMC3    O2 4818   2.702   4.680  16.293  0.3423  0.6303  0.5657
  321TMC3    C1 4819   3.166   4.353  17.278  0.0498  0.5113 -0.5003
  321TMC3    C2 4820   3.072   4.430  17.335 -0.0441 -0.0274 -0.0569
  321TMC3    C3 4821   3.059   4.412  17.472  0.1655 -0.6435 -0.2791
  321TMC3    C4 4822   3.238   4.256  17.355 -0.3828  0.1206  0.4008
  321TMC3    C5 4823   3.242   4.258  17.490 -0.3933  0.1482 -0.2477
  321TMC3    C6 4824   3.153   4.350  17.553 -0.6394 -0.0608 -0.6886
  321TMC3     C 4825   3.178   4.346  17.126  0.2911 -0.5000  0.4362
  321TMC3     O 4826   3.277   4.295  17.078 -0.8174  0.1768  0.3387
  321TMC3     H 4827   2.996   4.482  17.278 -0.9010  0.1992  1.2929
  321TMC3    H1 4828   3.289   4.175  17.304  2.0816  0.8761  1.6828
  321TMC3    H2 4829   3.140   4.339  17.660  2.6608  0.6265 -0.2199
  321TMC3    C7 4830   3.249   4.124  17.556 -0.1098 -0.8881  0.2352
  321TMC3    C8 4831   2.920   4.398  17.509 -0.5180 -0.4651  0.5904
  321TMC3    O1 4832   3.169   4.110  17.645 -0.0962  0.0890 -0.3591
  321TMC3    O2 4833   2.842   4.464  17.446  0.4879 -0.2946  0.1931
  322MPD2     C 4834   1.984   1.244  13.681  0.1304 -0.0570 -0.0179
  322MPD2    C1 4835   2.028   1.194  13.800  0.1625 -0.8050  0.4146
  322MPD2    C2 4836   2.047   1.058  13.807  0.0954 -0.8026  0.3213
  322MPD2    C3 4837   2.039   0.975  13.700 -1.1462 -0.1352  0.3873
  322MPD2    C4 4838   2.000   1.020  13.579 -0.3198  0.5135 -0.0376
  322MPD2    C5 4839   1.973   1.155  13.575  0.1878 -0.1782 -0.7286
  322MPD2     H 4840   2.071   1.014  13.903  0.0552  0.4304  0.8967
  322MPD2    H1 4841   1.981   0.955  13.495 -0.9655 -1.0927  1.3351
  322MPD2    H2 4842   1.943   1.344  13.673 -0.6776 -0.4099 -0.2082
  322MPD2    H3 4843   1.944   1.185  13.475 -0.9132 -0.3515 -0.4626
  322MPD2     N 4844   2.085   0.840  13.714 -0.1962  0.1763  1.2698
  322MPD2    H5 4845   2.121   0.822  13.807 -0.5120  1.4057  1.6324
  322MPD2    N1 4846   2.067   1.278  13.903  0.1071  0.3653 -0.4015
  322MPD2    H7 4847   2.084   1.375  13.880  0.1808  0.5390  0.4076
  323TMC3    C1 4848   2.169   1.337  14.099 -0.0821  0.2899  0.1260
  323TMC3    C2 4849   2.272   1.387  14.030 -0.2017 -0.3572 -0.7788
  323TMC3    C3 4850   2.382   1.423  14.104  0.4124 -0.7495  1.1081
  323TMC3    C4 4851   2.167   1.312  14.235  0.2126  0.4861  0.1367
  323TMC3    C5 4852   2.282   1.352  14.304 -0.1831 -0.3065 -0.1973
  323TMC3    C6 4853   2.392   1.405  14.242 -0.1549  0.6097 -0.4180
  323TMC3     C 4854   2.094   1.238  14.029  0.4660 -0.1110  0.3051
  323TMC3     O 4855   2.069   1.133  14.081 -0.6171 -0.4085 -0.2236
  323TMC3     H 4856   2.270   1.403  13.923  1.3413  1.5050 -0.5379
  323TMC3    H1 4857   2.086   1.262  14.285 -1.2247 -0.1907 -2.8685
  323TMC3    H2 4858   2.478   1.444  14.294 -1.4977  0.5443  1.8391
  323TMC3    C7 4859   2.310   1.286  14.435 -0.0304 -0.2914  0.1959
  323TMC3    C8 4860   2.508   1.454  14.044  0.0640 -0.1964  0.9002
  323TMC3    O1 4861   2.430   1.257  14.452  0.0988 -0.1413  0.2251
  323TMC3    O2 4862   2.606   1.451  14.119  0.1604  0.0998  0.6110
  324MPD2     C 4863   3.842   2.079  14.473 -0.2510 -0.1018  1.0231
  324MPD2    C1 4864   3.849   2.142  14.351  0.4924 -0.0588 -0.3714
  324MPD2    C2 4865   3.765   2.249  14.322 -0.0461  0.7135 -0.7277
  324MPD2    C3 4866   3.666   2.286  14.414  0.2044 -0.6775 -0.4462
  324MPD2    C4 4867   3.663   2.226  14.537  0.3561 -0.3701 -0.2323
  324MPD2    C5 4868   3.748   2.118  14.567 -0.1102  0.5949  0.1970
  324MPD2     H 4869   3.764   2.296  14.224  0.2295 -1.9087 -1.9791
  324MPD2    H1 4870   3.584   2.239  14.610  1.0919 -0.0328  0.4944
  324MPD2    H2 4871   3.909   1.995  14.490 -1.3382 -1.4919 -1.6361
  324MPD2    H3 4872   3.744   2.077  14.667  0.2222 -1.2159 -0.5314
  324MPD2     N 4873   3.564   2.384  14.383 -0.5714 -0.1776  0.0437
  324MPD2    H5 4874   3.479   2.387  14.439  0.0631 -0.7892  1.0427
  324MPD2    N1 4875   3.931   2.103  14.246 -0.1846  0.4848 -0.9269
  324MPD2    H7 4876   3.928   2.159  14.161  2.8172  0.0681 -1.3303
  325TMC3    C1 4877   3.441   2.542  14.263  0.3923 -0.3116  0.0426
  325TMC3    C2 4878   3.320   2.476  14.265  0.5957  0.1164  0.0787
  325TMC3    C3 4879   3.221   2.531  14.199  0.3208 -0.0490  0.4252
  325TMC3    C4 4880   3.456   2.665  14.196 -0.0611  1.2558  0.4871
  325TMC3    C5 4881   3.349   2.722  14.142  0.2005 -0.3495  0.0132
  325TMC3    C6 4882   3.230   2.656  14.138 -0.2732  0.5864 -0.3654
  325TMC3     C 4883   3.573   2.483  14.285 -0.2093  0.7032 -0.4463
  325TMC3     O 4884   3.670   2.522  14.224 -0.2798  0.0676 -0.0557
  325TMC3     H 4885   3.314   2.374  14.300  4.9750 -0.2176 -0.0321
  325TMC3    H1 4886   3.545   2.727  14.194 -0.9577  2.5368 -0.3845
  325TMC3    H2 4887   3.149   2.688  14.074 -0.7582 -0.3308 -0.2093
  325TMC3    C7 4888   3.345   2.868  14.165  0.1653  0.6893 -0.6832
  325TMC3    C8 4889   3.162   2.422  14.116 -0.1098 -0.2097 -0.5839
  325TMC3    O1 4890   3.449   2.930  14.186 -0.0302 -0.2586 -0.7293
  325TMC3    O2 4891   3.227   2.320  14.110  0.2381 -0.5657 -0.1247
  326MPD2     C 4892   0.682   2.850  11.366  0.1211  0.0940  0.0830
  326MPD2    C1 4893   0.769   2.824  11.265 -0.1407 -0.2617 -0.1919
  326MPD2    C2 4894   0.905   2.831  11.284 -0.1263 -0.8980  0.2976
  326MPD2    C3 4895   0.964   2.866  11.402 -0.1174 -0.1261  0.1803
  326MPD2    C4 4896   0.876   2.918  11.497 -0.1252  0.4153 -0.2631
  326MPD2    C5 4897   0.738   2.905  11.476  0.3493 -0.0331  0.5321
  326MPD2     H 4898   0.971   2.800  11.204 -0.8897 -1.9301  0.0741
  326MPD2    H1 4899   0.921   2.949  11.590  0.2401  1.1603 -0.6863
  326MPD2    H2 4900   0.575   2.844  11.355  0.1704  0.3442 -0.5173
  326MPD2    H3 4901   0.673   2.933  11.558 -1.0501 -0.8808 -0.2640
  326MPD2     N 4902   1.100   2.865  11.432  0.8014 -0.5121  0.3268
  326MPD2    H5 4903   1.133   2.909  11.517  0.7926  0.4140 -0.1527
  326MPD2    N1 4904   0.728   2.790  11.141  0.1174  0.3401 -0.1813
  326MPD2    H7 4905   0.806   2.766  11.081  0.7127  0.9231  0.3615
  327TMC3    C1 4906   0.608   2.772  10.946  0.3335 -0.8448 -0.3784
  327TMC3    C2 4907   0.548   2.865  10.863 -0.0071  0.8627 -0.5888
  327TMC3    C3 4908   0.577   2.855  10.730  0.2560 -0.0424 -0.2443
  327TMC3    C4 4909   0.702   2.677  10.908  0.2148 -0.2682 -0.5400
  327TMC3    C5 4910   0.736   2.686  10.776  0.1738  0.4272 -0.1922
  327TMC3    C6 4911   0.674   2.767  10.685  0.3317  1.1332  0.2669
  327TMC3     C 4912   0.601   2.799  11.089  0.4663  0.3354  0.3519
  327TMC3     O 4913   0.513   2.869  11.132  0.7078  0.3897 -0.3961
  327TMC3     H 4914   0.477   2.939  10.900  0.2140  1.0088 -0.4592
  327TMC3    H1 4915   0.729   2.597  10.976 -2.5089  1.1161  2.1505
  327TMC3    H2 4916   0.712   2.760  10.583  1.7327  0.6218  0.8177
  327TMC3    C7 4917   0.865   2.630  10.735 -0.2442  0.1356  0.4040
  327TMC3    C8 4918   0.518   2.947  10.627  0.3450  0.1828 -0.7471
  327TMC3    O1 4919   0.914   2.685  10.634  0.0162  0.1164 -0.3496
  327TMC3    O2 4920   0.570   2.949  10.517 -0.3946 -0.2522  0.2890
  328MPD2     C 4921   2.564   3.865  17.398 -0.2788  0.3245  0.1272
  328MPD2    C1 4922   2.447   3.800  17.386  0.0012 -0.3058 -0.3819
  328MPD2    C2 4923   2.391   3.777  17.258 -0.0220 -0.0535 -0.0921
  328MPD2    C3 4924   2.449   3.833  17.151  0.7721 -0.5285 -0.4712
  328MPD2    C4 4925   2.562   3.915  17.165  0.2665  0.3288  0.3503
  328MPD2    C5 4926   2.618   3.926  17.291  0.3944  0.1146 -0.3845
  328MPD2     H 4927   2.299   3.721  17.247  0.5487 -0.9028 -0.6047
  328MPD2    H1 4928   2.609   3.955  17.076 -0.4881  0.1644 -0.1258
  328MPD2    H2 4929   2.604   3.885  17.497  1.7805  0.4179 -0.7121
  328MPD2    H3 4930   2.716   3.971  17.302  1.1058 -1.1748 -1.3813
  328MPD2     N 4931   2.395   3.833  17.018  0.3119 -0.7177 -0.3885
  328MPD2    H5 4932   2.446   3.900  16.962 -1.8057  0.4958 -0.8942
  328MPD2    N1 4933   2.397   3.753  17.503 -0.4680  0.6195 -0.7427
  328MPD2    H7 4934   2.447   3.763  17.590 -1.1426  1.7498 -0.4819
  329TMC3    C1 4935   2.236   3.690  17.659 -0.1992  0.4549 -0.3189
  329TMC3    C2 4936   2.255   3.796   0.057  0.9300 -0.1280 -1.0212
  329TMC3    C3 4937   2.203   3.776   0.189 -0.5473  0.1238  0.3078
  329TMC3    C4 4938   2.193   3.569   0.006  0.6295  0.2467 -0.6674
  329TMC3    C5 4939   2.149   3.556   0.135  0.5739 -0.1149  0.6835
  329TMC3    C6 4940   2.153   3.654   0.222 -0.1109  0.4492  0.7667
  329TMC3     C 4941   2.282   3.690  17.521 -0.2312 -0.0171 -0.1287
  329TMC3     O 4942   2.212   3.634  17.441 -0.6541  0.7482  0.0321
  329TMC3     H 4943   2.286   3.894   0.022 -0.3294  0.7688  0.3766
  329TMC3    H1 4944   2.182   3.490  17.624  0.4918  0.2974 -0.7015
  329TMC3    H2 4945   2.088   3.635   0.308 -0.8459 -0.8791 -0.0781
  329TMC3    C7 4946   2.120   3.423   0.176  0.1909 -0.2141  0.5461
  329TMC3    C8 4947   2.170   3.887   0.275 -1.0111  0.6442  0.5198
  329TMC3    O1 4948   2.063   3.359   0.096 -0.0323  0.0630 -0.9750
  329TMC3    O2 4949   2.208   3.999   0.244  0.1508  0.2137 -0.5962
  330TMC3    C1 4950   0.725   2.191   9.501 -0.4491 -0.3288 -0.6668
  330TMC3    C2 4951   0.813   2.110   9.424  1.0969 -0.1653  0.2587
  330TMC3    C3 4952   0.911   2.166   9.346 -0.4448 -0.4768  0.7805
  330TMC3    C4 4953   0.735   2.325   9.502 -0.2534 -0.3449 -0.9421
  330TMC3    C5 4954   0.846   2.369   9.430  0.0014  0.5792 -0.8561
  330TMC3    C6 4955   0.939   2.297   9.354  0.0461  0.0791 -0.0557
  330TMC3     C 4956   0.638   2.122   9.591  0.0406 -0.9443 -0.2774
  330TMC3     O 4957   0.642   1.999   9.585  0.3268 -0.1679 -0.1677
  330TMC3     H 4958   0.798   2.003   9.422 -2.1353  0.2812 -0.0524
  330TMC3    H1 4959   0.669   2.396   9.551 -0.6562 -1.4800  0.1581
  330TMC3    H2 4960   1.028   2.338   9.309  0.2698 -0.3573 -0.0061
  330TMC3    C7 4961   0.866   2.514   9.436 -0.0056 -0.3245  0.2027
  330TMC3    C8 4962   0.960   2.086   9.243 -0.2385 -0.0466  0.6831
  330TMC3    O1 4963   0.818   2.565   9.536 -0.3772 -0.5262  0.0660
  330TMC3    O2 4964   1.080   2.107   9.215 -0.2099 -0.0928 -0.1161
  331MPD2     C 4965   3.157   1.174  11.876  0.6165  0.5693 -0.6968
  331MPD2    C1 4966   3.252   1.243  11.815 -0.8854 -0.1898 -0.0820
  331MPD2    C2 4967   3.363   1.170  11.777 -0.6316  0.7463  0.3451
  331MPD2    C3 4968   3.372   1.036  11.788  0.0839 -0.8494 -0.5870
  331MPD2    C4 4969   3.274   0.969  11.845  0.4841 -0.2430  0.0668
  331MPD2    C5 4970   3.166   1.040  11.900  0.0224 -0.3392  0.0202
  331MPD2     H 4971   3.448   1.218  11.731 -0.4538 -0.8900 -1.0453
  331MPD2    H1 4972   3.279   0.861  11.854  0.1090 -0.2341  0.3952
  331MPD2    H2 4973   3.072   1.225  11.921 -0.5806 -1.1106 -1.0546
  331MPD2    H3 4974   3.089   0.986  11.954  0.3948 -0.4169  0.4746
  331MPD2     N 4975   3.488   0.980  11.734  0.3913  0.1813 -0.0884
  331MPD2    H5 4976   3.546   1.047  11.684  0.0756  0.0096 -0.6858
  331MPD2    N1 4977   3.239   1.381  11.777 -0.5092 -0.3555 -0.0017
  331MPD2    H7 4978   3.163   1.432  11.821 -1.1060 -0.8874 -0.4163
  332TMC3    C1 4979   3.648   0.827  11.672 -0.5822 -0.5091  0.1844
  332TMC3    C2 4980   3.656   0.881  11.549 -0.0809 -0.2128  0.0688
  332TMC3    C3 4981   3.756   0.839  11.462  0.4480 -0.7058  0.2394
  332TMC3    C4 4982   3.722   0.716  11.709 -0.1914  0.1392  0.3184
  332TMC3    C5 4983   3.820   0.676  11.626  0.4311 -0.0765 -0.0046
  332TMC3    C6 4984   3.842   0.735  11.501  0.3123 -0.2371  0.0582
  332TMC3     C 4985   3.527   0.846  11.736  0.8236  0.5286  0.7193
  332TMC3     O 4986   3.488   0.757  11.807  0.4243 -0.0011  0.0683
  332TMC3     H 4987   3.572   0.945  11.522 -0.9789 -1.4535 -0.0749
  332TMC3    H1 4988   3.724   0.689  11.814 -1.6196 -0.6872  0.1310
  332TMC3    H2 4989   3.901   0.684  11.426  1.0617 -0.8664  1.0822
  332TMC3    C7 4990   3.924   0.617  11.702  0.4526 -0.4299 -0.3042
  332TMC3    C8 4991   3.815   0.950  11.386  0.5058  0.0929  0.7812
  332TMC3    O1 4992   3.890   0.541  11.792 -0.2557 -0.3977 -0.4504
  332TMC3    O2 4993   3.782   1.062  11.426  0.0459 -0.7004 -0.0674
  333MPD2     C 4994   4.188   0.712  10.779  0.3144  0.1656  0.3087
  333MPD2    C1 4995   4.254   0.639  10.687  0.5875 -0.5211 -0.2359
  333MPD2    C2 4996   4.263   0.501  10.706 -0.5684 -0.1169 -0.1670
  333MPD2    C3 4997   4.192   0.439  10.811  1.0634  0.3372  0.1119
  333MPD2    C4 4998   4.142   0.518  10.907 -0.4425  0.7409 -0.0318
  333MPD2    C5 4999   4.141   0.656  10.893  0.6651 -0.1572 -0.3383
  333MPD2     H 5000   4.330   0.443  10.644 -1.1497  1.2216 -2.0701
  333MPD2    H1 5001   4.103   0.479  11.001 -0.5371  0.0895 -0.3449
  333MPD2    H2 5002   4.180   0.820  10.773  1.6935  0.3459  1.7024
  333MPD2    H3 5003   4.092   0.729  10.956  1.3207 -0.8505  0.9679
  333MPD2     N 5004   4.185   0.296  10.824  0.1304 -0.5137 -0.1773
  333MPD2    H5 5005   4.236   0.238  10.758  1.4566 -0.0878  0.4910
  333MPD2    N1 5006   4.313   0.711  10.586 -0.1311 -0.1223  0.3878
  333MPD2    H7 5007   4.298   0.811  10.594  0.9186  0.0729 -0.0830
  334TMC3    C1 5008   4.440   0.760  10.383  0.0507  0.0113 -0.4899
  334TMC3    C2 5009   4.566   0.744  10.329  0.3407 -0.1251  0.4921
  334TMC3    C3 5010   4.613   0.850  10.262  0.4899 -0.4106 -0.2139
  334TMC3    C4 5011   4.367   0.874  10.370 -0.6491  0.2003  0.8815
  334TMC3    C5 5012   4.424   0.978  10.302  0.3567  0.3132 -0.3727
  334TMC3    C6 5013   4.547   0.971  10.247  0.3729 -0.0670 -0.9300
  334TMC3     C 5014   4.401   0.664  10.489 -0.3693  0.6085 -0.8503
  334TMC3     O 5015   4.437   0.547  10.476 -0.3938  0.1555  0.0031
  334TMC3     H 5016   4.618   0.650  10.340  0.6831  0.1009  0.7948
  334TMC3    H1 5017   4.268   0.890  10.412 -0.3523 -0.0567  1.6752
  334TMC3    H2 5018   4.577   1.057  10.189 -0.9624  0.2729 -1.1169
  334TMC3    C7 5019   4.329   1.075  10.259  0.0685  0.2305  0.3792
  334TMC3    C8 5020   0.015   0.814  10.194 -0.2617 -0.2804 -0.3276
  334TMC3    O1 5021   4.220   1.030  10.224 -0.4436 -0.2502  0.0842
  334TMC3    O2 5022   0.054   0.695  10.185 -0.5436 -0.9072  0.3479
  335TMC3    C1 5023   2.765   3.273  17.161 -1.2554  0.4936 -0.4052
  335TMC3    C2 5024   2.741   3.219  17.038 -0.4972 -0.2971  0.1919
  335TMC3    C3 5025   2.834   3.240  16.940 -0.7682  0.0547  0.8206
  335TMC3    C4 5026   2.887   3.331  17.192  0.0771  0.1735 -0.5730
  335TMC3    C5 5027   2.981   3.341  17.088 -0.7460 -0.4570  0.3610
  335TMC3    C6 5028   2.954   3.310  16.960  0.4859  0.4063 -0.1290
  335TMC3     C 5029   2.657   3.303  17.261 -0.7546  0.5728 -0.3398
  335TMC3     O 5030   2.688   3.358  17.369  0.2541  0.5890 -0.8528
  335TMC3     H 5031   2.651   3.161  17.021 -0.1204 -1.1034  0.9723
  335TMC3    H1 5032   2.908   3.382  17.286  2.3385 -3.0219  0.6423
  335TMC3    H2 5033   3.022   3.337  16.880 -0.6183 -0.3870 -1.3355
  335TMC3    C7 5034   3.116   3.373  17.124 -0.2653  0.7629 -0.4326
  335TMC3    C8 5035   2.832   3.139  16.833  0.4992  0.3938 -0.0323
  335TMC3    O1 5036   3.194   3.425  17.040  0.0898  0.0737  0.1316
  335TMC3    O2 5037   2.897   3.161  16.734 -0.1275  0.5102  0.1847
  336MPD2     C 5038   3.108   1.168  16.595  0.2012 -0.1990 -0.6627
  336MPD2    C1 5039   3.145   1.119  16.476  0.3839  0.0095 -0.2618
  336MPD2    C2 5040   3.176   0.986  16.463 -0.0715  0.6230 -0.2390
  336MPD2    C3 5041   3.169   0.905  16.574 -0.5914  0.6603 -0.4014
  336MPD2    C4 5042   3.126   0.954  16.697 -0.5180 -0.0866 -0.1904
  336MPD2    C5 5043   3.101   1.088  16.704  0.0390 -1.0524 -0.3357
  336MPD2     H 5044   3.212   0.945  16.369  1.7259 -1.6785  1.4805
  336MPD2    H1 5045   3.131   0.895  16.787 -1.5526  0.9198  0.5156
  336MPD2    H2 5046   3.077   1.271  16.600  0.1777 -0.1934 -0.9433
  336MPD2    H3 5047   3.091   1.133  16.802  1.5897  0.8657 -1.0746
  336MPD2     N 5048   3.215   0.770  16.573  0.4519  0.2070  0.1830
  336MPD2    H5 5049   3.223   0.730  16.666 -0.8262  1.5435  0.8532
  336MPD2    N1 5050   3.147   1.197  16.362  0.0566  0.2583 -0.0534
  336MPD2    H7 5051   3.192   1.156  16.280 -1.9762 -3.3154  0.6114
  337TMC3    C1 5052   3.129   1.370  16.213  0.2428  0.1844  0.0210
  337TMC3    C2 5053   3.021   1.434  16.161 -0.0032  0.2452  0.0891
  337TMC3    C3 5054   2.999   1.420  16.028 -0.3992 -0.1088 -0.0259
  337TMC3    C4 5055   3.215   1.293  16.138 -0.6278  0.7327  0.1195
  337TMC3    C5 5056   3.189   1.283  16.008  0.8020  0.4366 -0.1819
  337TMC3    C6 5057   3.083   1.347  15.947 -0.0558 -0.4578  0.5774
  337TMC3     C 5058   3.103   1.326  16.351  0.3587 -0.8330 -0.4306
  337TMC3     O 5059   3.021   1.393  16.418 -0.1712  0.1076 -0.4844
  337TMC3     H 5060   2.956   1.497  16.220  1.3753  1.6150  0.1532
  337TMC3    H1 5061   3.310   1.255  16.173 -0.8664  1.0950  1.1611
  337TMC3    H2 5062   3.053   1.317  15.847  1.1891  0.2683 -0.0164
  337TMC3    C7 5063   3.289   1.210  15.929 -0.5425 -0.4290  0.1226
  337TMC3    C8 5064   2.891   1.494  15.970  0.0781 -0.1344  0.5019
  337TMC3    O1 5065   3.366   1.136  15.990  0.3484 -0.5410  0.2417
  337TMC3    O2 5066   2.864   1.591  16.039 -0.0738 -0.2053 -0.8916
  338MPD2     C 5067   2.642   0.129   0.917  0.2147 -0.1337 -0.3160
  338MPD2    C1 5068   2.676   0.219   0.816 -0.0389  0.0604  0.2339
  338MPD2    C2 5069   2.601   0.333   0.810 -0.1411 -0.0193 -0.9672
  338MPD2    C3 5070   2.486   0.350   0.884 -0.0321 -0.3774 -0.1325
  338MPD2    C4 5071   2.452   0.253   0.981  0.1894 -0.3873 -0.3673
  338MPD2    C5 5072   2.528   0.141   0.994 -0.0059  0.1585 -0.8684
  338MPD2     H 5073   2.630   0.409   0.738 -0.9790  0.5609 -0.6991
  338MPD2    H1 5074   2.364   0.262   1.044  1.4973 -0.9515  1.5216
  338MPD2    H2 5075   2.704   0.042   0.935 -0.6190 -0.8603 -1.0136
  338MPD2    H3 5076   2.513   0.068   1.074  0.4230  1.0599  0.0351
  338MPD2     N 5077   2.406   0.466   0.861  1.4112 -0.5540  0.0522
  338MPD2    H5 5078   2.437   0.537   0.797 -0.5908 -0.5094 -0.8637
  338MPD2    N1 5079   2.779   0.198   0.720 -0.6803  0.2208 -0.0527
  338MPD2    H7 5080   2.778   0.255   0.636 -0.2350  2.0707  1.2209
  339TMC3    C1 5081   2.218   0.602   0.861 -0.7558  0.3130 -0.2477
  339TMC3    C2 5082   2.130   0.673   0.935  0.3685  0.8029  0.3642
  339TMC3    C3 5083   2.035   0.756   0.879  0.1460  0.0325 -0.6257
  339TMC3    C4 5084   2.229   0.606   0.724 -0.2783  0.1522  0.8516
  339TMC3    C5 5085   2.120   0.677   0.664 -0.8422  0.0820  0.1189
  339TMC3    C6 5086   2.033   0.761   0.739 -0.0864 -0.2611  0.4467
  339TMC3     C 5087   2.293   0.494   0.926 -0.3428  0.2637 -0.3029
  339TMC3     O 5088   2.245   0.443   1.026 -0.4632  0.0270 -0.4553
  339TMC3     H 5089   2.140   0.654   1.041  0.7885 -0.0550  0.1760
  339TMC3    H1 5090   2.312   0.579   0.661 -0.8423  1.9174 -0.6404
  339TMC3    H2 5091   1.968   0.833   0.691  0.7361  1.4904  1.9724
  339TMC3    C7 5092   2.108   0.694   0.522  0.0633  0.2130 -0.5955
  339TMC3    C8 5093   1.924   0.796   0.953 -0.6528  0.4514  0.3013
  339TMC3    O1 5094   2.067   0.804   0.486 -0.7553 -0.1965  0.0363
  339TMC3    O2 5095   1.825   0.829   0.890  0.2136 -0.4393  0.3103
  340MPD2     C 5096   4.406   2.649  10.661  0.3387  0.1149 -0.2919
  340MPD2    C1 5097   4.471   2.550  10.588  0.3324 -0.4452  0.5873
  340MPD2    C2 5098   4.605   2.583  10.551  0.5608  0.0361 -0.2908
  340MPD2    C3 5099   4.661   2.704  10.589 -0.0203 -0.3998 -0.6073
  340MPD2    C4 5100   4.595   2.798  10.656 -0.5155  0.3522 -1.2810
  340MPD2    C5 5101   4.466   2.765  10.692 -0.9350  0.4045 -0.8215
  340MPD2     H 5102   4.651   2.518  10.478 -2.0185 -0.6286 -1.3435
  340MPD2    H1 5103   4.639   2.893  10.681 -0.0870 -0.2639  0.3208
  340MPD2    H2 5104   4.309   2.634  10.707  2.0181  0.0231  3.2568
  340MPD2    H3 5105   4.401   2.841  10.735 -0.7050 -0.9836  2.0000
  340MPD2     N 5106   0.070   2.747  10.553  0.7271  0.7218 -0.5372
  340MPD2    H5 5107   0.093   2.841  10.583 -0.3961  0.8491 -0.0799
  340MPD2    N1 5108   4.396   2.434  10.551  0.1697  0.4307  1.0443
  340MPD2    H7 5109   4.297   2.442  10.568 -0.3097 -1.2172 -1.0961
  341TMC3    C1 5110   4.339   2.255  10.411  0.5404 -0.1035 -0.0323
  341TMC3    C2 5111   4.224   2.320  10.374 -1.0053 -0.3727 -1.3030
  341TMC3    C3 5112   4.148   2.253  10.278  0.6675 -0.2034  0.2962
  341TMC3    C4 5113   4.385   2.140  10.356  0.4646 -0.4486 -0.4564
  341TMC3    C5 5114   4.296   2.075  10.272 -1.2903  0.6463 -0.0456
  341TMC3    C6 5115   4.184   2.137  10.221 -0.0789 -0.4592 -0.4449
  341TMC3     C 5116   4.442   2.332  10.477 -0.2317  0.0342 -0.1617
  341TMC3     O 5117   4.553   2.300  10.440 -0.1923 -0.6387 -0.0192
  341TMC3     H 5118   4.201   2.421  10.403 -0.5784 -0.4719 -0.6321
  341TMC3    H1 5119   4.478   2.095  10.390  1.2588  1.4453 -0.0898
  341TMC3    H2 5120   4.111   2.081  10.163 -0.2395 -0.6441 -0.0672
  341TMC3    C7 5121   4.349   1.955  10.212  0.0616 -0.4117  0.4777
  341TMC3    C8 5122   4.007   2.292  10.263 -0.7274  0.2408  1.1148
  341TMC3    O1 5123   4.430   1.888  10.268 -0.3535  0.2028 -0.1023
  341TMC3    O2 5124   3.947   2.242  10.165  0.5730  1.2152  0.0701
  342MPD2     C 5125   1.053   1.415  17.418 -0.3176  0.6593  0.9906
  342MPD2    C1 5126   1.189   1.408  17.385  0.3785 -0.3183 -0.8127
  342MPD2    C2 5127   1.253   1.523  17.345 -0.3810  0.4885  0.8082
  342MPD2    C3 5128   1.186   1.649  17.345 -0.3683  0.2979 -0.7305
  342MPD2    C4 5129   1.051   1.649  17.370  0.0521 -0.2908 -0.1154
  342MPD2    C5 5130   0.987   1.531  17.403 -0.3566  0.1499  0.1121
  342MPD2     H 5131   1.353   1.508  17.306 -1.4878  1.6741 -2.4854
  342MPD2    H1 5132   0.992   1.739  17.359  0.7475  0.0342 -1.1779
  342MPD2    H2 5133   0.987   1.333  17.444  0.0100  0.8595  2.4567
  342MPD2    H3 5134   0.881   1.536  17.426 -0.2346  2.4324  0.2011
  342MPD2     N 5135   1.244   1.776  17.316 -0.1821 -0.7428  0.8916
  342MPD2    H5 5136   1.185   1.856  17.334 -1.1049 -1.0389 -0.7576
  342MPD2    N1 5137   1.257   1.287  17.386  0.4348  0.6443  0.0284
  342MPD2    H7 5138   1.350   1.281  17.346 -0.5755  2.1854 -2.5660
  343TMC3    C1 5139   1.311   1.059  17.406  0.1353 -0.1940 -0.1004
  343TMC3    C2 5140   1.438   1.089  17.449  0.6281  0.1300  0.8485
  343TMC3    C3 5141   1.516   0.984  17.490 -0.4160 -0.7485  0.2035
  343TMC3    C4 5142   1.263   0.935  17.409 -0.7800 -0.1904 -0.4411
  343TMC3    C5 5143   1.344   0.835  17.451 -0.7094 -0.2750 -0.1580
  343TMC3    C6 5144   1.474   0.855  17.488 -0.2797 -0.3202  0.0354
  343TMC3     C 5145   1.209   1.162  17.409  0.2725 -0.0790 -0.4652
  343TMC3     O 5146   1.095   1.125  17.427  0.1234 -0.0012  0.2015
  343TMC3     H 5147   1.475   1.190  17.457 -0.6107  0.7213 -0.9505
  343TMC3    H1 5148   1.162   0.905  17.381 -0.5449 -2.2890  0.9931
  343TMC3    H2 5149   1.537   0.773  17.520 -1.2897 -0.6930  1.0679
  343TMC3    C7 5150   1.287   0.707  17.433 -0.6903 -0.4537  0.0024
  343TMC3    C8 5151   1.660   1.019  17.482  0.4298  0.1891  0.9438
  343TMC3    O1 5152   1.218   0.692  17.335 -0.1113  0.4830  0.5180
  343TMC3    O2 5153   1.692   1.121  17.539 -0.6473  0.2158  0.6768
  344MPD2     C 5154   2.738   0.191   9.890  0.1097 -0.0853 -0.2234
  344MPD2    C1 5155   2.812   0.171  10.006  0.9058 -0.1746  0.0663
  344MPD2    C2 5156   2.925   0.257  10.024 -0.0842 -0.2747  0.0608
  344MPD2    C3 5157   2.967   0.356   9.937  0.1785 -0.7045  0.4011
  344MPD2    C4 5158   2.886   0.366   9.823 -0.2536  0.7589  0.0400
  344MPD2    C5 5159   2.777   0.286   9.803 -0.2256 -0.0443  0.1484
  344MPD2     H 5160   2.959   0.244  10.126 -1.7291 -1.5006  0.4667
  344MPD2    H1 5161   2.903   0.444   9.749 -1.2071 -0.5579 -1.5665
  344MPD2    H2 5162   2.646   0.141   9.863 -0.4736  1.1708 -0.5768
  344MPD2    H3 5163   2.719   0.294   9.712  1.0391 -0.2081 -0.6640
  344MPD2     N 5164   3.074   0.445   9.969  0.3107 -0.2422  0.2225
  344MPD2    H5 5165   3.098   0.503   9.889  1.2835 -0.7560  0.1412
  344MPD2    N1 5166   2.768   0.088  10.113 -0.1361 -0.0291 -0.5255
  344MPD2    H7 5167   2.827   0.083  10.196  1.5953  1.0831 -1.6927
  345TMC3    C1 5168   3.225   0.565  10.104 -0.2935 -0.2073 -0.4378
  345TMC3    C2 5169   3.256   0.595  10.238  0.3759  0.1047 -0.4845
  345TMC3    C3 5170   3.272   0.727  10.276 -0.1192 -0.0085  0.7627
  345TMC3    C4 5171   3.222   0.665  10.009 -0.0436 -0.5306 -0.0830
  345TMC3    C5 5172   3.240   0.793  10.051  0.5495  0.6090  0.0675
  345TMC3    C6 5173   3.286   0.815  10.173  0.3820 -0.1685  0.2612
  345TMC3     C 5174   3.151   0.440  10.083  0.3457 -0.3392 -0.6585
  345TMC3     O 5175   3.144   0.361  10.172  0.1495  0.1864 -0.0720
  345TMC3     H 5176   3.244   0.519  10.314  0.2624  1.2179  0.6079
  345TMC3    H1 5177   3.200   0.651   9.904  0.6361  2.1049 -0.5815
  345TMC3    H2 5178   3.310   0.915  10.209  1.3761 -0.9030  1.6653
  345TMC3    C7 5179   3.203   0.908   9.966 -0.8818  0.1298  0.8699
  345TMC3    C8 5180   3.296   0.766  10.417 -0.2185  0.1801 -0.4820
  345TMC3    O1 5181   3.226   1.018  10.015  0.2351 -0.2161 -0.0891
  345TMC3    O2 5182   3.311   0.674  10.492  0.0421 -0.0277 -0.8698
  346MPD2     C 5183   2.355   2.672  13.745 -0.6471  0.7021  0.4903
  346MPD2    C1 5184   2.489   2.693  13.792 -0.3729  0.6287 -0.5207
  346MPD2    C2 5185   2.497   2.794  13.888 -0.5760  0.2066 -0.6232
  346MPD2    C3 5186   2.389   2.870  13.934 -0.2677  0.8854  0.0091
  346MPD2    C4 5187   2.263   2.852  13.877  0.0792  0.6744 -0.4353
  346MPD2    C5 5188   2.252   2.751  13.789 -0.7172  0.0989 -0.0013
  346MPD2     H 5189   2.589   2.829  13.933  0.2135 -0.1550 -1.9568
  346MPD2    H1 5190   2.179   2.909  13.915  0.6031  3.9663 -4.1305
  346MPD2    H2 5191   2.328   2.594  13.675  2.3610  0.4008 -0.3446
  346MPD2    H3 5192   2.153   2.732  13.751 -0.8491  1.9510 -0.5567
  346MPD2     N 5193   2.407   2.959  14.037  0.6661 -0.2134  0.1964
  346MPD2    H5 5194   2.502   2.964  14.072  0.2642  0.5809  1.1644
  346MPD2    N1 5195   2.610   2.640  13.742 -0.1370 -0.0408  0.3915
  346MPD2    H7 5196   2.697   2.678  13.780 -0.7829  0.8929  0.9268
  347TMC3    C1 5197   2.414   3.160  14.148  0.4747 -0.6290 -0.5214
  347TMC3    C2 5198   2.547   3.167  14.117  0.1076 -0.1849  0.1736
  347TMC3    C3 5199   2.625   3.193  14.219 -0.4948 -0.1490 -0.3154
  347TMC3    C4 5200   2.361   3.209  14.267 -0.0784  0.1899  0.7931
  347TMC3    C5 5201   2.449   3.246  14.363 -1.0765  0.1724  0.6108
  347TMC3    C6 5202   2.581   3.245  14.337  0.2003 -0.2683  0.1713
  347TMC3     C 5203   2.331   3.071  14.073 -0.7191  0.4418 -0.0978
  347TMC3     O 5204   2.211   3.098  14.057  0.1484 -0.0303 -0.2326
  347TMC3     H 5205   2.582   3.145  14.017 -0.0393 -0.4399  0.1805
  347TMC3    H1 5206   2.253   3.199  14.276 -0.5333  0.3656 -4.4801
  347TMC3    H2 5207   2.654   3.261  14.415  0.4343  1.0359 -0.3126
  347TMC3    C7 5208   2.398   3.287  14.494  0.3484  0.1900  0.5333
  347TMC3    C8 5209   2.763   3.149  14.188  0.0169 -0.0123  0.9419
  347TMC3    O1 5210   2.488   3.329  14.570 -0.3482 -0.3289 -0.3056
  347TMC3    O2 5211   2.774   3.055  14.108 -0.1042  0.4627 -0.7073
  348MPD2     C 5212   1.352   1.990  12.189 -0.0511 -0.1823 -0.1155
  348MPD2    C1 5213   1.459   1.935  12.129  0.6077 -0.0430 -0.1202
  348MPD2    C2 5214   1.453   1.911  11.994  0.1641  0.6528 -0.0672
  348MPD2    C3 5215   1.350   1.954  11.915 -0.3348  0.0159 -0.7682
  348MPD2    C4 5216   1.242   2.003  11.975  0.1083  0.1741 -0.5062
  348MPD2    C5 5217   1.244   2.017  12.111 -0.0182  0.2762 -0.2049
  348MPD2     H 5218   1.548   1.880  11.952  0.0785  0.5808 -0.2101
  348MPD2    H1 5219   1.160   2.045  11.919 -0.5947 -1.1867 -0.4996
  348MPD2    H2 5220   1.357   2.005  12.297  0.1711 -1.6478  0.0809
  348MPD2    H3 5221   1.153   2.055  12.157 -0.7363 -0.0944 -1.3127
  348MPD2     N 5222   1.361   1.939  11.772  0.0047 -0.0922  0.2012
  348MPD2    H5 5223   1.447   1.902  11.733  0.5879  2.4139 -0.8998
  348MPD2    N1 5224   1.582   1.914  12.197 -0.5558 -0.6905  0.2255
  348MPD2    H7 5225   1.651   1.865  12.140 -0.6257 -1.6674  0.9842
  349TMC3    C1 5226   1.750   1.880  12.362  0.5819 -0.3558  0.1076
  349TMC3    C2 5227   1.748   1.782  12.457 -0.8783 -0.3934  0.4178
  349TMC3    C3 5228   1.851   1.685  12.449  0.4879  0.0186  0.6535
  349TMC3    C4 5229   1.850   1.878  12.266  0.9839  0.2984 -0.4142
  349TMC3    C5 5230   1.946   1.784  12.263 -0.0791  0.2644 -0.1241
  349TMC3    C6 5231   1.941   1.676  12.348 -0.4355 -0.4417 -0.2301
  349TMC3     C 5232   1.614   1.929  12.333  0.6113  0.3826  0.4992
  349TMC3     O 5233   1.551   1.964  12.429  0.2642  0.0333 -0.3496
  349TMC3     H 5234   1.658   1.765  12.514 -1.1951  1.3667  0.4597
  349TMC3    H1 5235   1.822   1.934  12.177  0.9732  2.2868  0.8355
  349TMC3    H2 5236   2.024   1.606  12.342  0.8512  1.0101  0.6490
  349TMC3    C7 5237   1.992   1.755  12.127  0.0493  0.6505  0.1291
  349TMC3    C8 5238   1.812   1.554  12.483  0.2897  0.5500  0.7416
  349TMC3    O1 5239   1.964   1.643  12.082 -0.1113 -0.3915 -0.5592
  349TMC3    O2 5240   1.743   1.538  12.585 -0.2977 -0.8319  0.3755
  350MPD2     C 5241   0.756   4.547   9.749  0.0091  0.0817 -0.6396
  350MPD2    C1 5242   0.863   4.461   9.766  0.4069  0.3820  0.2579
  350MPD2    C2 5243   0.994   4.511   9.765  0.0025 -0.2815 -0.8673
  350MPD2    C3 5244   1.014   4.646   9.749  0.4424  0.1463 -0.1211
  350MPD2    C4 5245   0.906   0.006   9.743 -0.3834  0.1266  0.6295
  350MPD2    C5 5246   0.778   4.674   9.742 -0.1607  0.2078 -0.2586
  350MPD2     H 5247   1.079   4.444   9.772 -0.4487 -0.5410  2.2449
  350MPD2    H1 5248   0.920   0.113   9.737 -0.0878  0.2104  2.8129
  350MPD2    H2 5249   0.651   4.524   9.762 -0.0309  1.5278  1.5427
  350MPD2    H3 5250   0.694   0.021   9.743 -0.0387  0.3518  1.2584
  350MPD2     N 5251   1.151   4.690   9.740 -0.1878  0.7908  0.0814
  350MPD2    H5 5252   1.223   4.627   9.775  0.0768 -0.5454 -2.8965
  350MPD2    N1 5253   0.841   4.320   9.797 -0.1946 -0.1289 -0.1217
  350MPD2    H7 5254   0.922   4.259   9.805 -0.8969 -0.9888  0.4025
  351TMC3    C1 5255   0.731   4.114   9.810 -0.0859  0.5493 -0.3875
  351TMC3    C2 5256   0.827   4.061   9.729 -0.2792  0.7641  0.6278
  351TMC3    C3 5257   0.816   3.930   9.699  0.3299 -0.5418 -0.2585
  351TMC3    C4 5258   0.634   4.045   9.868  0.0260 -0.0928  0.4216
  351TMC3    C5 5259   0.640   3.908   9.858 -0.5856  0.3117  0.6731
  351TMC3    C6 5260   0.732   3.847   9.766 -0.7931 -0.1548 -0.4579
  351TMC3     C 5261   0.720   4.270   9.816 -0.2450  0.2633 -0.3412
  351TMC3     O 5262   0.613   4.325   9.837 -0.0826 -0.5270 -0.2985
  351TMC3     H 5263   0.894   4.122   9.669 -0.3350  1.6394  1.4651
  351TMC3    H1 5264   0.555   4.088   9.928  1.6003  1.3979  1.4232
  351TMC3    H2 5265   0.740   3.740   9.751 -0.8051 -0.3097  0.6627
  351TMC3    C7 5266   0.513   3.836   9.887 -0.1713  0.2772 -0.2370
  351TMC3    C8 5267   0.937   3.878   9.644  0.6783 -0.0727  0.0580
  351TMC3    O1 5268   0.458   3.878   9.988  0.4792  0.2373  0.4734
  351TMC3    O2 5269   0.960   3.764   9.681 -0.2403 -0.0113  0.1112
  352MPD2     C 5270   2.496   2.102   1.305 -0.4176 -0.6148  0.3748
  352MPD2    C1 5271   2.517   2.082   1.173 -0.1560 -0.6695  0.1636
  352MPD2    C2 5272   2.599   1.983   1.132 -0.3614  0.2136 -0.5375
  352MPD2    C3 5273   2.661   1.900   1.226  0.4237 -0.1929 -0.2382
  352MPD2    C4 5274   2.632   1.920   1.361  0.4309  0.4342  0.2236
  352MPD2    C5 5275   2.552   2.022   1.395  0.8610 -0.2601 -0.1091
  352MPD2     H 5276   2.596   1.955   1.027  0.3463 -1.9701  0.0296
  352MPD2    H1 5277   2.667   1.855   1.440  2.0466  1.5488  0.4184
  352MPD2    H2 5278   2.425   2.172   1.349 -0.9368 -1.2760  0.5917
  352MPD2    H3 5279   2.527   2.036   1.499  1.0009  2.3231 -0.4315
  352MPD2     N 5280   2.748   1.788   1.202  0.0252 -0.3399 -0.1693
  352MPD2    H5 5281   2.759   1.722   1.278  1.3424  1.1727  0.9682
  352MPD2    N1 5282   2.442   2.162   1.085  0.3248  0.2329  0.7610
  352MPD2    H7 5283   2.375   2.225   1.126 -0.8724 -1.1429  0.9419
  353TMC3    C1 5284   2.907   1.657   1.081  0.3135  0.0473 -0.2700
  353TMC3    C2 5285   2.884   1.553   1.167  0.2938 -0.7587  0.0376
  353TMC3    C3 5286   2.924   1.430   1.138 -0.3978  0.0513 -0.2490
  353TMC3    C4 5287   2.981   1.636   0.969  0.0106  0.2056  0.8135
  353TMC3    C5 5288   3.033   1.516   0.945 -0.9993 -0.2419  0.7144
  353TMC3    C6 5289   3.007   1.410   1.027 -0.0408 -0.2123  0.2896
  353TMC3     C 5290   2.809   1.764   1.076 -0.2792 -0.1926 -1.4223
  353TMC3     O 5291   2.805   1.834   0.981 -0.4369 -0.2096  0.0376
  353TMC3     H 5292   2.799   1.556   1.234  1.1379  3.4039  0.9198
  353TMC3    H1 5293   3.018   1.713   0.902 -1.7135 -1.2235 -1.7319
  353TMC3    H2 5294   3.053   1.313   1.017 -0.2920 -0.3963  0.9494
  353TMC3    C7 5295   3.096   1.494   0.822 -0.6940 -0.3440 -0.2399
  353TMC3    C8 5296   2.873   1.322   1.216  0.1234  0.1070 -0.3588
  353TMC3    O1 5297   3.051   1.555   0.730 -0.0468 -0.0488 -0.6377
  353TMC3    O2 5298   2.812   1.346   1.319 -0.0418  0.5601 -0.2936
  354TMC3    C1 5299   0.584   3.250  13.728  0.0564 -0.2008  0.1151
  354TMC3    C2 5300   0.577   3.357  13.637  0.5101 -0.4197 -0.1746
  354TMC3    C3 5301   0.562   3.312  13.506  0.5900  0.0486 -0.2117
  354TMC3    C4 5302   0.584   3.118  13.697  0.2120 -0.9208 -0.0798
  354TMC3    C5 5303   0.586   3.087  13.565 -0.4232  0.2385 -0.3243
  354TMC3    C6 5304   0.554   3.182  13.468 -0.3541  0.9925  0.3046
  354TMC3     C 5305   0.566   3.265  13.868 -0.1076  0.1228  0.5287
  354TMC3     O 5306   0.532   3.157  13.917  0.6025  0.4098  0.4139
  354TMC3     H 5307   0.586   3.462  13.664 -1.5859 -0.3850  0.4036
  354TMC3    H1 5308   0.642   3.050  13.759 -0.1942  0.2201  1.5520
  354TMC3    H2 5309   0.533   3.153  13.366 -1.8023 -0.6657  1.0632
  354TMC3    C7 5310   0.700   3.014  13.529  0.4966  0.5721  0.1099
  354TMC3    C8 5311   0.582   3.409  13.398 -0.0295  0.2052  0.3071
  354TMC3    O1 5312   0.730   2.907  13.581  0.4952  0.1275 -0.5154
  354TMC3    O2 5313   0.634   3.359  13.303 -0.4920 -0.0501  0.5558
  355MPD2     C 5314   0.601   3.781  11.629  0.4107 -0.1683  0.1532
  355MPD2    C1 5315   0.727   3.754  11.577  0.2402  0.2478  0.1304
  355MPD2    C2 5316   0.821   3.709  11.678  0.4705 -0.4741 -0.3375
  355MPD2    C3 5317   0.785   3.678  11.804  0.0871 -0.4710 -0.7452
  355MPD2    C4 5318   0.652   3.682  11.839  0.2212  0.5078  0.3478
  355MPD2    C5 5319   0.558   3.739  11.749 -0.1267 -0.0743  0.0238
  355MPD2     H 5320   0.918   3.671  11.649  1.6634  1.8838  0.5938
  355MPD2    H1 5321   0.615   3.654  11.937 -0.5438 -0.4133 -0.2104
  355MPD2    H2 5322   0.521   3.826  11.571  0.4078  0.4024  0.5994
  355MPD2    H3 5323   0.460   3.756  11.791 -1.5116  0.9192 -3.6207
  355MPD2     N 5324   0.878   3.636  11.902 -0.1763 -0.4864  0.1111
  355MPD2    H5 5325   0.845   3.578  11.979  0.3236  1.0638  1.4841
  355MPD2    N1 5326   0.758   3.779  11.441 -0.4842  0.0936 -0.0530
  355MPD2    H7 5327   0.684   3.836  11.400  0.4807  0.9060 -0.6567
  356TMC3    C1 5328   1.050   3.786  11.843  0.2781  1.2839 -0.0416
  356TMC3    C2 5329   1.159   3.787  11.751 -0.1962 -0.3327 -0.6130
  356TMC3    C3 5330   1.180   3.907  11.696 -0.3041 -0.3285 -0.9666
  356TMC3    C4 5331   0.974   3.893  11.868  0.1748  0.3998 -0.0804
  356TMC3    C5 5332   1.008   4.010  11.811 -0.0393 -1.0326 -0.1298
  356TMC3    C6 5333   1.111   4.029  11.723  0.0021 -0.0329 -0.1707
  356TMC3     C 5334   1.016   3.655  11.885  0.0674  0.5044 -1.0684
  356TMC3     O 5335   1.099   3.608  11.962  0.4946 -0.0067 -0.0786
  356TMC3     H 5336   1.212   3.695  11.729  1.5748  0.8074 -1.1766
  356TMC3    H1 5337   0.891   3.890  11.937  1.9558 -0.7517  2.0259
  356TMC3    H2 5338   1.131   4.120  11.668 -0.6096  0.6521  0.7401
  356TMC3    C7 5339   0.969   4.126  11.887 -0.3905  0.7769 -0.2488
  356TMC3    C8 5340   1.290   3.899  11.597  0.2523  0.0059 -0.1416
  356TMC3    O1 5341   0.874   4.125  11.966 -0.1652  0.0022 -0.4297
  356TMC3    O2 5342   1.305   3.794  11.537  1.1056  0.4020 -0.7560
  357MPD2     C 5343   4.504   4.544   0.869  0.4907  0.1446  0.3308
  357MPD2    C1 5344   4.517   4.476   0.991  0.3258 -0.4629  0.4692
  357MPD2    C2 5345   4.402   4.444   1.061  0.4183 -0.7146  0.2094
  357MPD2    C3 5346   4.275   4.480   1.008  0.6994 -0.4368  0.4095
  357MPD2    C4 5347   4.273   4.544   0.887  0.2568 -0.5746  0.0879
  357MPD2    C5 5348   4.383   4.577   0.816  0.7305  0.6462  0.3138
  357MPD2     H 5349   4.421   4.385   1.150 -0.1067 -0.9152  0.1882
  357MPD2    H1 5350   4.174   4.567   0.848 -0.5690 -1.7931  1.4621
  357MPD2    H2 5351   4.582   4.555   0.795  1.2316 -3.1724  0.5994
  357MPD2    H3 5352   4.378   4.645   0.732 -0.2543 -0.3548 -0.4381
  357MPD2     N 5353   4.148   4.438   1.061  0.2777  0.5359 -0.4821
  357MPD2    H5 5354   4.071   4.437   0.995 -0.5787  0.5570  0.5239
  357MPD2    N1 5355   4.646   4.427   1.022 -0.5878 -0.2406  0.1513
  357MPD2    H7 5356   4.720   4.439   0.953 -0.5994  0.2828  0.2254
  358TMC3    C1 5357   0.113   4.334   1.141 -0.0348  0.1742 -0.1337
  358TMC3    C2 5358   0.144   4.259   1.027  0.0244  0.9819 -0.0228
  358TMC3    C3 5359   0.243   4.160   1.037  0.3184  0.3767  0.3882
  358TMC3    C4 5360   0.177   4.308   1.256  0.6159 -0.3079  0.5433
  358TMC3    C5 5361   0.278   4.209   1.263  0.1097 -0.5464 -0.2439
  358TMC3    C6 5362   0.311   4.137   1.150 -0.4805  0.0440  0.0214
  358TMC3     C 5363   4.697   4.387   1.142 -0.3678 -1.0866  0.7580
  358TMC3     O 5364   4.657   4.383   1.256  0.2611  0.0320  0.1185
  358TMC3     H 5365   0.085   4.255   0.936 -2.3633  1.2255  1.5403
  358TMC3    H1 5366   0.156   4.368   1.344  0.0113  0.2651  0.0136
  358TMC3    H2 5367   0.407   4.087   1.149 -0.2570  0.4841 -0.8479
  358TMC3    C7 5368   0.365   4.211   1.379  0.3535  0.2855  0.0654
  358TMC3    C8 5369   0.287   4.082   0.921 -0.3282 -0.4023  0.0688
  358TMC3    O1 5370   0.479   4.162   1.370  0.0245 -0.2353  0.1252
  358TMC3    O2 5371   0.281   4.124   0.806 -0.1551  0.2333  0.2336
  359MPD2     C 5372   1.738   2.625  12.806 -0.2666 -0.0016 -0.2973
  359MPD2    C1 5373   1.671   2.551  12.705  0.4841  0.2836  0.2461
  359MPD2    C2 5374   1.555   2.494  12.741  0.2735  0.3308  0.9714
  359MPD2    C3 5375   1.505   2.494  12.865 -0.1672  0.0327 -0.2334
  359MPD2    C4 5376   1.580   2.550  12.965 -0.2130 -0.1850  0.3983
  359MPD2    C5 5377   1.687   2.621  12.932 -0.4720  0.1973 -0.4517
  359MPD2     H 5378   1.501   2.436  12.667  1.3416 -0.1701  0.5910
  359MPD2    H1 5379   1.554   2.558  13.070  0.6168  0.5236  0.5504
  359MPD2    H2 5380   1.821   2.690  12.779  0.7601 -1.4033 -0.5117
  359MPD2    H3 5381   1.729   2.677  13.015  0.1341 -0.2588 -0.4447
  359MPD2     N 5382   1.377   2.443  12.896  0.7728  0.1359 -0.4501
  359MPD2    H5 5383   1.347   2.448  12.993  2.4662 -0.0107  0.0736
  359MPD2    N1 5384   1.705   2.547  12.569 -0.6782  0.1367 -0.5077
  359MPD2    H7 5385   1.626   2.516  12.514 -0.1335 -0.6513 -0.8396
  360TMC3    C1 5386   1.820   2.564  12.368  0.2365  0.0480 -0.3281
  360TMC3    C2 5387   1.943   2.565  12.318  0.3275  0.3330  0.4903
  360TMC3    C3 5388   1.968   2.491  12.207 -0.6007  0.5878 -0.6929
  360TMC3    C4 5389   1.721   2.483  12.314 -0.3811 -0.3334 -0.1831
  360TMC3    C5 5390   1.753   2.404  12.208  0.4515 -0.0255 -0.1585
  360TMC3    C6 5391   1.880   2.404  12.161 -0.4072  0.3895  0.1429
  360TMC3     C 5392   1.814   2.597  12.505  0.2031 -0.7055 -0.8925
  360TMC3     O 5393   1.910   2.650  12.563 -0.4088 -0.4537 -0.3135
  360TMC3     H 5394   2.027   2.599  12.378  0.9491  0.8962 -0.7018
  360TMC3    H1 5395   1.616   2.484  12.341  0.1855 -1.4638  2.0333
  360TMC3    H2 5396   1.906   2.347  12.073  0.1196  1.6201 -0.4846
  360TMC3    C7 5397   1.651   2.354  12.120 -0.2271  0.1921 -0.8718
  360TMC3    C8 5398   2.104   2.485  12.170  1.2043  0.0609 -0.4441
  360TMC3    O1 5399   1.687   2.301  12.017 -0.3204 -0.5630  0.6212
  360TMC3    O2 5400   2.181   2.496  12.266  0.6422 -0.4951  0.0882
  361MPD2     C 5401   2.368   2.029  16.309  0.9824 -0.0845 -0.1857
  361MPD2    C1 5402   2.331   2.018  16.445  0.6841 -0.5630 -0.0461
  361MPD2    C2 5403   2.415   1.945  16.533  0.0995  0.0036 -0.3325
  361MPD2    C3 5404   2.529   1.884  16.492  0.3316  0.4545  0.7463
  361MPD2    C4 5405   2.548   1.876  16.360  0.1931  0.3324  0.2931
  361MPD2    C5 5406   2.475   1.953  16.273 -0.9814 -0.1671  0.0764
  361MPD2     H 5407   2.387   1.945  16.638  0.0261  0.7026 -0.3570
  361MPD2    H1 5408   2.622   1.807  16.323 -2.1195 -1.5568 -0.7421
  361MPD2    H2 5409   2.302   2.076  16.237  0.4808  2.7125  2.0817
  361MPD2    H3 5410   2.490   1.944  16.166  0.1299  2.0597  0.0469
  361MPD2     N 5411   2.611   1.809  16.577 -0.3475 -0.1447  0.3135
  361MPD2    H5 5412   2.693   1.764  16.537  1.2112  2.0194  1.1104
  361MPD2    N1 5413   2.212   2.092  16.491 -0.2503 -0.1864  0.0722
  361MPD2    H7 5414   2.182   2.157  16.419  0.4851  1.3754  1.2051
  362TMC3    C1 5415   2.044   2.172  16.642 -0.8767 -0.2414 -1.0293
  362TMC3    C2 5416   1.937   2.129  16.712 -0.0333 -0.1282 -0.0473
  362TMC3    C3 5417   1.865   2.217  16.783 -0.0769 -0.0954  0.2783
  362TMC3    C4 5418   2.082   2.303  16.623  0.0520 -0.3810  0.7000
  362TMC3    C5 5419   1.997   2.392  16.688 -0.0058 -0.0534 -0.2556
  362TMC3    C6 5420   1.890   2.350  16.768 -0.7247 -0.0739  0.1910
  362TMC3     C 5421   2.137   2.067  16.598 -0.0465  0.5226  0.4208
  362TMC3     O 5422   2.148   1.972  16.675  0.2836 -0.3635  0.2980
  362TMC3     H 5423   1.927   2.021  16.715 -0.0359 -0.0229  3.5289
  362TMC3    H1 5424   2.160   2.333  16.554 -0.5387  0.6009  0.4520
  362TMC3    H2 5425   1.824   2.423  16.812 -2.3872 -1.7444  0.4535
  362TMC3    C7 5426   2.004   2.531  16.661 -0.3788  0.6856 -0.0685
  362TMC3    C8 5427   1.735   2.164  16.820 -0.5965 -0.4774 -0.6687
  362TMC3    O1 5428   1.912   2.608  16.692 -0.5949  0.2051  0.3412
  362TMC3    O2 5429   1.713   2.045  16.809 -0.3197 -0.4266  0.1316
  363TMC3    C1 5430   2.877   3.404   9.467 -0.1474  0.4146 -0.0086
  363TMC3    C2 5431   2.771   3.379   9.550  0.3098  0.4137  0.0724
  363TMC3    C3 5432   2.724   3.476   9.632 -0.1415 -0.4954  0.1851
  363TMC3    C4 5433   2.930   3.530   9.460  0.1471 -0.6949 -0.7226
  363TMC3    C5 5434   2.880   3.629   9.539  0.3382  0.2638  0.3682
  363TMC3    C6 5435   2.779   3.603   9.635  0.1144 -0.6865 -0.2887
  363TMC3     C 5436   2.951   3.294   9.399  0.0690  0.0942 -0.1932
  363TMC3     O 5437   3.065   3.329   9.368  0.0911 -0.7534  1.0040
  363TMC3     H 5438   2.732   3.279   9.558  0.6718  0.1465 -1.5909
  363TMC3    H1 5439   3.008   3.536   9.385  1.7985  1.2254  1.1569
  363TMC3    H2 5440   2.751   3.680   9.707  0.1092 -1.2717  0.3310
  363TMC3    C7 5441   2.947   3.759   9.527  0.0494 -0.3095  0.2812
  363TMC3    C8 5442   2.610   3.452   9.722 -0.1128  0.3680  0.2947
  363TMC3    O1 5443   2.903   3.845   9.598  0.0004  0.0609 -0.6265
  363TMC3    O2 5444   2.582   3.544   9.800 -0.5122  0.2104 -0.0019
  364MPD2     C 5445   0.216   3.359  10.544  0.3492 -0.0475  0.2329
  364MPD2    C1 5446   0.332   3.314  10.476 -0.3844 -0.6403 -0.3479
  364MPD2    C2 5447   0.398   3.201  10.519 -0.1118 -0.1477 -0.1367
  364MPD2    C3 5448   0.342   3.124  10.620  0.7690  0.2291 -0.2052
  364MPD2    C4 5449   0.222   3.157  10.674 -0.8553 -0.7477 -0.2434
  364MPD2    C5 5450   0.165   3.281  10.641  0.0868 -0.0526 -0.4151
  364MPD2     H 5451   0.485   3.158  10.471  1.2247  2.1366  0.2715
  364MPD2    H1 5452   0.174   3.094  10.749  2.0699  0.2745  2.4988
  364MPD2    H2 5453   0.154   3.444  10.518 -0.3433  0.6714  4.3208
  364MPD2    H3 5454   0.062   3.297  10.670  0.1638  0.8309 -0.6453
  364MPD2     N 5455   0.409   3.012  10.675 -0.7880  0.4381  0.0949
  364MPD2    H5 5456   0.373   2.983  10.766 -0.5006 -1.1474 -0.3026
  364MPD2    N1 5457   0.374   3.406  10.371 -0.4590 -0.6585 -0.0654
  364MPD2    H7 5458   0.314   3.484  10.348  0.0487  0.2989  1.8589
  365TMC3    C1 5459   0.528   3.500  10.201  0.4217 -0.2230 -0.3054
  365TMC3    C2 5460   0.644   3.469  10.136  0.4724 -0.6861 -0.5296
  365TMC3    C3 5461   0.732   3.568  10.118  0.0231 -0.1699  0.9658
  365TMC3    C4 5462   0.490   3.631  10.232  0.2195  0.3761  0.1661
  365TMC3    C5 5463   0.576   3.733  10.195 -0.2601  0.0877  0.2622
  365TMC3    C6 5464   0.693   3.702  10.136  0.4852 -0.0440  0.2799
  365TMC3     C 5465   0.491   3.393  10.301 -0.1331 -0.6546  0.0102
  365TMC3     O 5466   0.582   3.311  10.313  0.2811  0.1154  0.4200
  365TMC3     H 5467   0.663   3.366  10.109 -1.8399 -1.8844  2.3140
  365TMC3    H1 5468   0.395   3.648  10.281  1.1074 -0.3199  2.0971
  365TMC3    H2 5469   0.769   3.777  10.120  0.8558 -0.7881 -1.3887
  365TMC3    C7 5470   0.573   3.855  10.277  0.2229 -0.2256  0.8799
  365TMC3    C8 5471   0.847   3.546  10.032 -1.2665  0.9337  0.4532
  365TMC3    O1 5472   0.644   3.952  10.256 -0.2627  0.5085 -0.2920
  365TMC3    O2 5473   0.891   3.648   9.978 -0.6341  0.6798 -0.2481
  366MPD2     C 5474   3.345   0.355  14.994  0.1756 -0.0131 -0.0830
  366MPD2    C1 5475   3.360   0.355  15.128  0.2760  0.3856  0.0723
  366MPD2    C2 5476   3.481   0.334  15.183 -0.0572  0.1796 -0.4365
  366MPD2    C3 5477   3.591   0.323  15.105  0.2305 -0.1104 -0.3003
  366MPD2    C4 5478   3.580   0.332  14.973  1.1010 -0.0826 -0.7320
  366MPD2    C5 5479   3.456   0.341  14.912  0.3716 -0.3651 -0.5139
  366MPD2     H 5480   3.489   0.327  15.291  0.4754 -2.6727 -0.6693
  366MPD2    H1 5481   3.662   0.304  14.907 -2.0286 -0.8050 -4.3033
  366MPD2    H2 5482   3.248   0.347  14.946  0.3882  1.9869 -0.8404
  366MPD2    H3 5483   3.443   0.322  14.806  1.1524 -2.5312 -0.2163
  366MPD2     N 5484   3.728   0.319  15.162  0.2993  0.3400 -0.6309
  366MPD2    H5 5485   3.800   0.282  15.100  1.3429 -2.7059  2.3707
  366MPD2    N1 5486   3.265   0.396  15.221  0.5940  0.0497 -0.0923
  366MPD2    H7 5487   3.287   0.390  15.320  1.9978 -1.0738 -0.4673
  367TMC3    C1 5488   3.087   0.503  15.304  0.2099 -0.4514 -0.5834
  367TMC3    C2 5489   3.160   0.522  15.417  0.2141 -0.0936 -0.1594
  367TMC3    C3 5490   3.089   0.572  15.525  0.5561 -0.1090 -0.3482
  367TMC3    C4 5491   2.958   0.537  15.288 -0.2557 -0.2226 -0.8040
  367TMC3    C5 5492   2.901   0.591  15.399 -0.5606  0.1851 -0.3880
  367TMC3    C6 5493   2.956   0.595  15.522 -0.5503 -0.5346  0.8007
  367TMC3     C 5494   3.146   0.451  15.187  0.6685  0.0117 -0.9235
  367TMC3     O 5495   3.073   0.446  15.087  0.6336 -0.1695 -0.1520
  367TMC3     H 5496   3.268   0.521  15.428  0.2270  2.1385 -0.2365
  367TMC3    H1 5497   2.903   0.548  15.194 -0.6125 -1.9293 -0.8013
  367TMC3    H2 5498   2.889   0.619  15.604 -0.6482  2.2140 -0.0840
  367TMC3    C7 5499   2.762   0.631  15.389 -0.4128  0.1557 -0.2274
  367TMC3    C8 5500   3.164   0.583  15.652  0.1589  0.2179 -0.1022
  367TMC3    O1 5501   2.728   0.703  15.485  0.2134  0.2499  0.5214
  367TMC3    O2 5502   3.263   0.515  15.666 -0.4842  0.2621 -0.4041
  368MPD2     C 5503   4.270   1.774  13.328  0.3406 -0.8008 -0.3568
  368MPD2    C1 5504   4.273   1.841  13.207  0.1440  0.4573 -0.4658
  368MPD2    C2 5505   4.395   1.872  13.156  0.5474 -0.9332  0.8112
  368MPD2    C3 5506   4.508   1.856  13.232 -0.2727 -0.2780  0.1531
  368MPD2    C4 5507   4.502   1.803  13.361 -0.0959  0.0915 -0.5552
  368MPD2    C5 5508   4.385   1.760  13.402  0.1877  0.1642  0.3405
  368MPD2     H 5509   4.405   1.922  13.061 -2.9775  0.1224  0.9784
  368MPD2    H1 5510   4.586   1.798  13.430 -1.7721 -1.7962  1.3462
  368MPD2    H2 5511   4.176   1.758  13.379  0.9068  0.6389  1.1405
  368MPD2    H3 5512   4.390   1.731  13.506 -0.5088 -2.0995 -0.2592
  368MPD2     N 5513   4.641   1.882  13.182 -0.1188 -0.3439 -0.3513
  368MPD2    H5 5514   4.720   1.886  13.245 -0.1560 -1.6393 -0.2123
  368MPD2    N1 5515   4.152   1.881  13.141  0.6092 -0.1766 -0.1861
  368MPD2    H7 5516   4.072   1.833  13.183 -0.3180  3.0110  1.7169
  369TMC3    C1 5517   4.003   1.987  12.993 -0.4089  0.0286 -0.1695
  369TMC3    C2 5518   3.993   2.094  12.911 -0.2841 -0.0430 -0.6192
  369TMC3    C3 5519   3.872   2.122  12.845  0.6795  0.6803 -0.0891
  369TMC3    C4 5520   3.894   1.910  13.029  0.5233 -0.1838 -0.2344
  369TMC3    C5 5521   3.774   1.941  12.963 -0.0659 -0.7310 -0.1303
  369TMC3    C6 5522   3.762   2.054  12.876 -0.0025 -0.7604 -0.1480
  369TMC3     C 5523   4.141   1.976  13.048 -0.5466  0.2182  0.1253
  369TMC3     O 5524   4.224   2.051  12.997 -0.1728 -0.2809  0.2709
  369TMC3     H 5525   4.081   2.151  12.884  0.7814 -1.0547  0.6879
  369TMC3    H1 5526   3.892   1.825  13.096 -1.3128 -0.0205 -0.0899
  369TMC3    H2 5527   3.668   2.099  12.844  0.2057  0.3511  0.7946
  369TMC3    C7 5528   3.651   1.876  13.008  0.4452 -0.1688  0.7967
  369TMC3    C8 5529   3.857   2.262  12.803  0.0947  0.1012  0.7120
  369TMC3    O1 5530   3.660   1.781  13.087  0.2330  0.1703  0.3099
  369TMC3    O2 5531   3.758   2.291  12.736 -0.3318  0.4956 -0.3511
  370TMC3    C1 5532   3.167   2.760  16.217  0.1563  0.1665 -0.0778
  370TMC3    C2 5533   3.115   2.659  16.297  0.4942  0.2771 -0.0680
  370TMC3    C3 5534   3.133   2.530  16.254 -0.5039 -0.4438 -0.4751
  370TMC3    C4 5535   3.220   2.738  16.095 -0.2608  0.6785  0.1608
  370TMC3    C5 5536   3.212   2.607  16.056  0.0936  0.4235 -0.2348
  370TMC3    C6 5537   3.195   2.500  16.137 -0.5077 -0.0409  0.1993
  370TMC3     C 5538   3.193   2.890  16.275 -0.0244 -0.2197  0.0297
  370TMC3     O 5539   3.197   2.888  16.397 -0.0553 -0.5058  0.4672
  370TMC3     H 5540   3.071   2.679  16.394  0.1623 -1.8532  0.2239
  370TMC3    H1 5541   3.280   2.811  16.042 -1.3098  0.1143 -1.8119
  370TMC3    H2 5542   3.180   2.399  16.099  0.4011 -0.2075  0.2611
  370TMC3    C7 5543   3.270   2.576  15.930 -0.1481  0.0462 -0.2868
  370TMC3    C8 5544   3.129   2.420  16.348 -0.1919 -0.2793 -0.7796
  370TMC3    O1 5545   3.259   2.646  15.827  0.3222  0.1529  0.2162
  370TMC3    O2 5546   3.161   2.308  16.309  0.1790 -0.2056 -0.3716
  371TMC3    C1 5547   4.621   1.095  15.238  0.2454  0.8823  0.0123
  371TMC3    C2 5548   4.511   1.100  15.319  0.8079 -0.0916 -0.0995
  371TMC3    C3 5549   4.461   1.220  15.335  0.0138 -0.1613  0.0851
  371TMC3    C4 5550   4.671   1.198  15.165  0.5457  0.6487  0.6963
  371TMC3    C5 5551   4.608   1.315  15.175 -0.5668 -0.1590 -0.1996
  371TMC3    C6 5552   4.507   1.332  15.267 -0.3048  0.2986 -1.3417
  371TMC3     C 5553   0.006   1.005  15.272  0.0042  0.5033  0.7232
  371TMC3     O 5554   0.122   1.047  15.277  0.0244 -0.2264 -0.3388
  371TMC3     H 5555   4.470   1.023  15.383  0.6651 -1.2473 -1.5583
  371TMC3    H1 5556   0.037   1.182  15.104  0.3503 -0.6331  0.7527
  371TMC3    H2 5557   4.459   1.429  15.266  3.0341  1.9739 -1.7135
  371TMC3    C7 5558   4.662   1.416  15.086  0.2080  0.1514  0.5996
  371TMC3    C8 5559   4.317   1.232  15.377  0.0524 -0.0426 -0.5893
  371TMC3    O1 5560   4.644   1.535  15.122  0.2622  0.5468 -1.0390
  371TMC3    O2 5561   4.256   1.129  15.366  0.3134 -0.2216 -0.4594
  372MPD2     C 5562   3.773   2.186  13.301 -0.6745  0.0259 -0.6796
  372MPD2    C1 5563   3.882   2.106  13.346  0.3467  0.4459  0.1652
  372MPD2    C2 5564   3.857   1.982  13.390  0.1052 -0.7388 -0.3607
  372MPD2    C3 5565   3.729   1.939  13.386 -0.1348 -0.4130  0.4074
  372MPD2    C4 5566   3.627   2.020  13.352  0.3776  0.3063 -0.0987
  372MPD2    C5 5567   3.650   2.143  13.308 -0.4371  0.3196 -0.2838
  372MPD2     H 5568   3.934   1.911  13.419 -0.3003 -0.9849  0.1001
  372MPD2    H1 5569   3.527   1.985  13.376 -0.2602  1.1452 -1.5630
  372MPD2    H2 5570   3.785   2.289  13.269  1.4208  0.9082  2.8219
  372MPD2    H3 5571   3.565   2.201  13.274  0.7065  0.9715 -2.0018
  372MPD2     N 5572   3.705   1.804  13.422 -0.1799 -0.6862 -0.3915
  372MPD2    H5 5573   3.788   1.748  13.439 -0.5065 -1.3587 -1.0276
  372MPD2    N1 5574   4.019   2.144  13.347  0.0639  0.0813 -0.6559
  372MPD2    H7 5575   4.080   2.086  13.404 -1.0028 -0.7202 -0.3384
  373TMC3    C1 5576   3.609   1.594  13.418  0.1882 -0.3214  0.3198
  373TMC3    C2 5577   3.575   1.531  13.528 -0.2841  0.2380  0.5174
  373TMC3    C3 5578   3.623   1.402  13.555 -0.8185 -0.1756  0.3526
  373TMC3    C4 5579   3.695   1.537  13.326  0.0869  0.0485 -0.3133
  373TMC3    C5 5580   3.742   1.405  13.353 -0.6402  0.0968  0.4070
  373TMC3    C6 5581   3.705   1.342  13.469 -0.7752 -0.6580  0.1729
  373TMC3     C 5582   3.588   1.735  13.422  0.5549 -0.3113  0.7155
  373TMC3     O 5583   3.473   1.771  13.412  0.0531  0.0858 -0.3731
  373TMC3     H 5584   3.509   1.582  13.597  0.2571  0.3657  0.9361
  373TMC3    H1 5585   3.730   1.590  13.238 -1.5936  1.0912 -0.3503
  373TMC3    H2 5586   3.753   1.246  13.483  0.9852  0.3729  1.1430
  373TMC3    C7 5587   3.815   1.348  13.241  0.1933  0.3892  0.4732
  373TMC3    C8 5588   3.640   1.358  13.690 -0.3648  0.3064  0.5535
  373TMC3    O1 5589   3.874   1.421  13.164  0.0554  0.3014  0.3599
  373TMC3    O2 5590   3.737   1.285  13.698  0.2330 -0.1787 -0.1934
  374TMC3    C1 5591   1.402   1.726   9.209  0.1649  0.2021  1.2787
  374TMC3    C2 5592   1.417   1.830   9.297  0.0303  0.3310  0.0312
  374TMC3    C3 5593   1.327   1.831   9.400 -0.7471  0.2272  0.0416
  374TMC3    C4 5594   1.297   1.642   9.220  0.7557  0.3354  0.9718
  374TMC3    C5 5595   1.196   1.666   9.306 -0.3612 -0.4266  0.4373
  374TMC3    C6 5596   1.210   1.757   9.406 -0.4778 -0.3189  0.1237
  374TMC3     C 5597   1.523   1.669   9.146 -0.3516 -0.0797 -0.0502
  374TMC3     O 5598   1.496   1.574   9.072  0.6213 -0.2979  0.5683
  374TMC3     H 5599   1.503   1.895   9.292  0.2441 -0.1753 -3.3924
  374TMC3    H1 5600   1.286   1.552   9.160  1.9039  0.6756  0.2561
  374TMC3    H2 5601   1.138   1.766   9.487 -0.1383 -2.2231  0.6166
  374TMC3    C7 5602   1.075   1.592   9.309  0.3233  0.3107 -0.3496
  374TMC3    C8 5603   1.371   1.902   9.518 -0.5289  0.0793  0.4140
  374TMC3    O1 5604   1.075   1.481   9.249 -0.3780  0.4851  0.1555
  374TMC3    O2 5605   1.471   1.967   9.494  0.4923 -0.2990 -0.2231
  375MPD2     C 5606   4.538   3.220  17.246 -0.0501  0.9398 -0.4731
  375MPD2    C1 5607   4.472   3.208  17.126  0.2388  0.6925  0.4619
  375MPD2    C2 5608   4.542   3.151  17.017 -0.0266  0.3205 -0.0981
  375MPD2    C3 5609   4.673   3.106  17.026 -1.0764 -0.2044 -0.7160
  375MPD2    C4 5610   0.022   3.145  17.139 -0.9898 -0.2149 -0.4647
  375MPD2    C5 5611   4.677   3.197  17.246 -0.1122 -0.3939 -0.1216
  375MPD2     H 5612   4.490   3.140  16.923 -1.7540 -5.0158  1.5235
  375MPD2    H1 5613   0.128   3.125  17.149 -1.1063 -1.4566 -1.8312
  375MPD2    H2 5614   4.494   3.254  17.339  1.0314 -0.3471  0.5215
  375MPD2    H3 5615   0.003   3.209  17.342  3.1338  0.9624 -1.9400
  375MPD2     N 5616   0.018   3.051  16.915 -0.5337 -0.1489 -0.6294
  375MPD2    H5 5617   0.119   3.053  16.914 -0.5206 -0.3411  0.3917
  375MPD2    N1 5618   4.336   3.245  17.117 -0.5574 -0.1019 -0.2314
  375MPD2    H7 5619   4.303   3.252  17.021  0.1448 -1.1150 -0.5433
  376TMC3    C1 5620   0.043   2.962  16.686  0.7940 -0.4661  0.5782
  376TMC3    C2 5621   0.178   2.931  16.708 -0.0458 -0.0235 -0.7678
  376TMC3    C3 5622   0.261   2.921  16.598  0.3429  0.0490 -0.1253
  376TMC3    C4 5623   4.705   2.971  16.557 -0.8080  0.4555  0.1981
  376TMC3    C5 5624   0.070   2.951  16.455  0.7283  0.4381 -0.2559
  376TMC3    C6 5625   0.204   2.937  16.470  1.0512 -0.1035  0.3296
  376TMC3     C 5626   4.675   3.009  16.796  0.5810  0.5336  0.2113
  376TMC3     O 5627   4.557   2.986  16.783  0.0677  0.4912  0.2362
  376TMC3     H 5628   0.218   2.915  16.808 -1.5040 -0.2998 -0.2349
  376TMC3    H1 5629   4.598   2.982  16.544 -0.8536  0.1662  0.3448
  376TMC3    H2 5630   0.279   2.922  16.394 -0.1123  0.5595 -0.9484
  376TMC3    C7 5631   0.029   3.000  16.329  0.0944  0.5593  1.1625
  376TMC3    C8 5632   0.408   2.926  16.619  0.2531 -0.7053 -1.0926
  376TMC3    O1 5633   0.120   3.042  16.264 -0.2483  0.0526  0.0650
  376TMC3    O2 5634   0.450   2.905  16.732  0.2103 -0.0881 -0.0908
  377MPD2     C 5635   3.094   2.466  12.072 -0.4119  0.3877 -0.3979
  377MPD2    C1 5636   3.189   2.415  12.157 -0.2207 -0.6800 -0.3401
  377MPD2    C2 5637   3.151   2.376  12.290  0.2154 -0.2934 -0.4820
  377MPD2    C3 5638   3.013   2.395  12.323 -0.0636 -0.2289 -0.5354
  377MPD2    C4 5639   2.924   2.448  12.238 -0.5118 -0.5335  0.6389
  377MPD2    C5 5640   2.958   2.486  12.111 -0.3185 -0.6108  0.4942
  377MPD2     H 5641   3.217   2.343  12.369  1.3407  0.1157 -1.2483
  377MPD2    H1 5642   2.819   2.463  12.264  0.5301  3.1637  2.7162
  377MPD2    H2 5643   3.127   2.502  11.975  0.0219  1.8416  0.2962
  377MPD2    H3 5644   2.886   2.540  12.049  0.8431 -0.6231 -0.8673
  377MPD2     N 5645   2.953   2.372  12.449 -0.1597  0.1898 -0.5448
  377MPD2    H5 5646   2.856   2.394  12.468 -0.4410 -0.9350 -0.6929
  377MPD2    N1 5647   3.314   2.397  12.097  0.3000 -0.0048 -0.0680
  377MPD2    H7 5648   3.326   2.433  12.003 -1.7568 -0.4266 -0.4956
  378TMC3    C1 5649   3.561   2.209  11.839 -0.4987  0.4394  0.3855
  378TMC3    C2 5650   3.468   2.260  11.926  0.2361  0.3368 -0.1769
  378TMC3    C3 5651   3.512   2.289  12.049 -0.2006  0.2584 -0.1528
  378TMC3    C4 5652   3.692   2.195  11.870  0.1727  0.7045 -0.3238
  378TMC3    C5 5653   3.735   2.221  12.000  0.4792 -0.7808 -0.5358
  378TMC3    C6 5654   3.644   2.272  12.092 -0.0458  0.3524  0.1846
  378TMC3     C 5655   3.514   2.154  11.714  0.3107  0.7047  0.1036
  378TMC3     O 5656   3.594   2.149  11.622 -0.0166 -0.3749  0.4162
  378TMC3     H 5657   3.366   2.283  11.898  0.0550 -0.4914 -0.1996
  378TMC3    H1 5658   3.762   2.140  11.807 -0.3206 -1.4754  1.0261
  378TMC3    H2 5659   3.675   2.273  12.195 -1.4418 -0.6005  0.6104
  378TMC3    C7 5660   3.865   2.179  12.042  0.7140  0.5501 -0.1352
  378TMC3    C8 5661   3.424   2.333  12.153  0.1134 -0.3170  0.2873
  378TMC3    O1 5662   3.872   2.123  12.149 -0.4210 -0.5829  0.4698
  378TMC3    O2 5663   3.430   2.282  12.267 -0.1668 -0.7220 -0.3827
  379MPD2     C 5664   4.249   0.235  16.219 -0.5174  0.7321 -0.4450
  379MPD2    C1 5665   4.119   0.270  16.260  0.2367 -0.3662  0.3288
  379MPD2    C2 5666   4.063   0.204  16.364  0.1368  0.7295  0.2591
  379MPD2    C3 5667   4.134   0.107  16.431 -0.5594 -0.7070  0.5812
  379MPD2    C4 5668   4.263   0.079  16.398 -0.6478  0.2114  0.3725
  379MPD2    C5 5669   4.326   0.146  16.295 -0.0473  0.0879 -0.0427
  379MPD2     H 5670   3.967   0.243  16.397 -0.0545 -0.4657  1.1302
  379MPD2    H1 5671   4.322   4.721  16.441 -0.5770  0.7900  1.3547
  379MPD2    H2 5672   4.302   0.293  16.144 -1.4420  2.3542  0.1736
  379MPD2    H3 5673   4.420   0.113  16.253  0.8148  0.0390  1.9540
  379MPD2     N 5674   4.077   0.039  16.546 -0.4581 -0.5149 -0.4260
  379MPD2    H5 5675   4.138   4.708  16.607 -0.8487  0.5622  0.9204
  379MPD2    N1 5676   4.053   0.382  16.193 -0.8028  0.3732  0.3439
  379MPD2    H7 5677   4.087   0.401  16.099  0.3320  0.1473  0.7100
  380TMC3    C1 5678   3.882   0.536  16.129  0.2223 -0.1406 -0.1230
  380TMC3    C2 5679   3.941   0.569  16.007 -0.7398  0.2340  0.2524
  380TMC3    C3 5680   3.875   0.674  15.940  0.1561  0.6778  0.2327
  380TMC3    C4 5681   3.770   0.593  16.181 -0.3373 -0.4702  0.2256
  380TMC3    C5 5682   3.708   0.684  16.108 -0.5895 -0.2339 -0.0073
  380TMC3    C6 5683   3.760   0.729  15.990  0.0172 -0.7394  0.7647
  380TMC3     C 5684   3.942   0.451  16.230  0.1712  0.4547  0.3573
  380TMC3     O 5685   3.899   0.457  16.345 -0.2434 -0.0003  0.2937
  380TMC3     H 5686   4.040   0.543  15.972 -1.5445 -2.9147  0.3112
  380TMC3    H1 5687   3.721   0.546  16.266 -2.1590  0.4767 -0.3165
  380TMC3    H2 5688   3.704   0.808  15.941  1.6274 -0.2622 -0.2941
  380TMC3    C7 5689   3.570   0.724  16.138  0.2316 -0.3990 -0.3171
  380TMC3    C8 5690   3.900   0.698  15.798 -0.2204  0.1548  0.2766
  380TMC3    O1 5691   3.537   0.734  16.256  0.1346  0.3172  0.1627
  380TMC3    O2 5692   3.846   0.797  15.756 -0.8507 -0.0835  0.3640
  381TMC3    C1 5693   3.576   1.713  16.118 -0.1775  0.1348 -0.0875
  381TMC3    C2 5694   3.620   1.842  16.118  0.4919  0.1673  0.1218
  381TMC3    C3 5695   3.545   1.924  16.203  0.0844  0.5634  0.2502
  381TMC3    C4 5696   3.458   1.678  16.183  0.0955  0.2552  0.3308
  381TMC3    C5 5697   3.382   1.762  16.256  0.3151 -1.0855  0.3350
  381TMC3    C6 5698   3.435   1.888  16.277 -0.0285 -0.3026  0.1127
  381TMC3     C 5699   3.665   1.620  16.053  0.0051 -0.3787 -0.1574
  381TMC3     O 5700   3.748   1.665  15.978 -0.2319 -0.5282 -0.1535
  381TMC3     H 5701   3.713   1.878  16.075  0.0658  1.2851  0.1378
  381TMC3    H1 5702   3.421   1.577  16.170  0.2783  0.1688  0.4934
  381TMC3    H2 5703   3.384   1.961  16.339  1.1678 -0.2234  0.9989
  381TMC3    C7 5704   3.293   1.701  16.347 -0.4239 -0.6544 -0.7119
  381TMC3    C8 5705   3.588   2.062  16.197  0.2491  0.7197 -0.4980
  381TMC3    O1 5706   3.323   1.585  16.370 -0.1779 -0.4195  0.2011
  381TMC3    O2 5707   3.640   2.096  16.088 -0.7100  0.0987  0.0507
  382MPD2     C 5708   2.377   4.379  17.366  0.3216  0.1604 -0.0769
  382MPD2    C1 5709   2.287   4.390  17.468 -0.6589  0.4117  0.1219
  382MPD2    C2 5710   2.205   4.282  17.512 -0.5315  0.1814 -0.0288
  382MPD2    C3 5711   2.213   4.159  17.449  0.5982 -0.1547  0.5327
  382MPD2    C4 5712   2.289   4.155  17.330  0.2582 -0.3164 -0.2924
  382MPD2    C5 5713   2.372   4.260  17.295  1.1486  0.0324  0.3387
  382MPD2     H 5714   2.138   4.303  17.595 -0.4163 -0.7980  0.3192
  382MPD2    H1 5715   2.287   4.065  17.270  0.3241 -0.5501  0.0551
  382MPD2    H2 5716   2.439   4.458  17.326 -0.1558  1.3880  1.5948
  382MPD2    H3 5717   2.436   4.236  17.211  1.5101  0.7488  0.4139
  382MPD2     N 5718   2.124   4.056  17.478  0.0799 -0.0277  0.4926
  382MPD2    H5 5719   2.116   3.982  17.408 -0.0201  0.5684 -0.1268
  382MPD2    N1 5720   2.271   4.508  17.538 -0.4723 -0.1873 -0.8327
  382MPD2    H7 5721   2.203   4.501  17.613 -0.2236 -3.6464 -0.9609
  383TMC3    C1 5722   1.935   3.955  17.578 -0.4186  0.2757  1.1110
  383TMC3    C2 5723   1.916   3.887  17.464 -0.0001  0.2681  0.3030
  383TMC3    C3 5724   1.851   3.767  17.474  0.5476  0.4347  0.0941
  383TMC3    C4 5725   1.900   3.907   0.011 -0.5869 -1.0585 -0.2168
  383TMC3    C5 5726   1.847   3.780   0.015  0.2432  0.9948  0.5907
  383TMC3    C6 5727   1.834   3.704  17.593 -0.0993  0.4750  0.1226
  383TMC3     C 5728   2.040   4.059  17.584  0.3318 -0.5166 -0.0268
  383TMC3     O 5729   2.051   4.120   0.001 -0.0427 -0.0450  0.5368
  383TMC3     H 5730   1.919   3.929  17.364 -1.6477  2.9758  1.3891
  383TMC3    H1 5731   1.898   3.977   0.094  0.8536 -1.1680 -0.0875
  383TMC3    H2 5732   1.780   3.610  17.595 -0.0289  0.4755  1.7168
  383TMC3    C7 5733   1.822   3.702   0.144 -0.0891 -0.1178  0.1349
  383TMC3    C8 5734   1.765   3.727  17.364 -0.5499 -0.1000 -0.1970
  383TMC3    O1 5735   1.794   3.583   0.126 -0.2748 -0.1690  0.5824
  383TMC3    O2 5736   1.745   3.805  17.276 -0.1715  0.6658 -0.4356
  384MPD2     C 5737   4.534   0.150  11.792  0.1612 -0.2307  0.3557
  384MPD2    C1 5738   4.519   0.061  11.892  0.7168  0.4800  0.4017
  384MPD2    C2 5739   4.603   4.676  11.899  0.2167 -0.3631 -0.3862
  384MPD2    C3 5740   4.697   4.659  11.799  0.2590  0.5129 -0.3584
  384MPD2    C4 5741   4.719   0.030  11.706  1.0889  0.0755  0.1221
  384MPD2    C5 5742   4.638   0.142  11.707  0.1360 -0.0357 -0.7681
  384MPD2     H 5743   4.594   4.601  11.977  0.0268 -0.5890 -0.6235
  384MPD2    H1 5744   0.065   0.028  11.622  0.3474  0.2807 -0.4879
  384MPD2    H2 5745   4.468   0.236  11.784  1.4490  0.8991  1.6557
  384MPD2    H3 5746   4.638   0.215  11.627  0.4372  0.2157 -0.5406
  384MPD2     N 5747   0.049   4.543  11.814  0.1681  0.1319  0.7224
  384MPD2    H5 5748   0.028   4.484  11.894 -0.3323 -0.8943 -0.1605
  384MPD2    N1 5749   4.424   0.069  11.992  0.7024  0.7108 -0.2908
  384MPD2    H7 5750   4.422   4.711  12.054  2.5576  2.0388  1.4835
  385TMC3    C1 5751   0.221   4.403  11.806  0.5703 -0.0285 -0.1354
  385TMC3    C2 5752   0.203   4.266  11.798 -0.0983 -0.1906 -0.2217
  385TMC3    C3 5753   0.221   4.192  11.912  0.3455 -0.7249 -0.6251
  385TMC3    C4 5754   0.246   4.461  11.925  0.3593 -0.2550  1.1864
  385TMC3    C5 5755   0.248   4.388  12.039 -0.3298  0.0471  0.0148
  385TMC3    C6 5756   0.231   4.253  12.036  0.5985 -0.1442 -0.4883
  385TMC3     C 5757   0.136   4.480  11.730 -0.2741  0.8058 -0.2442
  385TMC3     O 5758   0.173   4.510  11.619 -0.3989  0.4288 -0.1047
  385TMC3     H 5759   0.184   4.225  11.700  0.6413 -0.3611 -0.2922
  385TMC3    H1 5760   0.263   4.568  11.932  1.7476 -0.5778  2.7083
  385TMC3    H2 5761   0.207   4.188  12.120  1.3744  1.4187  0.9462
  385TMC3    C7 5762   0.163   4.460  12.135  1.1067 -0.1107  0.5810
  385TMC3    C8 5763   0.238   4.049  11.904  0.2132  0.2193  0.4961
  385TMC3    O1 5764   0.040   4.438  12.122 -0.2156 -0.4584 -0.3110
  385TMC3    O2 5765   0.252   3.980  12.006 -0.1206  0.5239 -0.1952
  386TMC3    C1 5766   4.662   2.400  11.616  0.9340 -0.0554 -0.1727
  386TMC3    C2 5767   4.661   2.395  11.481  0.1032  0.5237  0.5967
  386TMC3    C3 5768   4.539   2.415  11.415  0.0582  0.6860 -0.2552
  386TMC3    C4 5769   4.557   2.432  11.689 -0.0566 -0.1871  0.1564
  386TMC3    C5 5770   4.440   2.454  11.622  0.0128  0.5665  0.5551
  386TMC3    C6 5771   4.428   2.443  11.487 -0.6931 -0.5389  0.2997
  386TMC3     C 5772   0.068   2.377  11.686  0.1328 -0.4024  0.9624
  386TMC3     O 5773   0.080   2.428  11.796  0.4190  0.2064  0.0646
  386TMC3     H 5774   0.025   2.354  11.430  0.1026 -1.2084  2.0229
  386TMC3    H1 5775   4.556   2.422  11.797 -1.3851 -1.0940  0.0576
  386TMC3    H2 5776   4.335   2.455  11.431 -1.1025  1.1896  1.3654
  386TMC3    C7 5777   4.334   2.521  11.694  0.3904  0.4170  0.1105
  386TMC3    C8 5778   4.530   2.382  11.276 -0.0080  0.3091  1.2414
  386TMC3    O1 5779   4.360   2.545  11.811 -0.3848  0.3276  0.8184
  386TMC3    O2 5780   4.418   2.383  11.223  0.2691  0.4295  1.0720
  387MPD2     C 5781   2.539   2.337   9.663 -0.7006 -0.5075 -1.2019
  387MPD2    C1 5782   2.569   2.285   9.787 -0.8104 -0.5852 -0.1287
  387MPD2    C2 5783   2.601   2.145   9.792  0.2455 -0.1786 -0.4773
  387MPD2    C3 5784   2.615   2.061   9.681 -0.3960 -0.3391  0.4022
  387MPD2    C4 5785   2.577   2.120   9.565 -0.0739  0.2214 -0.3418
  387MPD2    C5 5786   2.537   2.251   9.557  0.7765  0.6261 -0.2146
  387MPD2     H 5787   2.628   2.102   9.888 -0.8076 -0.8044 -0.4565
  387MPD2    H1 5788   2.590   2.063   9.474  1.0915 -3.8761  2.4084
  387MPD2    H2 5789   2.511   2.439   9.642 -1.0854 -0.1065  1.2036
  387MPD2    H3 5790   2.520   2.299   9.461 -1.3718 -0.4591 -0.3705
  387MPD2     N 5791   2.660   1.932   9.707  0.4842  0.5487 -0.1652
  387MPD2    H5 5792   2.679   1.913   9.805 -1.7613  0.6337  0.2869
  387MPD2    N1 5793   2.589   2.369   9.898 -0.8971  0.0262 -0.1510
  387MPD2    H7 5794   2.641   2.322   9.972 -0.2208  1.2763  0.1726
  388TMC3    C1 5795   2.687   2.565   9.986 -0.4276  0.4719 -0.1430
  388TMC3    C2 5796   2.665   2.697  10.026  0.2532 -0.1052  0.0120
  388TMC3    C3 5797   2.748   2.738  10.120  0.1096  0.5352 -0.1673
  388TMC3    C4 5798   2.801   2.491  10.013 -0.0914 -0.0237  0.9660
  388TMC3    C5 5799   2.891   2.555  10.103 -1.2001 -0.3047 -0.7186
  388TMC3    C6 5800   2.867   2.677  10.152  0.0273  0.2836 -0.1159
  388TMC3     C 5801   2.597   2.503   9.886 -0.4134  0.3101  0.9179
  388TMC3     O 5802   2.544   2.582   9.806 -0.0902  0.2511  0.8381
  388TMC3     H 5803   2.583   2.755   9.984 -0.4851  0.2205  1.9200
  388TMC3    H1 5804   2.817   2.392   9.973  0.4740  0.9890 -1.3092
  388TMC3    H2 5805   2.943   2.721  10.216  0.2259 -2.4864  1.5446
  388TMC3    C7 5806   2.984   2.468  10.173  0.1083 -0.0956  0.3979
  388TMC3    C8 5807   2.725   2.853  10.197 -0.4520  0.3625  0.4147
  388TMC3    O1 5808   3.022   2.495  10.284  0.3118 -0.3139  0.5539
  388TMC3    O2 5809   2.813   2.910  10.260  0.2074  0.1252 -0.0644
  389MPD2     C 5810   2.217   0.360  10.985 -0.0095  0.1442  0.3008
  389MPD2    C1 5811   2.126   0.282  10.926  0.4889  0.1601  0.6015
  389MPD2    C2 5812   2.031   0.221  10.999  0.0790 -0.2187  1.4600
  389MPD2    C3 5813   2.017   0.237  11.135 -0.3945  0.2837 -0.1373
  389MPD2    C4 5814   2.107   0.322  11.190 -0.2701  0.0153  0.8251
  389MPD2    C5 5815   2.205   0.379  11.116  0.9229  0.4288 -0.2069
  389MPD2     H 5816   1.961   0.154  10.953  1.0009  0.9491 -1.6706
  389MPD2    H1 5817   2.109   0.339  11.297 -1.5010  0.4280  0.7856
  389MPD2    H2 5818   2.304   0.401  10.935  0.3584 -0.2794  0.5993
  389MPD2    H3 5819   2.282   0.444  11.156  1.6465 -0.9216  0.5842
  389MPD2     N 5820   1.908   0.199  11.213  0.6618 -0.2007 -0.4312
  389MPD2    H5 5821   1.914   0.217  11.313 -3.1854  1.5116 -0.5022
  389MPD2    N1 5822   2.139   0.252  10.788  0.1728  0.7347 -0.5030
  389MPD2    H7 5823   2.218   0.299  10.744  2.2547 -1.2816  1.0025
  390TMC3    C1 5824   1.719   0.083  11.290 -0.0925  0.3140  0.1530
  390TMC3    C2 5825   1.685   4.676  11.310 -0.1360  0.7550 -0.3159
  390TMC3    C3 5826   1.623   4.636  11.427 -0.0701  0.3867  0.3408
  390TMC3    C4 5827   1.703   0.176  11.386 -0.3290 -0.1416 -0.1540
  390TMC3    C5 5828   1.640   0.139  11.496 -1.0410 -0.5121  0.3772
  390TMC3    C6 5829   1.606   0.004  11.522  0.2203  0.5009 -0.2969
  390TMC3     C 5830   1.807   0.113  11.175  0.0210  0.3857  0.3747
  390TMC3     O 5831   1.803   0.037  11.082  0.0311  0.0877  0.6273
  390TMC3     H 5832   1.688   4.610  11.223  1.9962  1.5187 -0.8382
  390TMC3    H1 5833   1.728   0.280  11.368 -1.7958  0.4277  1.0467
  390TMC3    H2 5834   1.557   4.697  11.614  2.1685 -0.5329  0.4082
  390TMC3    C7 5835   1.543   0.226  11.553  0.1540 -0.0378 -0.4032
  390TMC3    C8 5836   1.520   4.532  11.410  0.3284 -0.1428  0.2097
  390TMC3    O1 5837   1.570   0.307  11.635  0.2601  0.4988  0.4466
  390TMC3    O2 5838   1.541   4.442  11.328  0.0231 -0.2496 -0.5074
  391MPD2     C 5839   0.956   1.675  11.065 -0.8764  0.1044  0.1715
  391MPD2    C1 5840   1.088   1.715  11.073  0.5650  0.8026 -0.0487
  391MPD2    C2 5841   1.166   1.714  10.958 -0.0297  0.1347  0.2415
  391MPD2    C3 5842   1.110   1.681  10.833  0.3082 -0.1047  0.2537
  391MPD2    C4 5843   0.976   1.656  10.821  0.9627  0.1479 -0.4950
  391MPD2    C5 5844   0.898   1.652  10.938  0.1066  0.9175 -0.3476
  391MPD2     H 5845   1.268   1.751  10.960  0.3440 -0.8581 -0.4052
  391MPD2    H1 5846   0.931   1.627  10.726 -0.8252  0.6731  0.1787
  391MPD2    H2 5847   0.892   1.662  11.152  0.1247  0.7993  1.0163
  391MPD2    H3 5848   0.792   1.633  10.926 -0.1535  3.0870 -1.4184
  391MPD2     N 5849   1.195   1.677  10.717  0.2371 -0.0160  0.0569
  391MPD2    H5 5850   1.289   1.714  10.725  0.7921 -1.0235 -1.9941
  391MPD2    N1 5851   1.140   1.759  11.197 -0.4535  0.0620  0.5746
  391MPD2    H7 5852   1.068   1.775  11.268 -1.7689 -1.9677 -0.2799
  392TMC3    C1 5853   1.253   1.661  10.493 -0.0569 -0.2734  0.0529
  392TMC3    C2 5854   1.218   1.655  10.361 -0.0056 -0.1976 -0.1026
  392TMC3    C3 5855   1.307   1.689  10.273  0.2853 -0.5396  0.1949
  392TMC3    C4 5856   1.383   1.690  10.533  0.9033 -0.2697 -0.0307
  392TMC3    C5 5857   1.473   1.701  10.436 -0.1195 -0.0365 -0.2912
  392TMC3    C6 5858   1.441   1.716  10.304 -0.3589 -0.3388  0.0504
  392TMC3     C 5859   1.159   1.634  10.592 -0.2276  0.1148 -0.5630
  392TMC3     O 5860   1.059   1.585  10.546 -0.2399  0.6928 -0.5088
  392TMC3     H 5861   1.116   1.637  10.328 -0.4094  1.8658  0.0719
  392TMC3    H1 5862   1.423   1.674  10.633 -1.8745  0.6916  1.2372
  392TMC3    H2 5863   1.514   1.753  10.233 -1.4188  1.1084 -0.2940
  392TMC3    C7 5864   1.601   1.744  10.487 -0.3286 -0.5216  0.3713
  392TMC3    C8 5865   1.254   1.736  10.145  0.5439 -0.6222 -0.1435
  392TMC3    O1 5866   1.611   1.793  10.598 -0.5364 -0.2684  0.1397
  392TMC3    O2 5867   1.157   1.676  10.096  0.1119  0.4555  0.3057
  393TMC3    C1 5868   0.796   0.181  10.299 -0.0251 -0.2302  0.4224
  393TMC3    C2 5869   0.698   0.143  10.384  0.1657 -0.3554 -0.3314
  393TMC3    C3 5870   0.713   0.049  10.476 -0.4916 -0.0587 -0.1229
  393TMC3    C4 5871   0.922   0.138  10.314 -0.3178  0.5339 -0.0231
  393TMC3    C5 5872   0.943   0.056  10.427  0.7753 -0.7359 -0.0313
  393TMC3    C6 5873   0.840   0.005  10.511 -1.0335 -0.7128  0.3233
  393TMC3     C 5874   0.755   0.220  10.165 -0.0116  0.0258 -0.4936
  393TMC3     O 5875   0.645   0.178  10.129 -0.2263 -0.1007  0.4944
  393TMC3     H 5876   0.596   0.173  10.364  0.3045  1.3137  1.4859
  393TMC3    H1 5877   1.008   0.170  10.257 -1.5863  3.0650 -0.5198
  393TMC3    H2 5878   0.860   4.660  10.594 -0.5172 -1.4203 -0.3715
  393TMC3    C7 5879   1.069   4.711  10.441  0.2406  0.3848 -0.3820
  393TMC3    C8 5880   0.590   0.016  10.552  0.1758  0.1929 -0.2713
  393TMC3    O1 5881   1.099   4.673  10.555 -0.0357  0.2308 -0.6404
  393TMC3    O2 5882   0.495   0.092  10.533  0.2193 -0.2804 -0.6323
  394TMC3    C1 5883   2.086   0.142  10.580 -0.2784  0.5120 -0.1070
  394TMC3    C2 5884   1.984   0.113  10.490  0.2521  0.5272 -0.1409
  394TMC3    C3 5885   2.018   0.121  10.357  0.0067 -0.2130 -0.7764
  394TMC3    C4 5886   2.219   0.146  10.543 -0.7444  0.7049 -0.1637
  394TMC3    C5 5887   2.248   0.136  10.415  0.4004 -0.0597  0.3485
  394TMC3    C6 5888   2.149   0.132  10.320  0.0933 -0.4572 -0.5659
  394TMC3     C 5889   2.042   0.186  10.715 -0.2151  0.5581  0.2624
  394TMC3     O 5890   1.921   0.175  10.737 -0.3627  0.1754 -0.4097
  394TMC3     H 5891   1.883   0.108  10.527  0.5846 -1.8688  0.4897
  394TMC3    H1 5892   2.297   0.154  10.618 -0.8555 -0.2154  0.0441
  394TMC3    H2 5893   2.179   0.127  10.216  2.2474  1.5074 -0.0485
  394TMC3    C7 5894   2.371   0.203  10.368  0.2133  0.6904  0.8126
  394TMC3    C8 5895   1.930   0.072  10.252  0.8351  0.5207 -0.1105
  394TMC3    O1 5896   2.364   0.252  10.255  0.5607 -0.6914  0.3678
  394TMC3    O2 5897   1.928   0.136  10.151 -0.7735 -0.6286  0.2546
  395TMC3    C1 5898   1.135   3.265  14.678 -0.3085  0.3597  0.6548
  395TMC3    C2 5899   1.139   3.198  14.566  0.4563  0.4211  1.0539
  395TMC3    C3 5900   1.199   3.246  14.458  0.7806 -0.0223 -0.1132
  395TMC3    C4 5901   1.190   3.392  14.682  0.2401  0.1662  0.5415
  395TMC3    C5 5902   1.247   3.448  14.569 -0.4580 -0.1605 -0.0372
  395TMC3    C6 5903   1.251   3.373  14.451  0.1338 -0.4426 -0.1091
  395TMC3     C 5904   1.113   3.201  14.805 -0.2468  0.4793 -0.5913
  395TMC3     O 5905   1.115   3.286  14.894  0.4745 -0.1934  0.1260
  395TMC3     H 5906   1.134   3.089  14.567 -3.4755  0.5954 -0.4545
  395TMC3    H1 5907   1.208   3.448  14.773  0.6917 -0.1592  0.6501
  395TMC3    H2 5908   1.304   3.406  14.363 -0.3815  0.1779 -0.1852
  395TMC3    C7 5909   1.328   3.563  14.588  0.3205  0.2015 -0.2033
  395TMC3    C8 5910   1.242   3.162  14.352 -0.4658 -0.4833 -0.1600
  395TMC3    O1 5911   1.381   3.571  14.699 -0.1031  0.4455 -0.3367
  395TMC3    O2 5912   1.358   3.174  14.320  0.3483 -0.0297  0.2413
  396MPD2     C 5913   0.689   4.322  17.649  0.6825 -0.0667  0.5447
  396MPD2    C1 5914   0.826   4.301  17.649  0.5416  0.1163  0.3344
  396MPD2    C2 5915   0.908   4.403  17.596  0.1272  0.4520 -0.1062
  396MPD2    C3 5916   0.853   4.518  17.542  0.0562  0.9370 -0.1373
  396MPD2    C4 5917   0.717   4.528  17.523 -0.3655 -0.9772 -0.0956
  396MPD2    C5 5918   0.638   4.431  17.579 -0.5561 -0.0816  0.4522
  396MPD2     H 5919   1.013   4.392  17.573  0.1851  0.5993  0.0814
  396MPD2    H1 5920   0.667   4.614  17.480 -2.5492 -2.7833 -1.1623
  396MPD2    H2 5921   0.614   4.260   0.006  1.5082  0.4268  2.4953
  396MPD2    H3 5922   0.530   4.434  17.577 -0.5526 -0.9901 -0.9023
  396MPD2     N 5923   0.943   4.612  17.476  0.1055 -0.2165  0.1491
  396MPD2    H5 5924   1.036   4.610  17.516 -0.2067  2.1228  0.9980
  396MPD2    N1 5925   0.874   4.173  17.687 -0.2737  0.5510 -0.3381
  396MPD2    H7 5926   0.806   4.099   0.010 -2.6822  2.6007 -1.2891
  397TMC3    C1 5927   1.009   3.989  17.679  0.4890 -0.2866  0.5034
  397TMC3    C2 5928   1.047   3.956  17.555 -0.1842 -0.1537  0.2668
  397TMC3    C3 5929   1.003   3.851  17.491  0.6179  0.1576  0.2465
  397TMC3    C4 5930   0.902   3.931   0.045  0.1602 -0.4379 -0.4617
  397TMC3    C5 5931   0.854   3.817  17.672 -0.2813 -0.6503  0.1524
  397TMC3    C6 5932   0.905   3.774  17.555  0.0200  0.6792 -0.0182
  397TMC3     C 5933   1.002   4.135  17.674  0.0630 -0.5323  0.3135
  397TMC3     O 5934   1.098   4.204  17.653 -0.3897 -0.7058  0.5218
  397TMC3     H 5935   1.138   4.009  17.528 -0.5208  1.0545  1.5111
  397TMC3    H1 5936   0.852   3.972   0.132  3.3531  2.7798 -0.1465
  397TMC3    H2 5937   0.866   3.692  17.496  0.3345 -1.1518  2.3473
  397TMC3    C7 5938   0.764   3.728   0.054 -0.0083  0.2694 -0.1033
  397TMC3    C8 5939   0.988   3.858  17.343 -0.0766 -0.2628 -0.8643
  397TMC3    O1 5940   0.711   3.642  17.677 -0.0360 -0.6301 -0.4513
  397TMC3    O2 5941   0.905   3.782  17.291 -0.3016 -0.2035  0.4276
  398MPD2     C 5942   3.463   0.340  17.475  0.7185 -0.1501 -0.4652
  398MPD2    C1 5943   3.504   0.320  17.606 -0.0901 -0.1039  0.5664
  398MPD2    C2 5944   3.580   0.413  17.664 -0.0851 -0.5842 -0.2627
  398MPD2    C3 5945   3.611   0.526  17.592 -0.2996 -0.0513  0.3700
  398MPD2    C4 5946   3.570   0.541  17.458 -0.5950 -0.6744 -0.7697
  398MPD2    C5 5947   3.492   0.449  17.404 -0.3376  0.4607  0.2717
  398MPD2     H 5948   3.626   0.393   0.069 -0.0551  0.6964 -0.0047
  398MPD2    H1 5949   3.595   0.625  17.394 -0.8759  0.0037  0.0003
  398MPD2    H2 5950   3.401   0.264  17.429  0.4881 -0.9998  1.2720
  398MPD2    H3 5951   3.453   0.459  17.304  1.5034 -0.1471 -0.5018
  398MPD2     N 5952   3.698   0.626  17.655 -0.2015 -0.7778  0.5374
  398MPD2    H5 5953   3.716   0.620   0.064  0.1144 -0.1741  0.5162
  398MPD2    N1 5954   3.464   0.207  17.690 -0.0494 -0.4581  0.2250
  398MPD2    H7 5955   3.514   0.205   0.087 -0.2202  1.5590  0.3827
  399TMC3    C1 5956   3.354   0.010   0.072  0.0473  0.7516 -0.6456
  399TMC3    C2 5957   3.465   4.676   0.129 -0.3955 -0.2616 -0.2141
  399TMC3    C3 5958   3.443   4.553   0.191 -0.9283  0.1969  0.9233
  399TMC3    C4 5959   3.235   4.668   0.070 -0.1403 -0.0935 -0.4168
  399TMC3    C5 5960   3.214   4.562   0.157  1.2598  0.1494 -0.3189
  399TMC3    C6 5961   3.317   4.491   0.217  0.2224  0.1302 -0.2334
  399TMC3     C 5962   3.367   0.117  17.664  0.5397  0.0140  0.3432
  399TMC3     O 5963   3.291   0.103  17.568  0.3953  0.2351 -0.0698
  399TMC3     H 5964   3.565   4.714   0.117  0.1605 -1.1524  1.6292
  399TMC3    H1 5965   3.147   4.699   0.014 -0.3263 -0.3211 -0.2483
  399TMC3    H2 5966   3.301   4.411   0.288 -0.4119  0.1316 -0.3799
  399TMC3    C7 5967   3.078   4.518   0.194  0.7976  0.2885 -0.3684
  399TMC3    C8 5968   3.556   4.508   0.270 -0.5310  0.0692 -0.0993
  399TMC3    O1 5969   3.066   4.406   0.244  0.1309 -0.8814 -0.2837
  399TMC3    O2 5970   3.662   4.563   0.246 -0.2042  0.0856  0.0669
  400TMC3    C1 5971   2.227   3.833  16.857 -0.4979  0.5962  0.4850
  400TMC3    C2 5972   2.098   3.782  16.835 -0.2760 -0.5183 -0.5133
  400TMC3    C3 5973   2.000   3.872  16.813 -0.8634 -0.1532 -0.0973
  400TMC3    C4 5974   2.257   3.968  16.835  0.1475  0.1489  0.0483
  400TMC3    C5 5975   2.155   4.051  16.804  0.0409 -0.2396  0.9559
  400TMC3    C6 5976   2.024   4.006  16.804  0.3178  1.0184 -0.4068
  400TMC3     C 5977   2.283   3.769  16.974 -0.1581  0.0512  0.1224
  400TMC3     O 5978   2.222   3.690  17.036  0.1835  0.5546  0.2361
  400TMC3     H 5979   2.074   3.677  16.849 -0.9203  0.1597  3.6164
  400TMC3    H1 5980   2.358   4.006  16.844 -0.5648  1.2811  3.4518
  400TMC3    H2 5981   1.944   4.077  16.789 -1.5032 -0.6494  1.4949
  400TMC3    C7 5982   2.161   4.175  16.874 -0.9232 -0.2609  0.4597
  400TMC3    C8 5983   1.863   3.832  16.786 -0.2280 -0.2360 -0.0024
  400TMC3    O1 5984   2.228   4.263  16.825  0.0912  0.0851 -0.0287
  400TMC3    O2 5985   1.773   3.915  16.789  0.2481  0.0879  0.2214
  401MPD2     C 5986   0.223   2.073   0.188 -0.5207  1.0403  0.3829
  401MPD2    C1 5987   0.259   2.123   0.313 -0.5216 -0.3233  0.2898
  401MPD2    C2 5988   0.342   2.049   0.392 -0.0545 -0.3176 -0.4651
  401MPD2    C3 5989   0.411   1.939   0.341 -0.0534 -0.7118 -0.4769
  401MPD2    C4 5990   0.379   1.892   0.212 -0.4901 -0.1272  0.6886
  401MPD2    C5 5991   0.275   1.959   0.146  0.3979 -0.1341  0.3495
  401MPD2     H 5992   0.367   2.080   0.493 -0.8565 -1.7828  0.1865
  401MPD2    H1 5993   0.424   1.801   0.173  0.1646  0.3721  0.2661
  401MPD2    H2 5994   0.159   2.127   0.119 -1.0334  0.6895  0.5847
  401MPD2    H3 5995   0.237   1.913   0.055  0.1072 -0.2317  0.5190
  401MPD2     N 5996   0.506   1.867   0.420 -0.0267  0.3126  0.5277
  401MPD2    H5 5997   0.511   1.903   0.514  2.1294  0.3264  0.3938
  401MPD2    N1 5998   0.223   2.252   0.356 -0.2208 -0.0703 -0.0245
  401MPD2    H7 5999   0.251   2.287   0.447  0.0314 -1.1202  0.2967
  402TMC3    C1 6000   0.676   1.712   0.494  0.1766  0.1932  0.0721
  402TMC3    C2 6001   0.618   1.679   0.611 -0.0742 -0.0023  0.5205
  402TMC3    C3 6002   0.684   1.589   0.682 -0.4514  0.5560  0.0930
  402TMC3    C4 6003   0.798   1.664   0.458  0.0002  0.2013 -0.1568
  402TMC3    C5 6004   0.869   1.571   0.531  0.3740  0.0907 -0.6330
  402TMC3    C6 6005   0.808   1.540   0.648  0.0397  0.0105  0.4035
  402TMC3     C 6006   0.589   1.760   0.383  0.2615 -0.0687 -0.1297
  402TMC3     O 6007   0.588   1.699   0.277 -0.1617  0.3901 -0.1878
  402TMC3     H 6008   0.521   1.715   0.644 -0.0336  0.6758 -0.0794
  402TMC3    H1 6009   0.824   1.687   0.355  0.3034  0.9794  0.0927
  402TMC3    H2 6010   0.860   1.473   0.715  0.6192 -1.7244 -1.7739
  402TMC3    C7 6011   0.961   1.475   0.482 -0.5168  0.9404  0.4359
  402TMC3    C8 6012   0.634   1.542   0.807 -0.4034  0.2111  0.4468
  402TMC3    O1 6013   0.970   1.370   0.540 -0.1583  0.4131 -0.4600
  402TMC3    O2 6014   0.690   1.441   0.843  0.4326  0.0283  0.1505
  403MPD2     C 6015   3.744   0.267  13.478  0.1523 -0.3509  0.1481
  403MPD2    C1 6016   3.879   0.229  13.461  0.4444 -0.5909 -0.4643
  403MPD2    C2 6017   3.976   0.324  13.486  0.0289  0.0304  0.0897
  403MPD2    C3 6018   3.943   0.452  13.537 -0.4156  0.2053 -0.4088
  403MPD2    C4 6019   3.812   0.487  13.560 -0.5042 -0.1745 -0.4019
  403MPD2    C5 6020   3.719   0.390  13.537 -0.4849 -0.0519  0.4949
  403MPD2     H 6021   4.079   0.304  13.456 -0.0664 -1.4596  0.7588
  403MPD2    H1 6022   3.776   0.578  13.607 -0.0859 -0.5848  0.7341
  403MPD2    H2 6023   3.669   0.192  13.457 -1.6877  1.5771 -0.0676
  403MPD2    H3 6024   3.613   0.413  13.545 -0.2062  0.9403  1.2018
  403MPD2     N 6025   4.047   0.538  13.563  0.2161 -0.2875 -0.0585
  403MPD2    H5 6026   4.142   0.507  13.544  0.7457  1.3117 -0.0266
  403MPD2    N1 6027   3.912   0.096  13.415 -0.1956 -0.0915  0.0292
  403MPD2    H7 6028   3.832   0.035  13.402 -0.0245 -0.0722 -1.1052
  404TMC3    C1 6029   4.025   4.625  13.354 -0.8309 -0.1048  0.1155
  404TMC3    C2 6030   3.948   4.545  13.439 -0.6093  0.6521  0.8332
  404TMC3    C3 6031   3.949   4.414  13.407 -0.0781  0.0238  0.3807
  404TMC3    C4 6032   4.108   4.583  13.258  0.6938 -0.6410  0.2563
  404TMC3    C5 6033   4.111   4.447  13.230  0.0190 -0.2209  0.2464
  404TMC3    C6 6034   4.032   4.365  13.309  0.7532  0.3185  0.2691
  404TMC3     C 6035   4.036   0.048  13.378 -0.3408  0.3708 -0.4121
  404TMC3     O 6036   4.136   0.114  13.357 -0.3364  0.0491  0.6789
  404TMC3     H 6037   3.891   4.584  13.523 -2.5671  1.8104 -1.0300
  404TMC3    H1 6038   4.182   4.650  13.215  0.7112 -0.1710  1.0275
  404TMC3    H2 6039   4.047   4.259  13.296  1.7285  0.7671 -2.4234
  404TMC3    C7 6040   4.241   4.388  13.182 -0.1283  0.3469 -0.5517
  404TMC3    C8 6041   3.876   4.320  13.492 -0.2788  0.0564  0.3343
  404TMC3    O1 6042   4.348   4.448  13.181  0.5118 -0.3883 -0.3547
  404TMC3    O2 6043   3.841   4.210  13.453  0.2449 -0.2959 -0.5876
  405MPD2     C 6044   4.043   0.301  14.674 -0.4247 -0.1681 -0.1938
  405MPD2    C1 6045   3.923   0.256  14.629  0.7283 -0.6459  0.4395
  405MPD2    C2 6046   3.872   0.308  14.514 -1.0782  0.6082 -0.8824
  405MPD2    C3 6047   3.933   0.399  14.435 -0.3004  0.0584  0.4545
  405MPD2    C4 6048   4.053   0.444  14.480  0.5063  0.1965 -0.3061
  405MPD2    C5 6049   4.112   0.396  14.599  0.0084  0.1844 -0.9787
  405MPD2     H 6050   3.777   0.267  14.481 -0.5302 -1.0543 -0.3717
  405MPD2    H1 6051   4.105   0.527  14.433 -0.3000 -1.0724 -3.4308
  405MPD2    H2 6052   4.086   0.266  14.767 -0.6839 -0.4831 -0.1910
  405MPD2    H3 6053   4.217   0.415  14.620  0.1158  0.2422 -1.5626
  405MPD2     N 6054   3.861   0.458  14.333  0.3306 -0.7874 -0.4153
  405MPD2    H5 6055   3.765   0.430  14.320  0.0485 -0.1997  0.3886
  405MPD2    N1 6056   3.853   0.162  14.705 -0.2886  0.1139 -0.3591
  405MPD2    H7 6057   3.888   0.150  14.800  0.4125  0.7874 -0.5325
  406TMC3    C1 6058   3.640   0.793  14.210 -0.1143 -0.1444  0.3584
  406TMC3    C2 6059   3.531   0.716  14.192 -0.2783 -0.2970  0.1848
  406TMC3    C3 6060   3.553   0.581  14.181  0.2432  0.2293 -0.2454
  406TMC3    C4 6061   3.764   0.746  14.223 -0.4689 -0.4419 -0.5661
  406TMC3    C5 6062   3.780   0.611  14.204  0.1464 -0.5708 -0.2832
  406TMC3    C6 6063   3.680   0.524  14.182 -0.0964  0.5596  0.1381
  406TMC3     C 6064   3.622   0.934  14.249 -0.6124  0.2218  0.0664
  406TMC3     O 6065   3.725   1.000  14.263 -0.2768 -0.2542 -0.0795
  406TMC3     H 6066   3.428   0.748  14.183  0.6098  2.3080 -0.8512
  406TMC3    H1 6067   3.854   0.806  14.221  0.6390 -2.0962  0.0609
  406TMC3    H2 6068   3.704   0.426  14.144 -1.7018 -0.2767  1.3078
  406TMC3    C7 6069   3.906   0.569  14.262 -0.1611 -0.4498  0.1500
  406TMC3    C8 6070   3.430   0.506  14.209 -0.1918  0.1246 -0.2636
  406TMC3    O1 6071   4.011   0.625  14.248  0.4523  0.5199  0.5372
  406TMC3    O2 6072   3.323   0.570  14.203  0.0662 -0.3616  0.1261
  407MPD2     C 6073   2.508   1.200   9.224  1.0052 -0.2936  0.5645
  407MPD2    C1 6074   2.596   1.276   9.296 -0.5325  0.4611 -0.9842
  407MPD2    C2 6075   2.550   1.373   9.383 -0.4119 -0.6271  0.1193
  407MPD2    C3 6076   2.416   1.374   9.422  0.4390 -0.3917  0.1227
  407MPD2    C4 6077   2.328   1.282   9.358 -0.3638  0.1627 -0.1340
  407MPD2    C5 6078   2.371   1.204   9.258  0.1862 -1.1797  0.0846
  407MPD2     H 6079   2.620   1.450   9.413  0.9661 -1.7043 -0.3253
  407MPD2    H1 6080   2.226   1.277   9.395 -0.4357 -1.5261 -0.5853
  407MPD2    H2 6081   2.537   1.129   9.147 -3.6386 -0.6122 -0.8941
  407MPD2    H3 6082   2.300   1.136   9.211  0.5917 -2.2778  1.0735
  407MPD2     N 6083   2.367   1.455   9.527  0.0800 -0.4602  0.0389
  407MPD2    H5 6084   2.281   1.419   9.567 -0.1593  1.0147  0.8879
  407MPD2    N1 6085   2.741   1.266   9.277 -0.1704 -0.8851 -0.3482
  407MPD2    H7 6086   2.792   1.328   9.338 -0.0073 -0.1996 -1.1777
  408TMC3    C1 6087   2.948   1.187   9.205 -0.3659  0.4095  0.3675
  408TMC3    C2 6088   3.014   1.294   9.260  0.0591  0.5054 -0.4662
  408TMC3    C3 6089   3.144   1.282   9.295  0.2617 -1.1024  0.3725
  408TMC3    C4 6090   3.021   1.074   9.170 -0.3416  0.2967  0.3917
  408TMC3    C5 6091   3.161   1.074   9.198 -0.7486 -0.5679  0.1058
  408TMC3    C6 6092   3.223   1.179   9.263 -0.1034  0.0403 -0.0959
  408TMC3     C 6093   2.803   1.179   9.199 -0.3566  0.1863 -0.1170
  408TMC3     O 6094   2.766   1.077   9.141 -0.4909  0.1471  0.3585
  408TMC3     H 6095   2.952   1.377   9.293 -0.8575  0.2716 -1.5939
  408TMC3    H1 6096   2.971   0.992   9.120 -0.2036  0.3077  0.2361
  408TMC3    H2 6097   3.325   1.173   9.297  0.0018  1.4213 -0.1956
  408TMC3    C7 6098   3.225   0.941   9.187  0.2439  0.1626  0.3507
  408TMC3    C8 6099   3.194   1.371   9.403 -0.4585 -0.1116  0.4819
  408TMC3    O1 6100   3.152   0.842   9.191 -0.0363 -0.2927 -0.5388
  408TMC3    O2 6101   3.277   1.325   9.480 -0.2622 -0.0681  0.2897
  409MPD2     C 6102   0.765   3.034  16.914  0.1745 -0.4712  0.1157
  409MPD2    C1 6103   0.858   3.068  17.016 -1.4941  0.7632  0.0226
  409MPD2    C2 6104   0.890   3.206  17.028 -0.2105  0.0511  0.0198
  409MPD2    C3 6105   0.830   3.298  16.947 -0.1549 -0.0373  0.2262
  409MPD2    C4 6106   0.734   3.264  16.861 -0.3571  0.0405  0.4454
  409MPD2    C5 6107   0.693   3.132  16.853  0.5814  0.1503  0.1126
  409MPD2     H 6108   0.968   3.240  17.095  0.1344  0.7328 -0.7209
  409MPD2    H1 6109   0.696   3.344  16.799 -0.3736 -1.3449 -1.3269
  409MPD2    H2 6110   0.738   2.930  16.896 -2.1934  0.1920 -0.2454
  409MPD2    H3 6111   0.609   3.115  16.787  0.8067 -0.3483 -0.0374
  409MPD2     N 6112   0.871   3.434  16.938 -0.3006 -0.1020 -0.2727
  409MPD2    H5 6113   0.820   3.499  16.879  2.0347  0.9050 -1.1999
  409MPD2    N1 6114   0.929   2.969  17.087 -0.2815  0.0894  0.1605
  409MPD2    H7 6115   0.997   3.010  17.151  0.0886 -3.0419  1.7749
  410TMC3    C1 6116   1.006   3.621  16.965  0.3072  0.3905 -0.0003
  410TMC3    C2 6117   1.102   3.667  17.054  0.5348 -0.0643  0.1100
  410TMC3    C3 6118   1.196   3.756  17.006 -0.0146  0.2818  0.1188
  410TMC3    C4 6119   1.004   3.667  16.835  0.5050 -0.4072 -0.2022
  410TMC3    C5 6120   1.094   3.763  16.801 -0.3212 -0.3200 -0.2273
  410TMC3    C6 6121   1.199   3.803  16.879  0.1510  1.0131 -0.3200
  410TMC3     C 6122   0.981   3.483  17.006 -0.3491  0.5165 -0.2888
  410TMC3     O 6123   1.079   3.426  17.047  0.8829  0.0476 -0.2906
  410TMC3     H 6124   1.097   3.625  17.155 -1.2325  2.1044  0.9159
  410TMC3    H1 6125   0.929   3.634  16.764  0.5782 -0.5285 -0.2238
  410TMC3    H2 6126   1.261   3.889  16.856 -1.5329  2.4221  0.4022
  410TMC3    C7 6127   1.073   3.810  16.667  0.1130 -0.8561 -0.4953
  410TMC3    C8 6128   1.321   3.736  17.069  0.0326 -0.4417  0.1112
  410TMC3    O1 6129   0.993   3.755  16.590  0.5517 -0.3850  0.0212
  410TMC3    O2 6130   1.395   3.828  17.096 -0.0660 -0.8041  0.3410
  411MPD2     C 6131   2.029   0.035  14.837  0.7193 -0.7651  0.0059
  411MPD2    C1 6132   1.934   0.004  14.930  0.3127  0.1896 -0.3791
  411MPD2    C2 6133   1.859   4.611  14.917 -0.2192 -1.1089 -0.3743
  411MPD2    C3 6134   1.867   4.539  14.799  0.1392 -0.0413  0.4768
  411MPD2    C4 6135   1.968   4.566  14.708  0.5233 -0.6542  0.7099
  411MPD2    C5 6136   2.039   4.685  14.723  0.2421 -0.0433  0.2884
  411MPD2     H 6137   1.786   4.575  14.988 -0.8633 -0.8416 -0.9080
  411MPD2    H1 6138   1.971   4.531  14.605  0.4852  1.0003  0.1469
  411MPD2    H2 6139   2.085   0.127  14.852 -0.0337 -0.4568  0.9266
  411MPD2    H3 6140   2.113   4.708  14.647  1.7673  0.6720  2.0019
  411MPD2     N 6141   1.764   4.446  14.755  0.0710  0.5632 -0.3847
  411MPD2    H5 6142   1.777   4.402  14.664 -2.3494  0.5893 -0.7591
  411MPD2    N1 6143   1.908   0.101  15.033  0.3606 -0.0391  0.4970
  411MPD2    H7 6144   1.952   0.192  15.028  0.0685  0.1839  2.0537
  412TMC3    C1 6145   1.582   4.294  14.743  0.0017 -0.5037  0.2902
  412TMC3    C2 6146   1.535   4.186  14.816 -0.0928  0.2100  0.3044
  412TMC3    C3 6147   1.460   4.097  14.737  0.3471  0.0923  0.6511
  412TMC3    C4 6148   1.551   4.306  14.611  0.7396  0.0463 -0.2079
  412TMC3    C5 6149   1.498   4.205  14.536  0.5217 -0.8055 -0.4640
  412TMC3    C6 6150   1.444   4.104  14.604  0.5144 -0.2563  0.1776
  412TMC3     C 6151   1.656   4.400  14.819 -0.1997 -0.3224  0.1541
  412TMC3     O 6152   1.630   4.404  14.936  0.2427  0.2695 -0.9396
  412TMC3     H 6153   1.544   4.190  14.924 -1.1513  0.2656  0.3884
  412TMC3    H1 6154   1.594   4.392  14.560 -0.0065  0.1147 -0.7277
  412TMC3    H2 6155   1.403   4.017  14.553 -0.4466 -0.3853  1.1427
  412TMC3    C7 6156   1.440   4.249  14.410  0.6696 -0.3707 -0.2864
  412TMC3    C8 6157   1.402   3.981  14.806 -0.2547 -0.7487 -0.1558
  412TMC3    O1 6158   1.439   4.368  14.377  0.2129 -0.1094 -0.1664
  412TMC3    O2 6159   1.443   3.944  14.914 -0.0263 -0.2846 -0.0608
  413MPD2     C 6160   2.945   2.519  15.441 -0.0195 -0.0793 -0.2230
  413MPD2    C1 6161   2.907   2.472  15.322  0.0286 -0.2600  0.2942
  413MPD2    C2 6162   2.942   2.347  15.279  0.5092  0.2464  0.4616
  413MPD2    C3 6163   3.009   2.266  15.370  0.6581  0.3319  0.2622
  413MPD2    C4 6164   3.043   2.311  15.498 -0.0367  0.0834  0.4448
  413MPD2    C5 6165   3.033   2.443  15.522  0.0211  0.0447 -0.2680
  413MPD2     H 6166   2.914   2.315  15.179  0.4978  0.7488  0.3045
  413MPD2    H1 6167   3.087   2.254  15.580 -2.1361 -1.8819  0.2033
  413MPD2    H2 6168   2.915   2.617  15.476 -1.4225  0.0971 -1.9259
  413MPD2    H3 6169   3.068   2.478  15.619 -0.9316 -0.4838  0.2559
  413MPD2     N 6170   3.029   2.137  15.326 -0.0073 -0.6249 -0.1000
  413MPD2    H5 6171   2.991   2.119  15.233 -2.5433 -1.6880  1.1570
  413MPD2    N1 6172   2.811   2.546  15.247 -0.0476  0.2118  1.0125
  413MPD2    H7 6173   2.798   2.639  15.284 -1.1037  1.1645 -1.7494
  414TMC3    C1 6174   3.136   1.925  15.323  0.2722 -0.3660 -0.1170
  414TMC3    C2 6175   3.235   1.841  15.377 -0.2623 -0.8751  0.1254
  414TMC3    C3 6176   3.234   1.711  15.335 -0.0351  0.5434 -0.0787
  414TMC3    C4 6177   3.043   1.888  15.227 -0.3025 -0.4430  0.2421
  414TMC3    C5 6178   3.065   1.764  15.169 -0.1598  0.1368  0.3294
  414TMC3    C6 6179   3.151   1.677  15.234 -1.5166 -0.4011  0.2189
  414TMC3     C 6180   3.118   2.054  15.388 -0.5571 -0.0414 -0.4328
  414TMC3     O 6181   3.189   2.075  15.482 -0.7604 -0.3757  0.1340
  414TMC3     H 6182   3.301   1.874  15.456  0.7795 -1.6484 -0.4242
  414TMC3    H1 6183   2.968   1.961  15.200 -0.3108  1.2942  4.8489
  414TMC3    H2 6184   3.157   1.576  15.194  2.0502  0.0554 -0.4475
  414TMC3    C7 6185   2.963   1.716  15.083  0.7262  1.3417 -0.4452
  414TMC3    C8 6186   3.344   1.620  15.359  0.0792  0.3755 -0.5504
  414TMC3    O1 6187   2.855   1.771  15.093  0.0643  0.2832  0.0051
  414TMC3    O2 6188   3.334   1.500  15.350  0.0838 -0.1417 -0.4563
  415TMC3    C1 6189   4.623   3.941   9.933 -0.2787 -0.9941  1.3438
  415TMC3    C2 6190   0.004   3.929   9.845  0.4135  0.0201 -0.1259
  415TMC3    C3 6191   4.706   3.864   9.729 -0.6656  0.5469 -0.7309
  415TMC3    C4 6192   4.505   3.871   9.911  0.0347  0.7452 -0.1719
  415TMC3    C5 6193   4.488   3.812   9.790 -0.2037 -0.8425 -0.0284
  415TMC3    C6 6194   4.586   3.805   9.695 -0.0514 -0.1595 -0.0147
  415TMC3     C 6195   4.658   3.945  10.074 -0.4473 -0.6484 -0.4391
  415TMC3     O 6196   4.581   3.877  10.142  0.5693 -0.3310  0.0248
  415TMC3     H 6197   0.107   3.950   9.868  0.6222  0.6814 -1.6280
  415TMC3    H1 6198   4.425   3.889   9.982  0.3409  2.2156 -0.1999
  415TMC3    H2 6199   4.577   3.770   9.593  1.0861  1.2846 -0.6059
  415TMC3    C7 6200   4.367   3.741   9.757 -0.0063  0.3721  0.2794
  415TMC3    C8 6201   0.091   3.847   9.629  0.1788  0.3510  0.2162
  415TMC3    O1 6202   4.351   3.701   9.644  0.5424  0.0067 -0.7263
  415TMC3    O2 6203   0.097   3.739   9.573  0.5198 -0.0066 -0.6574
  416MPD2     C 6204   1.644   3.089  11.671  0.2422  0.1789 -0.1437
  416MPD2    C1 6205   1.514   3.040  11.673 -0.3381 -0.1124  0.0284
  416MPD2    C2 6206   1.499   2.908  11.637  0.1509 -0.6163 -0.3121
  416MPD2    C3 6207   1.593   2.838  11.573 -0.0069  0.1957 -0.2510
  416MPD2    C4 6208   1.721   2.889  11.560  0.5494 -0.2306  1.1828
  416MPD2    C5 6209   1.744   3.014  11.615 -0.0166  0.1072 -1.1599
  416MPD2     H 6210   1.409   2.851  11.655  0.8693 -0.8531  2.5561
  416MPD2    H1 6211   1.808   2.842  11.517 -0.4044 -0.5743 -0.3898
  416MPD2    H2 6212   1.666   3.190  11.702 -0.7009  0.3726 -0.0911
  416MPD2    H3 6213   1.846   3.050  11.617 -0.3992  1.1543 -0.0972
  416MPD2     N 6214   1.553   2.710  11.536  0.2793 -0.9527  0.2765
  416MPD2    H5 6215   1.464   2.675  11.570 -1.7510  3.2313 -0.6995
  416MPD2    N1 6216   1.415   3.110  11.728  0.7239 -0.7468  0.0113
  416MPD2    H7 6217   1.433   3.206  11.754 -3.9015 -0.2465  1.3451
  417TMC3    C1 6218   1.189   3.171  11.767  0.5452  0.7459  0.1693
  417TMC3    C2 6219   1.157   3.170  11.897 -0.5174  0.1063  0.5208
  417TMC3    C3 6220   1.035   3.222  11.929 -0.0913 -0.5752 -1.0435
  417TMC3    C4 6221   1.107   3.200  11.672  0.6658  0.0774 -0.2041
  417TMC3    C5 6222   0.986   3.248  11.704 -0.0583  1.1004 -0.3460
  417TMC3    C6 6223   0.946   3.255  11.835 -0.4251  0.0579 -0.2251
  417TMC3     C 6224   1.282   3.069  11.724 -0.8424  0.1188  0.3596
  417TMC3     O 6225   1.228   2.972  11.678  0.3707 -0.0123 -0.2531
  417TMC3     H 6226   1.241   3.162  11.965 -0.0028  0.1677 -0.1040
  417TMC3    H1 6227   1.131   3.168  11.571  0.7911 -1.3698  0.2813
  417TMC3    H2 6228   0.855   3.304  11.869 -0.1321  0.7288 -0.4047
  417TMC3    C7 6229   0.913   3.284  11.586  0.0288 -0.2963 -0.1227
  417TMC3    C8 6230   0.984   3.221  12.064 -0.0497  0.1975  0.0916
  417TMC3    O1 6231   0.972   3.279  11.479 -0.6816 -0.3576  0.9387
  417TMC3    O2 6232   0.884   3.286  12.086 -0.3655 -0.6507  0.4400
  418TMC3    C1 6233   4.089   0.830   0.043  0.0053  0.6512 -0.4072
  418TMC3    C2 6234   3.991   0.790  17.647 -0.2170  0.0992 -0.1280
  418TMC3    C3 6235   3.864   0.787  17.679 -0.0422  0.5308  0.4128
  418TMC3    C4 6236   4.063   0.860   0.176 -0.2378 -0.0119 -0.4865
  418TMC3    C5 6237   3.931   0.848   0.203 -0.1836 -0.4344 -0.1366
  418TMC3    C6 6238   3.827   0.822   0.118  0.0308  0.6180  0.2851
  418TMC3     C 6239   4.235   0.816   0.003  0.0828 -0.1095  0.0563
  418TMC3     O 6240   4.248   0.756  17.591  0.3885 -0.2177  0.0307
  418TMC3     H 6241   4.016   0.760  17.545 -1.4968 -0.3268 -0.3167
  418TMC3    H1 6242   4.137   0.870   0.254 -0.5158  0.8076 -0.3333
  418TMC3    H2 6243   3.725   0.815   0.153  0.0726 -0.4066  0.1970
  418TMC3    C7 6244   3.903   0.865   0.345  0.3814  0.7756 -0.4534
  418TMC3    C8 6245   3.774   0.716  17.590  0.3685  0.5363  0.2724
  418TMC3    O1 6246   4.004   0.876   0.414  0.0684 -0.0103  0.3490
  418TMC3    O2 6247   3.800   0.712  17.469 -0.0682 -0.1836  0.3569
  419MPD2     C 6248   3.183   3.183  13.008 -0.3226  0.6744 -0.2456
  419MPD2    C1 6249   3.098   3.180  12.894 -0.6184 -0.1343 -0.1794
  419MPD2    C2 6250   2.979   3.254  12.886  0.0021  0.0292  0.0235
  419MPD2    C3 6251   2.935   3.325  13.000  0.2109  0.2298 -0.4488
  419MPD2    C4 6252   3.008   3.315  13.111  0.1083  0.7128  0.0255
  419MPD2    C5 6253   3.126   3.235  13.115  0.0599  0.6435  0.3277
  419MPD2     H 6254   2.914   3.255  12.799 -0.4010  0.4689  0.3347
  419MPD2    H1 6255   2.974   3.361  13.203  0.3253  1.6261 -0.3580
  419MPD2    H2 6256   3.278   3.134  13.026  0.1081  0.7370 -2.2696
  419MPD2    H3 6257   3.170   3.229  13.214 -0.3178 -0.2588  0.4444
  419MPD2     N 6258   2.815   3.400  13.008 -0.4667 -0.2416  0.4673
  419MPD2    H5 6259   2.777   3.434  13.096  0.6127 -0.7934  1.1362
  419MPD2    N1 6260   3.154   3.105  12.785 -0.1548 -0.2574 -0.5375
  419MPD2    H7 6261   3.249   3.070  12.798  1.5377  3.3520 -3.1734
  420TMC3    C1 6262   2.629   3.539  12.942 -0.2743  0.1628  0.4594
  420TMC3    C2 6263   2.601   3.644  12.864 -0.0386 -0.7252 -0.8036
  420TMC3    C3 6264   2.498   3.726  12.904  0.0872 -0.5768 -0.5947
  420TMC3    C4 6265   2.586   3.517  13.066 -0.8989  0.9465 -0.4936
  420TMC3    C5 6266   2.494   3.612  13.115 -0.0458  0.0498  0.2728
  420TMC3    C6 6267   2.443   3.709  13.032  0.1845 -0.2725  0.1379
  420TMC3     C 6268   2.747   3.456  12.901 -0.0168 -0.2628  0.3379
  420TMC3     O 6269   2.791   3.470  12.788 -0.5428 -0.0027  0.9284
  420TMC3     H 6270   2.633   3.647  12.761 -3.5095 -0.9456 -1.8952
  420TMC3    H1 6271   2.594   3.426  13.124  1.2337  1.2859 -0.2233
  420TMC3    H2 6272   2.349   3.754  13.060  1.1099  2.4114 -1.0958
  420TMC3    C7 6273   2.483   3.615  13.262  0.0089  0.6402  0.2766
  420TMC3    C8 6274   2.448   3.827  12.821 -0.3914  0.3797  0.5014
  420TMC3    O1 6275   2.544   3.523  13.313  0.3324  0.4276  1.0065
  420TMC3    O2 6276   2.505   3.832  12.714  0.0807  0.1751  0.1127
  421TMC3    C1 6277   4.165   0.724  13.620  0.2459  0.0582 -0.8158
  421TMC3    C2 6278   4.158   0.852  13.666 -0.3595  0.2680  0.1614
  421TMC3    C3 6279   4.277   0.904  13.717  0.4836  0.3102  0.7319
  421TMC3    C4 6280   4.273   0.645  13.624  0.3270  0.2855 -0.1315
  421TMC3    C5 6281   4.388   0.700  13.672  0.0500 -0.2517 -0.1915
  421TMC3    C6 6282   4.388   0.831  13.715 -0.1980  0.5564 -0.4872
  421TMC3     C 6283   4.035   0.666  13.596  0.7408 -0.0543 -0.5709
  421TMC3     O 6284   3.938   0.740  13.601 -1.0539  0.1694  0.2824
  421TMC3     H 6285   4.071   0.916  13.660  0.7220  1.7897  0.6777
  421TMC3    H1 6286   4.277   0.542  13.591 -0.8389  0.2633 -0.2044
  421TMC3    H2 6287   4.480   0.869  13.757 -0.1810 -0.0276  0.0052
  421TMC3    C7 6288   4.507   0.621  13.708  0.1313  0.1721  0.2957
  421TMC3    C8 6289   4.267   0.996  13.826 -0.1559  0.5400 -0.0518
  421TMC3    O1 6290   4.612   0.677  13.742  0.2727 -0.5243 -0.0538
  421TMC3    O2 6291   4.162   1.004  13.893  0.4545  0.0967  0.2187
  422TMC3    C1 6292   1.858   1.487  12.980 -0.1448 -0.3675 -0.5807
  422TMC3    C2 6293   1.826   1.604  13.046  0.7317  0.1105 -1.0606
  422TMC3    C3 6294   1.687   1.634  13.058  0.0072 -0.1563  0.1151
  422TMC3    C4 6295   1.762   1.400  12.934  0.2346 -0.5040  0.0052
  422TMC3    C5 6296   1.631   1.440  12.934 -0.2497  0.1290 -0.2761
  422TMC3    C6 6297   1.590   1.556  13.002  1.2179 -0.3852  0.2847
  422TMC3     C 6298   1.972   1.511  12.892 -0.0563 -0.5644 -0.2270
  422TMC3     O 6299   2.034   1.612  12.920 -0.2676 -0.0129 -0.2465
  422TMC3     H 6300   1.906   1.670  13.076  1.9364 -1.5548 -0.5926
  422TMC3    H1 6301   1.797   1.318  12.871  1.1043  1.1759 -1.7034
  422TMC3    H2 6302   1.487   1.576  13.028  0.2209 -2.1164 -2.3110
  422TMC3    C7 6303   1.552   1.377  12.828  0.2065  0.0402 -0.2606
  422TMC3    C8 6304   1.645   1.727  13.153 -0.7024  0.4604 -0.7543
  422TMC3    O1 6305   1.598   1.283  12.763 -0.0076 -0.0837 -0.2365
  422TMC3    O2 6306   1.736   1.737  13.233  0.1284 -0.5263  0.4980
  423MPD2     C 6307   2.554   2.747   0.472 -0.1437 -0.0198 -1.0974
  423MPD2    C1 6308   2.581   2.613   0.481  0.9160 -0.2186  0.3228
  423MPD2    C2 6309   2.662   2.554   0.382  0.0782  0.2370 -0.4139
  423MPD2    C3 6310   2.728   2.625   0.287 -0.0750 -0.1265  0.4483
  423MPD2    C4 6311   2.718   2.760   0.296 -0.3155 -0.0961  0.2261
  423MPD2    C5 6312   2.636   2.818   0.395 -0.3065 -0.4911  0.5416
  423MPD2     H 6313   2.664   2.446   0.375  1.9833  0.2591 -0.1495
  423MPD2    H1 6314   2.777   2.814   0.223  1.1598 -0.3584  1.2312
  423MPD2    H2 6315   2.498   2.800   0.549 -0.7035 -1.6670 -0.3580
  423MPD2    H3 6316   2.632   2.927   0.392  2.1506 -0.3725  1.9026
  423MPD2     N 6317   2.808   2.567   0.179  0.2088  0.0254  0.3180
  423MPD2    H5 6318   2.857   2.625   0.112  2.4617 -2.1809  0.0394
  423MPD2    N1 6319   2.512   2.523   0.567 -0.1345  0.0880  0.4758
  423MPD2    H7 6320   2.543   2.428   0.581 -2.0852 -0.1788  3.0370
  424TMC3    C1 6321   2.356   2.445   0.728  0.5676 -0.3759 -0.1555
  424TMC3    C2 6322   2.445   2.361   0.800  0.5505 -0.2046  0.1838
  424TMC3    C3 6323   2.391   2.287   0.899 -0.0520  0.4509  0.0851
  424TMC3    C4 6324   2.223   2.455   0.765  0.2302 -0.2064  0.4855
  424TMC3    C5 6325   2.181   2.383   0.873 -0.5409 -0.0730 -0.0119
  424TMC3    C6 6326   2.258   2.290   0.933 -0.0565 -0.2496  0.1423
  424TMC3     C 6327   2.401   2.553   0.641 -0.1501  0.2440  0.5884
  424TMC3     O 6328   2.330   2.653   0.630 -0.1633 -0.0104  0.2792
  424TMC3     H 6329   2.543   2.337   0.760  0.5856 -0.4289  0.4060
  424TMC3    H1 6330   2.157   2.528   0.721  4.1626  2.7969 -0.4153
  424TMC3    H2 6331   2.221   2.227   1.014 -0.2925 -0.7661 -0.3711
  424TMC3    C7 6332   2.041   2.402   0.901 -0.2104 -0.2865 -0.3982
  424TMC3    C8 6333   2.480   2.189   0.961 -0.6294  0.7142 -0.2493
  424TMC3    O1 6334   1.972   2.454   0.813 -0.4704  0.5293  0.1437
  424TMC3    O2 6335   2.576   2.151   0.898 -0.6367 -0.2951  0.5233
  425MPD2     C 6336   2.170   2.041  17.095  0.0990  0.4579  0.3074
  425MPD2    C1 6337   2.116   1.941  17.173 -0.8181 -0.4303 -0.3511
  425MPD2    C2 6338   1.991   1.958  17.217 -0.2927 -0.2592  0.2256
  425MPD2    C3 6339   1.921   2.073  17.201  0.0200 -0.0201  0.0767
  425MPD2    C4 6340   1.973   2.172  17.117 -0.2336 -0.3264 -0.0552
  425MPD2    C5 6341   2.098   2.156  17.065  0.1593 -0.0892 -0.6458
  425MPD2     H 6342   1.950   1.882  17.283  1.5230 -0.0519  1.6287
  425MPD2    H1 6343   1.933   2.271  17.098  4.0323  1.3612 -0.2455
  425MPD2    H2 6344   2.278   2.039  17.084  0.2734 -0.5288  2.1495
  425MPD2    H3 6345   2.145   2.234  17.006  0.8557 -0.7545 -0.9782
  425MPD2     N 6346   1.791   2.074  17.256 -0.0885 -0.3940 -0.2138
  425MPD2    H5 6347   1.749   1.988  17.292 -1.2574 -0.1651 -1.0213
  425MPD2    N1 6348   2.175   1.821  17.213  0.9501  0.8390  0.0308
  425MPD2    H7 6349   2.117   1.752  17.259  0.9681  1.3624  0.8477
  426TMC3    C1 6350   2.314   1.634  17.203  0.1334 -0.4998 -0.3539
  426TMC3    C2 6351   2.366   1.557  17.107  0.4768  0.1276 -0.6770
  426TMC3    C3 6352   2.358   1.422  17.138  0.3335  0.2832  0.7499
  426TMC3    C4 6353   2.256   1.590  17.321  0.0299  0.4037 -0.1447
  426TMC3    C5 6354   2.256   1.458  17.341 -0.8660  0.3427  0.4745
  426TMC3    C6 6355   2.312   1.374  17.256 -0.3117  0.0980 -1.0124
  426TMC3     C 6356   2.290   1.776  17.166 -0.1971 -0.0432  0.5773
  426TMC3     O 6357   2.355   1.829  17.079  0.6003  0.4056 -0.1972
  426TMC3     H 6358   2.412   1.597  17.018 -1.0834 -1.7566 -2.3174
  426TMC3    H1 6359   2.227   1.657  17.401 -0.4097  0.2756 -0.1949
  426TMC3    H2 6360   2.302   1.270  17.283  1.0507 -0.0652 -1.1106
  426TMC3    C7 6361   2.216   1.409  17.474  0.3898 -0.6750  0.4872
  426TMC3    C8 6362   2.401   1.327  17.042 -0.0477 -0.5070 -0.1060
  426TMC3    O1 6363   2.262   1.300  17.498  0.0413 -0.1174  0.1108
  426TMC3    O2 6364   2.467   1.235  17.077 -0.3858  0.1590  0.1244
  427MPD2     C 6365   1.012   4.482  14.824  0.6360  0.2315 -1.0199
  427MPD2    C1 6366   0.976   4.386  14.921 -0.1862 -0.2345  0.2738
  427MPD2    C2 6367   0.845   4.344  14.934  0.0509 -0.1146  0.0054
  427MPD2    C3 6368   0.744   4.396  14.853  0.2879  0.4926 -0.3604
  427MPD2    C4 6369   0.781   4.510  14.776 -1.2346 -0.0997 -0.3087
  427MPD2    C5 6370   0.910   4.543  14.753 -0.0709 -0.6488 -0.3334
  427MPD2     H 6371   0.818   4.275  15.013  0.9792  1.2339  1.5063
  427MPD2    H1 6372   0.709   4.575  14.728 -0.3638  0.4261 -0.8903
  427MPD2    H2 6373   1.115   4.512  14.810  1.0895 -0.7934  0.1753
  427MPD2    H3 6374   0.935   4.627  14.689  2.9620 -1.2051  0.1043
  427MPD2     N 6375   0.610   4.349  14.850  0.0648 -1.1134  0.2062
  427MPD2    H5 6376   0.548   4.392  14.782 -0.0106 -0.2597  0.8216
  427MPD2    N1 6377   1.062   4.323  15.012 -0.0594 -0.4492  0.1623
  427MPD2    H7 6378   1.021   4.247  15.065 -1.0625  0.2598  0.4089
  428TMC3    C1 6379   1.252   4.237  15.113 -0.2593  0.7607 -0.4329
  428TMC3    C2 6380   1.179   4.125  15.127 -0.1735 -0.4432 -0.4449
  428TMC3    C3 6381   1.188   4.041  15.230  0.0807 -1.2832  0.3193
  428TMC3    C4 6382   1.344   4.272  15.208  0.2178  0.0056  0.0135
  428TMC3    C5 6383   1.339   4.196  15.321  0.6200  0.9305  0.6682
  428TMC3    C6 6384   1.272   4.074  15.333 -0.7015 -0.1372 -1.1981
  428TMC3     C 6385   1.197   4.336  15.020  0.2571  1.0199  0.4874
  428TMC3     O 6386   1.268   4.425  14.970  0.3663 -0.1367  0.2041
  428TMC3     H 6387   1.114   4.092  15.047 -1.8890  2.9997 -0.4820
  428TMC3    H1 6388   1.397   4.366  15.195  0.0898  0.0773  0.0096
  428TMC3    H2 6389   1.272   4.013  15.423  1.2902  1.9512  0.2408
  428TMC3    C7 6390   1.398   4.236  15.449 -0.4018  0.3527 -0.3244
  428TMC3    C8 6391   1.051   4.001  15.265  0.3147  0.1750  0.3321
  428TMC3    O1 6392   1.375   4.162  15.550  0.0935 -0.1726 -0.3030
  428TMC3    O2 6393   0.956   4.057  15.206  0.0460 -0.0240 -0.0505
  429MPD2     C 6394   1.383   3.572  17.536 -0.0750  0.0328  0.2450
  429MPD2    C1 6395   1.482   3.615  17.626  0.0245  0.2070 -0.0914
  429MPD2    C2 6396   1.508   3.749  17.635 -0.0419  0.0344 -0.2954
  429MPD2    C3 6397   1.446   3.833  17.547  0.4476  0.2651  1.0116
  429MPD2    C4 6398   1.370   3.790  17.450 -0.7264 -0.0698 -0.5869
  429MPD2    C5 6399   1.333   3.659  17.444  0.1705 -0.3629 -0.4755
  429MPD2     H 6400   1.573   3.785   0.024  2.3763  0.8362 -2.6149
  429MPD2    H1 6401   1.327   3.846  17.368 -2.2452 -0.1012  0.1876
  429MPD2    H2 6402   1.372   3.468  17.506  0.5909 -0.3453  1.3392
  429MPD2    H3 6403   1.275   3.625  17.359 -1.4623 -0.9570  0.8519
  429MPD2     N 6404   1.470   3.973  17.567 -0.3497  0.5712  0.4391
  429MPD2    H5 6405   1.540   3.997  17.637  3.3322 -1.0864 -2.6632
  429MPD2    N1 6406   1.552   3.529   0.022  0.0270  0.0590  0.3485
  429MPD2    H7 6407   1.632   3.563   0.075 -0.9326  3.1144 -0.2245
  430TMC3    C1 6408   1.461   4.202  17.531  0.0955  0.3680  0.3987
  430TMC3    C2 6409   1.386   4.302  17.480  0.3670 -0.8734 -0.5733
  430TMC3    C3 6410   1.459   4.409  17.426 -0.4477 -0.0469 -0.2926
  430TMC3    C4 6411   1.600   4.204  17.543 -0.1686  0.0221  0.2181
  430TMC3    C5 6412   1.666   4.304  17.484  0.2785  0.1995 -0.6704
  430TMC3    C6 6413   1.597   4.407  17.432  0.6633  0.9831  0.5258
  430TMC3     C 6414   1.410   4.076  17.496  0.2986  0.6905 -0.1544
  430TMC3     O 6415   1.320   4.076  17.413 -0.3240 -0.3081 -0.1150
  430TMC3     H 6416   1.278   4.296  17.476  0.2692  1.5705 -2.1427
  430TMC3    H1 6417   1.665   4.119  17.562 -0.1620  0.1547  0.7792
  430TMC3    H2 6418   1.650   4.495  17.398 -1.3040  1.8793 -0.2072
  430TMC3    C7 6419   1.762   4.264  17.387  0.0721  0.5768 -0.4796
  430TMC3    C8 6420   1.404   4.480  17.315  0.7411  0.3056  0.2301
  430TMC3    O1 6421   1.745   4.153  17.332  0.3186 -0.2215 -0.2995
  430TMC3    O2 6422   1.479   4.534  17.238  0.3031  0.3305  0.3041
  431MPD2     C 6423   3.928   3.181  12.899  0.5312  0.1112  0.3455
  431MPD2    C1 6424   3.906   3.229  12.769  1.0912 -0.3501 -0.7378
  431MPD2    C2 6425   3.799   3.181  12.702  0.1630 -0.6156 -0.1708
  431MPD2    C3 6426   3.716   3.079  12.759 -0.4514  0.1259 -0.1065
  431MPD2    C4 6427   3.729   3.041  12.887 -0.0069  0.1663 -0.1664
  431MPD2    C5 6428   3.839   3.095  12.954 -0.3002 -0.5172  0.0833
  431MPD2     H 6429   3.784   3.207  12.598 -0.0690  0.6690  0.1878
  431MPD2    H1 6430   3.665   2.971  12.941  1.9711 -1.8068 -0.3776
  431MPD2    H2 6431   4.010   3.214  12.961  0.4972  0.4056  0.2310
  431MPD2    H3 6432   3.863   3.046  13.048  0.9163  0.4270  0.2634
  431MPD2     N 6433   3.607   3.026  12.694 -0.6965  1.0028 -0.5206
  431MPD2    H5 6434   3.543   2.980  12.757  0.6320  3.7906  2.8894
  431MPD2    N1 6435   3.980   3.330  12.702  0.5175 -0.1659  0.1343
  431MPD2    H7 6436   3.958   3.354  12.606 -0.3948  0.8700  0.6007
  432TMC3    C1 6437   3.442   3.015  12.533 -0.6941 -0.1881 -0.2182
  432TMC3    C2 6438   3.420   2.985  12.401  0.3755 -0.0558  0.4529
  432TMC3    C3 6439   3.296   3.010  12.346 -0.1677  0.4518 -0.4926
  432TMC3    C4 6440   3.342   3.061  12.611  0.6451 -0.0673  1.1956
  432TMC3    C5 6441   3.213   3.059  12.562 -0.7726 -0.3851  0.2907
  432TMC3    C6 6442   3.187   3.036  12.427  0.6026  0.1213  0.4962
  432TMC3     C 6443   3.573   3.044  12.567  0.4841  0.5310  0.2571
  432TMC3     O 6444   3.649   3.049  12.471  0.4575 -0.5020 -0.3598
  432TMC3     H 6445   3.490   2.931  12.339 -0.6752 -0.6700 -0.1973
  432TMC3    H1 6446   3.371   3.125  12.694 -1.7448  0.0870  1.9126
  432TMC3    H2 6447   3.085   3.018  12.398 -0.0263 -0.5724  3.1504
  432TMC3    C7 6448   3.104   3.107  12.655  0.1928 -0.2970 -0.3042
  432TMC3    C8 6449   3.272   2.946  12.219 -0.0146  0.2535  0.0361
  432TMC3    O1 6450   2.992   3.137  12.615 -0.1991 -0.4564 -0.0817
  432TMC3    O2 6451   3.173   2.877  12.209 -0.0623  0.2426 -0.2998
  433MPD2     C 6452   2.306   2.011  10.620 -0.3032  0.2128  0.9203
  433MPD2    C1 6453   2.223   1.925  10.678 -0.4069  0.6750  0.0086
  433MPD2    C2 6454   2.187   1.944  10.811  0.1667  0.7893 -0.2368
  433MPD2    C3 6455   2.235   2.052  10.883  0.6798 -0.3287 -0.8706
  433MPD2    C4 6456   2.318   2.143  10.820 -0.2410 -0.6677  0.1703
  433MPD2    C5 6457   2.360   2.113  10.695 -0.3375 -0.2881  0.4800
  433MPD2     H 6458   2.111   1.876  10.850  0.4403 -0.2954 -1.5840
  433MPD2    H1 6459   2.373   2.223  10.868 -0.5484 -0.7454  0.6564
  433MPD2    H2 6460   2.336   1.998  10.516  1.7118  0.4655  1.4637
  433MPD2    H3 6461   2.438   2.173  10.649 -0.5891  1.0014  1.7420
  433MPD2     N 6462   2.199   2.055  11.023 -0.0146  0.2707 -0.0077
  433MPD2    H5 6463   2.131   1.988  11.057 -0.0468  0.7708  0.9106
  433MPD2    N1 6464   2.168   1.814  10.599  0.2281  0.3060  0.0121
  433MPD2    H7 6465   2.206   1.790  10.508 -1.2189 -1.4194 -0.1483
  434TMC3    C1 6466   2.082   1.585  10.581 -0.4448  0.0523  0.1734
  434TMC3    C2 6467   2.115   1.490  10.673 -0.0770  0.8975  0.4858
  434TMC3    C3 6468   2.170   1.374  10.627 -0.2453  0.2672 -0.1728
  434TMC3    C4 6469   2.104   1.576  10.452 -0.2630  0.1280 -0.6390
  434TMC3    C5 6470   2.155   1.459  10.409 -0.1803 -0.7411  0.2398
  434TMC3    C6 6471   2.185   1.352  10.492  0.0409  0.0858 -0.0226
  434TMC3     C 6472   2.072   1.719  10.644  0.2985  0.1553 -0.4297
  434TMC3     O 6473   1.988   1.731  10.730 -0.0400 -0.4492 -0.7697
  434TMC3     H 6474   2.114   1.511  10.779  0.8939 -1.6505  0.9749
  434TMC3    H1 6475   2.087   1.666  10.394  1.6621  1.2803  0.5868
  434TMC3    H2 6476   2.240   1.267  10.453 -0.0231 -0.2987  0.7159
  434TMC3    C7 6477   2.130   1.440  10.265  0.6415 -0.0172 -0.2717
  434TMC3    C8 6478   2.220   1.279  10.723 -0.2216 -0.1012  0.1411
  434TMC3    O1 6479   2.136   1.543  10.192  0.0250 -0.5396  0.0662
  434TMC3    O2 6480   2.188   1.311  10.838 -0.3998 -0.9790 -0.3866
  435MPD2     C 6481   3.101   2.839  15.299 -0.1003 -0.3245  0.1221
  435MPD2    C1 6482   3.081   2.825  15.437 -0.4028  0.0474 -0.2194
  435MPD2    C2 6483   3.189   2.790  15.516  0.0178  0.0952  0.3399
  435MPD2    C3 6484   3.313   2.767  15.469  0.0672 -0.0841  0.2447
  435MPD2    C4 6485   3.339   2.787  15.332  0.1134  0.0060  0.0222
  435MPD2    C5 6486   3.234   2.831  15.254 -0.2963 -0.7688 -0.4497
  435MPD2     H 6487   3.173   2.796  15.623  0.4646  0.1935  0.3998
  435MPD2    H1 6488   3.436   2.763  15.291 -0.0627  0.3763 -0.6171
  435MPD2    H2 6489   3.017   2.863  15.235 -0.2511 -0.0620  0.4228
  435MPD2    H3 6490   3.258   2.828  15.148  1.9905 -2.2535  0.0828
  435MPD2     N 6491   3.406   2.730  15.561  0.0282  0.2986 -0.0950
  435MPD2    H5 6492   3.389   2.720  15.660 -2.0113 -3.4894 -0.8120
  435MPD2    N1 6493   2.960   2.867  15.500  0.1909  0.2314  0.3099
  435MPD2    H7 6494   2.958   2.874  15.601 -2.6116  1.5544  0.1818
  436TMC3    C1 6495   2.706   3.002  15.760  0.0564  0.3412 -0.0132
  436TMC3    C2 6496   2.781   2.997  15.651 -0.4199  0.5757  0.8567
  436TMC3    C3 6497   2.739   2.908  15.551 -0.4026  1.2225 -0.0030
  436TMC3    C4 6498   2.583   2.929  15.771  0.2069 -0.1309  0.0277
  436TMC3    C5 6499   2.555   2.841  15.674  0.3119 -0.0940  0.3741
  436TMC3    C6 6500   2.629   2.827  15.557  0.8970 -0.1857  0.2151
  436TMC3     C 6501   2.784   3.036  15.880  0.3352  0.3776 -0.0507
  436TMC3     O 6502   2.903   3.052  15.860 -0.9594  0.0906  0.1636
  436TMC3     H 6503   2.872   3.056  15.643  0.5927 -1.4056 -2.4795
  436TMC3    H1 6504   2.526   2.926  15.863 -1.2274  0.6336 -0.8413
  436TMC3    H2 6505   2.585   2.789  15.466 -2.6989  3.5449  0.3923
  436TMC3    C7 6506   2.419   2.793  15.671  0.3200 -0.3759 -0.2233
  436TMC3    C8 6507   2.835   2.869  15.445 -1.0663  0.1576  0.2307
  436TMC3    O1 6508   2.340   2.833  15.750 -0.3549 -0.5013 -0.2413
  436TMC3    O2 6509   2.810   2.823  15.336 -0.3690 -0.0883 -0.0687
  437TMC3    C1 6510   2.628   4.201  12.869  0.1343 -0.5530  0.0100
  437TMC3    C2 6511   2.557   4.316  12.896 -0.7830  0.0760 -0.6615
  437TMC3    C3 6512   2.542   4.404  12.789 -0.1200  0.0404  0.5153
  437TMC3    C4 6513   2.669   4.161  12.744  0.2399  0.1684 -0.1489
  437TMC3    C5 6514   2.638   4.247  12.645 -1.1490 -0.1531 -0.7698
  437TMC3    C6 6515   2.582   4.376  12.661 -0.0823  0.0571 -0.0296
  437TMC3     C 6516   2.645   4.108  12.981  0.4918  0.0592 -0.4354
  437TMC3     O 6517   2.588   4.126  13.085 -0.0379  0.2346  0.2495
  437TMC3     H 6518   2.538   4.341  13.000  0.6629 -0.2403 -0.3243
  437TMC3    H1 6519   2.700   4.060  12.722  4.1469  0.9325  1.7762
  437TMC3    H2 6520   2.557   4.430  12.570  3.7428 -2.0440 -2.3557
  437TMC3    C7 6521   2.685   4.227  12.503  0.5743 -0.2506  0.0592
  437TMC3    C8 6522   2.459   4.527  12.797 -0.1480 -0.6176  0.4488
  437TMC3    O1 6523   2.625   4.288  12.414  0.0091  0.1734 -0.3014
  437TMC3    O2 6524   2.355   4.526  12.862 -0.0971  0.8329 -0.6365
  438MPD2     C 6525   4.168   0.455  16.690  0.0615 -0.3776  0.1825
  438MPD2    C1 6526   4.239   0.510  16.792 -0.1828  0.2274  0.1618
  438MPD2    C2 6527   4.187   0.518  16.915 -0.6110  0.1697  0.2730
  438MPD2    C3 6528   4.056   0.486  16.941  0.0676  0.0037  0.5471
  438MPD2    C4 6529   3.978   0.455  16.831  0.3631  0.6744 -0.1996
  438MPD2    C5 6530   4.035   0.419  16.714  0.1197 -0.6520  0.3046
  438MPD2     H 6531   4.256   0.533  16.997  0.3530 -0.2344 -0.4547
  438MPD2    H1 6532   3.872   0.435  16.837  0.2789  1.5245  1.3469
  438MPD2    H2 6533   4.209   0.430  16.593 -0.9303  0.1759 -0.3767
  438MPD2    H3 6534   3.983   0.370  16.633 -0.3539  1.2322 -0.5346
  438MPD2     N 6535   3.997   0.486  17.062 -0.1696 -0.2330 -0.3034
  438MPD2    H5 6536   3.896   0.493  17.066 -0.1526  0.7855 -1.7804
  438MPD2    N1 6537   4.375   0.548  16.772 -0.2726  0.1156  0.1462
  438MPD2    H7 6538   4.427   0.582  16.852  0.5528  0.1323 -0.3974
  439TMC3    C1 6539   4.585   0.595  16.671 -0.1209  0.2616  0.0665
  439TMC3    C2 6540   4.659   0.599  16.554 -0.1419  0.6342 -0.1421
  439TMC3    C3 6541   0.050   0.673  16.543  0.4619  0.8228  0.1663
  439TMC3    C4 6542   4.637   0.652  16.782  0.1734 -0.6681  0.1632
  439TMC3    C5 6543   0.030   0.723  16.769 -0.5853 -0.3836  0.0390
  439TMC3    C6 6544   0.100   0.739  16.653 -0.1728  0.4518  0.5782
  439TMC3     C 6545   4.450   0.530  16.662 -0.0944 -0.5859 -0.8428
  439TMC3     O 6546   4.427   0.482  16.552 -0.5115  0.2225 -0.3762
  439TMC3     H 6547   4.626   0.534  16.474  0.5696  1.6352 -1.2465
  439TMC3    H1 6548   4.603   0.635  16.884  2.1813 -1.6662  0.6714
  439TMC3    H2 6549   0.199   0.783  16.653 -0.9493  2.1873  0.3678
  439TMC3    C7 6550   0.119   0.732  16.882 -0.3365  0.4721 -0.9934
  439TMC3    C8 6551   0.156   0.618  16.463 -0.2369 -0.1282  0.3926
  439TMC3    O1 6552   0.243   0.701  16.877  0.5195 -0.2775 -0.6033
  439TMC3    O2 6553   0.256   0.590  16.526 -0.1636  0.0033  0.2974
  440MPD2     C 6554   2.997   1.072  15.023 -0.3535  0.2096  0.0402
  440MPD2    C1 6555   3.082   1.154  15.101  0.1263 -0.1618 -0.5517
  440MPD2    C2 6556   3.217   1.122  15.117 -0.3182 -0.2995  0.0224
  440MPD2    C3 6557   3.278   1.023  15.041  0.2912  0.0211  0.1354
  440MPD2    C4 6558   3.199   0.950  14.957  0.4452  0.1751 -0.6383
  440MPD2    C5 6559   3.063   0.965  14.965 -0.2976 -0.2139  0.2683
  440MPD2     H 6560   3.278   1.174  15.191 -1.9061  1.3509  0.1736
  440MPD2    H1 6561   3.236   0.860  14.911  2.4869 -0.6508  2.6385
  440MPD2    H2 6562   2.894   1.090  14.997 -0.3444  1.8705  1.1278
  440MPD2    H3 6563   3.009   0.888  14.910 -1.2684  1.2700 -0.8690
  440MPD2     N 6564   3.418   1.003  15.041  0.4540  0.4157  0.2092
  440MPD2    H5 6565   3.445   0.926  14.981 -0.3453 -0.3272  0.7998
  440MPD2    N1 6566   3.038   1.261  15.186  0.1438  0.7268 -0.1637
  440MPD2    H7 6567   3.110   1.308  15.240 -0.0903  1.7327 -0.7264
  441TMC3    C1 6568   3.648   1.041  15.067 -0.3868 -0.6382 -0.2836
  441TMC3    C2 6569   3.704   1.159  15.025  0.2468  0.2166  0.6941
  441TMC3    C3 6570   3.829   1.171  15.070  0.7835  0.0746 -0.3919
  441TMC3    C4 6571   3.707   0.946  15.138 -0.1886 -0.6796  0.1197
  441TMC3    C5 6572   3.838   0.967  15.176  0.4297 -0.0104 -0.0650
  441TMC3    C6 6573   3.904   1.080  15.141  0.1814  0.2393 -0.1714
  441TMC3     C 6574   3.514   1.073  15.111 -0.4744  0.1859  0.2943
  441TMC3     O 6575   3.505   1.181  15.171 -0.4802  0.1914  0.2514
  441TMC3     H 6576   3.656   1.243  14.976 -1.4365 -0.8260  0.5632
  441TMC3    H1 6577   3.654   0.857  15.171  1.5435 -1.3838  1.0348
  441TMC3    H2 6578   3.994   1.108  15.195 -0.3796  2.6115 -0.4843
  441TMC3    C7 6579   3.874   0.908  15.300 -0.3864  0.1616 -0.5576
  441TMC3    C8 6580   3.862   1.306  15.108 -0.3345 -1.0517 -0.7786
  441TMC3    O1 6581   3.818   0.955  15.400 -0.1074  0.2333  0.0816
  441TMC3    O2 6582   3.977   1.337  15.132  0.6004 -0.0433 -0.4435
  442MPD2     C 6583   2.001   1.744  16.487  0.6779  0.4849 -0.4088
  442MPD2    C1 6584   1.974   1.618  16.534 -0.6098  0.5147 -0.8484
  442MPD2    C2 6585   2.017   1.508  16.466  0.2714 -0.7201 -0.0008
  442MPD2    C3 6586   2.086   1.521  16.344  0.8169 -0.9673 -0.5540
  442MPD2    C4 6587   2.125   1.651  16.305 -0.6502  0.0889  0.2197
  442MPD2    C5 6588   2.087   1.757  16.383 -0.0783 -0.4106  0.3820
  442MPD2     H 6589   2.007   1.405  16.497 -3.1974  0.3690  2.4141
  442MPD2    H1 6590   2.184   1.674  16.216 -0.5234 -1.9294 -0.2205
  442MPD2    H2 6591   1.967   1.835  16.535  0.1727 -0.4550  1.0286
  442MPD2    H3 6592   2.116   1.860  16.365  0.8440 -0.9668 -1.2814
  442MPD2     N 6593   2.107   1.412  16.257  0.0612  0.3487 -0.4314
  442MPD2    H5 6594   2.141   1.427  16.163  2.2209 -2.5269 -0.1263
  442MPD2    N1 6595   1.889   1.608  16.645 -0.5064 -0.2024 -0.3040
  442MPD2    H7 6596   1.865   1.697  16.685  1.3754  0.8260 -1.4564
  443TMC3    C1 6597   1.714   1.511  16.779  0.1112 -0.2302 -0.0236
  443TMC3    C2 6598   1.638   1.626  16.765 -0.7133 -0.0009  0.1926
  443TMC3    C3 6599   1.535   1.646  16.847 -0.5677  0.7208 -0.1467
  443TMC3    C4 6600   1.688   1.417  16.875 -0.5898  0.0886 -0.0892
  443TMC3    C5 6601   1.591   1.454  16.970 -0.2840  0.4555 -0.1818
  443TMC3    C6 6602   1.518   1.569  16.953 -0.4429 -0.2405 -0.0979
  443TMC3     C 6603   1.827   1.488  16.694 -0.1368 -0.2902 -0.3732
  443TMC3     O 6604   1.867   1.373  16.678 -0.1395  0.2814  0.5997
  443TMC3     H 6605   1.670   1.703  16.696 -0.8986  0.7354  0.9356
  443TMC3    H1 6606   1.750   1.330  16.890 -0.3811  0.4768  1.3362
  443TMC3    H2 6607   1.428   1.592  17.008 -1.3777 -0.0909 -1.7012
  443TMC3    C7 6608   1.524   1.345  17.039 -0.1221  0.3184  0.2374
  443TMC3    C8 6609   1.427   1.733  16.806 -0.2836 -0.5092 -0.4743
  443TMC3    O1 6610   1.413   1.361  17.091 -0.1705  0.2239 -0.2463
  443TMC3    O2 6611   1.364   1.791  16.892  0.0110  0.0636  0.1250
  444MPD2     C 6612   1.945   1.038  17.422 -0.2444  0.4418 -0.6934
  444MPD2    C1 6613   1.878   0.917  17.396 -0.4351  0.2907  0.0498
  444MPD2    C2 6614   1.946   0.810  17.344  0.2691  0.0649 -0.5329
  444MPD2    C3 6615   2.089   0.814  17.323 -0.2886 -0.1257 -0.0278
  444MPD2    C4 6616   2.145   0.933  17.365  0.0125 -0.5317 -0.6346
  444MPD2    C5 6617   2.079   1.041  17.398  0.4082 -0.1445  0.3110
  444MPD2     H 6618   1.895   0.715  17.330 -0.0980  0.1384  0.2799
  444MPD2    H1 6619   2.250   0.948  17.345  0.0820 -1.2540 -0.7930
  444MPD2    H2 6620   1.887   1.123  17.456 -1.3468 -0.1944 -0.9931
  444MPD2    H3 6621   2.129   1.136  17.415 -1.6351  0.6170  2.0390
  444MPD2     N 6622   2.152   0.698  17.273  0.2122  0.1559 -0.0456
  444MPD2    H5 6623   2.099   0.613  17.254 -0.3035 -0.1440  2.6678
  444MPD2    N1 6624   1.738   0.918  17.425 -0.4116 -0.0384 -0.2355
  444MPD2    H7 6625   1.686   0.838  17.392  0.5798 -1.1176  0.8162
  445TMC3    C1 6626   2.320   0.568  17.166 -0.3639 -0.2618 -0.1660
  445TMC3    C2 6627   2.220   0.469  17.155 -0.2706  0.4408 -0.4395
  445TMC3    C3 6628   2.267   0.342  17.121  0.1286 -0.1783  0.1357
  445TMC3    C4 6629   2.452   0.544  17.137  0.7733 -0.1358  0.1663
  445TMC3    C5 6630   2.484   0.416  17.104 -0.7780 -0.8822 -0.2233
  445TMC3    C6 6631   2.396   0.314  17.079  0.4863  0.1577  0.4437
  445TMC3     C 6632   2.285   0.689  17.232  0.0475 -0.2506 -0.4885
  445TMC3     O 6633   2.371   0.777  17.228  0.2522  0.1445  0.6482
  445TMC3     H 6634   2.116   0.481  17.182 -0.3973 -4.1503  1.2064
  445TMC3    H1 6635   2.536   0.611  17.152  0.1388  0.8083 -0.4234
  445TMC3    H2 6636   2.439   0.221  17.043 -0.5610 -0.6856  1.3913
  445TMC3    C7 6637   2.615   0.402  17.053  0.0771  0.2758 -0.2009
  445TMC3    C8 6638   2.158   0.241  17.109 -0.3664 -0.2051  0.4843
  445TMC3    O1 6639   2.679   0.498  17.015 -0.2253 -0.6903 -0.1101
  445TMC3    O2 6640   2.046   0.265  17.164 -0.1831 -0.2089 -0.5170
  446MPD2     C 6641   1.914   1.303  11.320  0.5106 -0.5128  0.2104
  446MPD2    C1 6642   1.911   1.298  11.180 -0.3447  0.2772 -0.1754
  446MPD2    C2 6643   2.027   1.335  11.115  0.1152  0.3000  0.1442
  446MPD2    C3 6644   2.151   1.362  11.177 -0.5573 -1.0078 -0.3857
  446MPD2    C4 6645   2.147   1.347  11.316  0.1447 -0.2482  0.0675
  446MPD2    C5 6646   2.034   1.324  11.384 -0.8403  0.5433  0.8393
  446MPD2     H 6647   2.022   1.344  11.007 -2.8882 -1.6772  0.1154
  446MPD2    H1 6648   2.237   1.358  11.375 -0.7879  0.8980  1.2795
  446MPD2    H2 6649   1.821   1.283  11.371  1.2116 -1.7468  0.9968
  446MPD2    H3 6650   2.045   1.324  11.492 -1.4433 -3.1827  0.8998
  446MPD2     N 6651   2.265   1.388  11.098  0.2295 -0.7101 -0.6289
  446MPD2    H5 6652   2.254   1.401  10.998  0.9334  0.6192 -0.5394
  446MPD2    N1 6653   1.793   1.246  11.114  0.0147 -0.4250 -0.1319
  446MPD2    H7 6654   1.794   1.252  11.013  0.6845 -1.5376 -0.1920
  447TMC3    C1 6655   2.492   1.454  11.065  0.3269  0.4309  0.2007
  447TMC3    C2 6656   2.456   1.471  10.931  0.2033  0.2965  0.6697
  447TMC3    C3 6657   2.554   1.458  10.833 -0.1703 -0.2379  0.2302
  447TMC3    C4 6658   2.622   1.438  11.100  0.6985  0.4914  0.4574
  447TMC3    C5 6659   2.714   1.419  11.001  0.5088  0.5396 -0.0680
  447TMC3    C6 6660   2.686   1.437  10.871  0.3144 -0.3626  0.1445
  447TMC3     C 6661   2.387   1.418  11.159  0.3894 -0.0540  0.2065
  447TMC3     O 6662   2.428   1.380  11.268 -0.2162 -0.2777 -0.6133
  447TMC3     H 6663   2.354   1.489  10.898  0.7492  2.7599  0.3079
  447TMC3    H1 6664   2.651   1.439  11.205 -2.1010  3.0352  1.2163
  447TMC3    H2 6665   2.766   1.432  10.798  0.7797 -0.7855  0.6831
  447TMC3    C7 6666   2.848   1.370  11.033 -0.5180 -0.0160  0.5527
  447TMC3    C8 6667   2.513   1.462  10.692  0.0529 -0.2487  0.0089
  447TMC3    O1 6668   2.906   1.339  10.929  0.0059  0.5078 -0.4744
  447TMC3    O2 6669   2.439   1.548  10.650 -0.3162 -0.0285  0.4541
  448TMC3    C1 6670   0.514   2.159  16.866  0.2865  0.1602 -1.1310
  448TMC3    C2 6671   0.407   2.079  16.818  0.0738 -0.0794  0.1139
  448TMC3    C3 6672   0.360   1.982  16.897 -0.6712  0.0448 -0.3840
  448TMC3    C4 6673   0.550   2.159  16.999 -0.1889 -0.2440 -0.5744
  448TMC3    C5 6674   0.488   2.065  17.080  0.0208 -0.1386  0.6248
  448TMC3    C6 6675   0.391   1.977  17.032 -0.4931 -0.3873  0.4023
  448TMC3     C 6676   0.587   2.221  16.758 -0.1481 -0.2943 -1.0278
  448TMC3     O 6677   0.551   2.199  16.642  0.1276  0.0017  0.1080
  448TMC3     H 6678   0.393   2.078  16.710  1.2603  1.6830 -0.0457
  448TMC3    H1 6679   0.637   2.214  17.032 -0.4325  2.2510 -4.1516
  448TMC3    H2 6680   0.335   1.904  17.089  0.0762  0.5836  2.1921
  448TMC3    C7 6681   0.552   2.032  17.205  0.4177 -0.8414 -0.1694
  448TMC3    C8 6682   0.276   1.875  16.854  0.9493  0.0286  0.1301
  448TMC3    O1 6683   0.671   2.044  17.202 -0.1264  0.6930 -0.7383
  448TMC3    O2 6684   0.255   1.778  16.931  0.0879  0.4398  0.1815
  449MPD2     C 6685   1.618   0.468  13.904 -0.0246 -0.1485  0.8283
  449MPD2    C1 6686   1.541   0.524  13.804  0.1243 -0.3812 -0.1550
  449MPD2    C2 6687   1.414   0.488  13.795 -0.3118  0.1598  0.3081
  449MPD2    C3 6688   1.359   0.390  13.875  0.0249 -0.0818  0.2950
  449MPD2    C4 6689   1.437   0.332  13.972 -0.1791  0.3532 -0.1556
  449MPD2    C5 6690   1.567   0.370  13.990 -0.1449 -0.9427 -0.3841
  449MPD2     H 6691   1.343   0.545  13.736 -0.1165  1.5394  1.4125
  449MPD2    H1 6692   1.419   0.235  14.015  1.6466  0.7209  1.4253
  449MPD2    H2 6693   1.721   0.492  13.929  1.2420 -2.9861 -1.6900
  449MPD2    H3 6694   1.618   0.315  14.069  1.0202 -0.5796 -0.9001
  449MPD2     N 6695   1.232   0.347  13.835 -0.3355  0.3202  0.4986
  449MPD2    H5 6696   1.191   0.378  13.748  0.6203  0.4067  0.0827
  449MPD2    N1 6697   1.585   0.636  13.729  0.3776 -0.0973  0.0855
  449MPD2    H7 6698   1.517   0.682  13.669 -0.2500 -0.1816  0.7431
  450TMC3    C1 6699   1.716   0.782  13.607  0.5560 -0.3752 -0.6969
  450TMC3    C2 6700   1.773   0.742  13.490  0.5477 -0.2056  0.2056
  450TMC3    C3 6701   1.694   0.762  13.378  0.0693 -0.2273  0.5688
  450TMC3    C4 6702   1.591   0.852  13.614 -0.1803 -0.1561  0.6422
  450TMC3    C5 6703   1.515   0.871  13.499 -0.4413 -0.8787 -1.0030
  450TMC3    C6 6704   1.571   0.826  13.385  0.6234  0.8613 -0.4907
  450TMC3     C 6705   1.716   0.684  13.713 -0.2268 -0.1165  0.0591
  450TMC3     O 6706   1.818   0.630  13.744 -0.3980  0.2150  0.5753
  450TMC3     H 6707   1.867   0.688  13.497  0.7194  0.1554  0.6910
  450TMC3    H1 6708   1.545   0.880  13.708  3.5922  3.7674  1.3120
  450TMC3    H2 6709   1.506   0.822  13.297  2.4341  1.6418 -1.8525
  450TMC3    C7 6710   1.376   0.829  13.511 -0.1211  0.5743 -0.9579
  450TMC3    C8 6711   1.742   0.740  13.241  0.3929  0.2718 -0.7585
  450TMC3    O1 6712   1.354   0.763  13.612  0.0144 -0.4851  0.6340
  450TMC3    O2 6713   1.653   0.717  13.159 -0.0370 -0.5243 -0.2114
  451MPD2     C 6714   1.423   0.076   1.493 -0.4083  0.6043  0.1691
  451MPD2    C1 6715   1.515   0.027   1.580  0.2106  0.6190 -0.3286
  451MPD2    C2 6716   1.582   4.635   1.537 -0.9141  0.1088  0.3406
  451MPD2    C3 6717   1.557   4.579   1.412 -0.5769 -0.5258 -0.5955
  451MPD2    C4 6718   1.470   4.641   1.330  0.5868 -0.4491 -0.6969
  451MPD2    C5 6719   1.396   0.021   1.375 -0.0622  0.0290  0.0985
  451MPD2     H 6720   1.652   4.588   1.605  1.9959  3.0314 -0.6018
  451MPD2    H1 6721   1.447   4.614   1.227 -3.3273 -0.0133  0.0487
  451MPD2    H2 6722   1.366   0.167   1.510 -0.5120  0.3690  1.1281
  451MPD2    H3 6723   1.317   0.066   1.317 -0.7649  1.6518  2.3490
  451MPD2     N 6724   1.627   4.466   1.362 -0.2035  0.3153  0.3355
  451MPD2    H5 6725   1.598   4.440   1.268 -0.2359 -1.6105  0.8781
  451MPD2    N1 6726   1.527   0.100   1.698 -0.1824 -0.0811 -0.2694
  451MPD2    H7 6727   1.490   0.194   1.709  2.0110  0.6807  0.7684
  452TMC3    C1 6728   1.766   4.282   1.341  0.8238  0.2212  0.2226
  452TMC3    C2 6729   1.766   4.152   1.387  0.5128  0.4101  0.1381
  452TMC3    C3 6730   1.813   4.057   1.304 -0.7852  0.0590  0.1183
  452TMC3    C4 6731   1.821   4.321   1.215  0.2862  0.6591  0.6324
  452TMC3    C5 6732   1.872   4.216   1.140  0.0194  0.0064  0.5931
  452TMC3    C6 6733   1.863   4.086   1.177 -0.4934  0.5096 -0.3237
  452TMC3     C 6734   1.709   4.384   1.433  0.1583  0.4736  0.6438
  452TMC3     O 6735   1.713   4.372   1.558  0.4325  0.6914  0.3509
  452TMC3     H 6736   1.724   4.121   1.482 -0.2367 -0.2179 -0.4006
  452TMC3    H1 6737   1.785   4.416   1.176  1.2375  0.7010 -0.1538
  452TMC3    H2 6738   1.896   4.001   1.118 -0.9151 -0.1604  0.4031
  452TMC3    C7 6739   1.950   4.243   1.026 -0.0725  0.0558  0.3390
  452TMC3    C8 6740   1.761   3.927   1.323  0.1377 -0.2275 -0.2033
  452TMC3    O1 6741   2.017   4.142   1.001  0.4028 -0.4652  0.1428
  452TMC3    O2 6742   1.646   3.919   1.357  0.2683 -0.3787  0.0694
  453TMC3    C1 6743   4.323   1.052  11.218  0.2982  0.1398  0.2418
  453TMC3    C2 6744   4.255   0.955  11.287  0.2569  0.3505  0.4561
  453TMC3    C3 6745   4.265   0.830  11.235  0.5550 -0.5349 -0.4024
  453TMC3    C4 6746   4.392   1.021  11.107  0.0451 -0.3248 -0.6047
  453TMC3    C5 6747   4.399   0.894  11.064 -0.1844  0.9183  0.0028
  453TMC3    C6 6748   4.332   0.793  11.120 -0.4116 -0.6867 -0.5612
  453TMC3     C 6749   4.360   1.183  11.281 -0.2675 -0.0380 -0.0436
  453TMC3     O 6750   4.447   1.251  11.227 -0.1302  0.9929 -0.8158
  453TMC3     H 6751   4.199   0.964  11.379 -1.0293 -0.7401 -0.2276
  453TMC3    H1 6752   4.438   1.103  11.055 -0.5620  0.2943 -0.1662
  453TMC3    H2 6753   4.320   0.694  11.077  1.4837 -0.6395 -1.2185
  453TMC3    C7 6754   4.497   0.873  10.964 -0.6108  0.9464  0.5396
  453TMC3    C8 6755   4.213   0.728  11.323 -0.0011 -0.1056  0.0418
  453TMC3    O1 6756   4.567   0.969  10.937 -0.8284  0.2883 -0.0943
  453TMC3    O2 6757   4.122   0.755  11.399  0.5962  0.4683  0.3651
  454MPD2     C 6758   2.955   0.142  16.385  0.0396  0.5210  0.1344
  454MPD2    C1 6759   2.925   0.272  16.351  0.6375 -0.2688  0.2452
  454MPD2    C2 6760   2.832   0.339  16.430  0.1108  0.1057  0.4911
  454MPD2    C3 6761   2.775   0.283  16.542  0.0488 -0.1037 -0.1207
  454MPD2    C4 6762   2.818   0.152  16.579  0.8264  0.4377  0.0313
  454MPD2    C5 6763   2.905   0.084  16.499  0.3158  0.5464 -0.0444
  454MPD2     H 6764   2.804   0.441  16.406  0.6655 -0.0794 -0.9093
  454MPD2    H1 6765   2.789   0.097  16.668  0.4847 -0.8228 -0.8476
  454MPD2    H2 6766   3.014   0.081  16.318  1.0902  1.4259  0.2209
  454MPD2    H3 6767   2.937   4.707  16.526 -0.6499  0.7141  1.6887
  454MPD2     N 6768   2.682   0.342  16.625 -0.5931  0.4445 -0.1683
  454MPD2    H5 6769   2.640   0.286  16.699  0.0614  2.5581  1.7908
  454MPD2    N1 6770   2.971   0.345  16.238 -0.7041 -0.3729  0.3206
  454MPD2    H7 6771   2.923   0.433  16.222  0.0939 -0.0208 -0.1410
  455TMC3    C1 6772   2.542   0.493  16.718 -0.1182 -0.7990  0.0694
  455TMC3    C2 6773   2.540   0.606  16.787  0.6225 -0.0439 -0.7103
  455TMC3    C3 6774   2.425   0.669  16.803 -0.4830 -0.4934  0.1017
  455TMC3    C4 6775   2.427   0.419  16.676  0.1514  0.2137  0.3033
  455TMC3    C5 6776   2.307   0.492  16.694 -1.5391  1.0295 -0.3406
  455TMC3    C6 6777   2.308   0.616  16.754 -0.1410 -0.3388 -0.8488
  455TMC3     C 6778   2.661   0.479  16.634  0.1427 -0.8125 -0.1575
  455TMC3     O 6779   2.722   0.568  16.572 -0.4982 -0.2194 -0.1637
  455TMC3     H 6780   2.638   0.645  16.808 -0.3158  2.3033 -0.7683
  455TMC3    H1 6781   2.429   0.329  16.615  1.0732 -0.1798  0.9162
  455TMC3    H2 6782   2.223   0.682  16.745 -0.3355 -0.5905 -0.8492
  455TMC3    C7 6783   2.212   0.480  16.589 -0.4394  0.6708 -0.4627
  455TMC3    C8 6784   2.431   0.810  16.829  0.5826  0.6541  0.0825
  455TMC3    O1 6785   2.100   0.512  16.627  0.0820 -0.4892  0.1039
  455TMC3    O2 6786   2.486   0.847  16.927  0.3475  0.4978 -0.1684
  456MPD2     C 6787   0.443   0.814  16.102  0.0662 -0.3038  0.0868
  456MPD2    C1 6788   0.542   0.829  16.199  0.4994 -0.2622 -0.7741
  456MPD2    C2 6789   0.508   0.868  16.331  0.5127 -0.0400 -0.3555
  456MPD2    C3 6790   0.379   0.918  16.354  0.0531  0.0618  0.7884
  456MPD2    C4 6791   0.286   0.909  16.254  0.1866 -0.2209 -0.2844
  456MPD2    C5 6792   0.316   0.863  16.132 -0.4311  0.7202  1.5645
  456MPD2     H 6793   0.580   0.857  16.411  0.0446  1.4698  0.2695
  456MPD2    H1 6794   0.185   0.946  16.264  1.3069  2.3760  1.3352
  456MPD2    H2 6795   0.466   0.779  16.003  0.1521  2.2266 -0.7809
  456MPD2    H3 6796   0.244   0.857  16.051  0.6705 -3.1198  0.8539
  456MPD2     N 6797   0.349   0.967  16.488  0.2192 -0.2843  0.3038
  456MPD2    H5 6798   0.418   0.963  16.562 -0.9587 -0.1147  1.3942
  456MPD2    N1 6799   0.676   0.811  16.161  0.2547 -0.3192  0.1194
  456MPD2    H7 6800   0.681   0.782  16.064  3.6353  1.6358 -0.3062
  457TMC3    C1 6801   0.218   1.085  16.643  0.0386 -0.3133 -0.6189
  457TMC3    C2 6802   0.141   1.196  16.661 -0.1720  0.2828 -0.1770
  457TMC3    C3 6803   0.145   1.261  16.783  0.0558 -0.0464  0.4809
  457TMC3    C4 6804   0.290   1.035  16.751 -0.2059  0.6472  0.1194
  457TMC3    C5 6805   0.280   1.095  16.876  0.4329 -0.3733  1.0823
  457TMC3    C6 6806   0.221   1.214  16.890 -0.5951  0.4540  0.7295
  457TMC3     C 6807   0.227   1.025  16.517  0.1242  0.3417  0.1892
  457TMC3     O 6808   0.120   1.019  16.462 -0.4536  0.2266  0.0006
  457TMC3     H 6809   0.077   1.228  16.580 -1.0063  0.8760  0.7115
  457TMC3    H1 6810   0.329   0.935  16.737 -0.9892  0.1079  1.8193
  457TMC3    H2 6811   0.220   1.265  16.985 -0.9990  0.5403  0.6788
  457TMC3    C7 6812   0.367   1.047  16.982 -0.2371  0.4632  0.4069
  457TMC3    C8 6813   0.103   1.398  16.791  0.3674 -0.1800 -0.1724
  457TMC3    O1 6814   0.347   1.095  17.093 -0.1147 -0.0761 -0.0673
  457TMC3    O2 6815   0.108   1.455  16.901  0.0634 -0.4645 -0.0547
  458MPD2     C 6816   3.080   4.194  12.195  0.4200 -0.2995 -0.6763
  458MPD2    C1 6817   3.110   4.123  12.309  0.6509  0.0402  0.0841
  458MPD2    C2 6818   3.019   4.120  12.412 -0.4006 -0.1614 -0.4434
  458MPD2    C3 6819   2.897   4.188  12.404  0.5313 -0.8743  0.0553
  458MPD2    C4 6820   2.881   4.270  12.291  0.0575  1.2172  0.4548
  458MPD2    C5 6821   2.970   4.274  12.180  0.3881  0.1953  1.1774
  458MPD2     H 6822   3.040   4.085  12.512  0.8212 -1.0897 -1.0295
  458MPD2    H1 6823   2.804   4.347  12.290 -1.3102 -0.1733 -0.2680
  458MPD2    H2 6824   3.151   4.189  12.113  0.2037 -0.4157 -0.8560
  458MPD2    H3 6825   2.956   4.339  12.095  0.3967  0.1291  1.1249
  458MPD2     N 6826   2.809   4.169  12.503 -0.0671  0.2628  0.4180
  458MPD2    H5 6827   2.848   4.126  12.586 -1.0286 -0.6819  0.3711
  458MPD2    N1 6828   3.235   4.059  12.315  0.1412  0.3927  0.4021
  458MPD2    H7 6829   3.295   4.066  12.233 -0.5574  0.9488 -0.0716
  459TMC3    C1 6830   3.429   3.974  12.429  0.1018 -0.5201 -0.2448
  459TMC3    C2 6831   3.502   4.066  12.362  0.1917 -0.4399  0.3843
  459TMC3    C3 6832   3.634   4.073  12.387  0.3930 -0.1605  0.0903
  459TMC3    C4 6833   3.481   3.902  12.535  0.4646 -0.0786  1.3905
  459TMC3    C5 6834   3.615   3.906  12.549 -0.0988  0.0885  0.1763
  459TMC3    C6 6835   3.698   3.996  12.482  0.4159 -0.4567  0.3418
  459TMC3     C 6836   3.282   3.989  12.423  0.8729 -0.5946 -0.0560
  459TMC3     O 6837   3.227   3.966  12.533  0.4751  0.4501  0.3462
  459TMC3     H 6838   3.460   4.136  12.290  1.4245  2.6872  2.7429
  459TMC3    H1 6839   3.418   3.836  12.594  1.6374 -0.5902  2.0748
  459TMC3    H2 6840   3.804   4.002  12.500  0.2768  2.3447  0.2819
  459TMC3    C7 6841   3.683   3.813  12.642 -0.5578  0.7771  0.0401
  459TMC3    C8 6842   3.713   4.171  12.324 -0.5004  0.9803 -0.0400
  459TMC3    O1 6843   3.792   3.850  12.681  0.6431 -0.0260  0.3371
  459TMC3    O2 6844   3.820   4.204  12.374  0.1577 -0.2449 -0.3213
  460MPD2     C 6845   2.635   1.207  10.446 -0.2114 -0.0392 -0.0949
  460MPD2    C1 6846   2.575   1.324  10.490  0.0065 -0.2179  0.6415
  460MPD2    C2 6847   2.514   1.410  10.390 -0.4741 -0.4195  0.9028
  460MPD2    C3 6848   2.490   1.363  10.262  0.2146  0.5818  0.4590
  460MPD2    C4 6849   2.534   1.238  10.235  0.2127 -0.9795 -0.0407
  460MPD2    C5 6850   2.604   1.160  10.325  0.0987  0.1847  0.3035
  460MPD2     H 6851   2.471   1.505  10.418 -1.4413 -0.4837 -0.3778
  460MPD2    H1 6852   2.520   1.192  10.138  2.4148  1.4004 -1.4763
  460MPD2    H2 6853   2.675   1.136  10.517  0.8116 -2.1643 -2.8232
  460MPD2    H3 6854   2.648   1.062  10.308  0.0594  0.3673 -0.8112
  460MPD2     N 6855   2.442   1.446  10.157  0.5758  0.6979 -0.1069
  460MPD2    H5 6856   2.425   1.545  10.168  0.5559  0.8501 -1.4587
  460MPD2    N1 6857   2.583   1.361  10.627  0.0873  0.9023 -0.2608
  460MPD2    H7 6858   2.641   1.296  10.679  1.4803  1.2317 -1.4079
  461TMC3    C1 6859   2.381   1.507   9.930  0.4157  0.2286  1.2367
  461TMC3    C2 6860   2.405   1.480   9.802  0.0314  0.1816  0.0906
  461TMC3    C3 6861   2.425   1.585   9.712 -0.4567  0.6244 -0.4153
  461TMC3    C4 6862   2.380   1.639   9.971  0.5141 -0.6107 -0.2696
  461TMC3    C5 6863   2.408   1.741   9.881  0.4431  0.5543  0.1234
  461TMC3    C6 6864   2.432   1.716   9.758  0.5330 -0.1567  0.0148
  461TMC3     C 6865   2.432   1.400  10.027  0.0750  0.0343  0.4501
  461TMC3     O 6866   2.430   1.292   9.972  0.3424  0.3574 -0.7479
  461TMC3     H 6867   2.401   1.376   9.770  0.2539 -0.4177  2.0264
  461TMC3    H1 6868   2.350   1.650  10.075 -0.1804 -1.7682 -0.3418
  461TMC3    H2 6869   2.438   1.797   9.686  1.2241  0.0681  0.3347
  461TMC3    C7 6870   2.348   1.872   9.902  0.2963 -0.0881  0.0744
  461TMC3    C8 6871   2.441   1.564   9.570 -0.4855 -0.5625 -0.3153
  461TMC3    O1 6872   2.312   1.938   9.805  0.2513  0.9190  0.7839
  461TMC3    O2 6873   2.498   1.653   9.506  0.3103 -0.4920 -0.1906
  462TMC3    C1 6874   1.492   3.686   1.036  0.4921 -0.7570 -0.7982
  462TMC3    C2 6875   1.575   3.789   1.006 -0.9737  0.3871 -0.3255
  462TMC3    C3 6876   1.662   3.763   0.907 -0.6479  1.1512 -0.0774
  462TMC3    C4 6877   1.498   3.561   0.979 -0.3422  0.2415 -0.1358
  462TMC3    C5 6878   1.589   3.542   0.878 -0.1391 -0.1131  0.3001
  462TMC3    C6 6879   1.664   3.644   0.838 -0.0972  0.8041  0.1156
  462TMC3     C 6880   1.388   3.715   1.134  0.6327  0.1902 -1.3199
  462TMC3     O 6881   1.393   3.833   1.172  0.1581  0.4482 -0.1643
  462TMC3     H 6882   1.562   3.888   1.049 -1.8489 -0.1972  0.7448
  462TMC3    H1 6883   1.445   3.477   1.022 -2.9662  0.4580 -2.9995
  462TMC3    H2 6884   1.707   3.641   0.739  0.9120 -3.1686  0.6509
  462TMC3    C7 6885   1.578   3.415   0.813 -0.8365 -0.4609  0.2761
  462TMC3    C8 6886   1.746   3.876   0.865  0.1868  0.4554 -0.0039
  462TMC3    O1 6887   1.462   3.377   0.810 -0.2232  0.0494 -0.1139
  462TMC3    O2 6888   1.718   3.987   0.907 -0.0763 -0.0548  0.0141
  463MPD2     C 6889   2.679   1.753   1.775  0.0867  0.1864  0.6300
  463MPD2    C1 6890   2.568   1.819   1.806  0.2672  0.0071 -1.0394
  463MPD2    C2 6891   2.563   1.957   1.808  0.0293  0.4312 -0.7614
  463MPD2    C3 6892   2.677   2.032   1.790 -0.1313  0.6340  0.0120
  463MPD2    C4 6893   2.802   1.965   1.771  0.0653 -0.0411 -0.1605
  463MPD2    C5 6894   2.801   1.830   1.762 -0.3763 -0.9038  0.7286
  463MPD2     H 6895   2.468   2.002   1.835 -0.2582  0.6892 -2.2034
  463MPD2    H1 6896   2.892   2.023   1.759  0.7524 -0.3599  3.5792
  463MPD2    H2 6897   2.685   1.645   1.767 -1.0926  0.0415  1.5990
  463MPD2    H3 6898   2.892   1.774   1.740  0.3750  0.2164  0.9843
  463MPD2     N 6899   2.683   2.173   1.788 -0.7161 -0.3587  0.5724
  463MPD2    H5 6900   2.771   2.216   1.763 -0.6083 -0.2731  1.1095
  463MPD2    N1 6901   2.453   1.749   1.831 -0.0986  1.2137  0.2105
  463MPD2    H7 6902   2.374   1.807   1.858 -0.3387  0.3467  1.3542
  464TMC3    C1 6903   2.288   1.575   1.839  0.1988  0.1289  0.9521
  464TMC3    C2 6904   2.245   1.485   1.746 -0.3499  0.1871 -0.0009
  464TMC3    C3 6905   2.112   1.460   1.734  0.0458 -0.0617  0.2445
  464TMC3    C4 6906   2.202   1.650   1.918 -0.1414  0.5970 -0.7100
  464TMC3    C5 6907   2.070   1.636   1.890 -0.3362 -1.0515  0.3418
  464TMC3    C6 6908   2.023   1.534   1.805  0.3931 -0.3316  0.0635
  464TMC3     C 6909   2.422   1.613   1.825  0.1594 -0.0341 -0.2825
  464TMC3     O 6910   2.489   1.515   1.801  0.0581 -0.5472 -0.2059
  464TMC3     H 6911   2.311   1.448   1.668 -1.4426 -0.7736 -0.4697
  464TMC3    H1 6912   2.238   1.717   1.994 -1.9063  1.1432 -0.3586
  464TMC3    H2 6913   1.917   1.514   1.796  0.1744  0.6765  0.4277
  464TMC3    C7 6914   1.976   1.718   1.960  0.3031  0.4401 -0.0401
  464TMC3    C8 6915   2.056   1.415   1.612 -0.3890 -0.5789 -0.2077
  464TMC3    O1 6916   2.019   1.762   2.068  0.3875 -0.0646  0.4544
  464TMC3    O2 6917   1.936   1.412   1.594  0.0841 -0.4557  0.7447
  465MPD2     C 6918   4.554   0.999  16.783  0.5575  0.4538 -0.4661
  465MPD2    C1 6919   4.428   0.970  16.840 -0.7426  0.3076  0.7197
  465MPD2    C2 6920   4.334   0.904  16.769 -0.1923 -0.0499 -0.1229
  465MPD2    C3 6921   4.354   0.865  16.645 -1.3580 -0.2831  0.4300
  465MPD2    C4 6922   4.474   0.904  16.584  0.3130 -0.2708 -0.4582
  465MPD2    C5 6923   4.571   0.964  16.652 -0.3822 -0.3035 -0.4179
  465MPD2     H 6924   4.237   0.871  16.806 -1.4111  2.6515 -0.8588
  465MPD2    H1 6925   4.484   0.888  16.477 -1.6280  1.3152 -0.8895
  465MPD2    H2 6926   4.636   1.042  16.838  1.3399  0.0601 -1.3223
  465MPD2    H3 6927   4.657   0.997  16.594 -0.0328  1.0783  0.8611
  465MPD2     N 6928   4.251   0.812  16.560  0.3074 -0.0622  0.3599
  465MPD2    H5 6929   4.155   0.813  16.593  0.3696 -0.6068  0.5490
  465MPD2    N1 6930   4.392   0.999  16.972 -0.1903 -0.4039 -0.2818
  465MPD2    H7 6931   4.309   0.960  17.015 -1.5644  0.5189 -2.1313
  466TMC3    C1 6932   3.899   0.798  16.450  0.3081  0.3915 -0.5661
  466TMC3    C2 6933   3.883   0.927  16.393  0.2402 -0.7532 -0.0287
  466TMC3    C3 6934   3.986   0.989  16.323  0.4514  0.0789  0.5358
  466TMC3    C4 6935   4.010   0.725  16.426 -0.0733 -0.7564 -0.5768
  466TMC3    C5 6936   4.115   0.790  16.367  0.1018  0.0131 -0.2584
  466TMC3    C6 6937   4.102   0.922  16.325  0.5962  0.4452  0.7662
  466TMC3     C 6938   3.781   0.741  16.524 -0.1063 -0.1147 -0.4427
  466TMC3     O 6939   3.699   0.822  16.560 -0.0247 -0.4407  0.4131
  466TMC3     H 6940   3.788   0.979  16.402  0.0680 -1.3415  1.5752
  466TMC3    H1 6941   4.028   0.637  16.487 -1.0569 -0.5597 -0.0061
  466TMC3    H2 6942   4.196   0.962  16.287  0.4872  0.1511  0.1852
  466TMC3    C7 6943   4.245   0.774  16.427  0.6008 -0.4939  0.3888
  466TMC3    C8 6944   3.996   1.133  16.291  0.7524 -0.7455 -0.7238
  466TMC3    O1 6945   4.342   0.770  16.348  0.4574  0.5135  0.5602
  466TMC3    O2 6946   4.090   1.156  16.219  0.3250  0.1035 -0.1969
  467TMC3    C1 6947   0.128   4.711  13.687 -0.2138 -0.8631  0.1407
  467TMC3    C2 6948   0.117   0.101  13.612  0.4075 -0.3193 -0.2634
  467TMC3    C3 6949   4.714   0.141  13.587  0.3749  1.6653  0.3632
  467TMC3    C4 6950   0.027   4.623  13.720  0.4628 -0.0182 -0.8262
  467TMC3    C5 6951   4.630   4.662  13.673 -0.2319  0.0156  0.7372
  467TMC3    C6 6952   4.609   0.056  13.620  0.3328 -0.6129 -0.0577
  467TMC3     C 6953   0.265   4.684  13.718  0.0584 -0.2523 -0.0387
  467TMC3     O 6954   0.330   4.597  13.665 -0.4929 -0.3695  0.2542
  467TMC3     H 6955   0.209   0.152  13.588  1.9037 -1.7877  2.3690
  467TMC3    H1 6956   0.049   4.531  13.773  2.0306  1.0065  0.2843
  467TMC3    H2 6957   4.508   0.085  13.592  0.0553  0.7984  2.4454
  467TMC3    C7 6958   4.515   4.579  13.685 -0.4898  0.1776  0.7884
  467TMC3    C8 6959   4.680   0.253  13.498 -0.4657 -1.1785  0.2573
  467TMC3    O1 6960   4.418   4.605  13.620  0.5483 -0.2724  0.4228
  467TMC3    O2 6961   4.569   0.260  13.448 -0.2966 -0.1472  0.1589
  468MPD2     C 6962   4.094   1.535  10.278  0.5708 -0.3384  0.4684
  468MPD2    C1 6963   4.211   1.545  10.355 -0.1986  0.6483 -0.1881
  468MPD2    C2 6964   4.295   1.436  10.361  0.3769  0.5897  0.3851
  468MPD2    C3 6965   4.273   1.317  10.284 -0.3706 -0.5165  0.2487
  468MPD2    C4 6966   4.159   1.314  10.199 -0.0374  0.0102  0.1032
  468MPD2    C5 6967   4.073   1.422  10.200  0.7448  0.2347 -0.6632
  468MPD2     H 6968   4.384   1.432  10.422  0.5355 -1.2667  0.0372
  468MPD2    H1 6969   4.129   1.231  10.136 -2.8259 -1.0246  2.8331
  468MPD2    H2 6970   4.009   1.602  10.285  1.8657  1.1093  2.4957
  468MPD2    H3 6971   3.993   1.424  10.127  0.8646 -1.7043 -0.8521
  468MPD2     N 6972   4.357   1.203  10.299 -0.4435 -0.2091 -0.6345
  468MPD2    H5 6973   4.447   1.208  10.346 -2.4265 -1.4889  3.3105
  468MPD2    N1 6974   4.235   1.657  10.441  0.2276  0.1302  0.2381
  468MPD2    H7 6975   4.309   1.629  10.505  0.3720  1.6443  0.7369
  469TMC3    C1 6976   4.187   1.884  10.529 -0.1674 -0.8803  0.6435
  469TMC3    C2 6977   4.303   1.891  10.609 -0.8300  0.3174  0.0898
  469TMC3    C3 6978   4.316   2.002  10.689 -0.4010  0.1112 -0.4757
  469TMC3    C4 6979   4.091   1.983  10.539 -0.2463 -0.0199 -0.0578
  469TMC3    C5 6980   4.104   2.084  10.627  0.3937  0.1034  0.1333
  469TMC3    C6 6981   4.218   2.100  10.706 -0.3047  0.1235  0.3030
  469TMC3     C 6982   4.160   1.777  10.432  0.3557  0.3355  0.5951
  469TMC3     O 6983   4.083   1.807  10.347  0.6897 -0.5029  0.0759
  469TMC3     H 6984   4.369   1.806  10.620 -2.0900 -0.5284  1.1332
  469TMC3    H1 6985   4.001   1.975  10.478  0.7514 -3.0936 -1.1089
  469TMC3    H2 6986   4.235   2.193  10.758  2.6315 -0.7086  0.8479
  469TMC3    C7 6987   3.993   2.182  10.638 -0.7505  0.7401 -0.2238
  469TMC3    C8 6988   4.456   2.031  10.733  0.0759 -0.2976 -0.1088
  469TMC3    O1 6989   3.920   2.168  10.541 -0.2899 -0.5161 -0.8254
  469TMC3    O2 6990   4.546   1.973  10.682  0.3498  0.4456 -0.2911
  470TMC3    C1 6991   1.006   4.315   1.061 -0.5273 -0.2393 -0.3257
  470TMC3    C2 6992   0.956   4.439   1.051 -0.1370  0.2752  0.3502
  470TMC3    C3 6993   0.981   4.517   1.156 -0.6187  0.1726 -0.1901
  470TMC3    C4 6994   1.084   4.275   1.168 -0.8807 -0.7852 -0.1461
  470TMC3    C5 6995   1.111   4.360   1.273  0.4764 -0.0858  0.3625
  470TMC3    C6 6996   1.057   4.483   1.268 -0.1686 -0.8951  0.1553
  470TMC3     C 6997   1.004   4.225   0.947 -0.2906  0.2072 -0.4676
  470TMC3     O 6998   1.007   4.277   0.838  0.6774 -0.5132  0.0941
  470TMC3     H 6999   0.908   4.472   0.960  1.2213  2.2909  0.3551
  470TMC3    H1 7000   1.143   4.185   1.180  1.0487  0.8210  2.5926
  470TMC3    H2 7001   1.078   4.560   1.340 -1.7722  0.6470 -1.0388
  470TMC3    C7 7002   1.190   4.332   1.394 -0.0120  0.2738 -0.2299
  470TMC3    C8 7003   0.924   4.648   1.159  0.0141  0.2529 -0.0089
  470TMC3    O1 7004   1.282   4.252   1.383 -0.1510 -0.4716 -0.2425
  470TMC3    O2 7005   0.977   0.011   1.226  0.5537 -0.0071  0.5914
  471MPD2     C 7006   1.053   4.574  16.962 -0.4961 -0.0491  0.2081
  471MPD2    C1 7007   1.195   4.569  16.946 -0.3902 -0.6376 -0.2119
  471MPD2    C2 7008   1.260   4.524  17.058 -0.9402  0.6111 -0.1095
  471MPD2    C3 7009   1.195   4.484  17.179 -0.1224 -0.5132  0.3246
  471MPD2    C4 7010   1.054   4.494  17.183 -0.2293  0.2609  0.0227
  471MPD2    C5 7011   0.983   4.538  17.075 -0.3096  0.3026  0.8467
  471MPD2     H 7012   1.368   4.519  17.044 -1.1731 -1.2575 -1.1890
  471MPD2    H1 7013   1.002   4.457  17.271 -0.6941 -1.1588 -0.8567
  471MPD2    H2 7014   0.994   4.602  16.876 -0.1426 -1.3397 -0.4405
  471MPD2    H3 7015   0.875   4.530  17.080 -0.5082  0.9290 -2.1811
  471MPD2     N 7016   1.268   4.454  17.298 -0.5210  0.0048  0.3697
  471MPD2    H5 7017   1.212   4.421  17.376 -1.2087 -0.0099 -0.1264
  471MPD2    N1 7018   1.263   4.599  16.827 -0.3348 -0.0568  0.9372
  471MPD2    H7 7019   1.362   4.622  16.838 -0.3082 -0.0358  0.6481
  472TMC3    C1 7020   1.313   4.620  16.608  0.8106 -0.9593  0.3687
  472TMC3    C2 7021   1.255   4.655  16.490 -0.1175 -0.9404  0.8231
  472TMC3    C3 7022   1.311   4.608  16.376 -0.1730 -0.2228 -0.5265
  472TMC3    C4 7023   1.415   4.526  16.622 -0.5486 -0.6508  0.3556
  472TMC3    C5 7024   1.447   4.470  16.496 -0.1136  0.1337 -0.4762
  472TMC3    C6 7025   1.416   4.526  16.379  1.3777  0.6460 -0.3470
  472TMC3     C 7026   1.208   4.617  16.706  0.6067  0.2545 -0.4798
  472TMC3     O 7027   1.094   4.591  16.662  0.1536 -0.3838  0.2134
  472TMC3     H 7028   1.175   0.004  16.482  1.8642  1.1279 -0.7856
  472TMC3    H1 7029   1.446   4.472  16.710  1.2007 -0.6642 -0.2744
  472TMC3    H2 7030   1.464   4.491  16.288 -0.3085 -0.5429 -0.7756
  472TMC3    C7 7031   1.441   4.326  16.497 -0.5468 -0.5556  0.5301
  472TMC3    C8 7032   1.215   4.575  16.279  0.1127 -0.7570  0.5646
  472TMC3    O1 7033   1.473   4.267  16.600  0.0046 -0.2405  0.4282
  472TMC3    O2 7034   1.269   4.547  16.174 -0.0169  0.4604 -0.4902
  473MPD2     C 7035   1.891   2.091  13.734  0.4193  0.3034  0.0639
  473MPD2    C1 7036   1.786   2.184  13.756  0.2980 -0.4061  0.6442
  473MPD2    C2 7037   1.808   2.296  13.842 -0.2957 -0.0936 -0.4036
  473MPD2    C3 7038   1.931   2.315  13.904  0.0303  0.0785 -0.1623
  473MPD2    C4 7039   2.032   2.225  13.865 -0.4185  0.3664  0.3530
  473MPD2    C5 7040   2.011   2.117  13.783 -0.0836 -0.6300  0.6497
  473MPD2     H 7041   1.719   2.354  13.864 -0.6674 -0.1980 -1.6354
  473MPD2    H1 7042   2.131   2.245  13.904 -0.2220  2.4574 -1.2189
  473MPD2    H2 7043   1.873   1.999  13.680 -1.9612  0.6616  0.2542
  473MPD2    H3 7044   2.095   2.055  13.754 -0.7783 -0.1495 -2.3584
  473MPD2     N 7045   1.964   2.420  13.990  0.1432 -0.2773 -0.1508
  473MPD2    H5 7046   2.061   2.421  14.020 -0.1141  2.0119  0.5740
  473MPD2    N1 7047   1.661   2.172  13.698  0.1007 -0.2336  0.5066
  473MPD2    H7 7048   1.593   2.237  13.736 -0.0873 -0.8450  1.2093
  474TMC3    C1 7049   1.948   2.630  14.095  0.0943  0.3530  0.4516
  474TMC3    C2 7050   1.864   2.739  14.097  0.4398 -0.1008 -0.1518
  474TMC3    C3 7051   1.925   2.852  14.139 -0.0442 -0.1136  0.3094
  474TMC3    C4 7052   2.079   2.633  14.137 -0.3764 -0.4805  0.6951
  474TMC3    C5 7053   2.132   2.749  14.181  0.1513  0.2906 -0.7776
  474TMC3    C6 7054   2.059   2.863  14.185  0.5537 -0.5259 -0.2992
  474TMC3     C 7055   1.881   2.520  14.020 -0.0012  0.3860 -1.1494
  474TMC3     O 7056   1.768   2.542  13.988 -0.1231  0.5484 -0.3854
  474TMC3     H 7057   1.756   2.732  14.085  0.5112  2.6353 -2.6173
  474TMC3    H1 7058   2.136   2.542  14.154  0.0174 -0.0484  1.7051
  474TMC3    H2 7059   2.100   2.957  14.220  1.6148 -0.6592 -1.1669
  474TMC3    C7 7060   2.258   2.751  14.252 -0.2290 -0.1626  0.2236
  474TMC3    C8 7061   1.834   2.965  14.150  0.4281  0.7278 -0.5262
  474TMC3    O1 7062   2.355   2.697  14.196  0.4752  0.2329 -0.0764
  474TMC3    O2 7063   1.721   2.940  14.188  0.3632 -0.1167  0.0969
  475MPD2     C 7064   1.547   4.637  10.279  0.2795 -0.1339 -0.1164
  475MPD2    C1 7065   1.462   4.634  10.172  0.8777 -0.5704 -0.4475
  475MPD2    C2 7066   1.326   4.648  10.194  1.3827 -0.1326  0.6669
  475MPD2    C3 7067   1.281   4.664  10.322  0.5047 -0.2131 -0.0197
  475MPD2    C4 7068   1.362   4.653  10.433 -0.4492  0.3680 -0.3925
  475MPD2    C5 7069   1.500   4.647  10.410 -0.7825 -0.7453 -0.1852
  475MPD2     H 7070   1.248   4.653  10.119  1.5366 -0.6230  0.4763
  475MPD2    H1 7071   1.328   4.666  10.535  0.2134  1.1323 -0.2658
  475MPD2    H2 7072   1.653   4.625  10.262  0.3365  1.8190 -1.1535
  475MPD2    H3 7073   1.568   4.666  10.493 -2.5514  1.6927  0.7283
  475MPD2     N 7074   1.146   4.699  10.331 -0.2357 -0.2455  0.2578
  475MPD2    H5 7075   1.096   4.719  10.246 -0.4870 -0.2792  0.3991
  475MPD2    N1 7076   1.525   4.620  10.045 -0.4480  0.5998  0.5026
  475MPD2    H7 7077   1.626   4.627  10.038 -0.6212  1.1631 -1.3620
  476TMC3    C1 7078   1.506   4.716   9.830 -0.0951  0.1377  0.1825
  476TMC3    C2 7079   1.406   0.003   9.729  0.7274 -0.1468  0.0998
  476TMC3    C3 7080   1.329   0.113   9.739  0.4965 -0.0824 -0.1896
  476TMC3    C4 7081   1.540   0.102   9.908 -0.0501 -0.0735 -0.0078
  476TMC3    C5 7082   1.450   0.206   9.909 -0.2762  0.2947  0.1694
  476TMC3    C6 7083   1.343   0.215   9.826  0.4081  0.7652 -0.6241
  476TMC3     C 7084   1.449   4.624   9.929 -0.3326 -0.3307  0.0525
  476TMC3     O 7085   1.341   4.575   9.895 -0.6939 -1.1690 -0.6409
  476TMC3     H 7086   1.385   4.633   9.676 -1.9724  0.3879  0.2478
  476TMC3    H1 7087   1.629   0.088   9.969 -1.7319 -0.4140  2.3657
  476TMC3    H2 7088   1.270   0.295   9.834 -0.1546  0.1751  0.2253
  476TMC3    C7 7089   1.421   0.272  10.033 -0.0788 -0.6359 -0.3407
  476TMC3    C8 7090   1.192   0.094   9.702  0.0287 -0.1950 -0.0495
  476TMC3    O1 7091   1.309   0.314  10.063 -0.7019  0.0723 -0.9030
  476TMC3    O2 7092   1.125   0.184   9.654 -0.1949 -0.4490 -0.1949
  477MPD2     C 7093   3.289   0.943  11.290 -0.1447 -1.0219  0.3340
  477MPD2    C1 7094   3.200   0.904  11.394  0.6546 -0.0697 -0.2201
  477MPD2    C2 7095   3.236   0.806  11.485  0.3917  0.3111  0.0324
  477MPD2    C3 7096   3.346   0.731  11.450  0.8092  0.0544  0.4296
  477MPD2    C4 7097   3.426   0.758  11.340 -0.0855  0.3399  0.1484
  477MPD2    C5 7098   3.396   0.865  11.260 -0.1799  0.0260  0.5257
  477MPD2     H 7099   3.188   0.793  11.581  0.7848 -0.1763  0.1595
  477MPD2    H1 7100   3.512   0.697  11.311 -0.6261 -0.4526  0.2143
  477MPD2    H2 7101   3.269   1.027  11.225  0.2014  0.1714  1.7895
  477MPD2    H3 7102   3.459   0.893  11.177  1.6889 -1.1497  1.5328
  477MPD2     N 7103   3.370   0.619  11.532 -0.0557 -0.4952 -0.7772
  477MPD2    H5 7104   3.302   0.597  11.605 -1.5146 -4.3553 -3.3017
  477MPD2    N1 7105   3.079   0.982  11.397  0.0222 -0.1299  0.1044
  477MPD2    H7 7106   3.061   1.047  11.321 -0.1501 -0.5253 -0.1957
  478TMC3    C1 7107   2.852   1.013  11.438 -0.4551 -0.0818 -0.9367
  478TMC3    C2 7108   2.759   1.046  11.524  0.1687 -0.0221  0.6320
  478TMC3    C3 7109   2.650   1.114  11.469 -0.0578  0.3642 -0.4792
  478TMC3    C4 7110   2.850   1.042  11.304 -0.3432 -0.3238 -0.1644
  478TMC3    C5 7111   2.728   1.088  11.251 -0.1788  0.3340  0.3855
  478TMC3    C6 7112   2.640   1.146  11.336 -0.5313  0.6410  0.5184
  478TMC3     C 7113   2.978   0.960  11.484 -0.2516 -0.5544 -0.0085
  478TMC3     O 7114   2.980   0.902  11.592  0.1709  0.0787 -0.2586
  478TMC3     H 7115   2.781   1.033  11.629  1.8445  0.1634  0.3098
  478TMC3    H1 7116   2.917   0.991  11.236  0.2677 -1.1751  1.0565
  478TMC3    H2 7117   2.543   1.178  11.300 -1.1714 -3.7789 -1.7828
  478TMC3    C7 7118   2.693   1.048  11.115  0.2189  0.1682 -0.6488
  478TMC3    C8 7119   2.572   1.194  11.568 -0.2438  0.3262  0.6314
  478TMC3    O1 7120   2.778   0.985  11.053 -0.0175  0.4520  0.2265
  478TMC3    O2 7121   2.603   1.165  11.684 -0.0315  0.7770  0.2583
  479MPD2     C 7122   1.636   4.518  15.508  0.4883 -0.1479  0.2616
  479MPD2    C1 7123   1.548   4.413  15.541  0.7618 -0.3329  0.5188
  479MPD2    C2 7124   1.530   4.391  15.680  0.2147 -0.1563  0.0034
  479MPD2    C3 7125   1.588   4.467  15.781  0.0246  0.0943 -0.1589
  479MPD2    C4 7126   1.675   4.569  15.744  0.1391  0.0936  0.0923
  479MPD2    C5 7127   1.704   4.585  15.608 -0.5397  0.3649  0.7552
  479MPD2     H 7128   1.470   4.303  15.698  2.5994 -1.3198  2.0961
  479MPD2    H1 7129   1.730   4.628  15.816 -0.7510  0.9555  0.0642
  479MPD2    H2 7130   1.664   4.547  15.407 -1.9473 -2.3560 -1.0540
  479MPD2    H3 7131   1.778   4.658  15.578 -0.0959 -0.0737  0.7832
  479MPD2     N 7132   1.567   4.455  15.919 -0.3294 -0.4355  0.6507
  479MPD2    H5 7133   1.627   4.517  15.972 -0.3500 -0.6696  0.9464
  479MPD2    N1 7134   1.484   4.346  15.438 -0.2740  0.2763  0.0587
  479MPD2    H7 7135   1.516   4.378  15.347 -1.0226 -0.4560 -0.4709
  480TMC3    C1 7136   1.169   4.198  15.906 -0.4744  0.4400  0.0965
  480TMC3    C2 7137   1.094   4.294  15.842 -0.6381 -0.0623 -0.6030
  480TMC3    C3 7138   1.153   4.416  15.820  0.3960  0.1384  0.0362
  480TMC3    C4 7139   1.297   4.214  15.936  0.6752  0.1252 -0.6682
  480TMC3    C5 7140   1.354   4.333  15.909  0.1979  0.2230  0.1695
  480TMC3    C6 7141   1.287   4.440  15.853 -0.1713 -0.0382 -0.8456
  480TMC3     C 7142   1.132   4.055  15.903 -0.0778  0.2574  0.2349
  480TMC3     O 7143   1.214   3.975  15.938 -0.4325  0.1807 -0.1001
  480TMC3     H 7144   0.986   4.280  15.838 -0.7339  0.6294 -0.4938
  480TMC3    H1 7145   1.346   4.146  16.005 -1.7224 -0.8867  0.0432
  480TMC3    H2 7146   1.324   4.541  15.855 -0.9246  0.2017  0.7683
  480TMC3    C7 7147   1.486   4.361  15.979 -0.1368 -0.3601  0.2525
  480TMC3    C8 7148   1.095   4.497  15.714 -0.0396 -0.2357 -0.0549
  480TMC3    O1 7149   1.504   4.313  16.091 -0.3581  0.1835  0.6984
  480TMC3    O2 7150   0.975   4.510  15.711 -0.8870  0.1378 -0.0253
  481MPD2     C 7151   3.403   3.695  14.191  0.2544  0.0285 -0.5141
  481MPD2    C1 7152   3.269   3.674  14.241 -0.2440 -0.0254 -0.2811
  481MPD2    C2 7153   3.247   3.658  14.374 -0.4871  0.4270 -0.4770
  481MPD2    C3 7154   3.349   3.678  14.467  0.4120 -0.4854 -0.0272
  481MPD2    C4 7155   3.472   3.705  14.419  0.3305 -0.0419 -0.1688
  481MPD2    C5 7156   3.501   3.708  14.285  0.7429 -0.1079 -0.4120
  481MPD2     H 7157   3.153   3.626  14.417 -0.4039  1.6637  0.6362
  481MPD2    H1 7158   3.552   3.703  14.493  0.9340  3.0356 -0.7445
  481MPD2    H2 7159   3.438   3.695  14.088  0.7674 -0.5656 -0.3388
  481MPD2    H3 7160   3.605   3.708  14.253  0.9005 -1.1143  0.0996
  481MPD2     N 7161   3.326   3.654  14.608 -0.0608 -0.1489  0.0128
  481MPD2    H5 7162   3.410   3.642  14.664  0.5709 -2.9296 -1.4943
  481MPD2    N1 7163   3.164   3.639  14.151  0.1093  0.3181 -0.3198
  481MPD2    H7 7164   3.186   3.615  14.055 -2.3855 -0.6629 -0.6456
  482TMC3    C1 7165   2.945   3.560  14.094 -0.8257  0.3404 -0.0025
  482TMC3    C2 7166   2.999   3.454  14.023  0.6501 -0.1048 -0.1763
  482TMC3    C3 7167   2.930   3.409  13.921 -0.5485 -0.5676  0.1945
  482TMC3    C4 7168   2.829   3.624  14.068 -0.3253 -0.3720 -0.5309
  482TMC3    C5 7169   2.764   3.578  13.958 -0.4361 -0.4376  0.5698
  482TMC3    C6 7170   2.812   3.471  13.878  0.3627  0.4929  1.0987
  482TMC3     C 7171   3.033   3.625  14.191 -0.4691  0.0541 -0.6373
  482TMC3     O 7172   2.978   3.679  14.287 -0.0041 -0.2176  0.4007
  482TMC3     H 7173   3.095   3.416  14.055  0.4230  0.0835  0.7183
  482TMC3    H1 7174   2.792   3.701  14.135  0.3848 -1.1388  0.7525
  482TMC3    H2 7175   2.762   3.442  13.786 -1.9453  0.0625  2.4753
  482TMC3    C7 7176   2.650   3.656  13.904 -0.2116 -0.2751  0.2691
  482TMC3    C8 7177   2.983   3.303  13.842 -0.3554  0.6918 -0.0650
  482TMC3    O1 7178   2.623   3.753  13.970 -0.6862 -0.1132  0.1407
  482TMC3    O2 7179   2.923   3.274  13.737 -0.2417  0.3450 -0.3735
  483TMC3    C1 7180   0.156   2.470   0.333 -0.2007 -0.6783 -0.1226
  483TMC3    C2 7181   0.234   2.576   0.297 -0.3804  0.3766  0.3153
  483TMC3    C3 7182   0.264   2.677   0.388 -0.3873  0.0809  0.5610
  483TMC3    C4 7183   0.102   2.459   0.461 -0.3609  0.7037  0.1159
  483TMC3    C5 7184   0.135   2.562   0.547 -0.2750  0.2240  0.6412
  483TMC3    C6 7185   0.211   2.670   0.514  0.0508  0.7676 -0.1977
  483TMC3     C 7186   0.181   2.348   0.265 -0.7786  0.8285  0.2314
  483TMC3     O 7187   0.192   2.352   0.147  0.2314  0.4641 -0.4885
  483TMC3     H 7188   0.281   2.565   0.200 -0.4477 -0.5953  0.3935
  483TMC3    H1 7189   0.037   2.375   0.480 -1.3549  1.2022 -1.1022
  483TMC3    H2 7190   0.210   2.751   0.586 -0.9819 -0.1614  0.8022
  483TMC3    C7 7191   0.173   2.487   0.668  0.3296 -0.2995  0.5581
  483TMC3    C8 7192   0.399   2.728   0.377 -0.9655  0.2574 -0.3525
  483TMC3    O1 7193   0.208   2.368   0.650 -0.2238 -0.3146 -0.4264
  483TMC3    O2 7194   0.479   2.650   0.328 -0.1836 -0.7887 -0.1109
  484MPD2     C 7195   3.702   4.301  11.974  0.2243 -0.1426 -0.1144
  484MPD2    C1 7196   3.732   4.293  12.103  0.2870 -0.2493 -0.5473
  484MPD2    C2 7197   3.818   4.391  12.151  0.0283  0.0347  0.0026
  484MPD2    C3 7198   3.874   4.490  12.073  1.3347 -0.3870  0.1877
  484MPD2    C4 7199   3.833   4.491  11.937 -0.4681 -0.7543  0.6711
  484MPD2    C5 7200   3.746   4.396  11.893  0.8406  0.2353  0.0092
  484MPD2     H 7201   3.852   4.388  12.253 -0.7261 -1.6797  0.2068
  484MPD2    H1 7202   3.867   4.571  11.873 -0.7352 -0.8207  0.4454
  484MPD2    H2 7203   3.639   4.226  11.928  0.4453 -1.1601  1.2167
  484MPD2    H3 7204   3.718   4.405  11.789 -0.4492 -1.3646  0.2207
  484MPD2     N 7205   3.966   4.587  12.112 -0.0022  0.5169  0.1863
  484MPD2    H5 7206   3.999   4.660  12.049 -2.6351  0.2280 -1.5396
  484MPD2    N1 7207   3.673   4.193  12.190  0.6336 -0.5206 -0.5046
  484MPD2    H7 7208   3.605   4.130  12.149  0.0665  0.2087 -0.6761
  485TMC3    C1 7209   4.135   4.696  12.239 -0.1020  0.6011 -0.2828
  485TMC3    C2 7210   4.236   4.685  12.326  0.4571 -0.3187  0.2558
  485TMC3    C3 7211   4.339   0.049  12.312  0.3407 -0.2837  0.1100
  485TMC3    C4 7212   4.147   0.065  12.134  0.2699  0.1600  0.4481
  485TMC3    C5 7213   4.255   0.148  12.125 -0.0594 -0.1193 -0.3343
  485TMC3    C6 7214   4.349   0.142  12.217  0.5810 -0.0604 -0.2110
  485TMC3     C 7215   4.033   4.593  12.232  0.3562 -0.2750 -0.3565
  485TMC3     O 7216   4.022   4.527  12.337 -0.2160 -0.0980  0.0657
  485TMC3     H 7217   4.231   4.627  12.418  1.9242 -0.8849 -0.0198
  485TMC3    H1 7218   4.075   0.064  12.053  1.1730  2.4147 -0.3796
  485TMC3    H2 7219   4.429   0.215  12.206  1.2723 -0.7055  0.5350
  485TMC3    C7 7220   4.317   0.155  11.993  0.4495  0.3597  0.6955
  485TMC3    C8 7221   4.465   4.717  12.366  0.0275  0.6284 -0.1488
  485TMC3    O1 7222   4.263   0.226  11.910 -0.3542 -0.3719 -0.3361
  485TMC3    O2 7223   4.468   4.593  12.373  0.0084 -0.2153 -0.1776
  486MPD2     C 7224   0.773   4.069  13.255  0.4173  0.0784 -0.0105
  486MPD2    C1 7225   0.852   4.022  13.149 -0.1460  0.1455 -0.6672
  486MPD2    C2 7226   0.841   4.073  13.015 -0.0123 -0.7661 -0.0766
  486MPD2    C3 7227   0.752   4.181  13.000 -0.5240 -0.0413 -0.0311
  486MPD2    C4 7228   0.683   4.228  13.107 -0.2928  0.3381  0.2650
  486MPD2    C5 7229   0.695   4.176  13.231 -0.5118  0.0991 -0.4052
  486MPD2     H 7230   0.906   4.036  12.936 -0.0834  0.3433 -0.6558
  486MPD2    H1 7231   0.609   4.307  13.100  1.0901  1.5546 -0.7913
  486MPD2    H2 7232   0.778   4.021  13.352  1.9235 -0.0721 -0.1645
  486MPD2    H3 7233   0.638   4.200  13.320 -1.2122 -1.5826 -0.3860
  486MPD2     N 7234   0.723   4.234  12.872 -0.5288 -0.3537 -0.1564
  486MPD2    H5 7235   0.766   4.184  12.796  1.8908  0.0070  0.9677
  486MPD2    N1 7236   0.934   3.909  13.182 -0.6166  0.2032 -0.2692
  486MPD2    H7 7237   0.927   3.882  13.280  1.2972 -1.0645 -0.4821
  487TMC3    C1 7238   1.064   3.725  13.158  0.2951 -0.2709 -0.3531
  487TMC3    C2 7239   1.086   3.608  13.088  0.5832 -0.4307  0.0717
  487TMC3    C3 7240   1.158   3.504  13.148  0.4736  0.3270 -0.1167
  487TMC3    C4 7241   1.139   3.746  13.273 -0.0416  0.6150  0.6468
  487TMC3    C5 7242   1.212   3.647  13.327 -0.0145  0.2001  0.2751
  487TMC3    C6 7243   1.215   3.524  13.273 -0.5148  0.5288  1.1131
  487TMC3     C 7244   1.008   3.839  13.090 -0.2955 -0.3780  0.6448
  487TMC3     O 7245   1.010   3.845  12.968 -0.6160 -0.0361 -0.0558
  487TMC3     H 7246   1.044   3.599  12.988  1.6337  0.0776 -0.4055
  487TMC3    H1 7247   1.139   3.842  13.323  1.0811  0.6200  0.6410
  487TMC3    H2 7248   1.287   3.449  13.304 -0.6994  0.2460  0.8598
  487TMC3    C7 7249   1.176   3.641  13.468  0.0584  0.7968  0.0297
  487TMC3    C8 7250   1.079   3.383  13.156 -0.5075  0.0420  0.9748
  487TMC3    O1 7251   1.146   3.740  13.527 -0.0612  0.2768 -0.4048
  487TMC3    O2 7252   0.972   3.381  13.095 -0.2207 -0.6021  0.3035
  488MPD2     C 7253   1.356   1.166  16.222 -0.2071 -0.4849 -0.3543
  488MPD2    C1 7254   1.220   1.190  16.214 -0.1377 -0.3485 -0.1564
  488MPD2    C2 7255   1.133   1.149  16.315 -0.0314 -0.8802 -0.2382
  488MPD2    C3 7256   1.183   1.080  16.425  0.4254  0.2404 -0.7919
  488MPD2    C4 7257   1.320   1.046  16.435 -0.5164  0.4723  0.5290
  488MPD2    C5 7258   1.402   1.095  16.334  0.2526 -0.5586 -0.1684
  488MPD2     H 7259   1.030   1.181  16.316  0.9946  2.4018 -0.0092
  488MPD2    H1 7260   1.365   0.995  16.519 -0.4712 -1.2552 -0.5574
  488MPD2    H2 7261   1.431   1.202  16.153 -1.4388  1.2880 -0.7533
  488MPD2    H3 7262   1.507   1.069  16.346  0.6716  1.0074 -0.4201
  488MPD2     N 7263   1.087   1.048  16.527 -0.2126  0.2986  0.9751
  488MPD2    H5 7264   0.994   1.089  16.523  0.1948  1.0439 -0.9847
  488MPD2    N1 7265   1.157   1.256  16.113  0.0091 -0.0525  0.0304
  488MPD2    H7 7266   1.059   1.277  16.123  0.3184  0.5860  1.6667
  489TMC3    C1 7267   1.046   0.990  16.751  0.4259  0.4276 -0.2174
  489TMC3    C2 7268   1.077   0.920  16.865  0.3367 -0.4720  0.1439
  489TMC3    C3 7269   1.041   0.955  16.992  0.5841 -0.0146  0.7539
  489TMC3    C4 7270   0.945   1.083  16.760  0.6041 -0.2698 -0.6649
  489TMC3    C5 7271   0.898   1.105  16.888  0.9482  0.4567  0.0560
  489TMC3    C6 7272   0.941   1.047  17.000  0.3090 -0.1622 -0.1425
  489TMC3     C 7273   1.112   0.958  16.627  0.1663 -0.3956 -0.2443
  489TMC3     O 7274   1.197   0.871  16.637  0.2333 -0.3787  0.0825
  489TMC3     H 7275   1.133   0.830  16.845 -0.3849 -1.0319  0.6067
  489TMC3    H1 7276   0.923   1.153  16.680  1.0396 -1.4537 -1.8065
  489TMC3    H2 7277   0.897   1.068  17.096  1.2102 -1.0839  0.4728
  489TMC3    C7 7278   0.806   1.212  16.902 -0.7551  0.3426 -0.7303
  489TMC3    C8 7279   1.151   0.980  17.073 -0.3005 -0.5619 -0.1350
  489TMC3    O1 7280   0.722   1.221  16.812  0.0295 -0.1000 -0.3044
  489TMC3    O2 7281   1.151   1.086  17.127 -0.1427 -0.1241 -0.7616
  490MPD2     C 7282   1.681   0.035   0.694  0.1542  0.0838 -0.3270
  490MPD2    C1 7283   1.682   0.062   0.560  0.2586 -0.0455 -0.3127
  490MPD2    C2 7284   1.615   0.176   0.507 -0.0427  0.3270  0.4712
  490MPD2    C3 7285   1.554   0.264   0.598 -0.0298  0.3025  0.3861
  490MPD2    C4 7286   1.569   0.242   0.733  0.2807 -0.2138 -0.0581
  490MPD2    C5 7287   1.631   0.129   0.778  0.1059 -0.6193  0.2939
  490MPD2     H 7288   1.598   0.176   0.400 -1.1082  0.1063  0.6416
  490MPD2    H1 7289   1.519   0.303   0.807  0.3706 -0.1705 -0.0324
  490MPD2    H2 7290   1.727   4.666   0.730 -0.9233 -0.8459 -1.2891
  490MPD2    H3 7291   1.634   0.108   0.884 -0.3537 -1.2394  0.1791
  490MPD2     N 7292   1.496   0.389   0.557 -0.0585 -0.4995 -0.0852
  490MPD2    H5 7293   1.473   0.458   0.628  0.5654  0.9513 -1.2962
  490MPD2    N1 7294   1.731   4.687   0.466 -0.3772 -0.2553 -0.3765
  490MPD2    H7 7295   1.725   0.008   0.374 -2.6443  1.0625  0.3819
  491TMC3    C1 7296   1.769   4.475   0.368  0.5259  0.3525  0.5341
  491TMC3    C2 7297   1.720   4.350   0.366  0.3565 -0.5149  0.1136
  491TMC3    C3 7298   1.746   4.267   0.254 -0.4861  0.0281 -0.3136
  491TMC3    C4 7299   1.836   4.532   0.256 -0.4039 -0.3553  0.1730
  491TMC3    C5 7300   1.869   4.448   0.155  0.3137  0.2795  0.1299
  491TMC3    C6 7301   1.829   4.309   0.152 -0.1702 -0.1131 -0.6336
  491TMC3     C 7302   1.741   4.546   0.487 -0.1556 -0.3933  0.2826
  491TMC3     O 7303   1.699   4.480   0.586  0.0102 -0.2390  0.0143
  491TMC3     H 7304   1.659   4.316   0.450  1.8929  0.6337  1.6927
  491TMC3    H1 7305   1.891   4.625   0.260 -0.6208 -0.2500  0.6655
  491TMC3    H2 7306   1.841   4.245   0.066  0.3771 -1.3431  0.3660
  491TMC3    C7 7307   1.878   4.508   0.022  0.0039  0.2540 -0.0748
  491TMC3    C8 7308   1.648   4.162   0.225 -0.8227 -0.0698  0.1023
  491TMC3    O1 7309   1.982   4.488  17.656 -0.1712 -0.3510 -0.1963
  491TMC3    O2 7310   1.683   4.072   0.151  0.4526  0.1221  0.0589
  492MPD2     C 7311   2.896   0.005  10.772  0.0667 -0.1690 -0.9371
  492MPD2    C1 7312   2.822   4.623  10.723 -0.2526 -0.0483  0.0130
  492MPD2    C2 7313   2.751   4.539  10.811  0.0720  0.2659 -0.8131
  492MPD2    C3 7314   2.753   4.564  10.945 -0.1284  0.3101 -0.7663
  492MPD2    C4 7315   2.833   4.670  10.997  0.1010  0.1764  0.2805
  492MPD2    C5 7316   2.904   0.021  10.908  0.1776 -0.5000  0.1127
  492MPD2     H 7317   2.700   4.454  10.767  1.7815 -0.7282 -0.8788
  492MPD2    H1 7318   2.837   4.704  11.100  1.8028 -1.4028  0.7354
  492MPD2    H2 7319   2.962   0.069  10.714 -0.2441 -0.1895 -1.3119
  492MPD2    H3 7320   2.967   0.101  10.946 -0.3631  0.7697 -1.6881
  492MPD2     N 7321   2.682   4.482  11.037  0.3663  0.0871  0.2232
  492MPD2    H5 7322   2.686   4.509  11.134  0.0262 -1.2040  0.5975
  492MPD2    N1 7323   2.818   4.603  10.582 -1.0400  0.0488  0.2466
  492MPD2    H7 7324   2.883   4.660  10.530 -0.8423 -0.8159 -0.4543
  493TMC3    C1 7325   2.768   4.499  10.377  0.3473  0.1443  0.1124
  493TMC3    C2 7326   2.749   4.619  10.309 -0.6338  0.4219  0.3369
  493TMC3    C3 7327   2.679   4.610  10.191 -0.0063  0.8850 -0.0772
  493TMC3    C4 7328   2.729   4.375  10.324  0.0818 -0.1834  0.2679
  493TMC3    C5 7329   2.653   4.375  10.211 -0.0546 -0.1695  0.5852
  493TMC3    C6 7330   2.627   4.491  10.148  0.5418 -0.3720 -0.1980
  493TMC3     C 7331   2.752   4.499  10.517  0.2309  0.7096 -0.3724
  493TMC3     O 7332   2.647   4.453  10.556 -0.3330 -0.2694 -0.3857
  493TMC3     H 7333   2.786   4.716  10.339  1.9916 -0.3120 -0.5616
  493TMC3    H1 7334   2.758   4.289  10.384  0.8147  0.6060  1.0307
  493TMC3    H2 7335   2.563   4.476  10.062 -1.7753 -1.8804  1.7685
  493TMC3    C7 7336   2.537   4.297  10.231  0.3469  0.4622 -0.9574
  493TMC3    C8 7337   2.667   4.719  10.098 -0.3104 -0.7276 -0.2662
  493TMC3    O1 7338   2.457   4.292  10.133  0.4049 -0.1679 -0.3314
  493TMC3    O2 7339   2.584   4.708  10.009  0.0853  0.0488  0.3359
  494TMC3    C1 7340   2.427   2.035   0.373  0.1193  1.1946 -0.7925
  494TMC3    C2 7341   2.454   1.904   0.376 -0.1261 -0.4055 -0.4259
  494TMC3    C3 7342   2.544   1.868   0.276  0.0904  0.3228  0.5257
  494TMC3    C4 7343   2.480   2.130   0.289 -0.3744  0.0338  0.5784
  494TMC3    C5 7344   2.573   2.088   0.193  0.4962  0.1690 -0.1848
  494TMC3    C6 7345   2.604   1.954   0.182  0.3191 -0.2218 -0.1435
  494TMC3     C 7346   2.339   2.075   0.482 -0.0551  0.9062  0.4604
  494TMC3     O 7347   2.336   2.007   0.586 -0.1226 -0.0040  0.1127
  494TMC3     H 7348   2.399   1.835   0.439 -1.5575 -0.2029 -1.4722
  494TMC3    H1 7349   2.477   2.234   0.322 -3.1202  0.0848  0.1897
  494TMC3    H2 7350   2.674   1.908   0.113  0.6956 -3.5984  2.4933
  494TMC3    C7 7351   2.581   2.154   0.063  0.0458  0.5034  0.4354
  494TMC3    C8 7352   2.599   1.727   0.275 -0.0516 -0.2931  0.8670
  494TMC3    O1 7353   2.644   2.095  17.671 -0.0142  0.0491 -0.7567
  494TMC3    O2 7354   2.695   1.703   0.205 -0.3050  0.2003  0.3699
  495TMC3    C1 7355   1.757   0.204  15.161  0.0430  0.1598  0.2797
  495TMC3    C2 7356   1.726   0.266  15.041 -0.1294 -0.0904 -0.5498
  495TMC3    C3 7357   1.588   0.276  15.009  0.0094  0.0227 -0.0278
  495TMC3    C4 7358   1.660   0.181  15.254 -0.1412  0.2244 -0.5650
  495TMC3    C5 7359   1.528   0.207  15.229 -0.5969 -0.5731 -0.1466
  495TMC3    C6 7360   1.489   0.257  15.107  0.3734  0.0545 -0.1339
  495TMC3     C 7361   1.815   0.081  15.129 -0.1914  0.0330 -0.2790
  495TMC3     O 7362   1.761   4.700  15.175  0.4343  0.7263 -0.3916
  495TMC3     H 7363   1.792   0.285  14.957 -0.0550  1.9165 -0.0387
  495TMC3    H1 7364   1.688   0.121  15.339 -0.7409 -0.5587 -0.9274
  495TMC3    H2 7365   1.382   0.261  15.090  0.4141 -1.5345 -0.7283
  495TMC3    C7 7366   1.443   0.147  15.318 -0.3043 -0.3195  0.0830
  495TMC3    C8 7367   1.545   0.259  14.873 -0.7708  0.3545  0.1562
  495TMC3    O1 7368   1.470   0.163  15.434  0.4508  0.6490  0.2777
  495TMC3    O2 7369   1.424   0.265  14.854 -0.3667  0.0223 -0.1813
  496MPD2     C 7370   3.713   4.060  15.285  0.7065  0.1099  0.5131
  496MPD2    C1 7371   3.648   3.942  15.259 -0.3327  0.2425 -0.4912
  496MPD2    C2 7372   3.549   3.908  15.354 -0.0219  0.4080 -0.2335
  496MPD2    C3 7373   3.518   3.983  15.466  0.4630 -0.1457  1.1951
  496MPD2    C4 7374   3.590   4.093  15.487 -0.2119  0.5368 -0.1515
  496MPD2    C5 7375   3.685   4.137  15.396 -0.7032 -0.0599 -0.8206
  496MPD2     H 7376   3.500   3.811  15.347 -0.5648  0.6956 -0.4432
  496MPD2    H1 7377   3.574   4.156  15.574  3.5883  0.4537  0.6459
  496MPD2    H2 7378   3.794   4.090  15.219 -0.4156 -0.2970 -1.0536
  496MPD2    H3 7379   3.747   4.220  15.429 -0.6175 -0.4134 -0.0919
  496MPD2     N 7380   3.408   3.944  15.549 -0.0004 -0.7054  0.2266
  496MPD2    H5 7381   3.365   3.855  15.524 -0.3305  0.1787 -2.3463
  496MPD2    N1 7382   3.692   3.862  15.150 -0.2464 -0.3450 -0.2238
  496MPD2    H7 7383   3.777   3.888  15.102 -1.5188  1.9542 -1.2375
  497TMC3    C1 7384   3.242   3.959  15.711 -0.0657 -0.3459  0.1673
  497TMC3    C2 7385   3.147   3.926  15.617  0.4346  0.1739 -0.7049
  497TMC3    C3 7386   3.016   3.952  15.643  0.0767 -0.1736 -0.2421
  497TMC3    C4 7387   3.208   4.002  15.841  0.6419  0.1998  0.7763
  497TMC3    C5 7388   3.071   4.011  15.866 -0.0623  0.0916 -0.4195
  497TMC3    C6 7389   2.973   3.977  15.771  0.1300  0.1400  0.3999
  497TMC3     C 7390   3.368   4.011  15.661 -0.6951 -0.9457 -0.5785
  497TMC3     O 7391   3.412   4.104  15.726  0.6262  0.7848 -0.5406
  497TMC3     H 7392   3.178   3.906  15.516 -1.4155  0.1514 -1.2706
  497TMC3    H1 7393   3.287   4.032  15.909 -0.2016  0.5492  1.5969
  497TMC3    H2 7394   2.867   3.978  15.795  0.2246  0.3197  0.7990
  497TMC3    C7 7395   3.015   4.043  15.988 -0.3856  0.1362  0.7292
  497TMC3    C8 7396   2.924   3.891  15.554  0.0540 -0.2661  0.4738
  497TMC3    O1 7397   2.901   4.089  15.988  0.2546  0.4551 -0.5826
  497TMC3    O2 7398   2.963   3.794  15.487  0.0839 -0.1073 -0.0706
  498MPD2     C 7399   0.548   3.974   9.433  0.2508  0.6377  0.5395
  498MPD2    C1 7400   0.500   4.082   9.495 -0.1699  0.4809  0.2177
  498MPD2    C2 7401   0.387   4.073   9.575 -0.7282 -0.1189  0.6394
  498MPD2    C3 7402   0.310   3.960   9.577 -0.3901  0.5622  0.4557
  498MPD2    C4 7403   0.355   3.854   9.499 -0.5831 -0.2089 -0.2782
  498MPD2    C5 7404   0.473   3.861   9.433  0.1586 -0.5481 -0.4925
  498MPD2     H 7405   0.358   4.161   9.632  1.9637  0.6778  0.7492
  498MPD2    H1 7406   0.301   3.760   9.494  1.1260 -1.2444  0.7590
  498MPD2    H2 7407   0.651   3.967   9.401 -0.1156  1.9205 -0.8930
  498MPD2    H3 7408   0.507   3.773   9.379  2.5600 -0.2391  0.5050
  498MPD2     N 7409   0.178   3.956   9.626 -0.2166  0.2663  0.0487
  498MPD2    H5 7410   0.142   4.039   9.673 -0.5963 -0.4079  0.9251
  498MPD2    N1 7411   0.570   4.208   9.485  0.9728  0.2854 -0.7023
  498MPD2    H7 7412   0.535   4.290   9.535 -0.0335  0.7429 -2.1514
  499TMC3    C1 7413   0.742   4.366   9.436 -0.2312  0.2199  0.4567
  499TMC3    C2 7414   0.877   4.387   9.439 -0.1866  0.2599 -0.1369
  499TMC3    C3 7415   0.915   4.519   9.425 -0.7330  0.1507 -0.0467
  499TMC3    C4 7416   0.649   4.465   9.429 -0.2418  0.2323 -0.2284
  499TMC3    C5 7417   0.689   4.596   9.436  0.5088  0.0790  0.5587
  499TMC3    C6 7418   0.824   4.625   9.441  0.1920 -0.5372  0.2689
  499TMC3     C 7419   0.700   4.227   9.447  0.1064 -0.0276 -0.9383
  499TMC3     O 7420   0.792   4.146   9.431  0.3204 -0.0228 -0.0172
  499TMC3     H 7421   0.947   4.305   9.429 -0.4900  0.2185 -1.8611
  499TMC3    H1 7422   0.544   4.440   9.438 -0.5465  1.3175 -0.7943
  499TMC3    H2 7423   0.860   0.004   9.452 -0.2060 -0.0304 -2.9046
  499TMC3    C7 7424   0.597   4.709   9.409  0.4822 -0.8200  0.4339
  499TMC3    C8 7425   1.055   4.548   9.416  0.2086  0.0270  0.1107
  499TMC3    O1 7426   0.654   0.093   9.383 -0.0636 -0.1640 -0.1951
  499TMC3    O2 7427   1.133   4.456   9.453 -0.1014  0.0481 -0.0813
  500MPD2     C 7428   1.511   0.866  10.342 -0.2770  0.1977  0.1475
  500MPD2    C1 7429   1.512   0.800  10.223 -0.0666 -0.0605 -0.0612
  500MPD2    C2 7430   1.408   0.825  10.133  0.4893  0.3573 -0.8097
  500MPD2    C3 7431   1.297   0.887  10.181  0.3618  0.2316 -0.6418
  500MPD2    C4 7432   1.286   0.927  10.310  0.1287  0.1401 -0.3180
  500MPD2    C5 7433   1.394   0.923  10.388 -0.5960 -0.5079  0.0371
  500MPD2     H 7434   1.407   0.780  10.034  0.4782  0.4739 -0.8625
  500MPD2    H1 7435   1.192   0.961  10.352 -0.0606 -0.2549 -0.4202
  500MPD2    H2 7436   1.600   0.862  10.405  0.3355  0.8444 -0.6621
  500MPD2    H3 7437   1.393   0.971  10.486  1.0895  0.9583 -0.6569
  500MPD2     N 7438   1.186   0.906  10.098 -0.3773  0.0458 -0.7136
  500MPD2    H5 7439   1.094   0.911  10.141 -1.0071 -0.6470 -1.9804
  500MPD2    N1 7440   1.624   0.727  10.174 -0.1108  0.3124 -0.0007
  500MPD2    H7 7441   1.622   0.700  10.076  2.3435 -0.5415  0.1854
  501TMC3    C1 7442   1.837   0.633  10.169  0.4977  0.0553 -0.1937
  501TMC3    C2 7443   1.879   0.709  10.066 -0.5811  0.0349 -0.1905
  501TMC3    C3 7444   2.007   0.700  10.018 -0.3363 -0.0328 -0.7197
  501TMC3    C4 7445   1.926   0.546  10.237  0.5709 -0.1356 -0.6275
  501TMC3    C5 7446   2.056   0.550  10.191  0.2400  0.1087  0.4799
  501TMC3    C6 7447   2.098   0.614  10.075  0.0854  0.1144 -0.2601
  501TMC3     C 7448   1.722   0.678  10.248  0.7577 -0.1534  0.6806
  501TMC3     O 7449   1.738   0.683  10.371 -0.2542  0.1256 -0.8601
  501TMC3     H 7450   1.806   0.772  10.017 -1.1002 -2.8108 -3.0915
  501TMC3    H1 7451   1.902   0.495  10.330 -0.3821 -2.0131 -1.9061
  501TMC3    H2 7452   2.201   0.594  10.047  0.2014  2.1782 -1.3474
  501TMC3    C7 7453   2.150   0.552  10.307 -0.6894  0.6592 -0.2504
  501TMC3    C8 7454   2.073   0.829  10.013  0.9280 -0.1608  0.5631
  501TMC3    O1 7455   2.131   0.468  10.395  0.0650  0.3200 -0.4392
  501TMC3    O2 7456   2.181   0.840  10.081  0.0787  0.2175 -0.0100
  502TMC3    C1 7457   0.987   0.755  15.373  0.3238  0.4600  0.6569
  502TMC3    C2 7458   1.008   0.764  15.235 -0.6275  0.0923 -0.1747
  502TMC3    C3 7459   0.901   0.728  15.146 -0.1979 -0.2145 -0.0468
  502TMC3    C4 7460   0.864   0.711  15.417 -0.1166 -0.0995 -0.3723
  502TMC3    C5 7461   0.769   0.667  15.326 -1.1128 -0.6551 -0.1095
  502TMC3    C6 7462   0.790   0.669  15.192 -0.7694  0.0296 -0.0105
  502TMC3     C 7463   1.095   0.723  15.455 -0.2253 -0.1740  0.1926
  502TMC3     O 7464   1.205   0.744  15.405 -0.1586  0.7408  0.5902
  502TMC3     H 7465   1.101   0.802  15.194 -0.9680  0.8691 -0.2163
  502TMC3    H1 7466   0.830   0.705  15.520 -0.3743  0.7827 -0.4124
  502TMC3    H2 7467   0.711   0.650  15.120  0.7395 -2.4006 -1.0494
  502TMC3    C7 7468   0.677   0.561  15.385 -0.4383  0.3354  0.0488
  502TMC3    C8 7469   0.927   0.742  15.004  0.4618  0.0764  0.2010
  502TMC3    O1 7470   0.703   0.517  15.494  0.5980 -0.0500 -0.2822
  502TMC3    O2 7471   1.001   0.836  14.965 -0.4089  0.5220 -0.0299
  503MPD2     C 7472   2.719   1.033  16.636  0.4341  0.4425  0.1525
  503MPD2    C1 7473   2.721   1.082  16.766  0.1163 -0.3837  0.0841
  503MPD2    C2 7474   2.767   1.000  16.867 -0.0699  0.2255 -0.0509
  503MPD2    C3 7475   2.817   0.870  16.839 -0.3052  0.4036  0.0211
  503MPD2    C4 7476   2.823   0.824  16.713 -0.0142  0.0245  0.3087
  503MPD2    C5 7477   2.771   0.902  16.608 -0.4609 -0.0922 -0.3621
  503MPD2     H 7478   2.781   1.038  16.967 -0.3453  0.1266  0.0256
  503MPD2    H1 7479   2.860   0.725  16.688 -1.8925 -1.1092  1.9626
  503MPD2    H2 7480   2.703   1.088  16.544  2.5967  1.3624  0.3219
  503MPD2    H3 7481   2.774   0.857  16.510  0.8500 -2.5222  0.8134
  503MPD2     N 7482   2.867   0.782  16.944 -0.4109 -0.6117 -0.5426
  503MPD2    H5 7483   2.850   0.807  17.041  0.5489  0.5555 -0.6661
  503MPD2    N1 7484   2.688   1.214  16.799 -0.3210  0.0584  0.0657
  503MPD2    H7 7485   2.675   1.239  16.896 -0.3570 -1.1757  0.3893
  504TMC3    C1 7486   2.982   0.617  17.045  0.5300  0.1061 -0.4657
  504TMC3    C2 7487   2.917   0.621  17.164  0.2133  0.3544 -0.7195
  504TMC3    C3 7488   2.973   0.549  17.267 -0.1934  0.4225  0.8737
  504TMC3    C4 7489   3.091   0.532  17.032 -0.6716 -0.3317 -0.3439
  504TMC3    C5 7490   3.125   0.448  17.135  0.3546 -0.3647  0.8886
  504TMC3    C6 7491   3.070   0.449  17.255 -0.3726 -0.2758 -0.7111
  504TMC3     C 7492   2.939   0.671  16.922  0.1010 -0.0246 -0.3512
  504TMC3     O 7493   2.994   0.623  16.823 -0.2239  0.7363 -0.5940
  504TMC3     H 7494   2.842   0.698  17.179 -0.9279 -1.2578  1.8787
  504TMC3    H1 7495   3.152   0.538  16.943  1.2124  0.1926  0.9763
  504TMC3    H2 7496   3.113   0.396  17.340 -1.8066 -1.4292 -0.7075
  504TMC3    C7 7497   3.225   0.349  17.106 -0.0864 -0.4841 -0.1414
  504TMC3    C8 7498   2.908   0.582  17.394 -0.2773 -0.6726  0.2470
  504TMC3    O1 7499   3.318   0.378  17.033  0.0797  0.3164  0.0781
  504TMC3    O2 7500   2.837   0.681  17.402  0.6476  0.7215 -0.6028
  505MPD2     C 7501   3.909   4.065  10.547  0.7871  0.6867 -0.4799
  505MPD2    C1 7502   3.934   3.936  10.568  0.0960  0.7067 -0.9725
  505MPD2    C2 7503   4.059   3.910  10.627  0.0064  0.3970 -0.4327
  505MPD2    C3 7504   4.150   4.005  10.664  0.1481  0.0864 -0.3950
  505MPD2    C4 7505   4.125   4.135  10.626 -0.4036  0.0214  0.7570
  505MPD2    C5 7506   4.004   4.163  10.569  0.5558  0.1346 -0.4416
  505MPD2     H 7507   4.091   3.806  10.633 -1.3565 -0.0146 -0.4505
  505MPD2    H1 7508   4.206   4.206  10.640  0.3320 -0.3542 -1.4317
  505MPD2    H2 7509   3.811   4.086  10.507  0.8383 -0.8889 -1.4105
  505MPD2    H3 7510   3.983   4.264  10.534 -1.5929  0.0835  0.7392
  505MPD2     N 7511   4.279   3.972  10.720 -0.1866 -0.4515 -0.3140
  505MPD2    H5 7512   4.347   4.047  10.734  0.3056 -1.1947  1.2649
  505MPD2    N1 7513   3.847   3.837  10.521 -0.4688 -0.3516 -0.5015
  505MPD2    H7 7514   3.774   3.869  10.458 -0.0732 -0.7263 -1.1563
  506TMC3    C1 7515   3.765   3.612  10.492 -0.6660 -0.2568  0.1599
  506TMC3    C2 7516   3.761   3.617  10.357  0.0103 -0.5413  0.0281
  506TMC3    C3 7517   3.762   3.496  10.291 -0.2636  0.1733  0.2549
  506TMC3    C4 7518   3.758   3.493  10.557 -0.4687 -0.3238 -0.5905
  506TMC3    C5 7519   3.749   3.379  10.488 -0.0646 -0.4675 -0.6315
  506TMC3    C6 7520   3.759   3.375  10.354 -0.1796 -0.1203  0.0275
  506TMC3     C 7521   3.845   3.708  10.562  0.4087  0.9124  0.4448
  506TMC3     O 7522   3.910   3.654  10.647 -0.2031  0.1211  0.3406
  506TMC3     H 7523   3.771   3.714  10.309 -1.0378 -0.6280 -0.3763
  506TMC3    H1 7524   3.728   3.494  10.661  2.4118  1.6429  0.2457
  506TMC3    H2 7525   3.755   3.282  10.298  4.9811  1.4403 -2.9148
  506TMC3    C7 7526   3.852   3.296  10.545 -0.8969  0.3547  0.0457
  506TMC3    C8 7527   3.788   3.499  10.154  0.2023 -0.4328 -0.0225
  506TMC3    O1 7528   3.866   3.184  10.507 -0.6027 -0.4131  0.0127
  506TMC3    O2 7529   3.729   3.411  10.094 -0.0357  0.5240 -0.6884
  507TMC3    C1 7530   3.614   0.013  14.995  0.7594  0.5918 -0.2053
  507TMC3    C2 7531   3.491   4.688  14.950  0.5197  0.2432 -0.3127
  507TMC3    C3 7532   3.472   4.663  14.815  0.0368 -0.3863  0.5590
  507TMC3    C4 7533   3.708   0.049  14.903 -0.6455  0.4204 -0.0509
  507TMC3    C5 7534   3.691   0.004  14.775  0.2010 -0.0083 -0.9879
  507TMC3    C6 7535   3.581   4.665  14.732 -0.0571  0.1442  0.3548
  507TMC3     C 7536   3.653   0.000  15.130 -0.2895  0.1993 -0.1281
  507TMC3     O 7537   3.775   0.007  15.144  0.1667 -0.4188 -0.4648
  507TMC3     H 7538   3.401   4.681  15.011  0.6721  1.1308  0.0097
  507TMC3    H1 7539   3.801   0.098  14.931 -0.0293 -0.1995 -0.9837
  507TMC3    H2 7540   3.576   4.627  14.630 -0.3964 -0.2538  0.5173
  507TMC3    C7 7541   3.750   0.077  14.663 -0.4446  0.3255  0.2759
  507TMC3    C8 7542   3.374   0.033  14.762 -0.3518  0.1608 -0.4816
  507TMC3    O1 7543   3.688   0.070  14.561 -0.1457 -1.0958 -0.0229
  507TMC3    O2 7544   3.278   0.053  14.830 -0.2382  0.0492  0.1714
  508MPD2     C 7545   4.440   2.972  16.128  0.1879 -0.2227 -0.5605
  508MPD2    C1 7546   4.564   3.027  16.165  0.1104 -0.3491  0.0840
  508MPD2    C2 7547   4.640   3.108  16.076 -0.7710  0.2568  0.1879
  508MPD2    C3 7548   4.586   3.133  15.955  0.0515  0.1627 -0.1067
  508MPD2    C4 7549   4.456   3.082  15.920  0.9532  0.0224  0.1414
  508MPD2    C5 7550   4.388   3.007  16.013  0.0814 -0.3618  0.1927
  508MPD2     H 7551   0.019   3.138  16.100  0.1866 -3.4128  0.7364
  508MPD2    H1 7552   4.405   3.099  15.826 -0.8339  1.8160  1.4607
  508MPD2    H2 7553   4.380   2.902  16.186  1.4922 -0.9540 -0.0981
  508MPD2    H3 7554   4.293   2.970  15.976  0.9046 -0.0207 -2.2202
  508MPD2     N 7555   4.654   3.214  15.866  0.8010 -0.7108  0.4502
  508MPD2    H5 7556   4.721   3.272  15.916  1.4846  0.9402 -2.3675
  508MPD2    N1 7557   4.619   2.979  16.288 -0.1656 -0.1563  0.7477
  508MPD2    H7 7558   4.552   2.924  16.341 -1.1764 -0.1788 -0.5526
  509TMC3    C1 7559   4.722   3.549  15.580 -0.3317  0.7713 -0.0656
  509TMC3    C2 7560   0.113   3.587  15.645  0.4208 -0.1189 -0.0350
  509TMC3    C3 7561   0.165   3.495  15.732 -0.8210 -0.4947 -0.0436
  509TMC3    C4 7562   4.661   3.432  15.586 -0.1963 -0.8084 -1.1657
  509TMC3    C5 7563   4.712   3.343  15.676  0.1176  0.1766 -0.2801
  509TMC3    C6 7564   0.111   3.369  15.741 -0.0833  0.1460 -0.5933
  509TMC3     C 7565   4.646   3.646  15.507  0.4506  0.8227 -0.8767
  509TMC3     O 7566   4.528   3.658  15.528  0.7515 -0.3250 -0.7857
  509TMC3     H 7567   0.160   3.682  15.621  3.6102 -0.9389  2.9702
  509TMC3    H1 7568   4.570   3.414  15.530 -0.3597 -1.3101 -0.7381
  509TMC3    H2 7569   0.156   3.291  15.801  2.3618  0.9509 -1.3923
  509TMC3    C7 7570   4.621   3.245  15.733  0.0377  0.4824  0.3066
  509TMC3    C8 7571   0.276   3.536  15.814 -0.6932  0.2398  0.3786
  509TMC3    O1 7572   4.523   3.225  15.662 -0.0017  0.3171 -0.5252
  509TMC3    O2 7573   0.353   3.447  15.846 -0.4906 -0.2943 -0.2452
  510MPD2     C 7574   3.022   4.671  14.521 -0.6976 -0.4884 -0.5213
  510MPD2    C1 7575   3.046   4.560  14.597 -0.8787  0.0689 -0.7256
  510MPD2    C2 7576   3.157   4.483  14.583 -0.1622  0.2675  0.1351
  510MPD2    C3 7577   3.248   4.528  14.487  0.3603  0.0479 -0.1220
  510MPD2    C4 7578   3.226   4.637  14.404  0.3429  0.7227  0.2899
  510MPD2    C5 7579   3.109   4.705  14.422  0.9848  0.3870 -0.2460
  510MPD2     H 7580   3.174   4.392  14.639  1.0071 -0.1319 -0.8768
  510MPD2    H1 7581   3.291   4.680  14.329 -1.2919  2.0385 -0.3541
  510MPD2    H2 7582   2.923   4.714  14.513 -0.9658 -1.0439 -0.2295
  510MPD2    H3 7583   3.086   0.054  14.344  0.0059 -1.2069 -1.4064
  510MPD2     N 7584   3.371   4.461  14.478 -0.1176 -0.2821  0.1658
  510MPD2    H5 7585   3.383   4.384  14.543  1.4340 -0.1219  0.0718
  510MPD2    N1 7586   2.949   4.526  14.694  0.4236  0.5309  0.2203
  510MPD2    H7 7587   2.874   4.592  14.710  0.1603  0.2609  0.0932
  511TMC3    C1 7588   2.838   4.421  14.866  0.1100  0.0257  0.4492
  511TMC3    C2 7589   2.812   4.540  14.916 -0.1074 -0.0030  0.1694
  511TMC3    C3 7590   2.690   4.555  14.985  0.2705  0.0535  0.9825
  511TMC3    C4 7591   2.744   4.318  14.871  0.0398  0.1419  0.3497
  511TMC3    C5 7592   2.625   4.335  14.926 -0.2389 -0.0596  0.4068
  511TMC3    C6 7593   2.594   4.456  14.990  0.3148 -0.1091  0.4591
  511TMC3     C 7594   2.943   4.410  14.763  0.3804 -0.5388 -0.8063
  511TMC3     O 7595   2.991   4.305  14.732  0.3415 -0.5122  0.1289
  511TMC3     H 7596   2.889   4.616  14.915  0.1541 -0.2719 -0.1724
  511TMC3    H1 7597   2.763   4.224  14.820  0.5317 -0.2792  1.2948
  511TMC3    H2 7598   2.497   4.480  15.031  0.5845  0.5143  0.7382
  511TMC3    C7 7599   2.549   4.221  14.947  0.5050  0.6996  0.6697
  511TMC3    C8 7600   2.653   4.682  15.040 -0.0568  0.1729 -0.5329
  511TMC3    O1 7601   2.581   4.120  14.884  0.0650  1.0576 -0.2944
  511TMC3    O2 7602   2.538   4.702  15.082  0.1149 -0.3940 -0.1792
  512TMC3    C1 7603   2.339   3.323  13.803  0.3420  0.4703 -0.9215
  512TMC3    C2 7604   2.352   3.417  13.896  0.0698 -0.1022  0.9153
  512TMC3    C3 7605   2.244   3.501  13.915  0.5063 -0.1929 -0.0758
  512TMC3    C4 7606   2.215   3.290  13.745  0.2565 -0.2032  0.3427
  512TMC3    C5 7607   2.110   3.364  13.779 -0.0963 -1.1040 -0.5059
  512TMC3    C6 7608   2.120   3.469  13.861 -0.4845 -0.1040  0.0417
  512TMC3     C 7609   2.457   3.252  13.769  0.6887 -0.1616 -0.3942
  512TMC3     O 7610   2.563   3.298  13.819  0.1324  0.2091  0.3771
  512TMC3     H 7611   2.451   3.440  13.932  0.1888  2.7544 -1.1518
  512TMC3    H1 7612   2.207   3.226  13.658 -2.5789  0.5373  0.0633
  512TMC3    H2 7613   2.034   3.534  13.869  0.5382  1.1621  0.6747
  512TMC3    C7 7614   1.983   3.304  13.782 -0.5480 -0.5489 -0.0239
  512TMC3    C8 7615   2.267   3.614  13.997 -0.2944  0.0627  0.3755
  512TMC3    O1 7616   1.891   3.363  13.839  0.1228  0.8678  0.5418
  512TMC3    O2 7617   2.332   3.597  14.097  0.2469 -0.3055 -0.2723
  513MPD2     C 7618   4.601   4.115  12.669  0.4659 -0.7265 -0.4953
  513MPD2    C1 7619   4.585   3.989  12.613  0.3235  0.0644  0.6193
  513MPD2    C2 7620   4.674   3.894  12.662  0.3878 -0.3671 -0.9580
  513MPD2    C3 7621   0.042   3.914  12.763 -0.4526 -0.5635  0.1008
  513MPD2    C4 7622   0.061   4.038  12.815 -0.2789  0.1728 -0.5545
  513MPD2    C5 7623   4.703   4.137  12.761 -0.2142 -0.5498  0.3172
  513MPD2     H 7624   4.663   3.799  12.612 -1.2977 -1.0296  0.6412
  513MPD2    H1 7625   0.126   4.067  12.897  0.0681 -0.3595 -0.6349
  513MPD2    H2 7626   4.529   4.193  12.647  0.1849 -1.3373 -1.7870
  513MPD2    H3 7627   4.722   4.232  12.809 -0.9579  1.0599 -2.5719
  513MPD2     N 7628   0.109   3.800  12.811 -0.3445  0.1388 -0.1973
  513MPD2    H5 7629   0.074   3.708  12.787  0.2213 -0.7482  2.3200
  513MPD2    N1 7630   4.495   3.952  12.506  0.6977  0.6056 -0.3386
  513MPD2    H7 7631   4.490   3.854  12.482  1.9536  0.8663 -1.6536
  514TMC3    C1 7632   4.332   3.949  12.352  0.2026 -0.3638  0.3779
  514TMC3    C2 7633   4.349   3.955  12.214  0.5875  0.6075 -0.4798
  514TMC3    C3 7634   4.323   3.841  12.135 -0.5083 -0.1442  0.4873
  514TMC3    C4 7635   4.305   3.829  12.411 -0.2335  0.1956 -0.4070
  514TMC3    C5 7636   4.297   3.716  12.334  0.2047 -0.3525  1.2866
  514TMC3    C6 7637   4.283   3.720  12.195  0.0754 -0.0274 -0.7728
  514TMC3     C 7638   4.410   4.035  12.436  0.1344  0.5622 -0.6895
  514TMC3     O 7639   4.415   4.157  12.418 -0.3272  0.2635  0.0773
  514TMC3     H 7640   4.381   4.048  12.170 -1.0905  0.9840 -0.8927
  514TMC3    H1 7641   4.295   3.812  12.518  2.2030 -2.6387 -0.6407
  514TMC3    H2 7642   4.286   3.629  12.136  1.0424  0.6532 -1.7681
  514TMC3    C7 7643   4.397   3.626  12.389 -0.0409 -0.6274 -0.0310
  514TMC3    C8 7644   4.292   3.866  11.992 -0.4290 -0.0167 -0.5893
  514TMC3    O1 7645   4.504   3.676  12.417  0.3493  0.2092  0.3508
  514TMC3    O2 7646   4.344   3.961  11.941 -0.4772 -0.2466  0.6950
  515MPD2     C 7647   1.469   1.304  15.176 -0.1899 -0.1530  0.2379
  515MPD2    C1 7648   1.547   1.197  15.144  0.2831 -1.1201 -0.4061
  515MPD2    C2 7649   1.684   1.202  15.175  0.1544  0.0862  0.4957
  515MPD2    C3 7650   1.739   1.306  15.252  0.1076  0.0059  0.4709
  515MPD2    C4 7651   1.657   1.411  15.293 -0.5303  0.0615  0.1277
  515MPD2    C5 7652   1.530   1.409  15.249 -0.2486 -0.0248 -0.1354
  515MPD2     H 7653   1.747   1.116  15.153  2.7903  1.7344  1.5820
  515MPD2    H1 7654   1.693   1.496  15.348  0.6230 -0.4726  0.1916
  515MPD2    H2 7655   1.363   1.295  15.155  0.1742 -3.3565 -0.1473
  515MPD2    H3 7656   1.466   1.488  15.285  0.2337 -1.0976  3.0922
  515MPD2     N 7657   1.878   1.305  15.291  0.1949 -0.1037  0.5736
  515MPD2    H5 7658   1.895   1.355  15.377 -0.4174  1.3378 -0.1392
  515MPD2    N1 7659   1.503   1.075  15.083 -0.3356 -0.1478  0.4693
  515MPD2    H7 7660   1.571   1.000  15.079 -1.3780 -1.1307  1.1069
  516TMC3    C1 7661   1.379   0.903  14.987  0.3143  1.1146 -0.3100
  516TMC3    C2 7662   1.346   0.877  14.858  0.3974 -0.1275 -0.5989
  516TMC3    C3 7663   1.345   0.748  14.812  0.5410  0.2583  0.4117
  516TMC3    C4 7664   1.405   0.798  15.077 -0.3565  0.0438 -0.1242
  516TMC3    C5 7665   1.393   0.672  15.027  0.1223 -0.9050 -0.9561
  516TMC3    C6 7666   1.362   0.639  14.895  0.0106  0.6730  0.0176
  516TMC3     C 7667   1.382   1.048  15.024 -0.1550 -0.6380  0.3388
  516TMC3     O 7668   1.301   1.132  14.979  0.2861  0.3199 -0.7498
  516TMC3     H 7669   1.333   0.962  14.792 -1.0668 -0.8963 -1.2993
  516TMC3    H1 7670   1.415   0.815  15.184 -0.1247  0.5397 -0.2272
  516TMC3    H2 7671   1.360   0.533  14.874  0.7558  0.6253  0.1952
  516TMC3    C7 7672   1.363   0.570  15.121 -0.6838  0.2573 -0.3955
  516TMC3    C8 7673   1.308   0.729  14.676 -0.2413  0.3109  0.1176
  516TMC3    O1 7674   1.446   0.553  15.215  0.4584  0.2851  0.3869
  516TMC3    O2 7675   1.300   0.826  14.602 -0.3963  0.5247 -0.1140
  517MPD2     C 7676   1.030   2.438  17.460  0.5800  0.0054 -0.4098
  517MPD2    C1 7677   1.161   2.425  17.497  0.2388 -0.7708 -0.5203
  517MPD2    C2 7678   1.199   2.493  17.614 -0.1444 -0.6143  0.5565
  517MPD2    C3 7679   1.101   2.557  17.690  0.1724 -0.1083  0.4117
  517MPD2    C4 7680   0.972   2.562  17.649 -0.0519 -0.4728  0.3075
  517MPD2    C5 7681   0.936   2.510  17.530 -0.5269  0.0358  0.4144
  517MPD2     H 7682   1.305   2.500  17.636 -0.7539  0.7533  3.0382
  517MPD2    H1 7683   0.900   2.615   0.020 -0.7802 -2.9256  1.5650
  517MPD2    H2 7684   0.986   2.374  17.384  0.1792  0.0430 -0.2067
  517MPD2    H3 7685   0.830   2.506  17.503  0.0190  2.1355 -2.0549
  517MPD2     N 7686   1.130   2.626   0.118  0.3437 -0.0566 -0.7113
  517MPD2    H5 7687   1.055   2.683   0.156  0.1389 -0.1035 -1.0479
  517MPD2    N1 7688   1.249   2.341  17.431  0.8883  0.2643 -0.1069
  517MPD2    H7 7689   1.344   2.350  17.466  0.5079  0.7172  0.8181
  518TMC3    C1 7690   1.331   2.167  17.273  0.3536  0.4392 -0.7339
  518TMC3    C2 7691   1.295   2.035  17.245 -0.2909 -0.2623 -0.1306
  518TMC3    C3 7692   1.400   1.947  17.248  1.0216 -0.4330  0.0390
  518TMC3    C4 7693   1.456   2.207  17.285  0.3537 -0.4655  0.2355
  518TMC3    C5 7694   1.558   2.114  17.276  0.7196  0.0915 -0.2695
  518TMC3    C6 7695   1.532   1.978  17.260  0.1334  0.4804 -0.1158
  518TMC3     C 7696   1.218   2.251  17.324  0.8166  0.4577  0.1354
  518TMC3     O 7697   1.112   2.232  17.271 -0.0002 -0.3350 -0.3968
  518TMC3     H 7698   1.190   2.010  17.234  0.1208 -0.9512 -2.4223
  518TMC3    H1 7699   1.474   2.313  17.300 -0.6014 -0.4606  1.2959
  518TMC3    H2 7700   1.612   1.905  17.261  0.2715  0.6448  1.4741
  518TMC3    C7 7701   1.694   2.169  17.231  0.2946 -0.5733 -0.2892
  518TMC3    C8 7702   1.372   1.801  17.272  0.3629 -0.3940 -0.1116
  518TMC3    O1 7703   1.694   2.282  17.189  0.2208 -0.4225  0.0005
  518TMC3    O2 7704   1.457   1.729  17.217  0.2611  0.0692 -0.2765
  519MPD2     C 7705   3.220   1.087  14.071  0.3779  0.4496 -0.1795
  519MPD2    C1 7706   3.119   0.989  14.073  0.0223  0.2324 -0.2735
  519MPD2    C2 7707   3.146   0.869  14.016 -0.9840  0.2606  0.6508
  519MPD2    C3 7708   3.261   0.836  13.960 -0.0564  0.2313 -0.3075
  519MPD2    C4 7709   3.365   0.932  13.965  0.4905 -0.2358 -0.5490
  519MPD2    C5 7710   3.336   1.057  14.014 -0.6759 -0.2251  0.3506
  519MPD2     H 7711   3.074   0.788  14.011 -1.5875  0.7997  0.6628
  519MPD2    H1 7712   3.462   0.919  13.917 -0.1039  2.5016 -2.5277
  519MPD2    H2 7713   3.205   1.182  14.120  0.2135  0.1887  0.2825
  519MPD2    H3 7714   3.413   1.133  14.022 -2.5990  1.6161  1.2590
  519MPD2     N 7715   3.290   0.708  13.902  0.1552 -0.7957 -0.2781
  519MPD2    H5 7716   3.387   0.697  13.876  0.4635 -0.0146  0.5324
  519MPD2    N1 7717   2.999   1.015  14.140  0.4506 -0.1719  0.1548
  519MPD2    H7 7718   2.979   1.112  14.160 -1.5339 -1.2081  3.1388
  520TMC3    C1 7719   3.254   0.491  13.822 -0.2183 -0.3854 -0.0994
  520TMC3    C2 7720   3.163   0.425  13.740  0.1607 -0.1189  0.3090
  520TMC3    C3 7721   3.204   0.311  13.683  0.0928  0.4496  0.8750
  520TMC3    C4 7722   3.376   0.443  13.860 -0.0743 -0.1652 -0.1203
  520TMC3    C5 7723   3.407   0.319  13.805  0.2945 -0.5795  0.0217
  520TMC3    C6 7724   3.329   0.254  13.716  0.2569 -0.8015 -0.7085
  520TMC3     C 7725   3.200   0.610  13.873 -0.2234 -0.1524 -0.9286
  520TMC3     O 7726   3.078   0.616  13.880  0.1467  0.5194  0.0811
  520TMC3     H 7727   3.086   0.485  13.694 -1.4799 -0.3345  2.7785
  520TMC3    H1 7728   3.443   0.487  13.933 -0.6113  0.9234 -0.2793
  520TMC3    H2 7729   3.361   0.163  13.667  0.1171 -0.7708 -0.8555
  520TMC3    C7 7730   3.541   0.265  13.836 -0.5524  0.8254 -0.1344
  520TMC3    C8 7731   3.105   0.226  13.621  0.1384  0.2989  0.0356
  520TMC3    O1 7732   3.541   0.141  13.843 -0.1052  0.3087 -0.0805
  520TMC3    O2 7733   3.149   0.141  13.546 -0.0090 -0.2893  0.8221
  521MPD2     C 7734   3.259   3.235  17.431 -0.0768 -0.2018  0.0128
  521MPD2    C1 7735   3.265   3.303  17.308 -1.1174  1.2574 -0.5437
  521MPD2    C2 7736   3.392   3.339  17.253 -0.0228  0.5505 -1.0466
  521MPD2    C3 7737   3.516   3.311  17.318 -0.5914 -0.7411  0.6839
  521MPD2    C4 7738   3.504   3.255  17.446 -0.7702  0.1986 -0.1797
  521MPD2    C5 7739   3.381   3.214  17.499  0.1384  0.4847  0.2751
  521MPD2     H 7740   3.392   3.373  17.150  0.3729  0.6875 -1.0012
  521MPD2    H1 7741   3.597   3.256  17.500 -0.9014  1.7993  0.0286
  521MPD2    H2 7742   3.168   3.209  17.484 -0.7037 -0.1848 -1.0589
  521MPD2    H3 7743   3.387   3.180  17.602  1.7267 -0.7818 -0.2292
  521MPD2     N 7744   3.639   3.341  17.255  0.0032  0.1242 -0.0010
  521MPD2    H5 7745   3.630   3.393  17.168 -0.7626  2.6347  1.5734
  521MPD2    N1 7746   3.147   3.302  17.234 -0.2329 -0.0038 -0.2855
  521MPD2    H7 7747   3.067   3.254  17.275 -1.0851 -0.0637 -2.0201
  522TMC3    C1 7748   3.871   3.339  17.235  0.4383 -0.3179 -0.2691
  522TMC3    C2 7749   3.995   3.266  17.256  0.0697 -0.9990  0.2881
  522TMC3    C3 7750   4.102   3.280  17.171 -0.5455 -0.3011  0.6301
  522TMC3    C4 7751   3.857   3.427  17.135  0.7174 -0.7118 -0.5598
  522TMC3    C5 7752   3.964   3.436  17.056 -0.1591 -0.1866 -0.2252
  522TMC3    C6 7753   4.089   3.374  17.077  0.8660 -0.1473  0.4469
  522TMC3     C 7754   3.762   3.296  17.316 -0.4784 -1.1484 -0.4296
  522TMC3     O 7755   3.793   3.219  17.405  0.8762 -0.3822 -0.2244
  522TMC3     H 7756   4.007   3.194  17.336  0.9825 -1.4913 -0.2869
  522TMC3    H1 7757   3.783   3.505  17.143  0.1623 -1.4829  1.7824
  522TMC3    H2 7758   4.175   3.410  17.021  0.7596 -0.7954 -0.1462
  522TMC3    C7 7759   3.962   3.538  16.950 -0.2096 -0.3380  0.2086
  522TMC3    C8 7760   4.241   3.261  17.215 -0.7304  0.0033  0.5690
  522TMC3    O1 7761   4.064   3.544  16.884  0.5458  0.5138  0.2242
  522TMC3    O2 7762   4.258   3.231  17.334 -0.2604 -0.7410  0.0484
  523MPD2     C 7763   2.379   2.050  10.230  0.5484  0.5795 -0.1714
  523MPD2    C1 7764   2.343   2.036  10.099 -0.5650 -0.5409  0.5288
  523MPD2    C2 7765   2.294   2.143  10.036 -0.4396 -0.1113  0.4130
  523MPD2    C3 7766   2.281   2.267  10.098  0.3361  0.5350  0.5808
  523MPD2    C4 7767   2.316   2.278  10.231  0.8229  0.0113  0.0693
  523MPD2    C5 7768   2.359   2.171  10.299 -0.1738  0.4627  0.8374
  523MPD2     H 7769   2.270   2.127   9.931  1.8032 -0.6934  0.0040
  523MPD2    H1 7770   2.311   2.374  10.281  0.3127  1.2211 -2.2987
  523MPD2    H2 7771   2.418   1.966  10.286 -1.7121  0.1274  0.7596
  523MPD2    H3 7772   2.383   2.180  10.404 -1.1612  1.6271  0.9633
  523MPD2     N 7773   2.237   2.388  10.034 -0.6890 -0.3439 -0.6722
  523MPD2    H5 7774   2.262   2.474  10.081 -1.0213  0.5120 -2.0945
  523MPD2    N1 7775   2.367   1.909  10.037  0.1228  0.3309  0.4031
  523MPD2    H7 7776   2.417   1.842  10.094 -2.8699 -2.5427 -0.3702
  524TMC3    C1 7777   2.129   2.523   9.863  0.3575  0.0827  0.2782
  524TMC3    C2 7778   2.093   2.531   9.730 -0.9236 -0.2233  0.2655
  524TMC3    C3 7779   2.075   2.656   9.678 -0.6949 -0.5332 -0.1033
  524TMC3    C4 7780   2.178   2.635   9.925 -0.7543  0.0583 -0.0167
  524TMC3    C5 7781   2.170   2.752   9.859 -0.1550 -0.0917 -0.8170
  524TMC3    C6 7782   2.116   2.767   9.734 -0.3564 -0.2677 -0.2963
  524TMC3     C 7783   2.165   2.390   9.918  0.8207 -0.1692  0.5709
  524TMC3     O 7784   2.116   2.293   9.862 -0.0323 -0.2876 -0.0203
  524TMC3     H 7785   2.023   2.456   9.695  0.8204 -1.1178 -1.3119
  524TMC3    H1 7786   2.229   2.645  10.019 -2.2303  0.1346  0.7775
  524TMC3    H2 7787   2.110   2.864   9.685  0.7805  0.1315  0.3396
  524TMC3    C7 7788   2.237   2.861   9.921 -0.4810  0.5520  0.4385
  524TMC3    C8 7789   1.994   2.679   9.560  0.6099 -0.0447  1.1871
  524TMC3    O1 7790   2.238   2.871  10.042 -0.7126 -0.5098 -0.2823
  524TMC3    O2 7791   1.928   2.786   9.558  0.3585  0.4531  0.1570
  525MPD2     C 7792   4.329   0.289  14.269 -0.4516 -0.0501  0.0027
  525MPD2    C1 7793   4.470   0.304  14.264  0.4048  0.1429 -0.2236
  525MPD2    C2 7794   4.520   0.416  14.202 -0.7359  0.1300  0.4050
  525MPD2    C3 7795   4.440   0.513  14.149 -0.2433 -0.3095 -0.3363
  525MPD2    C4 7796   4.298   0.489  14.158  0.0810  0.4535  0.6138
  525MPD2    C5 7797   4.249   0.376  14.212  0.3386 -0.8487 -0.7708
  525MPD2     H 7798   4.628   0.421  14.190 -0.7266 -1.7326 -0.3503
  525MPD2    H1 7799   4.221   0.557  14.122 -1.1748 -0.2748  1.9501
  525MPD2    H2 7800   4.274   0.209  14.317  1.3427 -0.6987  0.9554
  525MPD2    H3 7801   4.141   0.370  14.215  0.1763  1.9346 -0.8979
  525MPD2     N 7802   4.479   0.637  14.103 -0.4702  0.2316 -0.4880
  525MPD2    H5 7803   4.402   0.700  14.085  1.2982  2.4095 -0.5016
  525MPD2    N1 7804   4.566   0.213  14.326 -0.1457  0.3532 -0.8312
  525MPD2    H7 7805   4.667   0.229  14.325  0.1251 -1.2029  0.9823
  526TMC3    C1 7806   4.645   0.067  14.493 -0.2502  0.1895  0.4793
  526TMC3    C2 7807   4.620   4.703  14.600 -0.1009  0.5015 -0.4683
  526TMC3    C3 7808   4.722   4.691  14.689  0.3932 -0.0298 -0.4098
  526TMC3    C4 7809   0.037   0.134  14.473 -0.2523 -0.1523  0.6439
  526TMC3    C5 7810   0.136   0.106  14.559 -0.9127 -0.5351 -0.4633
  526TMC3    C6 7811   0.117   0.041  14.672 -0.4174 -0.2133 -0.9397
  526TMC3     C 7812   4.535   0.105  14.401  0.0742 -0.0788  0.2518
  526TMC3     O 7813   4.429   0.049  14.424  0.3388 -0.5477  0.3374
  526TMC3     H 7814   4.521   4.665  14.620  0.9517 -1.7356  0.5148
  526TMC3    H1 7815   0.069   0.197  14.392  1.1594 -3.5525 -1.4563
  526TMC3    H2 7816   0.195   0.029  14.747 -0.8716  2.3264 -0.0534
  526TMC3    C7 7817   0.249   0.201  14.557  0.3988 -1.1122 -0.1270
  526TMC3    C8 7818   4.685   4.640  14.821  0.5398  0.7686  0.4225
  526TMC3    O1 7819   0.227   0.315  14.512 -0.6532 -0.8284  0.2571
  526TMC3    O2 7820   0.025   4.708  14.905  0.0117  0.3996  0.7405
  527MPD2     C 7821   1.652   2.427   1.236 -0.4408  0.4733  0.0783
  527MPD2    C1 7822   1.763   2.393   1.308 -0.0091  0.5010  0.8049
  527MPD2    C2 7823   1.884   2.380   1.243 -0.2502  0.6217 -0.0416
  527MPD2    C3 7824   1.892   2.396   1.101 -0.1516 -0.7897 -0.3984
  527MPD2    C4 7825   1.782   2.439   1.033  0.1305 -0.2774 -0.5477
  527MPD2    C5 7826   1.667   2.448   1.101 -0.2110 -1.0850 -1.0147
  527MPD2     H 7827   1.968   2.335   1.293  0.1386 -0.8810 -2.0643
  527MPD2    H1 7828   1.767   2.451   0.926 -0.0655  1.4401 -0.3237
  527MPD2    H2 7829   1.556   2.453   1.279  0.0598 -0.5977  1.8433
  527MPD2    H3 7830   1.570   2.474   1.058 -1.0261  2.4977  3.0354
  527MPD2     N 7831   2.017   2.373   1.033  0.3842  0.0274  0.0866
  527MPD2    H5 7832   2.098   2.336   1.083 -0.0343  0.3003  0.9666
  527MPD2    N1 7833   1.762   2.380   1.445 -0.1011 -0.5789  0.1989
  527MPD2    H7 7834   1.848   2.367   1.498 -0.5147 -1.3598  0.6734
  528TMC3    C1 7835   1.662   2.366   1.663  0.1683  0.8857  0.5987
  528TMC3    C2 7836   1.679   2.483   1.713 -0.1428 -0.2946  0.2873
  528TMC3    C3 7837   1.629   2.521   1.836  0.0561 -0.1789  0.1388
  528TMC3    C4 7838   1.584   2.273   1.723 -0.6818 -0.2912 -0.4001
  528TMC3    C5 7839   1.527   2.313   1.845 -0.3987 -0.1465  0.1797
  528TMC3    C6 7840   1.544   2.439   1.897 -0.4805  0.2163 -0.5549
  528TMC3     C 7841   1.644   2.378   1.517 -0.6290  0.2305  0.3535
  528TMC3     O 7842   1.526   2.366   1.487  0.7264 -0.2456 -0.2256
  528TMC3     H 7843   1.742   2.555   1.662 -1.1090 -1.7420 -2.9027
  528TMC3    H1 7844   1.561   2.182   1.669 -1.3643 -0.5290  0.2865
  528TMC3    H2 7845   1.471   2.474   1.970  0.8255  2.1208 -0.1723
  528TMC3    C7 7846   1.389   2.271   1.845  0.3572  0.1654 -0.5826
  528TMC3    C8 7847   1.608   2.664   1.846 -0.9353  0.8605 -0.2919
  528TMC3    O1 7848   1.331   2.286   1.950  0.1406  0.4836 -0.1499
  528TMC3    O2 7849   1.627   2.735   1.740  0.2258  0.6311  0.3526
  529MPD2     C 7850   0.380   1.315   0.685 -0.0149  0.0132  0.1780
  529MPD2    C1 7851   0.247   1.331   0.684  0.2512  0.2644  0.1214
  529MPD2    C2 7852   0.170   1.379   0.579  0.3977  0.2262  0.0320
  529MPD2    C3 7853   0.242   1.421   0.464 -0.3575 -0.6993 -0.0502
  529MPD2    C4 7854   0.381   1.419   0.474 -0.6420 -0.2930 -0.2463
  529MPD2    C5 7855   0.448   1.363   0.581  0.1736  0.5805  0.3830
  529MPD2     H 7856   0.062   1.372   0.584  0.3712 -0.1490 -0.8550
  529MPD2    H1 7857   0.449   1.438   0.391  0.9334  1.4179  1.4292
  529MPD2    H2 7858   0.435   1.290   0.775  1.0141 -1.0816 -0.7477
  529MPD2    H3 7859   0.556   1.353   0.589  0.1322  1.0536  1.4763
  529MPD2     N 7860   0.186   1.467   0.343  0.2078 -0.3034  0.3383
  529MPD2    H5 7861   0.240   1.490   0.260 -0.1868 -0.3666  0.0649
  529MPD2    N1 7862   0.174   1.301   0.797 -0.5270 -0.4315  0.3009
  529MPD2    H7 7863   0.080   1.338   0.802  0.8185  3.1234 -0.0310
  530TMC3    C1 7864   0.095   1.192   1.005 -0.7638 -0.4184 -0.2097
  530TMC3    C2 7865   0.127   1.161   1.136 -0.4366  0.1909 -0.2154
  530TMC3    C3 7866   0.027   1.130   1.215  0.0274  0.2409 -0.4880
  530TMC3    C4 7867   4.693   1.181   0.953 -0.2830  0.1328 -0.1637
  530TMC3    C5 7868   4.598   1.132   1.032 -0.3897  0.3397 -0.0072
  530TMC3    C6 7869   4.623   1.111   1.166  0.0896  0.6192  0.5852
  530TMC3     C 7870   0.214   1.232   0.912 -0.1048  0.7074 -0.1843
  530TMC3     O 7871   0.318   1.175   0.948 -0.1930 -0.3346  0.6199
  530TMC3     H 7872   0.231   1.183   1.159  0.1186 -0.9806 -1.5767
  530TMC3    H1 7873   4.668   1.205   0.850  0.9893  0.5326 -0.3854
  530TMC3    H2 7874   4.550   1.083   1.241  0.0181  2.8124  1.3382
  530TMC3    C7 7875   4.478   1.085   0.969  0.4543  0.2220  0.4966
  530TMC3    C8 7876   0.043   1.098   1.354 -0.0229 -0.1414  0.1518
  530TMC3    O1 7877   4.449   1.108   0.855 -0.0878  0.0051  0.3034
  530TMC3    O2 7878   4.680   1.138   1.431 -0.2143 -0.8714 -0.1255
  531MPD2     C 7879   4.539   3.192  12.626 -1.2664  0.0663  0.2344
  531MPD2    C1 7880   4.592   3.321  12.640  0.4844  0.5730 -0.4964
  531MPD2    C2 7881   4.532   3.424  12.564  0.0667 -0.1298 -0.0659
  531MPD2    C3 7882   4.431   3.399  12.471  0.6528  0.4932 -0.4115
  531MPD2    C4 7883   4.391   3.267  12.453  0.2668 -0.4055  0.3847
  531MPD2    C5 7884   4.450   3.170  12.525  0.0509  0.4256  1.1607
  531MPD2     H 7885   4.571   3.524  12.582  2.5836 -1.4382  1.6807
  531MPD2    H1 7886   4.331   3.240  12.367  0.7202  0.9132 -0.3463
  531MPD2    H2 7887   4.590   3.107  12.671  0.5666  1.7078  1.2689
  531MPD2    H3 7888   4.419   3.066  12.518  1.5018 -0.0251  1.3469
  531MPD2     N 7889   4.358   3.497  12.398  0.1626 -0.5178  0.0300
  531MPD2    H5 7890   4.271   3.471  12.353  0.2132 -1.3844  0.4362
  531MPD2    N1 7891   4.708   3.342  12.724 -0.2787  0.0284 -0.4726
  531MPD2    H7 7892   0.035   3.262  12.762  1.8393  1.3322 -0.4589
  532TMC3    C1 7893   0.156   3.462  12.842  0.4202 -0.2530 -0.1127
  532TMC3    C2 7894   0.204   3.589  12.825 -0.2508  0.1745 -0.5732
  532TMC3    C3 7895   0.232   3.666  12.934  0.2295  0.2054 -0.4042
  532TMC3    C4 7896   0.132   3.416  12.969 -0.6113 -0.0564  0.6002
  532TMC3    C5 7897   0.170   3.491  13.074 -0.4657  0.4424 -0.4117
  532TMC3    C6 7898   0.215   3.623  13.058  0.3595 -0.1117  0.1061
  532TMC3     C 7899   0.032   3.462  12.773  0.1784  0.4739  0.5258
  532TMC3     O 7900   4.702   3.569  12.756 -0.4504 -0.0381 -0.3408
  532TMC3     H 7901   0.240   3.613  12.726  1.3796  1.0546  0.2303
  532TMC3    H1 7902   0.081   3.321  12.983  1.5517 -1.2890  0.0986
  532TMC3    H2 7903   0.226   3.686  13.146  0.8304 -0.2280  0.1352
  532TMC3    C7 7904   0.171   3.434  13.203 -1.1246  0.1889 -0.3339
  532TMC3    C8 7905   0.194   3.804  12.920 -0.3532 -0.0220 -0.0258
  532TMC3    O1 7906   0.155   3.514  13.295 -0.3231  0.1588  0.6291
  532TMC3    O2 7907   0.230   3.889  12.993 -0.3883  0.3242  0.0659
  533TMC3    C1 7908   4.633   0.814  14.045  1.0865  0.2821  0.0265
  533TMC3    C2 7909   0.041   0.838  14.024 -0.4829 -0.4776  0.1443
  533TMC3    C3 7910   0.101   0.948  14.086  0.2386 -0.2481  0.5384
  533TMC3    C4 7911   4.563   0.896  14.133  0.0408 -0.3056  0.1820
  533TMC3    C5 7912   4.632   0.983  14.212  0.1956  0.6992 -0.3413
  533TMC3    C6 7913   0.043   1.016  14.188 -0.5555  0.1840 -0.0392
  533TMC3     C 7914   4.612   0.675  14.090  0.4486  0.0407  0.5147
  533TMC3     O 7915   4.714   0.616  14.127  0.1988  0.2691 -0.3630
  533TMC3     H 7916   0.110   0.774  13.971  1.0387 -0.7260  2.3765
  533TMC3    H1 7917   4.462   0.871  14.163 -0.9527  1.5904 -1.5288
  533TMC3    H2 7918   0.100   1.095  14.235  0.3342  0.3401 -1.3876
  533TMC3    C7 7919   4.598   0.975  14.352 -0.0562 -0.0777 -0.4701
  533TMC3    C8 7920   0.245   0.970  14.073 -0.1057 -0.0798 -0.2564
  533TMC3    O1 7921   4.497   0.909  14.387  0.5422  0.1859 -0.1761
  533TMC3    O2 7922   0.296   1.005  14.178 -0.4563 -0.7907 -0.2179
  534MPD2     C 7923   1.743   1.872   2.063 -0.4249  0.2204  0.0907
  534MPD2    C1 7924   1.752   1.824   1.936  0.3784 -0.0646  0.1381
  534MPD2    C2 7925   1.653   1.860   1.846 -0.2072 -0.3763 -0.4778
  534MPD2    C3 7926   1.532   1.911   1.890  0.1248 -0.4383 -0.4695
  534MPD2    C4 7927   1.514   1.939   2.019  0.0175  0.2493  0.3092
  534MPD2    C5 7928   1.619   1.924   2.101 -0.3040 -0.1980 -0.9801
  534MPD2     H 7929   1.661   1.828   1.743 -0.9372  0.5456 -0.8201
  534MPD2    H1 7930   1.424   1.985   2.058 -0.8239 -0.8608 -0.3247
  534MPD2    H2 7931   1.808   1.851   2.147  0.7824  0.0981 -0.8621
  534MPD2    H3 7932   1.612   1.962   2.202 -0.2922  0.9314 -1.3993
  534MPD2     N 7933   1.420   1.918   1.801  0.1072  0.2365  0.3122
  534MPD2    H5 7934   1.333   1.939   1.848 -0.6708  0.1136 -1.0801
  534MPD2    N1 7935   1.863   1.747   1.882 -0.0521 -0.4542 -0.7040
  534MPD2    H7 7936   1.864   1.721   1.784 -0.7260  0.3700 -0.9346
  535TMC3    C1 7937   1.298   1.909   1.602  0.3477 -0.0814  0.6863
  535TMC3    C2 7938   1.186   1.870   1.673  0.4159 -0.8178 -0.1590
  535TMC3    C3 7939   1.056   1.882   1.626  0.0873 -0.4423 -0.4419
  535TMC3    C4 7940   1.286   1.951   1.474 -0.2422  1.0369  0.7157
  535TMC3    C5 7941   1.156   1.947   1.422 -0.3225 -0.1146 -0.0290
  535TMC3    C6 7942   1.046   1.921   1.494 -0.1230  0.4409  0.4228
  535TMC3     C 7943   1.424   1.907   1.661  0.3385 -0.2485  0.4218
  535TMC3     O 7944   1.512   1.884   1.580  0.2998  0.1614 -0.3661
  535TMC3     H 7945   1.211   1.825   1.768  2.8111 -0.9283 -0.8440
  535TMC3    H1 7946   1.368   1.994   1.418  1.3222 -2.1197  0.6199
  535TMC3    H2 7947   0.953   1.913   1.440  0.9346 -1.5450 -1.1073
  535TMC3    C7 7948   1.146   1.961   1.279 -0.7673  0.3172  0.1659
  535TMC3    C8 7949   0.961   1.788   1.675 -0.2074 -0.9902 -0.1714
  535TMC3    O1 7950   1.052   2.029   1.237 -0.0580 -0.3347  0.3135
  535TMC3    O2 7951   0.869   1.772   1.596  0.6931  0.0981  0.5524
  536MPD2     C 7952   1.430   0.221  16.817 -0.9899  0.8545  0.0833
  536MPD2    C1 7953   1.302   0.242  16.844 -0.2548  0.2796  0.5126
  536MPD2    C2 7954   1.217   0.281  16.747 -0.0712  0.2614  0.0735
  536MPD2    C3 7955   1.268   0.327  16.623  0.2645  0.4527  0.7414
  536MPD2    C4 7956   1.404   0.312  16.599  0.3589  0.7485 -0.1644
  536MPD2    C5 7957   1.480   0.247  16.696  0.4390 -0.0118  0.2167
  536MPD2     H 7958   1.112   0.276  16.773 -0.4378  1.8454 -1.1378
  536MPD2    H1 7959   1.439   0.332  16.499 -0.6970  1.1635 -0.4519
  536MPD2    H2 7960   1.493   0.185  16.897  1.2158  1.9940 -1.1206
  536MPD2    H3 7961   1.582   0.221  16.670  0.8305  3.4915 -1.6405
  536MPD2     N 7962   1.191   0.383  16.518 -0.5113  0.6095 -0.4043
  536MPD2    H5 7963   1.238   0.430  16.441  3.4106 -3.2183 -0.2950
  536MPD2    N1 7964   1.263   0.224  16.984 -0.0287  0.4538 -0.5793
  536MPD2    H7 7965   1.336   0.200  17.050 -1.2133  0.0539  0.5797
  537TMC3    C1 7966   1.127   0.174  17.173 -0.9938 -0.2756  1.2748
  537TMC3    C2 7967   1.242   0.187  17.247 -0.1696 -1.1834 -0.0960
  537TMC3    C3 7968   1.245   0.131  17.376 -0.4004  0.2615 -1.0825
  537TMC3    C4 7969   1.012   0.122  17.230 -0.5017 -0.0834 -0.5160
  537TMC3    C5 7970   1.015   0.069  17.355 -0.3885  0.5830  0.3833
  537TMC3    C6 7971   1.135   0.068  17.425 -0.2039  0.5361  0.2484
  537TMC3     C 7972   1.136   0.214  17.032  0.3675  0.5472  0.0766
  537TMC3     O 7973   1.034   0.211  16.961 -0.3689 -0.0019  0.6662
  537TMC3     H 7974   1.329   0.237  17.208 -0.9401  1.2297  1.3077
  537TMC3    H1 7975   0.921   0.113  17.172 -1.4214 -1.9419  1.2104
  537TMC3    H2 7976   1.136   0.054  17.532  0.1840  1.1026  0.3203
  537TMC3    C7 7977   0.901   4.708  17.394  0.3283 -0.3655 -0.1205
  537TMC3    C8 7978   1.373   0.114  17.453  0.1783 -0.2725 -0.9355
  537TMC3    O1 7979   0.793   0.004  17.339 -0.3291 -0.0299 -0.1744
  537TMC3    O2 7980   1.361   0.099  17.574 -0.1619  0.1851  0.4501
  538TMC3    C1 7981   2.820   2.181  10.600 -0.3314  0.4652 -0.9068
  538TMC3    C2 7982   2.918   2.230  10.677 -0.8127 -0.2711  0.0753
  538TMC3    C3 7983   2.961   2.360  10.651 -0.2531 -0.4912 -0.0008
  538TMC3    C4 7984   2.760   2.244  10.495  0.7574  0.5950 -0.0588
  538TMC3    C5 7985   2.801   2.370  10.480  0.3992  0.1645 -0.6325
  538TMC3    C6 7986   2.896   2.433  10.552  0.5630  0.0808  0.3239
  538TMC3     C 7987   2.755   2.060  10.636 -0.0510  0.2295  1.2835
  538TMC3     O 7988   2.702   1.999  10.545  0.0343  0.0030  0.4270
  538TMC3     H 7989   2.965   2.172  10.755 -0.9693  0.8098  0.9710
  538TMC3    H1 7990   2.673   2.209  10.441  0.9747 -2.5251  1.6355
  538TMC3    H2 7991   2.935   2.534  10.543 -0.9875  0.6484  0.1130
  538TMC3    C7 7992   2.690   2.460  10.444  0.2140  0.2058  0.3775
  538TMC3    C8 7993   3.101   2.384  10.673  0.1733 -0.6037 -0.5689
  538TMC3    O1 7994   2.594   2.414  10.380  0.0996  0.0952 -0.7590
  538TMC3    O2 7995   3.146   2.348  10.778 -0.0910 -0.5310  0.3444
  539MPD2     C 7996   2.394   1.365  11.727 -0.2761 -0.5597 -0.0395
  539MPD2    C1 7997   2.427   1.394  11.595  0.3011  0.2579  0.4232
  539MPD2    C2 7998   2.380   1.510  11.533  0.8632  0.3237 -0.0518
  539MPD2    C3 7999   2.328   1.612  11.608  0.6001  0.4812  0.3319
  539MPD2    C4 8000   2.303   1.590  11.744 -0.5103  0.4068  0.1060
  539MPD2    C5 8001   2.332   1.463  11.798  0.1078 -0.2939 -0.0036
  539MPD2     H 8002   2.403   1.529  11.429 -1.1720 -0.3774 -0.6213
  539MPD2    H1 8003   2.267   1.675  11.801 -1.3935  0.2775 -0.2566
  539MPD2    H2 8004   2.414   1.278  11.788 -2.8372 -1.0447  0.1094
  539MPD2    H3 8005   2.321   1.437  11.903 -0.4094 -3.0257 -0.7486
  539MPD2     N 8006   2.296   1.741  11.562 -1.0210 -0.2737 -0.6672
  539MPD2    H5 8007   2.264   1.801  11.637 -0.2384 -0.7340  0.0350
  539MPD2    N1 8008   2.498   1.300  11.514  0.1493  0.8669 -0.1207
  539MPD2    H7 8009   2.501   1.311  11.413  2.2350  3.2868  0.1935
  540TMC3    C1 8010   2.272   1.919  11.411 -0.3092 -0.9682  0.3731
  540TMC3    C2 8011   2.251   1.959  11.280  0.4238 -0.5811 -0.0162
  540TMC3    C3 8012   2.248   2.094  11.256 -0.1042  0.3006 -0.1046
  540TMC3    C4 8013   2.318   2.006  11.508  0.0524  0.8411  0.1563
  540TMC3    C5 8014   2.310   2.136  11.475  0.0047  0.3464 -0.4912
  540TMC3    C6 8015   2.275   2.179  11.353  0.4741 -0.5827  0.2012
  540TMC3     C 8016   2.309   1.782  11.428  0.7721 -0.5033  0.2713
  540TMC3     O 8017   2.349   1.717  11.336  0.3344  0.1449 -0.2736
  540TMC3     H 8018   2.209   1.892  11.206 -0.4562 -0.5644  0.4676
  540TMC3    H1 8019   2.355   1.976  11.606 -1.4667 -2.6254 -0.3511
  540TMC3    H2 8020   2.264   2.286  11.342  2.6252 -0.3318  0.5089
  540TMC3    C7 8021   2.297   2.232  11.589 -0.0920  0.2606 -0.0261
  540TMC3    C8 8022   2.258   2.142  11.116  0.0428  0.2151 -0.1395
  540TMC3    O1 8023   2.223   2.330  11.584  0.0019  0.0485  0.1141
  540TMC3    O2 8024   2.305   2.248  11.100  0.0753  0.4079  0.1220
  541MPD2     C 8025   0.485   3.755  13.387 -0.8249  0.2880 -0.6699
  541MPD2    C1 8026   0.545   3.643  13.337 -0.5092  0.1739 -0.4504
  541MPD2    C2 8027   0.595   3.631  13.213 -0.0877 -0.3059  0.2927
  541MPD2    C3 8028   0.593   3.743  13.128 -0.1967  1.0105 -0.0977
  541MPD2    C4 8029   0.524   3.851  13.176  0.0136 -0.0465  0.2730
  541MPD2    C5 8030   0.471   3.856  13.300 -0.7012  0.0410  0.0798
  541MPD2     H 8031   0.629   3.535  13.176 -0.8066 -0.3047 -0.3493
  541MPD2    H1 8032   0.514   3.951  13.134  4.1239  0.6992  1.0787
  541MPD2    H2 8033   0.430   3.754  13.480 -0.0235 -2.7178 -0.2152
  541MPD2    H3 8034   0.415   3.946  13.323  2.2291  0.6579  4.7475
  541MPD2     N 8035   0.643   3.747  12.999 -0.2728 -0.5580  0.5782
  541MPD2    H5 8036   0.632   3.835  12.950 -0.8734 -0.4851  0.8408
  541MPD2    N1 8037   0.546   3.533  13.426  0.0363  0.3645  0.4887
  541MPD2    H7 8038   0.496   3.555  13.512  2.9049  1.2560  1.9579
  542TMC3    C1 8039   0.753   3.690  12.800  0.1643  0.2054  0.1133
  542TMC3    C2 8040   0.807   3.597  12.723  0.4765  0.1311  0.0881
  542TMC3    C3 8041   0.886   3.622  12.618 -0.1853 -0.0800 -0.1052
  542TMC3    C4 8042   0.771   3.822  12.773 -0.0263 -0.7734  0.6055
  542TMC3    C5 8043   0.862   3.848  12.668 -0.1250  0.5532  0.3493
  542TMC3    C6 8044   0.907   3.751  12.578 -0.1970  0.2412  0.3995
  542TMC3     C 8045   0.712   3.653  12.932 -0.3176 -1.1924 -1.0989
  542TMC3     O 8046   0.743   3.539  12.962  0.7537 -0.2503 -0.3717
  542TMC3     H 8047   0.792   3.494  12.755 -1.1239  0.1967 -0.4315
  542TMC3    H1 8048   0.743   3.901  12.842 -0.8706  0.1424 -0.7790
  542TMC3    H2 8049   0.964   3.780  12.490  0.1294  1.6251  1.0721
  542TMC3    C7 8050   0.900   3.985  12.642  0.2910  0.1904  0.3345
  542TMC3    C8 8051   0.925   3.532  12.515  0.3639 -0.4778 -0.2334
  542TMC3    O1 8052   0.830   4.073  12.688  0.3712  0.1997  0.6517
  542TMC3    O2 8053   0.911   3.574  12.403 -0.0764  0.0121  0.4015
  543TMC3    C1 8054   3.959   0.479  17.289 -0.1864  0.2954  0.6521
  543TMC3    C2 8055   3.857   0.381  17.264  0.6233 -0.0967 -0.3378
  543TMC3    C3 8056   3.814   0.305  17.372 -0.6572 -0.9927  0.0704
  543TMC3    C4 8057   4.006   0.486  17.423 -0.9378 -0.0292  0.7574
  543TMC3    C5 8058   3.954   0.411  17.523 -0.5121  1.0458 -0.0803
  543TMC3    C6 8059   3.846   0.322  17.503  1.1652 -1.2104 -0.1740
  543TMC3     C 8060   4.058   0.482  17.183 -0.0548  0.3044 -0.4247
  543TMC3     O 8061   4.172   0.491  17.218  0.3723 -0.1952  0.8630
  543TMC3     H 8062   3.821   0.361  17.164  0.6338 -0.8675 -0.1917
  543TMC3    H1 8063   4.086   0.558  17.435 -1.5745  0.7644  0.2399
  543TMC3    H2 8064   3.797   0.267  17.582 -0.2269  0.0172 -0.1799
  543TMC3    C7 8065   3.985   0.448  17.667  0.3398  0.3750  0.4020
  543TMC3    C8 8066   3.788   0.169  17.336  0.5450  0.2159 -0.6516
  543TMC3    O1 8067   3.906   0.401   0.052 -0.6981 -0.2044 -0.1136
  543TMC3    O2 8068   3.845   0.131  17.235  0.0769  0.4807  0.6710
  544MPD2     C 8069   3.723   4.406  17.446  0.4570 -0.1121 -0.1513
  544MPD2    C1 8070   3.831   4.467  17.392  0.6916  0.2259  0.0863
  544MPD2    C2 8071   3.818   4.606  17.381 -0.0734  1.1449 -0.0540
  544MPD2    C3 8072   3.713   4.680  17.432  0.3691 -0.8178 -0.1808
  544MPD2    C4 8073   3.611   4.611  17.498 -0.0974 -0.7575 -0.3585
  544MPD2    C5 8074   3.617   4.472  17.496 -0.0385 -0.1535  0.1182
  544MPD2     H 8075   3.907   4.664  17.362  1.6728 -0.7191  2.4816
  544MPD2    H1 8076   3.525   4.664  17.538  0.6836 -0.4879  0.9660
  544MPD2    H2 8077   3.724   4.299  17.466 -2.2231 -0.1100  0.0451
  544MPD2    H3 8078   3.535   4.415  17.538 -0.9959  0.1576 -1.2988
  544MPD2     N 8079   3.709   0.094  17.424 -0.0065 -0.3622 -0.4816
  544MPD2    H5 8080   3.637   0.148  17.471 -1.6944 -2.4057 -0.7335
  544MPD2    N1 8081   3.945   4.396  17.362  0.4832  0.1899  0.8023
  544MPD2    H7 8082   3.954   4.299  17.391  1.9706 -0.3666 -1.5018
  545TMC3    C1 8083   4.163   4.389  17.308  0.5681  0.1310  0.1326
  545TMC3    C2 8084   4.278   4.464  17.295  0.2784  0.3707  0.0820
  545TMC3    C3 8085   4.404   4.404  17.321  0.2412  0.2285  0.7043
  545TMC3    C4 8086   4.170   4.261  17.352  0.3248 -0.1802 -0.3078
  545TMC3    C5 8087   4.290   4.208  17.385  0.1015 -0.2369  0.5941
  545TMC3    C6 8088   4.411   4.272  17.369 -0.5325 -0.1694 -0.5815
  545TMC3     C 8089   4.042   4.453  17.291  0.2566 -0.2025 -0.1543
  545TMC3     O 8090   4.037   4.544  17.211 -0.1155 -0.1958  0.6064
  545TMC3     H 8091   4.272   4.567  17.264  2.6937  0.1461 -1.1700
  545TMC3    H1 8092   4.081   4.200  17.359  1.2335 -1.6708 -1.8367
  545TMC3    H2 8093   4.508   4.229  17.387 -0.6034 -0.0167  0.1475
  545TMC3    C7 8094   4.297   4.077  17.437  0.5920 -0.2573 -0.4901
  545TMC3    C8 8095   4.532   4.468  17.294  0.2977  0.0231  0.2395
  545TMC3    O1 8096   4.197   4.009  17.411 -0.1222 -0.1577  0.2189
  545TMC3    O2 8097   4.632   4.410  17.324 -0.0268 -0.8329  0.5328
  546MPD2     C 8098   1.063   0.329  17.678 -1.1479  0.6235  0.7522
  546MPD2    C1 8099   1.014   0.397  17.567  0.0623  0.1491 -0.0078
  546MPD2    C2 8100   1.103   0.486  17.510  0.5894  0.8162  0.5274
  546MPD2    C3 8101   1.230   0.508  17.566  0.4123 -0.1174  0.2906
  546MPD2    C4 8102   1.275   0.429  17.670 -0.7922 -0.5312 -0.2831
  546MPD2    C5 8103   1.190   0.340   0.036 -1.1532 -0.6480  0.0564
  546MPD2     H 8104   1.066   0.549  17.430  1.8419  1.9949  0.8555
  546MPD2    H1 8105   1.379   0.436   0.009  0.1611 -2.1047 -3.2359
  546MPD2    H2 8106   1.001   0.255   0.037 -0.8636  0.6040  1.0751
  546MPD2    H3 8107   1.217   0.264   0.109 -0.8836 -0.9408 -0.3474
  546MPD2     N 8108   1.311   0.618  17.534 -0.6178 -0.6439 -0.2586
  546MPD2    H5 8109   1.390   0.642  17.592 -1.2597  1.8071 -0.4319
  546MPD2    N1 8110   0.887   0.375  17.521 -0.2168 -0.0588 -0.1635
  546MPD2    H7 8111   0.833   0.330  17.594 -0.7341  0.6466 -0.1184
  547TMC3    C1 8112   0.698   0.376  17.391  0.3882  0.0398  0.9587
  547TMC3    C2 8113   0.627   0.464  17.316 -0.3992 -0.2181  0.3876
  547TMC3    C3 8114   0.502   0.483  17.353 -0.0776 -0.2755 -1.1650
  547TMC3    C4 8115   0.641   0.295  17.481  0.2022 -0.0428  1.1575
  547TMC3    C5 8116   0.506   0.297  17.485  0.5100  0.2548 -0.3926
  547TMC3    C6 8117   0.436   0.398  17.434 -0.0165  0.8553 -0.5671
  547TMC3     C 8118   0.838   0.408  17.397  1.4297  0.7370 -0.1483
  547TMC3     O 8119   0.890   0.447  17.294 -0.8029 -0.3930  0.2775
  547TMC3     H 8120   0.682   0.529  17.249 -1.0310 -0.6302 -0.5394
  547TMC3    H1 8121   0.697   0.208  17.511  0.6039 -0.1333  0.1616
  547TMC3    H2 8122   0.329   0.402  17.454  0.3372 -1.5067  1.8928
  547TMC3    C7 8123   0.440   0.208  17.579  0.0735 -0.2142 -0.2350
  547TMC3    C8 8124   0.431   0.586  17.286  0.4932 -0.0280  0.7060
  547TMC3    O1 8125   0.486   0.201  17.689 -0.4676 -0.0102 -0.1575
  547TMC3    O2 8126   0.463   0.612  17.170  0.0285 -1.0766  0.2113
  548MPD2     C 8127   1.227   0.757  12.058  0.3566  0.1470  0.3800
  548MPD2    C1 8128   1.144   0.643  12.066 -0.3360 -0.5862 -0.1052
  548MPD2    C2 8129   1.198   0.518  12.083 -0.0725  0.2227  0.2538
  548MPD2    C3 8130   1.341   0.508  12.081 -0.0439  0.5358  0.2845
  548MPD2    C4 8131   1.422   0.620  12.055  0.0682  0.8647 -0.3889
  548MPD2    C5 8132   1.361   0.743  12.047  0.3911 -0.2112  0.3949
  548MPD2     H 8133   1.135   0.430  12.093 -0.3861  0.3821 -0.3025
  548MPD2    H1 8134   1.529   0.613  12.066 -0.4011 -2.0846  2.2741
  548MPD2    H2 8135   1.191   0.859  12.058  0.8927  0.3318 -0.1839
  548MPD2    H3 8136   1.421   0.832  12.036 -0.0696  0.0050 -0.3229
  548MPD2     N 8137   1.394   0.375  12.084 -0.0988 -0.2934  0.5788
  548MPD2    H5 8138   1.324   0.301  12.089 -0.2770 -0.0114  2.4473
  548MPD2    N1 8139   1.003   0.664  12.071 -0.1605  0.1663  0.3318
  548MPD2    H7 8140   0.969   0.759  12.059 -0.0117  0.1190 -0.5110
  549TMC3    C1 8141   0.768   0.641  12.101  0.8500  0.6855 -0.4156
  549TMC3    C2 8142   0.747   0.772  12.088  0.1368 -0.7084 -0.5217
  549TMC3    C3 8143   0.627   0.828  12.113 -0.0216  0.4109  0.0077
  549TMC3    C4 8144   0.668   0.560  12.154 -0.3501 -0.1319  0.1128
  549TMC3    C5 8145   0.551   0.615  12.200  0.3800  0.0437 -0.6619
  549TMC3    C6 8146   0.532   0.749  12.169 -0.2480 -0.4767  1.0215
  549TMC3     C 8147   0.896   0.574  12.092 -0.0246  0.3968 -0.2216
  549TMC3     O 8148   0.906   0.454  12.123  0.1525  0.2175  0.1581
  549TMC3     H 8149   0.823   0.832  12.039 -0.3541 -1.1688 -1.8604
  549TMC3    H1 8150   0.686   0.454  12.160  0.9558  0.0816 -0.0318
  549TMC3    H2 8151   0.435   0.797  12.177  0.7230  1.6584 -0.0812
  549TMC3    C7 8152   0.531   0.592  12.338 -0.1259  0.1136 -0.6594
  549TMC3    C8 8153   0.591   0.957  12.055  0.4122 -0.4029  0.0168
  549TMC3    O1 8154   0.498   0.684  12.412 -0.2309 -0.8905 -0.0553
  549TMC3    O2 8155   0.475   0.971  12.033  0.0805  0.1802  0.8797
  550TMC3    C1 8156   0.147   2.794  11.885 -0.1688  0.4740 -0.2773
  550TMC3    C2 8157   0.131   2.839  12.012  0.6315 -0.3023  0.5037
  550TMC3    C3 8158   0.005   2.877  12.048  1.0672  0.0786  0.5571
  550TMC3    C4 8159   0.036   2.800  11.801  0.1183  0.5465  0.2010
  550TMC3    C5 8160   4.634   2.833  11.850  0.8520 -0.0964  0.1155
  550TMC3    C6 8161   4.611   2.863  11.979  1.1344 -0.6310  0.5587
  550TMC3     C 8162   0.264   2.732  11.847  0.5218 -0.3514  1.3626
  550TMC3     O 8163   0.356   2.755  11.923 -0.2107  0.3671  0.3542
  550TMC3     H 8164   0.214   2.837  12.082 -0.0562 -0.0312  1.3348
  550TMC3    H1 8165   0.056   2.795  11.695  0.2678 -1.0608  0.3064
  550TMC3    H2 8166   4.514   2.889  12.020  0.1043 -2.3582 -0.7409
  550TMC3    C7 8167   4.526   2.880  11.764 -0.6771 -0.0555 -0.4039
  550TMC3    C8 8168   0.004   2.992  12.140  0.0709 -0.3300 -0.0718
  550TMC3    O1 8169   4.433   2.945  11.817 -0.0129  0.1318 -0.1466
  550TMC3    O2 8170   4.622   3.053  12.166 -0.4624 -0.3762 -0.2030
  551TMC3    C1 8171   2.171   1.427  13.225 -0.5754 -0.4271 -0.6122
  551TMC3    C2 8172   2.259   1.445  13.115 -0.3684 -0.4509  0.5886
  551TMC3    C3 8173   2.362   1.531  13.124  0.3207 -0.5271 -0.6254
  551TMC3    C4 8174   2.196   1.486  13.347 -0.1665 -0.7558  0.3730
  551TMC3    C5 8175   2.302   1.576  13.349 -0.8036  0.3570  0.0607
  551TMC3    C6 8176   2.385   1.596  13.241 -0.0973  0.1985 -0.6230
  551TMC3     C 8177   2.054   1.345  13.202  0.0196 -0.0265  0.3130
  551TMC3     O 8178   2.057   1.253  13.121 -0.7263  0.1314  0.8833
  551TMC3     H 8179   2.251   1.381  13.028 -0.8927  0.3950  0.0103
  551TMC3    H1 8180   2.142   1.459  13.436 -0.7317 -0.2814  0.1709
  551TMC3    H2 8181   2.469   1.664  13.250 -0.6102  0.9692 -1.6672
  551TMC3    C7 8182   2.317   1.646  13.478  1.0426 -0.3366 -0.5332
  551TMC3    C8 8183   2.443   1.564  13.002 -0.6339 -0.6061  0.4323
  551TMC3    O1 8184   2.251   1.605  13.575  0.0152  0.1239  0.2800
  551TMC3    O2 8185   2.400   1.520  12.897 -0.4943  0.3990  0.2451
  552MPD2     C 8186   4.679   3.825  13.770  0.2457 -0.3576  0.5210
  552MPD2    C1 8187   4.693   3.702  13.841 -0.5819 -0.3850 -0.0839
  552MPD2    C2 8188   0.013   3.700  13.968  0.9847 -0.3257  0.3575
  552MPD2    C3 8189   0.046   3.818  14.036  0.3144 -0.6980  0.2064
  552MPD2    C4 8190   0.036   3.935  13.964 -0.1861  0.2050 -0.2252
  552MPD2    C5 8191   4.706   3.942  13.834  0.0233  0.1205 -0.0291
  552MPD2     H 8192   0.016   3.603  14.016  0.3714 -0.4856  0.0775
  552MPD2    H1 8193   0.066   4.030  14.007 -1.3368  0.2759  0.4058
  552MPD2    H2 8194   4.646   3.839  13.668  0.7568  0.9301  0.5290
  552MPD2    H3 8195   4.692   4.028  13.769 -0.7689  2.4658  3.2548
  552MPD2     N 8196   0.103   3.828  14.164 -0.2897  0.4446  0.8839
  552MPD2    H5 8197   0.112   3.922  14.201  1.0446  0.7359 -0.1734
  552MPD2    N1 8198   4.659   3.579  13.783  0.1942 -0.1672  0.0083
  552MPD2    H7 8199   4.680   3.495  13.837  2.7469 -0.5932 -1.6896
  553TMC3    C1 8200   4.593   3.408  13.640  0.5032  0.3174 -0.1867
  553TMC3    C2 8201   4.577   3.371  13.514 -0.3755 -0.4487 -0.4286
  553TMC3    C3 8202   4.559   3.244  13.481 -0.4881 -0.4597 -0.3722
  553TMC3    C4 8203   4.589   3.311  13.742  0.5880  0.1974  0.7491
  553TMC3    C5 8204   4.562   3.181  13.709 -0.1562 -0.1877 -0.4214
  553TMC3    C6 8205   4.537   3.142  13.578  0.0614 -0.0410  0.7151
  553TMC3     C 8206   4.622   3.550  13.658  0.4843  0.0668  0.3148
  553TMC3     O 8207   4.621   3.624  13.560 -0.1744  0.1149  0.4517
  553TMC3     H 8208   4.589   3.450  13.441 -0.3340 -0.8239 -0.8227
  553TMC3    H1 8209   4.573   3.340  13.845 -0.1826  1.4574  0.2709
  553TMC3    H2 8210   4.512   3.039  13.555  1.2038 -0.4674  1.4140
  553TMC3    C7 8211   4.540   3.081  13.813  0.3903 -0.1263  0.5169
  553TMC3    C8 8212   4.563   3.208  13.338 -0.2919 -0.1707 -0.2381
  553TMC3    O1 8213   4.475   2.978  13.793  0.2794 -0.1693  0.6387
  553TMC3    O2 8214   4.581   3.296  13.257 -0.5050  0.5849  0.1423
  554TMC3    C1 8215   1.312   1.948  11.541  0.4089 -0.2059 -0.6344
  554TMC3    C2 8216   1.251   1.861  11.452  0.2433  0.9509  0.5372
  554TMC3    C3 8217   1.328   1.820  11.345  0.8239  0.2540  0.1206
  554TMC3    C4 8218   1.445   1.990  11.522  0.4255 -0.3641 -0.4006
  554TMC3    C5 8219   1.519   1.941  11.418 -0.1510 -0.2403  0.6859
  554TMC3    C6 8220   1.466   1.847  11.336 -0.4960 -0.2010  0.6648
  554TMC3     C 8221   1.257   1.962  11.681  0.3298 -0.0275 -0.1164
  554TMC3     O 8222   1.137   1.975  11.705 -0.4324  0.5361 -0.5048
  554TMC3     H 8223   1.145   1.845  11.463  0.3082  1.2404  1.6128
  554TMC3    H1 8224   1.501   2.030  11.605  0.3176 -1.1266  0.0386
  554TMC3    H2 8225   1.529   1.800  11.261  0.1900  1.2537  0.3301
  554TMC3    C7 8226   1.637   2.007  11.369  0.3258  0.0554  0.3507
  554TMC3    C8 8227   1.275   1.749  11.230 -0.2442 -0.2757  0.0515
  554TMC3    O1 8228   1.667   1.968  11.256 -0.2327  0.3338 -0.4800
  554TMC3    O2 8229   1.367   1.688  11.176  0.0243  0.2501  0.3682
  555TMC3    C1 8230   0.299   2.093  14.592 -0.2926  0.6425 -0.2552
  555TMC3    C2 8231   0.421   2.130  14.642  0.4393 -0.3490  0.2786
  555TMC3    C3 8232   0.462   2.062  14.756  0.4709  0.3601 -0.8774
  555TMC3    C4 8233   0.230   1.980  14.629 -0.5934  0.2690 -0.5654
  555TMC3    C5 8234   0.273   1.922  14.743 -0.7203 -0.8746  0.6886
  555TMC3    C6 8235   0.387   1.960  14.811 -0.6127  0.6047 -0.0817
  555TMC3     C 8236   0.275   2.156  14.464 -0.1599  0.6519 -0.9505
  555TMC3     O 8237   0.348   2.245  14.425  0.9682 -0.0927 -0.1260
  555TMC3     H 8238   0.467   2.226  14.620 -1.7022  0.3953 -0.9653
  555TMC3    H1 8239   0.138   1.951  14.580 -1.3522 -0.6550  1.4124
  555TMC3    H2 8240   0.420   1.892  14.889  0.6564  0.0519 -1.1041
  555TMC3    C7 8241   0.207   1.802  14.794  0.0052 -0.1725  0.0658
  555TMC3    C8 8242   0.578   2.117  14.824  0.6051  0.5756 -0.2734
  555TMC3    O1 8243   0.220   1.786  14.917  0.1856  0.0539 -0.0466
  555TMC3    O2 8244   0.643   2.194  14.754 -0.2095  0.3655  0.5831
  556MPD2     C 8245   3.433   3.683  10.614 -0.5570 -0.2463  0.2062
  556MPD2    C1 8246   3.455   3.555  10.660 -0.4765  0.0807  0.2347
  556MPD2    C2 8247   3.404   3.450  10.592  0.0094  0.2696 -0.3443
  556MPD2    C3 8248   3.353   3.465  10.463 -0.0285 -0.2026  0.5487
  556MPD2    C4 8249   3.338   3.595  10.411 -1.4611  0.5487  0.2779
  556MPD2    C5 8250   3.378   3.699  10.491  1.0058 -0.3384  0.3500
  556MPD2     H 8251   3.398   3.356  10.646 -0.0853  0.8486  0.6599
  556MPD2    H1 8252   3.294   3.618  10.315 -1.7401 -1.2456 -0.0333
  556MPD2    H2 8253   3.482   3.770  10.656 -2.0919  2.3456 -3.4424
  556MPD2    H3 8254   3.354   3.795  10.448 -0.9078  0.1675  2.5039
  556MPD2     N 8255   3.311   3.347  10.402  0.1949 -0.0008 -0.5795
  556MPD2    H5 8256   3.332   3.266  10.459 -1.5142  0.0618  0.1300
  556MPD2    N1 8257   3.517   3.530  10.783  0.0639 -0.2376  0.1784
  556MPD2    H7 8258   3.532   3.435  10.816  0.1530 -0.4517 -0.4860
  557TMC3    C1 8259   3.204   3.205  10.251  0.1423  0.5633 -0.1303
  557TMC3    C2 8260   3.128   3.199  10.143  0.6479 -0.2654 -0.0609
  557TMC3    C3 8261   3.099   3.075  10.083  0.4283  0.1952  0.5735
  557TMC3    C4 8262   3.283   3.096  10.285 -0.9417 -0.0677 -0.3657
  557TMC3    C5 8263   3.268   2.982  10.216  0.7236 -0.5859 -0.0275
  557TMC3    C6 8264   3.175   2.968  10.118  0.2202 -0.1421 -0.0831
  557TMC3     C 8265   3.245   3.339  10.280 -0.6105  0.3887  0.0024
  557TMC3     O 8266   3.219   3.431  10.202  0.4511 -0.4935  0.2744
  557TMC3     H 8267   3.057   3.278  10.123  0.7046  0.1774  1.5270
  557TMC3    H1 8268   3.361   3.099  10.360  0.0624  1.1244 -1.4569
  557TMC3    H2 8269   3.161   2.875  10.064  1.4642 -1.3880  1.7645
  557TMC3    C7 8270   3.257   2.865  10.305  0.8426 -0.2719 -0.0314
  557TMC3    C8 8271   2.986   3.065   9.989 -0.8278 -0.0755  0.3599
  557TMC3    O1 8272   3.144   2.822  10.312 -0.3574 -0.0887 -0.4354
  557TMC3    O2 8273   2.930   3.171   9.950  0.4277 -0.0723  0.5139
  558TMC3    C1 8274   1.064   0.908   9.895 -0.9117  0.1361 -0.9891
  558TMC3    C2 8275   0.985   0.804   9.940 -0.0077 -0.1957 -0.4295
  558TMC3    C3 8276   0.866   0.779   9.877 -0.8122  0.2320  0.0382
  558TMC3    C4 8277   1.032   0.980   9.782 -0.2427 -0.5153  0.1338
  558TMC3    C5 8278   0.903   0.966   9.731 -0.3528  0.4447  0.7276
  558TMC3    C6 8279   0.817   0.869   9.781 -0.5164 -0.1893  0.1292
  558TMC3     C 8280   1.192   0.918   9.960  0.1694  0.1017  0.6865
  558TMC3     O 8281   1.290   0.926   9.885  0.1761 -0.1179 -0.6615
  558TMC3     H 8282   1.028   0.722   9.995 -1.2326 -0.0562  0.7365
  558TMC3    H1 8283   1.102   1.050   9.737 -1.1343 -0.3132 -0.9393
  558TMC3    H2 8284   0.713   0.856   9.753 -0.5247  0.3492 -0.0809
  558TMC3    C7 8285   0.879   1.013   9.597 -0.0722 -0.7758  0.5889
  558TMC3    C8 8286   0.769   0.691   9.943 -0.3598  0.0377 -0.4180
  558TMC3    O1 8287   0.952   1.097   9.546 -0.2122  0.5457 -0.0721
  558TMC3    O2 8288   0.670   0.668   9.875 -0.0501 -0.1164 -0.1921
  559MPD2     C 8289   1.305   1.308  10.253  0.1893  0.1094 -0.1917
  559MPD2    C1 8290   1.193   1.313  10.331  0.3775 -0.1929 -0.3574
  559MPD2    C2 8291   1.216   1.295  10.465  0.3511 -0.1954 -0.2999
  559MPD2    C3 8292   1.334   1.293  10.526 -0.1122 -0.2702  0.2104
  559MPD2    C4 8293   1.443   1.297  10.446  0.6255  0.4687 -0.4127
  559MPD2    C5 8294   1.427   1.300  10.309 -0.3320  0.2767 -0.2835
  559MPD2     H 8295   1.128   1.293  10.529 -2.4875  1.6860 -4.1048
  559MPD2    H1 8296   1.546   1.293  10.480  0.7382  1.0644 -0.6769
  559MPD2    H2 8297   1.311   1.309  10.145 -1.0468 -0.8156 -0.2622
  559MPD2    H3 8298   1.522   1.291  10.259 -0.0983 -0.7978  0.3761
  559MPD2     N 8299   1.344   1.291  10.671  0.0059 -0.0377  0.4422
  559MPD2    H5 8300   1.259   1.268  10.720 -2.1915 -1.5715 -4.0581
  559MPD2    N1 8301   1.067   1.319  10.271 -0.2789 -0.1965  0.0044
  559MPD2    H7 8302   0.987   1.326  10.334  0.6663 -0.2575  1.2057
  560TMC3    C1 8303   1.446   1.244  10.884  0.0772  0.7811 -0.0772
  560TMC3    C2 8304   1.342   1.170  10.925  0.2938  0.0349  0.7070
  560TMC3    C3 8305   1.343   1.110  11.048 -0.6464  0.4233 -0.5130
  560TMC3    C4 8306   1.561   1.245  10.954 -0.1165 -0.1750 -0.6945
  560TMC3    C5 8307   1.564   1.185  11.078  0.1799  0.5896 -0.9794
  560TMC3    C6 8308   1.452   1.116  11.125  0.1043 -0.4559 -0.1702
  560TMC3     C 8309   1.460   1.290  10.748 -0.3964  0.4236  0.1562
  560TMC3     O 8310   1.579   1.304  10.709 -0.2416  0.4595 -0.0212
  560TMC3     H 8311   1.250   1.166  10.868  0.9832 -2.6485 -0.2200
  560TMC3    H1 8312   1.646   1.305  10.924 -0.1150  0.0444 -0.2478
  560TMC3    H2 8313   1.456   1.067  11.221  1.6724  0.4100  0.2148
  560TMC3    C7 8314   1.679   1.195  11.173  0.7759 -1.0425  0.0800
  560TMC3    C8 8315   1.289   0.980  11.053 -0.6302  0.0368  0.6614
  560TMC3    O1 8316   1.666   1.140  11.283 -0.0896 -0.8364 -0.3343
  560TMC3    O2 8317   1.279   0.933  10.944  0.2551  0.4727 -0.6502
  561TMC3    C1 8318   4.407   4.715  11.010 -0.1057  0.2798  0.6636
  561TMC3    C2 8319   4.362   4.662  11.127  0.3517  0.1329 -0.3678
  561TMC3    C3 8320   4.234   4.688  11.167  0.0091  0.6739 -0.0459
  561TMC3    C4 8321   4.332   0.074  10.933  0.6645 -0.0625 -0.0054
  561TMC3    C5 8322   4.198   0.099  10.965 -0.5085 -0.1624 -0.1255
  561TMC3    C6 8323   4.145   0.040  11.082  0.3620 -0.5841  0.4422
  561TMC3     C 8324   4.551   4.706  10.990 -0.2531  0.1973 -0.1102
  561TMC3     O 8325   4.596   4.597  11.012 -0.1243 -0.0820 -0.8545
  561TMC3     H 8326   4.431   4.601  11.185 -1.2655 -0.3418  1.0691
  561TMC3    H1 8327   4.379   0.115  10.844  0.0238 -1.9604 -1.1918
  561TMC3    H2 8328   4.039   0.041  11.104  0.3961  3.9746  0.5317
  561TMC3    C7 8329   4.123   0.221  10.923  0.5718 -0.0003  0.0426
  561TMC3    C8 8330   4.198   4.643  11.304  0.2419 -0.1638 -0.1054
  561TMC3    O1 8331   4.034   0.250  10.998  0.1216 -0.0705  0.7839
  561TMC3    O2 8332   4.273   4.564  11.357  0.4688 -0.0654  0.1020
  562TMC3    C1 8333   4.297   2.569  16.056 -0.0736 -0.2480  0.2969
  562TMC3    C2 8334   4.194   2.649  16.010  0.5340 -0.7176 -0.1601
  562TMC3    C3 8335   4.175   2.648  15.874  0.3702  0.0324 -0.3061
  562TMC3    C4 8336   4.361   2.481  15.972 -0.4447 -0.5375 -0.2078
  562TMC3    C5 8337   4.322   2.473  15.837  0.3516  0.0088 -0.4155
  562TMC3    C6 8338   4.239   2.561  15.785  0.5626 -0.1579  0.0032
  562TMC3     C 8339   4.353   2.608  16.183  1.1190  0.0891 -0.2459
  562TMC3     O 8340   4.281   2.655  16.267 -0.0231 -0.0809  0.2894
  562TMC3     H 8341   4.136   2.705  16.081 -0.4121 -0.8511 -0.8270
  562TMC3    H1 8342   4.439   2.419  16.015  0.0258 -0.6932 -1.2834
  562TMC3    H2 8343   4.211   2.561  15.680  0.7027  0.1132 -0.0341
  562TMC3    C7 8344   4.353   2.354  15.760 -0.6215 -0.1303 -0.6116
  562TMC3    C8 8345   4.073   2.738  15.823  0.3166  0.0110 -0.3478
  562TMC3    O1 8346   4.346   2.357  15.637  0.2037  0.0271  0.4019
  562TMC3    O2 8347   3.989   2.790  15.899 -0.5113  0.5650  0.1705
  563MPD2     C 8348   1.742   3.881  15.814 -0.5797  0.2291  0.4203
  563MPD2    C1 8349   1.788   3.880  15.949 -0.0234 -0.0186 -0.4206
  563MPD2    C2 8350   1.905   3.807  15.983  0.5406 -0.4203  0.0552
  563MPD2    C3 8351   1.983   3.745  15.889  0.6294  0.2286 -0.1101
  563MPD2    C4 8352   1.932   3.745  15.762 -0.0073  0.7267  0.7863
  563MPD2    C5 8353   1.827   3.821  15.722 -0.1370  0.0939  0.0584
  563MPD2     H 8354   1.939   3.800  16.085 -1.4436  0.8248  0.7973
  563MPD2    H1 8355   1.997   3.717  15.680 -1.8273 -0.3940 -0.2692
  563MPD2    H2 8356   1.656   3.933  15.775 -0.8382 -0.3009  0.2940
  563MPD2    H3 8357   1.800   3.823  15.617  0.5835 -0.5129 -0.1350
  563MPD2     N 8358   2.104   3.688  15.940  0.4049 -0.4265 -0.3793
  563MPD2    H5 8359   2.143   3.704  16.033  0.8711  0.0967 -0.6692
  563MPD2    N1 8360   1.721   3.941  16.052 -0.9116  0.5602 -0.1850
  563MPD2    H7 8361   1.781   3.949  16.133 -2.2286 -0.9918  0.9550
  564TMC3    C1 8362   1.538   4.015  16.194 -0.6921 -0.3808  0.4452
  564TMC3    C2 8363   1.410   3.976  16.209 -0.4207 -0.5235 -0.1618
  564TMC3    C3 8364   1.374   3.894  16.311 -0.3037 -0.5189  0.5009
  564TMC3    C4 8365   1.637   3.985  16.288  0.2914 -0.2406  0.0958
  564TMC3    C5 8366   1.602   3.910  16.396 -0.5624 -0.6216 -0.1366
  564TMC3    C6 8367   1.470   3.862  16.408  0.8686 -0.0510 -0.9590
  564TMC3     C 8368   1.585   3.983  16.057  0.0942 -0.2817 -0.5707
  564TMC3     O 8369   1.501   3.986  15.966 -0.2392 -0.1118  0.1357
  564TMC3     H 8370   1.329   4.003  16.142 -1.0558 -1.3628  0.2578
  564TMC3    H1 8371   1.741   4.012  16.279  0.1095  0.9150  1.4389
  564TMC3    H2 8372   1.453   3.801  16.496  0.2617  0.9365 -0.3914
  564TMC3    C7 8373   1.697   3.809  16.408 -0.0763  0.3785  0.6704
  564TMC3    C8 8374   1.324   3.769  16.267  0.5403  0.0957  0.4671
  564TMC3    O1 8375   1.800   3.831  16.467 -0.4027  0.9432  0.0229
  564TMC3    O2 8376   1.315   3.677  16.347 -0.1478  0.2391 -0.0828
  565TMC3    C1 8377   3.367   4.237   9.857 -0.3759 -0.0821  0.2414
  565TMC3    C2 8378   3.313   4.196   9.975 -0.2419  0.4514 -0.4589
  565TMC3    C3 8379   3.299   4.063  10.005  0.0435 -0.8333 -0.3942
  565TMC3    C4 8380   3.389   4.141   9.758  0.3561 -0.0393  0.3758
  565TMC3    C5 8381   3.373   4.011   9.795  0.9237  0.0048 -0.4162
  565TMC3    C6 8382   3.324   3.964   9.916  0.4135 -0.1297  0.0262
  565TMC3     C 8383   3.423   4.369   9.839 -0.2958 -0.1684 -0.1911
  565TMC3     O 8384   3.487   4.392   9.738 -0.0477 -0.6832 -0.0366
  565TMC3     H 8385   3.272   4.263  10.050  0.1622  0.8255 -0.5680
  565TMC3    H1 8386   3.401   4.161   9.652 -1.5997 -0.8265  0.0150
  565TMC3    H2 8387   3.339   3.862   9.949  0.1222 -0.1794  0.0032
  565TMC3    C7 8388   3.398   3.911   9.694 -0.1825  0.6667 -0.2023
  565TMC3    C8 8389   3.223   4.025  10.123  0.2956  0.3028  0.2422
  565TMC3    O1 8390   3.347   3.805   9.718 -0.6142 -0.2694  0.1330
  565TMC3    O2 8391   3.257   4.068  10.234 -0.5190  0.0845  0.7776
  566MPD2     C 8392   3.703   1.510  14.171 -0.3984 -0.0979  0.4568
  566MPD2    C1 8393   3.790   1.453  14.080 -0.0267  0.3159 -0.1639
  566MPD2    C2 8394   3.743   1.409  13.961 -0.3185  0.0403 -0.0221
  566MPD2    C3 8395   3.611   1.431  13.927  0.6353  0.1882  0.2176
  566MPD2    C4 8396   3.519   1.478  14.023  0.1528  0.3885 -0.4902
  566MPD2    C5 8397   3.571   1.521  14.144 -0.4713 -0.4427  0.0928
  566MPD2     H 8398   3.806   1.365  13.885 -2.0923 -0.7502 -1.0383
  566MPD2    H1 8399   3.419   1.499  13.988  0.0302 -0.1391 -0.4420
  566MPD2    H2 8400   3.746   1.551  14.261 -0.4393  1.5867 -0.2912
  566MPD2    H3 8401   3.506   1.579  14.208 -0.5642 -1.6737  1.1127
  566MPD2     N 8402   3.560   1.415  13.792 -0.0077  0.1227  0.0690
  566MPD2    H5 8403   3.473   1.454  13.756  0.3154  1.3135  0.5678
  566MPD2    N1 8404   3.923   1.450  14.115  0.9652  0.8198  0.1898
  566MPD2    H7 8405   3.957   1.512  14.188  0.2555 -0.0014  1.2086
  567TMC3    C1 8406   4.156   1.455  14.062 -0.1192  0.0884 -0.1493
  567TMC3    C2 8407   4.228   1.492  13.949 -0.0937  0.0129 -0.9253
  567TMC3    C3 8408   4.340   1.560  13.976 -0.0826 -0.5188 -0.3882
  567TMC3    C4 8409   4.192   1.471  14.192 -0.1713  0.1710 -0.3353
  567TMC3    C5 8410   4.314   1.537  14.210 -0.0289  0.3735  0.6872
  567TMC3    C6 8411   4.392   1.584  14.103 -0.3408 -1.2785 -0.2954
  567TMC3     C 8412   4.027   1.403  14.034 -0.7233  0.4150  0.2431
  567TMC3     O 8413   4.022   1.332  13.936  0.0947  0.6843  0.3788
  567TMC3     H 8414   4.188   1.478  13.849 -0.3702 -0.7614 -0.7056
  567TMC3    H1 8415   4.139   1.423  14.273  2.8795 -1.9549  0.3913
  567TMC3    H2 8416   4.475   1.650  14.125 -1.2085  0.5005 -2.3369
  567TMC3    C7 8417   4.356   1.585  14.344  0.8426  0.3722 -0.1076
  567TMC3    C8 8418   4.364   1.656  13.879 -0.0257  0.2892 -0.1578
  567TMC3    O1 8419   4.473   1.616  14.356  0.8306  0.3192  0.4551
  567TMC3    O2 8420   4.270   1.683  13.802 -0.1844 -0.0885  0.0373
  568MPD2     C 8421   2.275   2.698  16.471 -0.0612 -0.3628  0.3946
  568MPD2    C1 8422   2.159   2.686  16.545 -0.1149 -0.2693  0.4552
  568MPD2    C2 8423   2.063   2.777  16.519  0.0596 -0.3172  0.6141
  568MPD2    C3 8424   2.076   2.875  16.421  0.0635 -0.1521  0.4521
  568MPD2    C4 8425   2.193   2.885  16.346 -0.0943 -0.5171  0.1497
  568MPD2    C5 8426   2.295   2.799  16.381 -0.5170  0.2156  0.5844
  568MPD2     H 8427   1.967   2.785  16.568 -0.5237  0.3305 -0.6523
  568MPD2    H1 8428   2.206   2.963  16.271 -0.0340 -0.3007  0.3831
  568MPD2    H2 8429   2.360   2.633  16.488  0.9176  1.2478  1.6549
  568MPD2    H3 8430   2.389   2.813  16.329 -0.6594  1.2396  0.5857
  568MPD2     N 8431   1.960   2.958  16.391  0.4859 -0.2106 -0.7315
  568MPD2    H5 8432   1.879   2.938  16.448  0.6154  1.7040  0.1129
  568MPD2    N1 8433   2.131   2.567  16.611 -0.2658  0.2617 -0.0654
  568MPD2    H7 8434   2.202   2.494  16.611 -1.6901 -1.1258 -2.4557
  569TMC3    C1 8435   1.816   3.088  16.278 -0.8431  0.1681  0.1725
  569TMC3    C2 8436   1.752   3.128  16.388  0.0565  0.2493 -0.0519
  569TMC3    C3 8437   1.619   3.146  16.380 -0.2033 -0.1211  0.1434
  569TMC3    C4 8438   1.756   3.078  16.158  0.7005  0.3212  0.0940
  569TMC3    C5 8439   1.624   3.116  16.150 -0.2309 -0.0554  0.5422
  569TMC3    C6 8440   1.550   3.131  16.260  0.4929 -0.7455  0.0828
  569TMC3     C 8441   1.950   3.052  16.291 -0.4659  0.7696 -0.6076
  569TMC3     O 8442   2.035   3.113  16.226  0.3557 -0.0263  0.1217
  569TMC3     H 8443   1.804   3.127  16.483 -0.4441 -0.8846  0.2153
  569TMC3    H1 8444   1.824   3.064  16.075 -1.2333  1.8738 -1.7457
  569TMC3    H2 8445   1.442   3.134  16.253  0.4460  0.5017  1.3541
  569TMC3    C7 8446   1.582   3.201  16.044 -0.8962 -0.3817  0.6202
  569TMC3    C8 8447   1.558   3.253  16.461 -0.2841  0.4727  0.7468
  569TMC3    O1 8448   1.654   3.184  15.947  0.0805  0.0763  0.7424
  569TMC3    O2 8449   1.444   3.284  16.428  0.4696  0.1874  0.3911
  570TMC3    C1 8450   1.147   1.444  15.978 -0.4454 -0.5426  0.1074
  570TMC3    C2 8451   1.181   1.495  15.856  0.0220  0.5483  0.1070
  570TMC3    C3 8452   1.160   1.633  15.842  0.4234 -0.1361  0.1948
  570TMC3    C4 8453   1.097   1.520  16.081  0.4361 -0.0617  0.7737
  570TMC3    C5 8454   1.081   1.652  16.061 -0.2492  0.2064  0.3335
  570TMC3    C6 8455   1.108   1.711  15.940 -0.2162 -0.3639 -0.2482
  570TMC3     C 8456   1.219   1.325  16.015 -0.1374 -0.0799 -0.7383
  570TMC3     O 8457   1.334   1.314  15.977  1.0572  0.1466 -0.2457
  570TMC3     H 8458   1.218   1.431  15.776 -0.3782  0.6063 -0.1262
  570TMC3    H1 8459   1.058   1.475  16.172 -0.7330 -1.5536 -0.4515
  570TMC3    H2 8460   1.084   1.816  15.923  1.3661 -0.1512 -1.1040
  570TMC3    C7 8461   1.068   1.743  16.171  0.3422 -0.8130  0.2777
  570TMC3    C8 8462   1.176   1.696  15.719  0.0025 -0.2816 -0.3743
  570TMC3    O1 8463   1.016   1.855  16.158 -0.8783 -0.1097 -0.4749
  570TMC3    O2 8464   1.187   1.818  15.720 -0.1346  0.0452  1.1229
  571MPD2     C 8465   3.607   3.283  16.770 -0.5777  0.0891 -0.2461
  571MPD2    C1 8466   3.669   3.187  16.848 -0.3781 -0.1417  0.4489
  571MPD2    C2 8467   3.600   3.122  16.946  0.3385 -0.1816 -0.2992
  571MPD2    C3 8468   3.460   3.136  16.955 -0.0005  0.0078 -0.0441
  571MPD2    C4 8469   3.395   3.229  16.879  0.2593 -0.3491 -0.7805
  571MPD2    C5 8470   3.472   3.305  16.788 -0.8900  0.1298  0.6534
  571MPD2     H 8471   3.654   3.073  17.026 -0.4071 -0.2437  0.1665
  571MPD2    H1 8472   3.289   3.251  16.893  0.3961  0.5953 -1.2142
  571MPD2    H2 8473   3.673   3.335  16.701 -0.7595 -1.2327 -1.4380
  571MPD2    H3 8474   3.420   3.382  16.732 -1.6523  1.1698  2.7952
  571MPD2     N 8475   3.388   3.044  17.037  0.2582  0.2075 -0.1882
  571MPD2    H5 8476   3.287   3.041  17.025  0.2923  0.7445 -0.5846
  571MPD2    N1 8477   3.808   3.172  16.835  0.4216 -0.0010 -0.1210
  571MPD2    H7 8478   3.863   3.226  16.769 -0.7255 -0.2568 -1.2873
  572TMC3    C1 8479   3.328   2.886  17.207  0.0038  0.9798 -0.5536
  572TMC3    C2 8480   3.372   2.789  17.290  0.7230  0.7702  0.4905
  572TMC3    C3 8481   3.298   2.743  17.389 -0.4299 -0.2140  0.2529
  572TMC3    C4 8482   3.200   2.939  17.224  0.8324  0.1063  0.1217
  572TMC3    C5 8483   3.128   2.888  17.331  0.9006 -0.0087 -0.4140
  572TMC3    C6 8484   3.171   2.788  17.412  0.0239 -0.3362  0.6757
  572TMC3     C 8485   3.431   2.948  17.121  0.8274 -0.1198  0.1108
  572TMC3     O 8486   3.544   2.916  17.139  0.6112 -0.1338 -0.2799
  572TMC3     H 8487   3.463   2.733  17.273  0.3918  0.6023 -0.6963
  572TMC3    H1 8488   3.154   3.014  17.162  1.5198  1.7770  1.6303
  572TMC3    H2 8489   3.120   2.755  17.502  1.0503 -0.0137  1.3783
  572TMC3    C7 8490   3.009   2.965  17.366 -0.1364  0.3481 -0.5234
  572TMC3    C8 8491   3.331   2.617  17.455  0.4620 -0.1909 -0.6949
  572TMC3    O1 8492   3.010   3.085  17.346 -0.5715 -0.1894 -0.0540
  572TMC3    O2 8493   3.386   2.540  17.379  0.1998 -0.4316  0.7062
  573MPD2     C 8494   0.368   3.731   0.940  0.1601  0.7586  0.4422
  573MPD2    C1 8495   0.341   3.847   0.872 -0.1120 -0.2460  0.7875
  573MPD2    C2 8496   0.352   3.845   0.736  0.0891 -0.5749  0.0611
  573MPD2    C3 8497   0.376   3.721   0.666 -0.5154  0.0472  0.7869
  573MPD2    C4 8498   0.374   3.604   0.738  0.1220  0.0646 -0.1503
  573MPD2    C5 8499   0.374   3.614   0.875  0.0693 -0.1341  0.7622
  573MPD2     H 8500   0.318   3.928   0.676 -0.3650 -0.0896  0.9921
  573MPD2    H1 8501   0.395   3.510   0.688 -1.7446 -1.5493  2.0885
  573MPD2    H2 8502   0.363   3.724   1.048  0.9639  0.4484  0.4638
  573MPD2    H3 8503   0.382   3.521   0.929  1.8095  0.0680  0.8447
  573MPD2     N 8504   0.388   3.721   0.530  0.1085  0.0210  0.1572
  573MPD2    H5 8505   0.393   3.628   0.489 -2.2350 -1.1820  2.6455
  573MPD2    N1 8506   0.320   3.959   0.957  0.3504  0.1482 -0.2791
  573MPD2    H7 8507   0.309   3.934   1.054 -2.7549 -2.9571 -1.4749
  574TMC3    C1 8508   0.406   3.801   0.314  0.5967 -0.6984  0.8871
  574TMC3    C2 8509   0.291   3.739   0.267 -0.1850 -0.1200 -0.1170
  574TMC3    C3 8510   0.233   3.762   0.148 -0.6199 -0.0786 -0.9326
  574TMC3    C4 8511   0.463   3.893   0.228 -0.0553  1.3911 -0.2281
  574TMC3    C5 8512   0.423   3.902   0.102 -0.4236  0.2218  0.1115
  574TMC3    C6 8513   0.313   3.834   0.059 -1.1674  0.0607 -0.1390
  574TMC3     C 8514   0.421   3.831   0.454  0.4376 -0.0568  0.1588
  574TMC3     O 8515   0.463   3.936   0.498 -1.0201 -0.0264 -0.0903
  574TMC3     H 8516   0.230   3.675   0.330  0.6997 -0.8221  0.0445
  574TMC3    H1 8517   0.542   3.961   0.259  1.0245 -0.2278  0.5850
  574TMC3    H2 8518   0.266   3.842  17.652 -2.0826 -1.1575  0.1961
  574TMC3    C7 8519   0.515   3.968   0.011  0.5005  0.1147 -0.1645
  574TMC3    C8 8520   0.091   3.734   0.118  0.0813 -0.2152 -0.2362
  574TMC3    O1 8521   0.623   4.015   0.052  0.2073  0.0483 -0.3790
  574TMC3    O2 8522   0.041   3.653   0.198 -0.4402  0.0240  0.2776
  575TMC3    C1 8523   3.077   3.851  10.990  1.0991  0.2331  0.4397
  575TMC3    C2 8524   3.079   3.718  11.014 -0.9476  0.3087 -0.0093
  575TMC3    C3 8525   3.107   3.631  10.914 -0.2448 -0.0361 -0.5579
  575TMC3    C4 8526   3.112   3.894  10.864  0.5349  0.5574 -0.5657
  575TMC3    C5 8527   3.121   3.802  10.760  0.1581 -0.5630  0.5368
  575TMC3    C6 8528   3.114   3.673  10.781 -0.1374 -0.6737 -0.0440
  575TMC3     C 8529   3.112   3.937  11.103 -0.3452 -0.3368 -0.2139
  575TMC3     O 8530   3.108   3.875  11.206  0.4535 -0.0999 -0.1504
  575TMC3     H 8531   3.057   3.680  11.113  0.5033  0.3863  0.3331
  575TMC3    H1 8532   3.082   3.996  10.839 -0.3905  0.4025 -0.0811
  575TMC3    H2 8533   3.126   3.599  10.703  2.7383 -0.4222  0.1548
  575TMC3    C7 8534   3.101   3.847  10.629 -0.7774 -0.7252  1.1579
  575TMC3    C8 8535   3.153   3.506  10.957 -0.0723 -0.1644 -0.6425
  575TMC3    O1 8536   3.130   3.961  10.601  0.1571 -0.1123  0.1719
  575TMC3    O2 8537   3.216   3.498  11.057  1.0037 -0.6447  0.1347
  576MPD2     C 8538   3.356   0.572  12.244 -0.6066  0.3084 -0.8841
  576MPD2    C1 8539   3.391   0.631  12.126  0.6693 -0.1457 -0.7951
  576MPD2    C2 8540   3.406   0.769  12.117  0.1557 -0.2680  0.4760
  576MPD2    C3 8541   3.384   0.847  12.229 -0.1399 -0.4084 -0.4810
  576MPD2    C4 8542   3.351   0.784  12.344  0.0404  0.5759 -0.5258
  576MPD2    C5 8543   3.326   0.649  12.348 -0.2567  0.2729 -0.3765
  576MPD2     H 8544   3.429   0.820  12.024 -2.4365  1.1251  0.6058
  576MPD2    H1 8545   3.331   0.840  12.435  2.6243  2.6125 -1.2244
  576MPD2    H2 8546   3.335   0.466  12.257  1.1297  0.2182  1.2737
  576MPD2    H3 8547   3.286   0.605  12.439 -0.3057 -0.2939 -0.6682
  576MPD2     N 8548   3.373   0.991  12.207 -0.0429 -1.0713  0.8592
  576MPD2    H5 8549   3.415   1.025  12.121  1.0191 -1.5522  1.1808
  576MPD2    N1 8550   3.413   0.560  12.003 -0.7582 -0.1264  0.4154
  576MPD2    H7 8551   3.426   0.630  11.930  2.4187 -2.3889 -1.2219
  577TMC3    C1 8552   3.430   0.377  11.854  0.5296  0.2311 -0.3248
  577TMC3    C2 8553   3.479   0.251  11.830  0.4753  0.1566  0.0480
  577TMC3    C3 8554   3.545   0.229  11.708 -0.0370 -0.4922  0.1219
  577TMC3    C4 8555   3.423   0.466  11.756  0.7146 -0.5401  0.0126
  577TMC3    C5 8556   3.471   0.432  11.632  0.1153  0.0289  0.6733
  577TMC3    C6 8557   3.539   0.316  11.607  0.5970  0.1334  0.8500
  577TMC3     C 8558   3.418   0.429  11.993  0.2614  0.3065 -0.0726
  577TMC3     O 8559   3.425   0.349  12.087  0.2448  0.0632 -0.1552
  577TMC3     H 8560   3.489   0.174  11.907  2.1248  3.1747  2.8445
  577TMC3    H1 8561   3.359   0.553  11.761  2.0096  0.4114 -0.0856
  577TMC3    H2 8562   3.569   0.304  11.504 -0.6148  1.2565  0.3521
  577TMC3    C7 8563   3.472   0.532  11.527 -0.2071 -0.2543  0.4481
  577TMC3    C8 8564   3.610   0.099  11.684 -0.5520 -0.7063 -0.1690
  577TMC3    O1 8565   3.566   0.520  11.453 -0.1194  0.6232 -0.2382
  577TMC3    O2 8566   3.580   0.010  11.766  0.2173  0.4708  0.0613
  578MPD2     C 8567   0.325   1.617   0.977  0.2364  0.2150  0.6038
  578MPD2    C1 8568   0.441   1.547   0.950 -0.2161  0.1773 -0.6477
  578MPD2    C2 8569   0.488   1.459   1.039  0.4902 -0.2950 -0.2054
  578MPD2    C3 8570   0.414   1.417   1.141 -0.8327 -0.6006 -0.7909
  578MPD2    C4 8571   0.292   1.481   1.163 -0.1364  0.2916  0.0864
  578MPD2    C5 8572   0.252   1.586   1.082  0.3200  0.3705  0.0328
  578MPD2     H 8573   0.588   1.415   1.037  0.6124 -0.1555  2.9763
  578MPD2    H1 8574   0.236   1.463   1.255  0.8211 -3.4139 -0.0731
  578MPD2    H2 8575   0.301   1.704   0.918  1.1760 -0.8729 -1.4219
  578MPD2    H3 8576   0.159   1.637   1.106  0.4266  1.0793 -1.0809
  578MPD2     N 8577   0.480   1.326   1.226  0.3332 -0.6692  0.0779
  578MPD2    H5 8578   0.578   1.313   1.203  0.0003 -3.8681  0.5138
  578MPD2    N1 8579   0.516   1.596   0.847  0.4672 -0.3983  0.1630
  578MPD2    H7 8580   0.478   1.677   0.799 -1.2176  0.1010  2.3558
  579TMC3    C1 8581   0.537   1.180   1.398 -0.0818 -0.0896 -0.4296
  579TMC3    C2 8582   0.592   1.213   1.511 -0.2158  0.0190 -0.6299
  579TMC3    C3 8583   0.700   1.137   1.552 -0.3085  0.2412 -0.3784
  579TMC3    C4 8584   0.579   1.077   1.312 -0.7958 -0.8122  0.6852
  579TMC3    C5 8585   0.689   1.009   1.355 -0.0579  0.2732 -0.1903
  579TMC3    C6 8586   0.747   1.034   1.480 -1.1321 -0.2858 -0.1041
  579TMC3     C 8587   0.435   1.271   1.345  0.0151 -0.2832 -0.2817
  579TMC3     O 8588   0.340   1.314   1.410  0.0404  0.1191  0.0970
  579TMC3     H 8589   0.551   1.288   1.578  0.3728  0.5352 -0.8490
  579TMC3    H1 8590   0.542   1.067   1.210  1.3508 -1.8437  0.0018
  579TMC3    H2 8591   0.841   0.992   1.513 -0.2139 -0.4956 -3.0402
  579TMC3    C7 8592   0.726   0.885   1.284  0.5296 -0.3547 -0.0980
  579TMC3    C8 8593   0.769   1.186   1.673 -0.3182  0.5271 -0.1870
  579TMC3    O1 8594   0.844   0.862   1.302 -0.3968  0.5305  0.2619
  579TMC3    O2 8595   0.811   1.095   1.749 -0.0755 -0.1511  0.6283
  580TMC3    C1 8596   0.598   0.020  11.489  0.2750 -0.3978 -0.2360
  580TMC3    C2 8597   0.712   4.715  11.424  0.7013 -0.4713  0.4401
  580TMC3    C3 8598   0.797   4.632  11.496 -0.1117  0.2118  0.2585
  580TMC3    C4 8599   0.539   4.673  11.594  0.1571  0.1323 -0.1843
  580TMC3    C5 8600   0.621   4.581  11.649  0.2674 -0.0535 -0.3969
  580TMC3    C6 8601   0.753   4.564  11.607 -0.0548 -0.4843 -0.5137
  580TMC3     C 8602   0.571   0.163  11.495 -0.4400  0.1045 -0.0653
  580TMC3     O 8603   0.467   0.182  11.555  0.3025 -0.2050  0.0635
  580TMC3     H 8604   0.734   0.054  11.338  1.0316 -0.3879  0.5848
  580TMC3    H1 8605   0.448   4.707  11.640  0.2391  1.1979 -0.8122
  580TMC3    H2 8606   0.822   4.503  11.664 -0.1043 -0.5160 -0.4879
  580TMC3    C7 8607   0.581   4.517  11.767 -0.8450 -0.1793  0.4546
  580TMC3    C8 8608   0.930   4.692  11.500 -0.5376 -0.7602 -0.2256
  580TMC3    O1 8609   0.529   4.588  11.853 -0.4998  0.1154 -0.2462
  580TMC3    O2 8610   0.991   4.686  11.394 -0.2403 -0.0980  0.9959
  581MPD2     C 8611   3.256   0.926  15.574 -0.2837  0.1401  0.2008
  581MPD2    C1 8612   3.284   0.867  15.453  0.0727 -0.2481 -0.0907
  581MPD2    C2 8613   3.196   0.851  15.342  0.4313 -0.0514 -0.2531
  581MPD2    C3 8614   3.068   0.902  15.363  0.1434 -0.1255  0.4468
  581MPD2    C4 8615   3.037   0.965  15.481 -0.2314  0.0559  0.4199
  581MPD2    C5 8616   3.131   0.984  15.578 -0.1299  0.3104  0.5656
  581MPD2     H 8617   3.229   0.809  15.248  0.6926 -3.7620  1.4915
  581MPD2    H1 8618   2.942   1.010  15.509 -0.3367 -0.1435  0.3850
  581MPD2    H2 8619   3.328   0.930  15.654 -0.6156  1.9504  0.4280
  581MPD2    H3 8620   3.102   1.042  15.665 -1.3466  1.1343 -0.3996
  581MPD2     N 8621   2.974   0.884  15.266 -0.3859 -0.0952 -0.4881
  581MPD2    H5 8622   2.998   0.838  15.179  0.8712 -2.1789  0.9775
  581MPD2    N1 8623   3.411   0.805  15.456 -0.1401  0.5007 -0.6675
  581MPD2    H7 8624   3.467   0.820  15.539  1.1192 -0.9590 -1.2572
  582TMC3    C1 8625   3.582   0.642  15.414  0.2671 -0.2294  0.2854
  582TMC3    C2 8626   3.588   0.614  15.549  0.1798 -0.3342 -0.5761
  582TMC3    C3 8627   3.665   0.510  15.595 -0.0625 -0.2336  0.2744
  582TMC3    C4 8628   3.627   0.541  15.328 -1.4156  0.3621  0.3559
  582TMC3    C5 8629   3.691   0.433  15.382 -0.8245 -0.7203  0.3779
  582TMC3    C6 8630   3.712   0.411  15.513 -0.3570  0.3913 -0.2140
  582TMC3     C 8631   3.466   0.721  15.360 -0.2616 -0.4838  0.0833
  582TMC3     O 8632   3.435   0.706  15.243 -0.1438 -0.0087  0.2310
  582TMC3     H 8633   3.565   0.693  15.619 -3.3101 -2.0420  0.2193
  582TMC3    H1 8634   3.629   0.546  15.220 -1.4115 -2.2207  0.2270
  582TMC3    H2 8635   3.772   0.325  15.543  2.6429  2.2785 -0.7615
  582TMC3    C7 8636   3.765   0.335  15.297 -0.0571  0.2377  0.9821
  582TMC3    C8 8637   3.644   0.482  15.736  0.5550  0.4335  0.8189
  582TMC3    O1 8638   3.876   0.304  15.346 -0.0282  0.0253 -0.3768
  582TMC3    O2 8639   3.596   0.562  15.812  0.8984 -0.2068  0.0507
  583MPD2     C 8640   3.118   1.639  16.577  0.2943 -0.6995  0.0856
  583MPD2    C1 8641   3.135   1.762  16.523  0.2734 -0.1072  0.4006
  583MPD2    C2 8642   3.080   1.873  16.589  0.0254  0.2211  0.1069
  583MPD2    C3 8643   3.007   1.862  16.708 -0.4390  0.3082 -0.5324
  583MPD2    C4 8644   2.989   1.737  16.762  0.4689  0.0807  1.1053
  583MPD2    C5 8645   3.037   1.626  16.691  0.1352  0.0271 -0.0669
  583MPD2     H 8646   3.099   1.976  16.563  0.6558  0.6095  2.0801
  583MPD2    H1 8647   2.943   1.723  16.859 -2.0283  1.5642  0.1224
  583MPD2    H2 8648   3.160   1.547  16.540  1.1291 -0.4764  0.4879
  583MPD2    H3 8649   3.028   1.526  16.730  0.4113 -0.4979 -1.3594
  583MPD2     N 8650   2.953   1.978  16.771  0.2774  0.7077  0.3722
  583MPD2    H5 8651   2.954   2.059  16.710  0.6493  0.2902 -0.1746
  583MPD2    N1 8652   3.211   1.793  16.410  0.8618 -0.2845 -0.4386
  583MPD2    H7 8653   3.195   1.883  16.367  0.5556 -0.6745 -1.1432
  584TMC3    C1 8654   2.841   2.122  16.935 -0.8535  0.5741 -0.2266
  584TMC3    C2 8655   2.781   2.196  16.836  0.3213 -0.0345 -0.4269
  584TMC3    C3 8656   2.701   2.300  16.882 -0.4209 -1.2914 -0.1296
  584TMC3    C4 8657   2.827   2.149  17.066 -0.3924  0.0317  0.7069
  584TMC3    C5 8658   2.738   2.253  17.103  0.5156 -0.0891 -0.4765
  584TMC3    C6 8659   2.671   2.328  17.011 -0.5645 -0.0507 -0.0799
  584TMC3     C 8660   2.900   1.989  16.901  0.4016 -0.2079 -0.2793
  584TMC3     O 8661   2.899   1.901  16.985 -0.6043  0.4790 -0.2023
  584TMC3     H 8662   2.805   2.188  16.731  0.0905 -1.8757 -0.3354
  584TMC3    H1 8663   2.856   2.072  17.136 -1.4702  0.5058  1.6636
  584TMC3    H2 8664   2.583   2.385  17.041 -1.3612 -1.6504  0.5934
  584TMC3    C7 8665   2.715   2.263  17.249  0.8084 -0.3041 -0.2953
  584TMC3    C8 8666   2.680   2.422  16.800  0.5421 -0.4495 -0.0515
  584TMC3    O1 8667   2.755   2.170  17.318  0.3425 -0.3875 -0.8239
  584TMC3    O2 8668   2.653   2.406  16.683  0.1614  0.5779 -0.2154
  585MPD2     C 8669   1.520   1.204   0.886  0.6889  0.0641 -0.3316
  585MPD2    C1 8670   1.598   1.215   0.774  0.1405  0.2175 -0.7007
  585MPD2    C2 8671   1.608   1.101   0.686  0.0020 -0.6896 -0.3880
  585MPD2    C3 8672   1.530   0.983   0.713 -0.4827 -0.5931 -0.3584
  585MPD2    C4 8673   1.447   0.981   0.820  0.4135  0.2814  0.2335
  585MPD2    C5 8674   1.444   1.091   0.899  0.5047 -0.2564  0.7114
  585MPD2     H 8675   1.679   1.090   0.604 -0.4173 -0.3970 -0.7910
  585MPD2    H1 8676   1.380   0.904   0.858 -0.1280  0.7116  0.1520
  585MPD2    H2 8677   1.510   1.274   0.968  1.0230 -0.0241 -0.2146
  585MPD2    H3 8678   1.391   1.080   0.993  1.0494 -0.2214  1.0216
  585MPD2     N 8679   1.531   0.870   0.628  0.3905 -0.4903 -0.4124
  585MPD2    H5 8680   1.451   0.808   0.633  1.6920 -1.9421  2.0884
  585MPD2    N1 8681   1.661   1.338   0.753 -0.1509 -0.5088  0.1985
  585MPD2    H7 8682   1.657   1.415   0.819  0.4229  0.7473 -1.2193
  586TMC3    C1 8683   1.565   0.743   0.447 -0.2427  0.3443 -0.7823
  586TMC3    C2 8684   1.605   0.772   0.317  0.0276 -0.3158 -0.2673
  586TMC3    C3 8685   1.549   0.693   0.224 -0.4208  0.1103 -0.2500
  586TMC3    C4 8686   1.487   0.640   0.485 -0.5550 -0.6904 -0.1827
  586TMC3    C5 8687   1.452   0.550   0.387 -1.5699  0.1992  0.5289
  586TMC3    C6 8688   1.479   0.582   0.260  0.5996 -0.4202  0.1834
  586TMC3     C 8689   1.627   0.835   0.539  0.0483 -0.1347  0.3937
  586TMC3     O 8690   1.733   0.893   0.508  0.8184 -0.3954  0.2662
  586TMC3     H 8691   1.666   0.860   0.299  0.2841 -0.4953 -0.2781
  586TMC3    H1 8692   1.451   0.625   0.587 -1.1291 -2.0099 -0.5745
  586TMC3    H2 8693   1.448   0.510   0.186  1.3856 -0.1991 -0.3628
  586TMC3    C7 8694   1.470   0.409   0.422  0.3362  0.3620 -0.2443
  586TMC3    C8 8695   1.636   0.667   0.109 -0.0931  0.1221 -0.3872
  586TMC3    O1 8696   1.456   0.327   0.331 -0.1596  0.3093 -0.6017
  586TMC3    O2 8697   1.613   0.569   0.044  0.1728  0.0393 -0.1405
  587TMC3    C1 8698   4.323   3.708  17.256 -0.1587  0.3691  0.0484
  587TMC3    C2 8699   4.350   3.829  17.203 -0.2817 -0.7421  0.1314
  587TMC3    C3 8700   4.485   3.842  17.173  0.5373  0.3933 -0.7778
  587TMC3    C4 8701   4.412   3.616  17.304  0.0141 -0.0216  0.5227
  587TMC3    C5 8702   4.542   3.644  17.280  0.2358 -0.1994  0.6398
  587TMC3    C6 8703   4.585   3.752  17.208  0.4529  0.2037  0.2044
  587TMC3     C 8704   4.186   3.688  17.292 -0.0598  0.3000  0.1113
  587TMC3     O 8705   4.161   3.598  17.369  0.1650 -0.1425  0.7728
  587TMC3     H 8706   4.286   3.915  17.217  0.2939 -0.4169  0.7092
  587TMC3    H1 8707   4.377   3.521  17.342 -0.3852  0.3874  1.1652
  587TMC3    H2 8708   4.689   3.759  17.179 -0.3351 -3.0350 -3.3665
  587TMC3    C7 8709   4.619   3.567  17.373 -0.1818  0.2688  0.1531
  587TMC3    C8 8710   4.528   3.967  17.116  0.3782 -0.0749 -0.0846
  587TMC3    O1 8711   4.563   3.490  17.444 -0.3979  0.5520 -0.9739
  587TMC3    O2 8712   4.647   3.988  17.115 -0.0870  0.4966  0.0519
  588TMC3    C1 8713   2.790   1.763   9.686 -0.3184  0.1303 -0.8574
  588TMC3    C2 8714   2.825   1.644   9.625  0.0243 -0.2362 -0.0527
  588TMC3    C3 8715   2.925   1.566   9.679 -0.5509 -0.3697 -0.0088
  588TMC3    C4 8716   2.871   1.805   9.781 -0.6230  0.4367  0.8462
  588TMC3    C5 8717   2.963   1.726   9.850 -0.0052 -0.3017 -0.0805
  588TMC3    C6 8718   2.986   1.605   9.796  1.0682  0.4540  0.2971
  588TMC3     C 8719   2.708   1.852   9.613 -0.3337  0.6661 -0.2988
  588TMC3     O 8720   2.728   1.862   9.491 -0.2806 -0.3078 -0.2211
  588TMC3     H 8721   2.764   1.608   9.542 -0.0775  0.1604 -0.1494
  588TMC3    H1 8722   2.859   1.905   9.822 -1.1897  0.4658  0.6040
  588TMC3    H2 8723   3.060   1.542   9.843  0.6352 -0.8482 -0.7629
  588TMC3    C7 8724   3.035   1.778   9.960 -0.5988 -0.1045 -0.2926
  588TMC3    C8 8725   2.924   1.422   9.629 -0.4982 -0.4904  0.3389
  588TMC3    O1 8726   3.100   1.706  10.037 -0.3768 -0.0700 -0.3131
  588TMC3    O2 8727   2.850   1.394   9.533 -0.4915  0.1705  0.2876
  589TMC3    C1 8728   0.446   0.437   1.727 -0.3782 -0.3243  0.2488
  589TMC3    C2 8729   0.532   0.460   1.826  0.2771 -0.1978  0.2847
  589TMC3    C3 8730   0.663   0.433   1.807  0.8572 -0.4100  0.5532
  589TMC3    C4 8731   0.481   0.378   1.604  0.6711  0.3421  0.2425
  589TMC3    C5 8732   0.616   0.351   1.588  0.1897 -0.4475 -0.9533
  589TMC3    C6 8733   0.702   0.374   1.688 -0.2572 -0.6171  0.1559
  589TMC3     C 8734   0.304   0.443   1.750  0.0827 -0.0100 -0.3134
  589TMC3     O 8735   0.231   0.383   1.676  0.0422 -0.2753 -0.0447
  589TMC3     H 8736   0.499   0.490   1.925 -0.7795  0.2583 -0.2012
  589TMC3    H1 8737   0.406   0.361   1.528  1.1467  0.7012 -0.3077
  589TMC3    H2 8738   0.805   0.345   1.669 -0.7637 -1.3537 -1.4780
  589TMC3    C7 8739   0.666   0.263   1.477  0.1158  0.0242  0.6732
  589TMC3    C8 8740   0.757   0.488   1.910 -0.4573  0.0508  0.8181
  589TMC3    O1 8741   0.770   0.195   1.495 -0.3523  0.3114  0.1740
  589TMC3    O2 8742   0.714   0.564   1.998  0.4937  0.3878  0.0768
  590MPD2     C 8743   0.705   2.859  16.577  0.1002  0.0701  0.0198
  590MPD2    C1 8744   0.623   2.923  16.485 -0.0681 -0.7280  0.2464
  590MPD2    C2 8745   0.686   2.980  16.376  0.3329  0.7447 -0.6330
  590MPD2    C3 8746   0.820   2.953  16.343 -0.4622  0.0608  0.2927
  590MPD2    C4 8747   0.893   2.889  16.441 -1.0317  0.2595  0.4774
  590MPD2    C5 8748   0.838   2.853  16.559 -0.7730 -0.3975 -0.3463
  590MPD2     H 8749   0.623   3.040  16.311 -0.0911 -0.4730 -1.3361
  590MPD2    H1 8750   1.000   2.876  16.426 -1.7485 -0.5166 -3.9357
  590MPD2    H2 8751   0.659   2.814  16.665  0.3835  2.1239  1.2315
  590MPD2    H3 8752   0.896   2.800  16.634 -0.2619  1.8092  0.8011
  590MPD2     N 8753   0.881   3.014  16.229  0.2925  0.5486  0.1601
  590MPD2    H5 8754   0.813   3.066  16.173  0.8639 -0.0647 -1.0977
  590MPD2    N1 8755   0.485   2.959  16.509  0.4671 -0.0737 -0.4828
  590MPD2    H7 8756   0.434   2.998  16.430  0.8663  0.8556 -0.2815
  591TMC3    C1 8757   1.034   3.097  16.084  0.0956  0.0645  0.1855
  591TMC3    C2 8758   1.153   3.071  16.015 -0.2641  0.2141  0.1281
  591TMC3    C3 8759   1.189   3.187  15.940 -0.0405 -0.5165  0.0129
  591TMC3    C4 8760   0.966   3.216  16.086 -0.5931 -0.6268  0.3112
  591TMC3    C5 8761   1.018   3.324  16.021  0.3365  0.0743 -0.4989
  591TMC3    C6 8762   1.131   3.314  15.943 -0.4071 -0.1573 -0.2386
  591TMC3     C 8763   1.002   2.997  16.178  0.5710 -0.1439 -0.7702
  591TMC3     O 8764   1.102   2.937  16.222 -0.2701  0.2086 -0.2372
  591TMC3     H 8765   1.194   2.971  16.018  0.2388  0.4550  1.3985
  591TMC3    H1 8766   0.883   3.235  16.154 -0.4379 -0.3251  0.4141
  591TMC3    H2 8767   1.162   3.395  15.879 -0.2522 -0.3630 -0.4250
  591TMC3    C7 8768   0.926   3.441  16.008  0.5154 -0.6152 -0.1022
  591TMC3    C8 8769   1.269   3.147  15.826  0.3274 -0.5208 -0.0488
  591TMC3    O1 8770   0.810   3.428  16.033 -0.2843  0.1625 -0.2971
  591TMC3    O2 8771   1.320   3.035  15.824 -0.1742  0.3414 -0.0202
  592MPD2     C 8772   1.694   4.084  11.368  0.0657  0.1505  0.7258
  592MPD2    C1 8773   1.675   4.168  11.478 -0.0039 -0.2564  0.6388
  592MPD2    C2 8774   1.561   4.131  11.558  0.5213  0.5636  0.1094
  592MPD2    C3 8775   1.480   4.024  11.519 -0.2115 -0.1089  0.0175
  592MPD2    C4 8776   1.508   3.942  11.411  0.5890  0.3010 -0.6608
  592MPD2    C5 8777   1.614   3.978  11.341  0.9851  0.3968 -0.0306
  592MPD2     H 8778   1.531   4.194  11.642 -0.4445  0.5280 -0.2199
  592MPD2    H1 8779   1.451   3.857  11.377 -0.1556 -0.5612  2.7798
  592MPD2    H2 8780   1.775   4.102  11.299  0.3553 -0.8530  0.7971
  592MPD2    H3 8781   1.632   3.923  11.249  0.6074 -0.5931  0.4888
  592MPD2     N 8782   1.369   4.010  11.601  0.0102 -0.9062  0.3089
  592MPD2    H5 8783   1.357   4.075  11.677  1.9179 -0.1534 -0.0379
  592MPD2    N1 8784   1.759   4.280  11.498 -0.1471  0.4284  0.1018
  592MPD2    H7 8785   1.827   4.297  11.425 -1.5035 -1.5960 -1.6244
  593TMC3    C1 8786   1.854   4.462  11.601 -1.3809 -0.0911  0.8465
  593TMC3    C2 8787   1.835   4.567  11.690  0.4057  0.2310  0.2627
  593TMC3    C3 8788   1.915   4.677  11.674 -0.2988  0.0083  0.3471
  593TMC3    C4 8789   1.944   4.475  11.494  0.3074  0.4337  0.0829
  593TMC3    C5 8790   2.015   4.594  11.486 -0.6238 -0.0545  0.0176
  593TMC3    C6 8791   1.997   4.694  11.569  0.6048 -0.1779 -0.6534
  593TMC3     C 8792   1.762   4.355  11.612 -0.7492 -0.2555 -0.3257
  593TMC3     O 8793   1.704   4.344  11.721  0.4289  0.4362 -0.1010
  593TMC3     H 8794   1.766   4.558  11.773 -2.1877  3.2738 -1.5384
  593TMC3    H1 8795   1.977   4.385  11.442 -1.6845 -0.3500  0.1806
  593TMC3    H2 8796   2.055   0.062  11.555  2.7145 -1.4870 -0.4535
  593TMC3    C7 8797   2.097   4.617  11.371  0.6817 -0.4617 -0.5253
  593TMC3    C8 8798   1.874   0.071  11.746 -0.3090 -0.2787  0.2192
  593TMC3    O1 8799   2.157   0.002  11.377 -0.0306 -0.4472 -1.0208
  593TMC3    O2 8800   1.766   0.077  11.803 -0.1463  0.3767 -0.6911
  594MPD2     C 8801   0.686   3.891  14.772 -0.0928 -0.1015  0.2042
  594MPD2    C1 8802   0.632   3.937  14.660  0.5136 -0.0863  0.0492
  594MPD2    C2 8803   0.700   4.030  14.585  0.6850 -0.1729  0.3605
  594MPD2    C3 8804   0.829   4.068  14.608 -0.5461 -0.1907 -0.1046
  594MPD2    C4 8805   0.881   4.022  14.730  0.5483 -0.2071  0.6649
  594MPD2    C5 8806   0.811   3.937  14.807 -0.9643 -0.4046 -0.0509
  594MPD2     H 8807   0.655   4.063  14.492 -1.2425 -0.6992  1.1054
  594MPD2    H1 8808   0.980   4.046  14.767  1.3432  1.0908 -2.3553
  594MPD2    H2 8809   0.638   3.810  14.826  1.4292 -1.2608 -0.1910
  594MPD2    H3 8810   0.855   3.897  14.898 -1.9753  0.7732  0.9456
  594MPD2     N 8811   0.899   4.157  14.521 -0.5396 -0.2927 -0.3815
  594MPD2    H5 8812   0.854   4.191  14.436  1.4901  2.1399 -0.5139
  594MPD2    N1 8813   0.504   3.884  14.634  0.1377 -0.0057  0.0324
  594MPD2    H7 8814   0.460   3.812  14.691  0.5624  0.7320  1.2962
  595TMC3    C1 8815   1.177   4.548  14.462  0.1156 -0.6645 -0.7853
  595TMC3    C2 8816   1.167   4.416  14.502  0.4163 -0.5507 -0.3893
  595TMC3    C3 8817   1.045   4.347  14.478 -0.1909  0.5806 -0.0943
  595TMC3    C4 8818   1.063   4.619  14.425  0.7594  0.0224  0.6370
  595TMC3    C5 8819   0.942   4.548  14.421 -0.9330  0.1762  0.2938
  595TMC3    C6 8820   0.928   4.412  14.445  0.1740 -0.1922 -0.3879
  595TMC3     C 8821   1.261   4.628  14.543 -0.5890  0.3289 -0.0297
  595TMC3     O 8822   1.206   4.701  14.623 -1.0204 -0.4539  0.9556
  595TMC3     H 8823   1.252   4.367  14.548  1.6437  2.9816  1.1516
  595TMC3    H1 8824   1.071   0.005  14.417 -0.7554  0.2186  1.8959
  595TMC3    H2 8825   0.831   4.365  14.446 -1.0753  2.4297  0.5961
  595TMC3    C7 8826   0.813   4.617  14.431 -0.0609  0.6191  0.1945
  595TMC3    C8 8827   1.023   4.219  14.555  0.1797 -0.1247  0.4251
  595TMC3    O1 8828   0.710   4.550  14.449 -0.8918  0.0045 -0.2600
  595TMC3    O2 8829   1.116   4.164  14.616  0.1375 -0.6367  0.5741
  596MPD2     C 8830   3.930   1.983  16.633 -0.0254 -0.2231  0.5868
  596MPD2    C1 8831   3.877   2.071  16.548  1.0398  0.6798  0.5993
  596MPD2    C2 8832   3.910   2.060  16.415 -0.0340  0.1205  0.0213
  596MPD2    C3 8833   3.983   1.955  16.364  0.7026 -0.5435 -0.5474
  596MPD2    C4 8834   4.025   1.866  16.458 -0.6302  0.3753 -0.0787
  596MPD2    C5 8835   4.006   1.882  16.590 -0.6401 -0.1062  0.5581
  596MPD2     H 8836   3.856   2.128  16.349 -0.8252  0.7343  1.2959
  596MPD2    H1 8837   4.081   1.778  16.432 -1.5509 -0.1759 -0.2048
  596MPD2    H2 8838   3.936   2.008  16.738 -2.0035 -2.6343  1.2603
  596MPD2    H3 8839   4.050   1.815  16.663 -0.4633 -0.3163  0.2555
  596MPD2     N 8840   4.004   1.932  16.222 -0.5424 -0.6466 -0.5391
  596MPD2    H5 8841   4.036   1.840  16.195  0.5270  0.0437 -1.6251
  596MPD2    N1 8842   3.817   2.184  16.591 -0.4480  0.6496  0.1430
  596MPD2    H7 8843   3.800   2.258  16.523  0.5621  0.8495  0.1019
  597TMC3    C1 8844   3.674   2.317  16.729  0.0921 -0.9461 -0.4720
  597TMC3    C2 8845   3.711   2.427  16.653  0.2582 -0.3923 -0.2853
  597TMC3    C3 8846   3.663   2.545  16.693 -0.7025 -0.2795  1.0994
  597TMC3    C4 8847   3.581   2.320  16.828 -0.2941  0.1366  0.1588
  597TMC3    C5 8848   3.527   2.441  16.859 -0.2955 -0.1847 -0.1430
  597TMC3    C6 8849   3.569   2.552  16.791  0.1270  0.5140 -0.0382
  597TMC3     C 8850   3.741   2.191  16.708 -0.6382  0.3481  0.0026
  597TMC3     O 8851   3.720   2.090  16.778  0.0666  0.0281  0.2697
  597TMC3     H 8852   3.793   2.429  16.581  0.6321  0.4819  0.1674
  597TMC3    H1 8853   3.542   2.228  16.870 -1.0840  0.9680  1.2619
  597TMC3    H2 8854   3.541   2.651  16.825  0.3165  0.5423  0.0363
  597TMC3    C7 8855   3.416   2.442  16.948 -0.4007  0.0534  0.1076
  597TMC3    C8 8856   3.727   2.671  16.649  0.3845 -0.6240 -0.2597
  597TMC3    O1 8857   3.403   2.340  17.017 -0.1019 -0.4463  0.0400
  597TMC3    O2 8858   3.745   2.750  16.737 -0.0654 -0.6585 -0.7517
  598TMC3    C1 8859   2.017   4.314  15.722  0.0073  0.8544 -0.4957
  598TMC3    C2 8860   2.051   4.238  15.834  0.5447  0.0816 -0.6293
  598TMC3    C3 8861   2.090   4.113  15.783 -0.1896  0.5712 -0.1101
  598TMC3    C4 8862   1.998   4.274  15.595 -0.2639 -0.4765 -0.3545
  598TMC3    C5 8863   1.999   4.135  15.569  1.0833  0.1580 -0.0638
  598TMC3    C6 8864   2.065   4.057  15.666 -0.1987  0.1923  0.4159
  598TMC3     C 8865   2.005   4.453  15.754 -0.4032  0.6053 -0.0240
  598TMC3     O 8866   2.001   4.495  15.870  0.2505  1.0397 -0.5777
  598TMC3     H 8867   2.068   4.266  15.937 -0.8642 -2.1784  0.2033
  598TMC3    H1 8868   1.972   4.337  15.511 -0.3284  0.9800  0.7710
  598TMC3    H2 8869   2.093   3.954  15.650  2.2315  1.1947 -1.7735
  598TMC3    C7 8870   2.013   4.074  15.435 -0.3401 -0.2585  0.2029
  598TMC3    C8 8871   2.184   4.049  15.873  0.0908  0.6391 -0.2336
  598TMC3    O1 8872   1.979   3.958  15.415 -0.2989 -0.0858  0.0232
  598TMC3    O2 8873   2.184   4.086  15.988  0.1362  0.1931  0.4019
  599MPD2     C 8874   2.873   0.928  16.254  1.0564 -0.1205  0.4345
  599MPD2    C1 8875   2.806   0.858  16.157 -0.9469  1.1789  0.4112
  599MPD2    C2 8876   2.684   0.907  16.122  0.3717  0.2019 -0.2471
  599MPD2    C3 8877   2.627   1.024  16.178 -0.3569 -0.3534  0.1268
  599MPD2    C4 8878   2.697   1.085  16.273 -1.0946  0.1965 -0.7043
  599MPD2    C5 8879   2.823   1.043  16.303 -0.0694  0.1921 -0.0152
  599MPD2     H 8880   2.633   0.850  16.045 -1.7213  0.4793  0.9430
  599MPD2    H1 8881   2.664   1.176  16.321  1.3843  1.1844 -0.8779
  599MPD2    H2 8882   2.972   0.896  16.285  1.5186  1.6015  0.7558
  599MPD2    H3 8883   2.882   1.109  16.367 -2.2612  1.4008  0.7460
  599MPD2     N 8884   2.494   1.067  16.159 -0.5159  0.5052  0.1395
  599MPD2    H5 8885   2.457   1.141  16.218 -0.0381 -0.5711  1.7739
  599MPD2    N1 8886   2.866   0.737  16.103  0.4489 -0.2774 -0.3426
  599MPD2    H7 8887   2.953   0.704  16.141 -0.4829 -1.2626  0.9385
  600TMC3    C1 8888   2.270   1.074  16.069 -0.0617 -0.0207 -0.5857
  600TMC3    C2 8889   2.179   0.965  16.051 -0.2683 -0.5227  0.4526
  600TMC3    C3 8890   2.046   0.982  16.093 -0.6097 -0.6650 -0.4291
  600TMC3    C4 8891   2.233   1.178  16.142  0.3744  0.0055  0.4791
  600TMC3    C5 8892   2.104   1.186  16.176  0.0479  0.2096  0.1917
  600TMC3    C6 8893   2.014   1.090  16.161 -0.5925  0.2951  0.0004
  600TMC3     C 8894   2.405   1.021  16.061  0.3171 -0.1798 -0.1467
  600TMC3     O 8895   2.428   0.937  15.974  0.5727  0.7330 -0.5873
  600TMC3     H 8896   2.205   0.871  16.004  3.2452  0.8929 -0.4706
  600TMC3    H1 8897   2.314   1.245  16.171  0.8161 -0.0439 -0.6313
  600TMC3    H2 8898   1.920   1.092  16.214 -1.7187 -0.1329 -1.9987
  600TMC3    C7 8899   2.070   1.285  16.284 -0.1693 -0.4960 -0.2797
  600TMC3    C8 8900   1.965   0.861  16.089  0.4152  0.2980 -0.1220
  600TMC3    O1 8901   1.998   1.241  16.375  0.7438  0.1806  0.2511
  600TMC3    O2 8902   2.021   0.759  16.065  0.1769 -0.9622 -0.1111
  601MPD2     C 8903   2.610   3.044  17.673  0.6585  0.2232  0.7514
  601MPD2    C1 8904   2.707   3.129  17.631  1.4143  0.4211 -0.3444
  601MPD2    C2 8905   2.812   3.082  17.548 -0.4410 -0.2019  0.2755
  601MPD2    C3 8906   2.817   2.945  17.515 -0.1398  0.1227  0.0538
  601MPD2    C4 8907   2.724   2.864  17.569 -0.9209  0.0007  0.1374
  601MPD2    C5 8908   2.622   2.911  17.647 -0.2457 -0.2925 -0.3191
  601MPD2     H 8909   2.888   3.156  17.526 -0.4643 -0.0448  0.7300
  601MPD2    H1 8910   2.731   2.756  17.556  0.1580  0.2867 -1.5949
  601MPD2    H2 8911   2.519   3.077   0.030  0.4524  0.6376  0.0751
  601MPD2    H3 8912   2.556   2.832  17.681 -1.0089  0.7810  0.6800
  601MPD2     N 8913   2.920   2.891  17.438  0.2883  0.5930 -0.5755
  601MPD2    H5 8914   2.934   2.790  17.439 -0.3113  0.5062 -0.9511
  601MPD2    N1 8915   2.720   3.261  17.669  0.3472 -0.8194 -0.0579
  601MPD2    H7 8916   2.812   3.299  17.650 -0.4207  0.8266 -0.5257
  602TMC3    C1 8917   2.719   3.438   0.117 -0.4697  0.3200  0.0601
  602TMC3    C2 8918   2.856   3.429   0.097  0.2205  0.1218 -0.1236
  602TMC3    C3 8919   2.924   3.541   0.074 -0.2703 -0.0233  0.7044
  602TMC3    C4 8920   2.652   3.557   0.135 -0.1123  0.7230 -1.2549
  602TMC3    C5 8921   2.728   3.667   0.118 -0.0427  0.7640 -0.2010
  602TMC3    C6 8922   2.862   3.663   0.083 -0.0948  0.2037 -0.0591
  602TMC3     C 8923   2.638   3.334   0.057 -0.5040 -0.3535  0.2441
  602TMC3     O 8924   2.525   3.319   0.099  0.3754  0.1927  0.6098
  602TMC3     H 8925   2.906   3.333   0.107 -0.7511 -0.5845 -2.0576
  602TMC3    H1 8926   2.544   3.553   0.145 -0.1091  1.7872 -0.7908
  602TMC3    H2 8927   2.904   3.751   0.036  0.1837 -0.2258 -0.6282
  602TMC3    C7 8928   2.649   3.790   0.087  0.0156 -0.2648  0.0201
  602TMC3    C8 8929   3.048   3.525   0.006  0.5350 -0.5887 -0.0942
  602TMC3    O1 8930   2.535   3.771   0.054 -0.4221  0.5227 -0.1771
  602TMC3    O2 8931   3.075   3.414  17.646 -0.0856  0.5884  0.0328
  603TMC3    C1 8932   2.523   3.704  10.684 -0.1868  0.1909  0.3145
  603TMC3    C2 8933   2.580   3.717  10.808 -0.3752  0.9639 -0.6391
  603TMC3    C3 8934   2.682   3.808  10.830  0.3604  0.7703  0.8734
  603TMC3    C4 8935   2.563   3.783  10.585 -0.9188 -0.6289  0.6832
  603TMC3    C5 8936   2.660   3.880  10.608 -0.7343  0.4327 -0.3431
  603TMC3    C6 8937   2.709   3.906  10.737  0.2544 -0.1612  0.0781
  603TMC3     C 8938   2.395   3.635  10.674  0.2354 -0.1228 -0.6777
  603TMC3     O 8939   2.333   3.660  10.777  0.0892 -0.2545  0.2604
  603TMC3     H 8940   2.540   3.646  10.879  0.2296  0.7563 -0.5014
  603TMC3    H1 8941   2.501   3.788  10.497 -0.4724  1.9613  0.5011
  603TMC3    H2 8942   2.800   3.964  10.744  0.4785 -0.2338 -2.2815
  603TMC3    C7 8943   2.697   3.969  10.501  0.5081  0.1032  0.1027
  603TMC3    C8 8944   2.713   3.835  10.971  0.0619 -0.3124  0.7680
  603TMC3    O1 8945   2.755   4.070  10.536  0.1895  0.1306  0.2565
  603TMC3    O2 8946   2.697   3.740  11.049  0.2332 -0.2563 -0.7167
  604MPD2     C 8947   2.814   3.167  16.377 -0.2764  0.8036  0.1953
  604MPD2    C1 8948   2.682   3.131  16.345 -0.5685  0.0296 -0.5374
  604MPD2    C2 8949   2.661   3.076  16.220 -0.1174 -0.3840 -0.2535
  604MPD2    C3 8950   2.754   3.087  16.122  0.0220  0.8291  0.1470
  604MPD2    C4 8951   2.882   3.145  16.148 -0.1836  0.2565 -0.0517
  604MPD2    C5 8952   2.904   3.181  16.276 -0.8683  0.2032  0.2199
  604MPD2     H 8953   2.562   3.032  16.211 -0.7814  1.1541 -0.4889
  604MPD2    H1 8954   2.951   3.147  16.065  0.1555  1.7220  0.2712
  604MPD2    H2 8955   2.851   3.200  16.474 -2.0292 -0.1804  1.2059
  604MPD2    H3 8956   2.996   3.233  16.298 -1.4753  1.9586 -1.3807
  604MPD2     N 8957   2.711   3.032  16.000  0.9135  0.5892 -0.3819
  604MPD2    H5 8958   2.619   2.989  16.007 -0.1148  3.0932  1.2602
  604MPD2    N1 8959   2.581   3.148  16.445 -0.9789  0.4374 -0.6065
  604MPD2    H7 8960   2.607   3.181  16.537  0.8657  0.3494 -1.0958
  605TMC3    C1 8961   2.355   3.169  16.525 -0.7140 -0.5160  0.1232
  605TMC3    C2 8962   2.418   3.182  16.647  1.3195 -0.6851 -0.2150
  605TMC3    C3 8963   2.389   3.294  16.724 -0.1497  0.1328  0.3258
  605TMC3    C4 8964   2.249   3.250  16.488 -0.1935  0.0602  0.5062
  605TMC3    C5 8965   2.220   3.361  16.561 -0.0352  0.4622  0.5064
  605TMC3    C6 8966   2.292   3.375  16.678  0.3300 -0.2294  0.7059
  605TMC3     C 8967   2.446   3.140  16.414 -0.6059  0.7473 -0.3534
  605TMC3     O 8968   2.393   3.124  16.306  0.1618 -0.1754  0.7425
  605TMC3     H 8969   2.507   3.124  16.670  1.3921 -0.5233 -0.0886
  605TMC3    H1 8970   2.206   3.225  16.391 -1.4639  0.2626  1.0085
  605TMC3    H2 8971   2.269   3.464  16.735  1.0376  1.1791 -1.2449
  605TMC3    C7 8972   2.120   3.455  16.518  0.9203  0.5287 -0.2530
  605TMC3    C8 8973   2.513   3.367  16.759 -0.3487 -0.3487 -0.1528
  605TMC3    O1 8974   2.088   3.547  16.588  0.0261 -0.4492 -0.2586
  605TMC3    O2 8975   2.607   3.341  16.684  0.5518  0.0732 -0.1058
  606TMC3    C1 8976   4.218   1.530  16.668  0.6254  0.1852 -0.4000
  606TMC3    C2 8977   4.245   1.565  16.800  0.0578 -0.4673 -0.5040
  606TMC3    C3 8978   4.197   1.493  16.906  0.3039  0.9657 -0.4615
  606TMC3    C4 8979   4.150   1.413  16.638 -0.2031  0.0536  0.1081
  606TMC3    C5 8980   4.130   1.332  16.748  0.2040  0.4866 -0.2366
  606TMC3    C6 8981   4.152   1.372  16.877 -0.6325  0.0224  0.1081
  606TMC3     C 8982   4.289   1.604  16.568 -0.3055 -0.8359 -0.5838
  606TMC3     O 8983   4.295   1.723  16.588  0.0219 -0.0355 -0.3363
  606TMC3     H 8984   4.296   1.656  16.829 -0.2877 -0.1638 -0.8412
  606TMC3    H1 8985   4.117   1.395  16.537  0.2776  1.4290 -0.2895
  606TMC3    H2 8986   4.131   1.306  16.961  0.2501  0.6622  0.8363
  606TMC3    C7 8987   4.085   1.197  16.724  0.3949 -0.1116  0.4362
  606TMC3    C8 8988   4.230   1.526  17.043  0.1804  0.1362  0.3617
  606TMC3    O1 8989   4.109   1.149  16.612 -0.2319  0.1693  0.3698
  606TMC3    O2 8990   4.320   1.610  17.061 -0.3101  0.0497 -0.1652
  607MPD2     C 8991   2.033   3.880  11.194  0.0363  0.0281 -0.4421
  607MPD2    C1 8992   2.063   3.985  11.286 -0.4745  0.0127 -0.4357
  607MPD2    C2 8993   2.014   3.972  11.417  0.3262 -0.2232  0.0040
  607MPD2    C3 8994   1.932   3.871  11.460 -0.3092  0.3257  1.1642
  607MPD2    C4 8995   1.899   3.778  11.371 -0.0690 -0.0805  0.3236
  607MPD2    C5 8996   1.944   3.789  11.243 -0.1106 -0.0776 -0.4799
  607MPD2     H 8997   2.050   4.048  11.486  1.4303  0.0067 -0.8368
  607MPD2    H1 8998   1.829   3.701  11.402 -0.3274  0.5090  1.1995
  607MPD2    H2 8999   2.060   3.887  11.089 -0.8940 -2.5016 -0.8639
  607MPD2    H3 9000   1.911   3.712  11.173 -2.5197 -1.2421  1.9143
  607MPD2     N 9001   1.890   3.888  11.592  0.1311 -0.3218  0.4334
  607MPD2    H5 9002   1.915   3.975  11.638  1.5752 -1.2390  1.3795
  607MPD2    N1 9003   2.170   4.076  11.260  0.0009  0.0057  0.0694
  607MPD2    H7 9004   2.216   4.127  11.336 -0.9148  0.2516  0.4581
  608TMC3    C1 9005   2.323   4.217  11.163 -0.5154  0.3303 -0.8065
  608TMC3    C2 9006   2.319   4.287  11.285 -0.7569  0.8959  0.4812
  608TMC3    C3 9007   2.426   4.372  11.315  0.1997 -0.1523  0.3701
  608TMC3    C4 9008   2.431   4.229  11.078 -0.1571 -0.3471  0.4338
  608TMC3    C5 9009   2.533   4.315  11.114 -0.2242  0.0672  0.7415
  608TMC3    C6 9010   2.538   4.380  11.237  0.2887  0.1195 -0.3155
  608TMC3     C 9011   2.234   4.105  11.143 -0.6240 -0.0709 -0.2126
  608TMC3     O 9012   2.225   4.049  11.036  0.5506 -0.2568 -0.2437
  608TMC3     H 9013   2.226   4.307  11.337 -1.7096 -0.6791 -0.6048
  608TMC3    H1 9014   2.431   4.182  10.980 -0.0930 -2.1065  1.2702
  608TMC3    H2 9015   2.623   4.441  11.264  0.0916  0.5629 -0.7060
  608TMC3    C7 9016   2.592   4.385  11.005  0.6005 -0.2580 -0.9321
  608TMC3    C8 9017   2.426   4.439  11.440 -0.3955  0.2727 -0.6262
  608TMC3    O1 9018   2.562   4.342  10.897 -0.1496  0.3845  0.0447
  608TMC3    O2 9019   2.473   4.551  11.449  0.3763 -0.4411 -0.3170
  609TMC3    C1 9020   0.963   2.243   8.912  0.3190 -0.5335  1.4329
  609TMC3    C2 9021   0.885   2.164   8.819 -0.2205  0.0836  0.1071
  609TMC3    C3 9022   0.958   2.060   8.761 -0.5422 -0.3760  0.2028
  609TMC3    C4 9023   1.094   2.225   8.933 -0.0391 -0.2824  0.2418
  609TMC3    C5 9024   1.150   2.107   8.892 -0.4335 -0.2487 -0.0447
  609TMC3    C6 9025   1.085   2.023   8.801  0.7477  0.4495 -0.2642
  609TMC3     C 9026   0.898   2.347   8.995  1.3796  0.0113  0.6188
  609TMC3     O 9027   0.975   2.427   9.043  0.0074  0.2888 -0.4418
  609TMC3     H 9028   0.776   2.167   8.812 -0.0927  1.1558 -1.3813
  609TMC3    H1 9029   1.157   2.287   8.995  0.4471  0.8096 -1.3500
  609TMC3    H2 9030   1.128   1.923   8.794  0.2751  0.0802  2.1090
  609TMC3    C7 9031   1.286   2.071   8.927 -0.5085 -0.8143 -0.5266
  609TMC3    C8 9032   0.891   1.952   8.688  0.6213  0.0470  0.2699
  609TMC3    O1 9033   1.341   2.003   8.842  0.1563 -0.1368  0.0507
  609TMC3    O2 9034   0.969   1.880   8.628  0.1818  0.0037 -0.0102
  610TMC3    C1 9035   2.419   4.407  12.149  0.0994 -0.0601  0.6854
  610TMC3    C2 9036   2.409   4.344  12.029 -0.7570 -0.3933 -0.1739
  610TMC3    C3 9037   2.393   4.207  12.027  0.2321 -0.3231  0.8032
  610TMC3    C4 9038   2.400   4.346  12.268 -0.0200 -0.4872 -0.0165
  610TMC3    C5 9039   2.374   4.215  12.264  0.1667  0.1088  0.3661
  610TMC3    C6 9040   2.374   4.139  12.143 -0.3340  0.5015  0.6381
  610TMC3     C 9041   2.495   4.536  12.162 -0.6529  0.0914 -0.6489
  610TMC3     O 9042   2.499   4.612  12.065 -0.4232 -0.0395 -0.5503
  610TMC3     H 9043   2.427   4.393  11.934 -2.0694 -1.5404 -1.0187
  610TMC3    H1 9044   2.400   4.405  12.359 -2.8390 -0.1635 -0.2376
  610TMC3    H2 9045   2.350   4.033  12.149  2.8470 -0.1784  1.4951
  610TMC3    C7 9046   2.354   4.141  12.390  0.3153 -0.9543  0.2189
  610TMC3    C8 9047   2.428   4.145  11.905  0.8314 -0.2026  0.1041
  610TMC3    O1 9048   2.368   4.020  12.383 -0.0179 -0.1209  0.5119
  610TMC3    O2 9049   2.525   4.199  11.850  0.2377  0.5883  0.0877
  611MPD2     C 9050   1.878   3.253   9.936 -0.0918 -0.1226  0.4034
  611MPD2    C1 9051   1.857   3.389   9.959  0.6625 -0.2662  0.3091
  611MPD2    C2 9052   1.936   3.492   9.900  0.1594  0.1075 -0.0503
  611MPD2    C3 9053   2.038   3.456   9.809  0.8063  0.2431  0.8798
  611MPD2    C4 9054   2.048   3.321   9.781  0.4971 -0.3250 -0.2357
  611MPD2    C5 9055   1.970   3.224   9.843 -0.3911 -0.4475 -0.0771
  611MPD2     H 9056   1.930   3.592   9.940  0.9683  0.2502 -0.2781
  611MPD2    H1 9057   2.125   3.295   9.709  0.4430 -1.1467 -0.0014
  611MPD2    H2 9058   1.827   3.176   9.992  0.2545  1.7650  3.3484
  611MPD2    H3 9059   1.993   3.121   9.820  1.0380 -0.0962 -0.1603
  611MPD2     N 9060   2.128   3.549   9.746 -0.2332  0.0942  0.6991
  611MPD2    H5 9061   2.199   3.503   9.690 -0.8865 -0.9356  0.7136
  611MPD2    N1 9062   1.762   3.418  10.060 -0.2393 -0.0593 -0.3398
  611MPD2    H7 9063   1.716   3.335  10.093 -1.7083  1.3472  1.1315
  612TMC3    C1 9064   2.279   3.731   9.716 -0.4573 -0.1333 -0.4229
  612TMC3    C2 9065   2.350   3.823   9.787  0.3892 -0.4176 -0.8027
  612TMC3    C3 9066   2.449   3.885   9.717 -0.1179 -0.8047 -0.2820
  612TMC3    C4 9067   2.299   3.702   9.588 -0.1602 -0.1988 -1.0231
  612TMC3    C5 9068   2.417   3.746   9.534 -0.1365  0.7320  0.4769
  612TMC3    C6 9069   2.485   3.848   9.588  0.0067  0.2214  0.8411
  612TMC3     C 9070   2.156   3.680   9.783  0.8386  0.0681  0.3618
  612TMC3     O 9071   2.099   3.751   9.862  0.5411  0.1887  0.0332
  612TMC3     H 9072   2.334   3.833   9.893  3.9731 -1.7304 -0.1170
  612TMC3    H1 9073   2.233   3.634   9.536  0.5874 -0.3739 -1.7439
  612TMC3    H2 9074   2.566   3.893   9.533 -1.6014  1.6165 -0.4100
  612TMC3    C7 9075   2.462   3.673   9.424 -0.1207  0.5327 -0.2445
  612TMC3    C8 9076   2.545   3.964   9.787 -0.2754  0.2974 -0.5659
  612TMC3    O1 9077   2.410   3.565   9.405  0.0049 -0.3940  0.1176
  612TMC3    O2 9078   2.631   4.017   9.717 -0.0542  0.6264  0.3379
  613MPD2     C 9079   0.808   2.067  16.359 -0.3708  0.2464  0.5310
  613MPD2    C1 9080   0.741   2.073  16.240 -0.1823  0.3863 -0.1581
  613MPD2    C2 9081   0.612   2.015  16.234 -0.7112 -0.4481 -0.2570
  613MPD2    C3 9082   0.551   1.958  16.344 -0.6583  0.1528 -0.5432
  613MPD2    C4 9083   0.621   1.961  16.461 -1.1989  0.6462 -0.8365
  613MPD2    C5 9084   0.750   2.013  16.469 -0.0164 -0.6471 -0.7543
  613MPD2     H 9085   0.572   2.006  16.133  0.4633  1.6575 -0.9075
  613MPD2    H1 9086   0.582   1.920  16.553 -0.2323  1.1173 -0.2251
  613MPD2    H2 9087   0.903   2.119  16.365 -0.2633 -0.1407  2.1985
  613MPD2    H3 9088   0.795   2.014  16.568  1.7113 -1.7579 -1.5528
  613MPD2     N 9089   0.430   1.880  16.336 -0.0113  0.0745 -0.1669
  613MPD2    H5 9090   0.407   1.828  16.420 -0.0092 -0.8774 -0.7498
  613MPD2    N1 9091   0.795   2.134  16.123 -0.6765 -0.2632 -0.1931
  613MPD2    H7 9092   0.893   2.111  16.131 -1.5001 -3.5374  0.7431
  614TMC3    C1 9093   0.801   2.126  15.887 -0.0884  0.5150  0.1671
  614TMC3    C2 9094   0.834   1.992  15.886 -0.5329 -0.1913 -0.1976
  614TMC3    C3 9095   0.826   1.918  15.772  0.1174  0.0949 -0.2670
  614TMC3    C4 9096   0.753   2.184  15.775  0.3508 -0.6277  0.6665
  614TMC3    C5 9097   0.748   2.115  15.660 -0.0029  0.4570  0.0201
  614TMC3    C6 9098   0.784   1.979  15.658 -0.1290 -0.4855  0.9163
  614TMC3     C 9099   0.729   2.162  16.004  0.1664  0.6793  0.0641
  614TMC3     O 9100   0.612   2.203  15.984 -0.0036 -0.1338  0.2470
  614TMC3     H 9101   0.865   1.942  15.977  0.6269 -0.7774 -0.9257
  614TMC3    H1 9102   0.725   2.288  15.778  1.1480 -0.3453 -1.5360
  614TMC3    H2 9103   0.784   1.927  15.563 -1.6013 -1.4964  1.4726
  614TMC3    C7 9104   0.750   2.192  15.544  0.0246  0.4883 -0.1774
  614TMC3    C8 9105   0.764   1.794  15.805 -0.6492 -0.0261  0.6051
  614TMC3    O1 9106   0.791   2.308  15.551 -0.3241 -0.2129  0.0872
  614TMC3    O2 9107   0.769   1.754  15.924 -0.1426  0.2674  0.0804
  615MPD2     C 9108   4.280   3.716  16.602 -0.8001 -0.5327 -0.0201
  615MPD2    C1 9109   4.284   3.799  16.496 -0.3602  0.3399  0.1289
  615MPD2    C2 9110   4.303   3.759  16.368  0.1986 -0.1402 -0.5766
  615MPD2    C3 9111   4.323   3.626  16.341 -0.6581 -0.7020 -0.1295
  615MPD2    C4 9112   4.324   3.544  16.455 -0.3041 -0.5095  0.3837
  615MPD2    C5 9113   4.300   3.586  16.584  0.3320  0.1880  0.3867
  615MPD2     H 9114   4.312   3.835  16.291 -0.1228  0.3968 -0.0874
  615MPD2    H1 9115   4.332   3.437  16.437  0.8602 -0.0257 -1.9093
  615MPD2    H2 9116   4.269   3.754  16.703 -2.5487 -0.1917 -0.3328
  615MPD2    H3 9117   4.314   3.516  16.665  0.3093  0.6417  0.7843
  615MPD2     N 9118   4.357   3.577  16.211  0.1763 -0.5510 -0.0183
  615MPD2    H5 9119   4.365   3.645  16.137  1.7575 -1.6141 -0.8164
  615MPD2    N1 9120   4.266   3.938  16.516 -0.3341  0.1728  0.3142
  615MPD2    H7 9121   4.243   3.991  16.433 -0.2078 -1.2411 -0.6214
  616TMC3    C1 9122   4.279   4.155  16.609  1.1844  0.2344  0.3121
  616TMC3    C2 9123   4.380   4.245  16.630 -0.1021 -0.2428  0.0866
  616TMC3    C3 9124   4.369   4.369  16.597  0.4870  0.1629  0.7266
  616TMC3    C4 9125   4.163   4.190  16.544 -0.4131 -0.0391 -0.5414
  616TMC3    C5 9126   4.151   4.321  16.494 -1.0355 -0.5750 -0.8009
  616TMC3    C6 9127   4.246   4.414  16.535  0.3106 -0.6054 -0.2700
  616TMC3     C 9128   4.287   4.013  16.630 -0.7279  0.1698  0.2114
  616TMC3     O 9129   4.352   3.977  16.730  0.2523 -0.1208 -0.0536
  616TMC3     H 9130   4.461   4.212  16.694  0.2311  0.3006 -0.0550
  616TMC3    H1 9131   4.092   4.110  16.525 -0.4313  0.3312 -2.0925
  616TMC3    H2 9132   4.241   4.513  16.492 -2.7824 -0.6353  0.0665
  616TMC3    C7 9133   4.041   4.366  16.418  0.0403  0.4041 -0.2665
  616TMC3    C8 9134   4.485   4.454  16.586 -0.5662 -0.6816  0.0716
  616TMC3    O1 9135   4.036   4.482  16.372 -0.5028  0.3480  0.3527
  616TMC3    O2 9136   4.483   4.571  16.552 -0.5947  0.0568  0.1890
  617MPD2     C 9137   2.806   1.549  13.642 -0.7606 -0.4538 -0.0514
  617MPD2    C1 9138   2.821   1.460  13.749  0.0243  0.0858  0.0117
  617MPD2    C2 9139   2.715   1.451  13.841  0.0081 -0.1646 -0.7857
  617MPD2    C3 9140   2.598   1.525  13.830  0.1224 -0.0509  0.0211
  617MPD2    C4 9141   2.587   1.609  13.720  0.0774 -0.3463 -0.8011
  617MPD2    C5 9142   2.694   1.631  13.640 -0.5192  0.0054  0.0583
  617MPD2     H 9143   2.729   1.377  13.919 -3.2445 -1.0145 -1.0205
  617MPD2    H1 9144   2.502   1.676  13.713  0.4752  0.1747 -0.5388
  617MPD2    H2 9145   2.878   1.556  13.562 -0.3975  0.5140  0.3697
  617MPD2    H3 9146   2.697   1.717  13.574 -1.5889 -1.1400 -1.4745
  617MPD2     N 9147   2.494   1.504  13.923 -0.0262  0.5058  0.4081
  617MPD2    H5 9148   2.403   1.540  13.896 -1.1301 -1.0247  1.9892
  617MPD2    N1 9149   2.940   1.382  13.753 -0.7142  0.3880 -1.1332
  617MPD2    H7 9150   3.018   1.413  13.696  0.0019  1.7804  0.6145
  618TMC3    C1 9151   3.075   1.196  13.789 -0.3195 -0.1263  0.1299
  618TMC3    C2 9152   3.058   1.069  13.732 -0.1585  0.0304 -0.5465
  618TMC3    C3 9153   3.161   1.028  13.648 -0.0104 -0.1184  0.2203
  618TMC3    C4 9154   3.175   1.285  13.752  0.2895 -0.0643  1.1135
  618TMC3    C5 9155   3.263   1.243  13.655 -0.8005 -0.3037 -0.2049
  618TMC3    C6 9156   3.269   1.111  13.623  0.2981  0.2936  0.0495
  618TMC3     C 9157   2.945   1.258  13.815  0.0971  0.0318  0.0632
  618TMC3     O 9158   2.853   1.190  13.859  0.7941  0.6936 -0.5495
  618TMC3     H 9159   2.979   1.000  13.759  0.1876  0.6470  2.0849
  618TMC3    H1 9160   3.164   1.389  13.782 -0.3587  1.2009 -3.5441
  618TMC3    H2 9161   3.349   1.070  13.561 -0.8963 -0.1637 -1.1943
  618TMC3    C7 9162   3.290   1.344  13.558  0.6120  0.2507 -0.9123
  618TMC3    C8 9163   3.174   0.885  13.631 -0.0116  0.4360  0.0013
  618TMC3    O1 9164   3.231   1.448  13.588 -0.4751  0.5732  0.2789
  618TMC3    O2 9165   3.077   0.810  13.657 -0.4457 -0.2341  0.2500
  619MPD2     C 9166   4.591   2.388  13.751 -0.8379  0.8997 -0.3739
  619MPD2    C1 9167   4.570   2.436  13.620  0.2949  0.3897  0.5559
  619MPD2    C2 9168   4.434   2.458  13.586 -0.0390  0.5876  0.0320
  619MPD2    C3 9169   4.325   2.434  13.671  0.6313  0.6687 -0.1720
  619MPD2    C4 9170   4.355   2.391  13.801 -0.0433 -0.2958  0.0652
  619MPD2    C5 9171   4.482   2.362  13.838  0.1969  0.4458  0.3337
  619MPD2     H 9172   4.400   2.484  13.486 -0.7655 -0.6774 -0.0563
  619MPD2    H1 9173   4.271   2.374  13.868  0.0122  0.5788  0.3601
  619MPD2    H2 9174   4.693   2.378  13.787 -0.3010 -0.3150 -2.2540
  619MPD2    H3 9175   4.498   2.333  13.941 -0.4535 -1.0030  0.0287
  619MPD2     N 9176   4.189   2.445  13.635 -0.7145 -0.1029 -0.4541
  619MPD2    H5 9177   4.128   2.395  13.698  1.6461 -1.6089  0.6057
  619MPD2    N1 9178   4.676   2.459  13.529  0.3286 -0.7533  0.0439
  619MPD2    H7 9179   4.653   2.491  13.436  2.5450 -0.9410 -0.5614
  620TMC3    C1 9180   0.160   2.484  13.428  0.0765  0.4097 -0.2889
  620TMC3    C2 9181   0.096   2.448  13.320 -0.0590 -0.3099 -0.4757
  620TMC3    C3 9182   0.103   2.520  13.201 -0.4156 -0.1755  0.2622
  620TMC3    C4 9183   0.238   2.591  13.437 -0.4039  0.2960 -0.6627
  620TMC3    C5 9184   0.253   2.658  13.319 -0.5620 -0.3700 -0.0910
  620TMC3    C6 9185   0.195   2.618  13.198 -0.6277  0.3793  0.0693
  620TMC3     C 9186   0.089   2.443  13.549  0.1789  0.1981  0.3996
  620TMC3     O 9187   0.147   2.412  13.648  0.3814 -0.2543  0.1984
  620TMC3     H 9188   0.030   2.362  13.322  3.1145 -2.7513 -1.2950
  620TMC3    H1 9189   0.293   2.618  13.526 -0.3102 -1.2510 -0.2467
  620TMC3    H2 9190   0.207   2.668  13.103  1.8598 -0.1928  0.0748
  620TMC3    C7 9191   0.277   2.807  13.313  0.4350  0.9359  0.8669
  620TMC3    C8 9192   4.695   2.582  13.186  0.4905  0.2253  0.4172
  620TMC3    O1 9193   0.294   2.844  13.202  0.6934 -0.0526 -0.4338
  620TMC3    O2 9194   4.618   2.561  13.279  1.1731  0.2929 -0.0295
  621MPD2     C 9195   1.123   2.122   9.604 -0.1412  0.3988 -0.1586
  621MPD2    C1 9196   1.078   2.142   9.729  0.7393 -0.1572 -0.6323
  621MPD2    C2 9197   1.100   2.262   9.793 -0.1536 -0.3704  0.6866
  621MPD2    C3 9198   1.164   2.365   9.727 -0.2174  0.9348  0.4829
  621MPD2    C4 9199   1.208   2.341   9.602  0.4657  0.2023  0.7862
  621MPD2    C5 9200   1.186   2.221   9.541  0.2238 -0.5865 -0.0757
  621MPD2     H 9201   1.075   2.267   9.899  1.1151 -0.6926  0.9923
  621MPD2    H1 9202   1.263   2.415   9.545  0.9033  1.4850  2.9159
  621MPD2    H2 9203   1.107   2.036   9.539 -0.6394 -0.6835  1.4091
  621MPD2    H3 9204   1.228   2.213   9.441  0.3966 -0.8388  0.0205
  621MPD2     N 9205   1.206   2.477   9.804 -0.2617  0.0204 -0.0659
  621MPD2    H5 9206   1.176   2.478   9.901 -1.3066  1.4624 -0.4059
  621MPD2    N1 9207   1.007   2.035   9.791 -0.1952 -0.1107  0.8345
  621MPD2    H7 9208   0.997   2.054   9.890 -2.5032 -0.0442  0.5934
  622TMC3    C1 9209   0.871   1.851   9.817  0.1700  0.5997  0.1287
  622TMC3    C2 9210   0.802   1.924   9.919  0.1613 -0.0042 -0.7238
  622TMC3    C3 9211   0.690   1.858   9.967 -0.1732 -0.4060  0.3246
  622TMC3    C4 9212   0.850   1.723   9.786  0.5521  0.0918 -0.4188
  622TMC3    C5 9213   0.734   1.676   9.826 -0.7428 -0.4922  0.0881
  622TMC3    C6 9214   0.648   1.741   9.911 -0.7444  0.0821 -0.0046
  622TMC3     C 9215   0.962   1.922   9.732  0.8633 -0.4031  0.3013
  622TMC3     O 9216   0.980   1.873   9.620 -0.1697 -0.5424  0.1428
  622TMC3     H 9217   0.820   2.028   9.944  2.1052 -0.3909 -0.5072
  622TMC3    H1 9218   0.908   1.668   9.712  0.0970 -1.4680  0.3922
  622TMC3    H2 9219   0.573   1.678   9.957 -0.5018  0.0841  0.3991
  622TMC3    C7 9220   0.716   1.534   9.786 -0.0928 -0.4814 -0.2648
  622TMC3    C8 9221   0.627   1.896  10.092  0.0757 -0.3339  0.1824
  622TMC3    O1 9222   0.812   1.477   9.740  0.4046 -0.0690 -0.3091
  622TMC3    O2 9223   0.580   1.802  10.153  0.6039 -0.1578 -0.0234
  623MPD2     C 9224   2.854   3.555  15.896 -0.4007 -0.5731 -0.3477
  623MPD2    C1 9225   2.813   3.484  16.006 -0.6245 -0.7888 -0.0339
  623MPD2    C2 9226   2.887   3.499  16.118 -0.1012  0.7571  1.0790
  623MPD2    C3 9227   2.998   3.583  16.123 -0.0089 -0.2831  0.2861
  623MPD2    C4 9228   3.046   3.648  16.010  0.2222 -1.2397  0.0501
  623MPD2    C5 9229   2.973   3.629  15.899 -0.3944 -0.0130 -0.5632
  623MPD2     H 9230   2.863   3.449  16.211 -2.0240 -2.0174 -0.9177
  623MPD2    H1 9231   3.119   3.728  16.011 -0.5553 -0.5330  0.4705
  623MPD2    H2 9232   2.815   3.549  15.795 -0.1388 -1.0654 -0.4223
  623MPD2    H3 9233   2.991   3.680  15.805  1.6629 -1.1071 -0.7720
  623MPD2     N 9234   3.056   3.592  16.249  0.0926  0.0087 -0.4873
  623MPD2    H5 9235   2.991   3.573  16.324 -0.2226 -0.3085 -0.8441
  623MPD2    N1 9236   2.694   3.422  16.008 -0.1918 -1.0851 -0.4816
  623MPD2    H7 9237   2.663   3.394  16.101 -1.6122  0.8560 -0.3658
  624TMC3    C1 9238   3.285   3.757  16.615 -0.4433 -0.6022  0.4280
  624TMC3    C2 9239   3.172   3.753  16.688  0.4032 -0.0592 -0.2440
  624TMC3    C3 9240   3.051   3.734  16.626 -0.3894  0.7426 -0.6647
  624TMC3    C4 9241   3.284   3.739  16.478  0.2121 -0.9792 -0.2201
  624TMC3    C5 9242   3.162   3.719  16.422  0.2749  0.5814  0.3665
  624TMC3    C6 9243   3.041   3.724  16.491  0.4994  0.3225 -0.8764
  624TMC3     C 9244   3.404   3.735  16.688 -0.2831  0.6421  0.1100
  624TMC3     O 9245   3.398   3.695  16.805  0.3574  0.2066 -0.5628
  624TMC3     H 9246   3.177   3.760  16.796 -0.0780 -1.5634 -0.1176
  624TMC3    H1 9247   3.369   3.755  16.414  1.6211  0.1748  1.9188
  624TMC3    H2 9248   2.942   3.720  16.446  0.4869  1.1821 -0.9176
  624TMC3    C7 9249   3.163   3.677  16.283  0.4369  0.4278 -0.4790
  624TMC3    C8 9250   2.963   3.644  16.691  0.2082  0.2146  0.3971
  624TMC3    O1 9251   3.257   3.718  16.215  0.2135 -0.1338 -0.0592
  624TMC3    O2 9252   2.920   3.552  16.625 -0.3917 -0.1875 -0.1376
  625MPD2     C 9253   3.593   0.022   0.570  0.6056  0.5877  0.1947
  625MPD2    C1 9254   3.500   0.073   0.662  0.0377 -0.9521 -0.5715
  625MPD2    C2 9255   3.551   0.116   0.785  0.3661  0.1755  0.4600
  625MPD2    C3 9256   3.686   0.108   0.813 -0.0094  0.3234  0.0725
  625MPD2    C4 9257   3.777   0.062   0.720 -0.3828  0.3602  0.0125
  625MPD2    C5 9258   3.724   0.011   0.599 -0.6534 -0.4453  0.0811
  625MPD2     H 9259   3.479   0.165   0.851 -0.1815 -0.4133  0.2987
  625MPD2    H1 9260   3.884   0.065   0.741 -0.6007  0.0465  1.1477
  625MPD2    H2 9261   3.572   4.719   0.467  2.5034  0.5754 -0.1907
  625MPD2    H3 9262   3.795   4.704   0.523  0.7218  0.2234  1.1107
  625MPD2     N 9263   3.724   0.156   0.942 -0.3883 -0.4644 -0.0125
  625MPD2    H5 9264   3.652   0.208   0.992 -0.2190 -0.6288  0.4000
  625MPD2    N1 9265   3.365   0.088   0.635  0.1192  0.4586  0.3763
  625MPD2    H7 9266   3.312   0.131   0.710 -1.7976  0.5948 -1.0600
  626TMC3    C1 9267   3.164   0.041   0.513 -0.2392 -0.0589 -0.1410
  626TMC3    C2 9268   3.116   0.077   0.388  0.5327 -0.9026 -0.3501
  626TMC3    C3 9269   2.999   0.137   0.371 -0.2160 -0.2025 -0.3032
  626TMC3    C4 9270   3.074   0.039   0.616 -0.6005  0.0786 -0.2724
  626TMC3    C5 9271   2.954   0.097   0.601  0.1422  0.4339 -0.3308
  626TMC3    C6 9272   2.912   0.142   0.481 -0.0628  0.0794  0.0181
  626TMC3     C 9273   3.310   0.038   0.522  0.2112  0.7834  0.6546
  626TMC3     O 9274   3.356   4.717   0.419  0.1228  0.3801  0.5218
  626TMC3     H 9275   3.182   0.068   0.303  2.1527  3.2223  0.4811
  626TMC3    H1 9276   3.105   0.011   0.716 -0.8518  1.0493  0.0737
  626TMC3    H2 9277   2.806   0.164   0.467  0.6182  0.9865 -3.6235
  626TMC3    C7 9278   2.872   0.095   0.718  0.0634  0.8395  0.7615
  626TMC3    C8 9279   2.978   0.207   0.247 -0.4484 -0.2820  0.0722
  626TMC3    O1 9280   2.906   0.021   0.808  0.1346  0.1979 -0.1522
  626TMC3    O2 9281   3.041   0.170   0.150  0.4856 -0.3223 -0.0306
  627MPD2     C 9282   2.603   0.369  14.850 -1.0443 -0.0870 -0.0624
  627MPD2    C1 9283   2.561   0.479  14.796  0.1517  0.1955  0.0142
  627MPD2    C2 9284   2.465   0.471  14.695  0.3748 -0.2279 -0.2376
  627MPD2    C3 9285   2.411   0.350  14.657 -0.5456 -0.5097 -0.0674
  627MPD2    C4 9286   2.459   0.232  14.716 -0.9173 -0.0882  0.0846
  627MPD2    C5 9287   2.552   0.248  14.817  0.4609 -0.2480  0.5870
  627MPD2     H 9288   2.423   0.555  14.641 -0.1569  0.0827  0.6572
  627MPD2    H1 9289   2.427   0.129  14.706 -2.1368  0.2079  0.9484
  627MPD2    H2 9290   2.668   0.376  14.936  0.0153 -0.7563 -0.8211
  627MPD2    H3 9291   2.569   0.155  14.870 -1.4041  0.2203  2.0057
  627MPD2     N 9292   2.308   0.349  14.556  0.0415 -0.0306 -0.1573
  627MPD2    H5 9293   2.261   0.434  14.526  0.8982 -0.0939 -1.6699
  627MPD2    N1 9294   2.605   0.608  14.834 -0.2444  0.0380 -0.4493
  627MPD2    H7 9295   2.564   0.688  14.786  1.0591  0.6898 -0.4799
  628TMC3    C1 9296   2.694   0.777  14.970 -0.5492  0.2617 -0.2247
  628TMC3    C2 9297   2.794   0.816  15.061 -0.4932  0.1305  0.4820
  628TMC3    C3 9298   2.764   0.910  15.158  0.0807  0.4722  0.1643
  628TMC3    C4 9299   2.570   0.845  14.961  0.2210 -0.1265 -0.3569
  628TMC3    C5 9300   2.549   0.945  15.061 -0.3444 -0.1711  0.3585
  628TMC3    C6 9301   2.643   0.971  15.160  0.1451 -0.8029  0.2707
  628TMC3     C 9302   2.699   0.637  14.929 -0.0809  0.6161  0.0049
  628TMC3     O 9303   2.766   0.560  14.995 -0.4086  0.3209  0.5194
  628TMC3     H 9304   2.885   0.757  15.063 -3.0575 -3.8127  0.0045
  628TMC3    H1 9305   2.491   0.824  14.889 -0.0582  1.8064 -0.6102
  628TMC3    H2 9306   2.629   1.068  15.206 -0.7278 -1.2951  1.0400
  628TMC3    C7 9307   2.453   1.047  15.032 -0.1802  1.1484 -0.1060
  628TMC3    C8 9308   2.841   0.933  15.273  0.6202  0.0076 -0.4959
  628TMC3    O1 9309   2.437   1.134  15.117  0.2922 -0.1026  0.6760
  628TMC3    O2 9310   2.787   0.997  15.364  0.5552 -0.0169 -0.4124
  629MPD2     C 9311   0.272   4.523  16.636  0.6744  0.2856  0.2661
  629MPD2    C1 9312   0.243   4.388  16.650 -0.4834 -0.0886 -0.1009
  629MPD2    C2 9313   0.118   4.345  16.632  0.2121  0.1634  0.1857
  629MPD2    C3 9314   0.015   4.434  16.611  0.1543 -0.0794  0.4511
  629MPD2    C4 9315   0.036   4.569  16.619  0.5668 -0.5928  1.2265
  629MPD2    C5 9316   0.164   4.610  16.627  0.1829 -0.2779 -0.1398
  629MPD2     H 9317   0.100   4.239  16.647  0.0416  0.0517 -0.7819
  629MPD2    H1 9318   4.681   4.645  16.613 -0.3654 -1.6316 -0.3031
  629MPD2    H2 9319   0.375   4.556  16.636  0.0937  2.0728  0.4121
  629MPD2    H3 9320   0.195   4.713  16.611 -0.8060 -0.2465 -1.8029
  629MPD2     N 9321   4.602   4.384  16.608  0.3425  0.8595  0.7587
  629MPD2    H5 9322   4.594   4.284  16.618  0.0366  0.9829  1.6730
  629MPD2    N1 9323   0.351   4.299  16.651  0.0600  0.0911  0.0218
  629MPD2    H7 9324   0.445   4.334  16.638  0.0184 -0.0268 -0.5679
  630TMC3    C1 9325   0.477   4.097  16.670  0.0759 -0.5726 -0.4965
  630TMC3    C2 9326   0.557   4.132  16.568  0.2470  1.0096  0.6517
  630TMC3    C3 9327   0.680   4.076  16.572  0.6457 -0.0216 -0.0379
  630TMC3    C4 9328   0.508   4.016  16.779  0.3551 -0.8296  0.1664
  630TMC3    C5 9329   0.636   3.966  16.773 -0.0017  0.2296 -0.6556
  630TMC3    C6 9330   0.718   3.980  16.665 -0.3760  0.5032  0.0300
  630TMC3     C 9331   0.345   4.161  16.688  0.2123 -0.2876 -0.5073
  630TMC3     O 9332   0.259   4.100  16.752 -0.0273 -0.2322 -0.4301
  630TMC3     H 9333   0.524   4.192  16.485  0.9829 -0.7635 -0.9161
  630TMC3    H1 9334   0.456   4.013  16.874  1.0094 -2.5721  0.4627
  630TMC3    H2 9335   0.816   3.934  16.655  0.3348  1.7218  1.2863
  630TMC3    C7 9336   0.710   3.972  16.901  0.7805  0.7057  0.0213
  630TMC3    C8 9337   0.787   4.160  16.516  0.2662  0.2375 -0.6002
  630TMC3    O1 9338   0.674   3.894  16.987  0.0925 -0.8532  0.4943
  630TMC3    O2 9339   0.861   4.202  16.601  0.4563  0.1866 -0.5443
  631MPD2     C 9340   3.675   3.384  15.559  0.0566  0.0073 -0.1378
  631MPD2    C1 9341   3.783   3.393  15.473 -0.3491  0.8053 -0.0310
  631MPD2    C2 9342   3.910   3.378  15.525 -0.1462  0.1310 -0.3679
  631MPD2    C3 9343   3.930   3.352  15.656  0.1583 -0.1826 -0.3519
  631MPD2    C4 9344   3.825   3.355  15.744 -0.5494  0.5076  0.2891
  631MPD2    C5 9345   3.699   3.365  15.695  0.3582  0.3706 -0.1053
  631MPD2     H 9346   4.000   3.389  15.465 -0.1439  0.9816 -0.2045
  631MPD2    H1 9347   3.846   3.347  15.851  2.9603  0.7949 -0.3608
  631MPD2    H2 9348   3.570   3.397  15.532  0.2726  2.8077  0.3199
  631MPD2    H3 9349   3.607   3.366  15.753  0.5927 -0.4201  0.2888
  631MPD2     N 9350   4.065   3.329  15.704  0.3115 -0.2115  0.1455
  631MPD2    H5 9351   4.129   3.317  15.626 -0.3698 -1.5043 -0.2104
  631MPD2    N1 9352   3.758   3.412  15.330  0.5178  0.2469 -0.0822
  631MPD2    H7 9353   3.664   3.443  15.304  1.7434  1.8341 -2.6252
  632TMC3    C1 9354   3.818   3.461  15.106  0.4145  0.1641  0.2886
  632TMC3    C2 9355   3.707   3.535  15.106  0.5596  0.3465 -0.1389
  632TMC3    C3 9356   3.716   3.656  15.043 -0.1636 -0.1042  0.1115
  632TMC3    C4 9357   3.936   3.502  15.048 -0.0244  0.2896 -0.1994
  632TMC3    C5 9358   3.942   3.630  14.994 -0.6230  0.5728  0.0672
  632TMC3    C6 9359   3.822   3.703  14.971  0.5099 -0.3249  0.0279
  632TMC3     C 9360   3.849   3.386  15.227 -0.3290 -0.8118 -0.5939
  632TMC3     O 9361   3.958   3.328  15.223 -0.5325 -0.3825  0.6853
  632TMC3     H 9362   3.612   3.501  15.146  0.7915  0.6420  0.6640
  632TMC3    H1 9363   4.027   3.444  15.057 -0.1161  0.5240  2.4832
  632TMC3    H2 9364   3.822   3.796  14.915  1.1224 -2.3360 -3.3316
  632TMC3    C7 9365   4.058   3.650  14.900  0.1825  0.4628  0.7460
  632TMC3    C8 9366   3.623   3.758  15.099  0.1585  0.0792  0.0809
  632TMC3    O1 9367   4.024   3.709  14.803 -0.1875 -0.5248  0.4031
  632TMC3    O2 9368   3.508   3.720  15.130 -0.1766 -0.1866 -0.3781
  633MPD2     C 9369   3.136   1.492  17.047  0.1665  1.1923  0.4526
  633MPD2    C1 9370   3.270   1.458  17.025  0.1894 -0.6684  0.0837
  633MPD2    C2 9371   3.302   1.323  17.039  0.1090 -0.0233 -0.1547
  633MPD2    C3 9372   3.214   1.233  17.093 -0.3337  0.1263 -0.2823
  633MPD2    C4 9373   3.085   1.272  17.116 -0.1193  0.0326  0.4673
  633MPD2    C5 9374   3.050   1.399  17.099  0.0919 -0.3139  0.7852
  633MPD2     H 9375   3.388   1.276  16.992  1.0776  1.3935  0.1849
  633MPD2    H1 9376   3.017   1.201  17.160 -1.4422  1.4872  0.7963
  633MPD2    H2 9377   3.097   1.589  17.018  3.1669  2.0363 -0.7713
  633MPD2    H3 9378   2.946   1.428  17.112 -0.3104 -0.5154 -2.0460
  633MPD2     N 9379   3.247   1.090  17.102  0.1471 -0.1667 -0.0581
  633MPD2    H5 9380   3.169   1.029  17.120  0.9630 -1.0217  0.6154
  633MPD2    N1 9381   3.364   1.539  16.953  0.4317 -0.4516 -0.1181
  633MPD2    H7 9382   3.450   1.498  16.919  1.0760 -0.5997  1.6725
  634TMC3    C1 9383   3.434   1.727  16.838 -0.2941 -0.3651 -0.6569
  634TMC3    C2 9384   3.492   1.636  16.750  0.2351 -0.5013  0.3001
  634TMC3    C3 9385   3.558   1.696  16.644 -0.7564  0.0177 -0.5270
  634TMC3    C4 9386   3.418   1.859  16.816 -0.6990  0.0647 -0.1219
  634TMC3    C5 9387   3.474   1.912  16.702 -0.2352 -0.5957  0.3757
  634TMC3    C6 9388   3.548   1.833  16.613 -0.6052  0.1805  0.1039
  634TMC3     C 9389   3.346   1.674  16.935 -0.2606  0.1187 -0.0294
  634TMC3     O 9390   3.268   1.758  16.988 -0.0768 -0.0257  0.2190
  634TMC3     H 9391   3.499   1.528  16.765 -1.0886 -0.4314  1.4156
  634TMC3    H1 9392   3.363   1.922  16.884  2.6823  2.8725 -0.0178
  634TMC3    H2 9393   3.572   1.860  16.511  0.3613  0.8942  0.5143
  634TMC3    C7 9394   3.403   2.034  16.647 -0.2940  0.0809 -0.0746
  634TMC3    C8 9395   3.622   1.602  16.562 -0.6995  1.2828 -0.5933
  634TMC3    O1 9396   3.442   2.080  16.545 -0.0647 -0.2836 -0.1139
  634TMC3    O2 9397   3.597   1.484  16.582  0.3466 -0.5551  0.3357
  635TMC3    C1 9398   4.009   3.061  16.837  0.1254  0.2057  0.2353
  635TMC3    C2 9399   4.082   3.167  16.789  0.0050  0.2133 -0.2990
  635TMC3    C3 9400   4.198   3.135  16.717 -0.2777  0.7379 -0.0056
  635TMC3    C4 9401   4.037   2.934  16.800  0.4192  0.4357 -0.6482
  635TMC3    C5 9402   4.146   2.905  16.729 -0.3652  0.1052 -0.3733
  635TMC3    C6 9403   4.238   3.003  16.696 -0.9118  0.3992  0.0932
  635TMC3     C 9404   3.884   3.077  16.906  0.4701  0.1683 -0.8524
  635TMC3     O 9405   3.857   2.994  16.992 -0.2078 -0.3611 -0.0074
  635TMC3     H 9406   4.054   3.268  16.815  0.9501  0.5092 -0.4338
  635TMC3    H1 9407   3.947   2.877  16.818  1.6087 -0.7514  1.5439
  635TMC3    H2 9408   4.340   2.981  16.667 -1.4888 -1.1675 -0.7429
  635TMC3    C7 9409   4.162   2.765  16.701 -1.1900  0.0052  0.0065
  635TMC3    C8 9410   4.307   3.232  16.725 -0.2814 -0.1664 -0.4261
  635TMC3    O1 9411   4.249   2.732  16.624  0.0778  0.0358 -0.4509
  635TMC3    O2 9412   4.303   3.311  16.818 -0.1765 -0.2594  0.1254
  636MPD2     C 9413   4.482   2.109  15.653 -0.0589 -0.2557 -0.5909
  636MPD2    C1 9414   4.480   2.151  15.787  0.2142 -0.1933 -0.2479
  636MPD2    C2 9415   4.534   2.065  15.885 -0.5681  0.2333 -1.1779
  636MPD2    C3 9416   4.592   1.946  15.850  0.7550  0.9070 -0.6997
  636MPD2    C4 9417   4.590   1.900  15.719 -0.1697  0.3613  0.0751
  636MPD2    C5 9418   4.541   1.985  15.625 -0.0455 -0.6612 -0.1393
  636MPD2     H 9419   4.543   2.095  15.989 -1.6104  0.4834 -1.1579
  636MPD2    H1 9420   4.637   1.806  15.692 -1.6756 -0.5914  0.7854
  636MPD2    H2 9421   4.445   2.165  15.567 -0.9550  0.3359  0.1890
  636MPD2    H3 9422   4.530   1.953  15.522 -0.7858  1.6232 -0.7818
  636MPD2     N 9423   4.668   1.887  15.959 -0.2867 -0.2049  0.4015
  636MPD2    H5 9424   4.668   1.932  16.050 -2.6449  1.8562 -0.6020
  636MPD2    N1 9425   4.429   2.270  15.834  0.4701 -0.0075  0.2589
  636MPD2    H7 9426   4.439   2.283  15.935  0.0823  2.2100  0.0103
  637TMC3    C1 9427   0.085   1.719  16.067 -0.4490 -0.0095 -0.8915
  637TMC3    C2 9428   0.140   1.810  16.147  0.9503  0.2140  0.1898
  637TMC3    C3 9429   0.236   1.785  16.238  1.2852  0.2067  0.3381
  637TMC3    C4 9430   0.141   1.592  16.059 -0.2615 -0.4073 -0.1917
  637TMC3    C5 9431   0.248   1.567  16.139  0.5568  0.1758 -0.2872
  637TMC3    C6 9432   0.287   1.654  16.239  0.2154 -0.0649 -0.2773
  637TMC3     C 9433   0.002   1.761  15.951  0.4921 -1.0754 -0.3240
  637TMC3     O 9434   4.713   1.678  15.860 -0.1539  0.1051 -0.5066
  637TMC3     H 9435   0.097   1.910  16.148  0.9906  0.2486 -1.4059
  637TMC3    H1 9436   0.104   1.518  15.989  0.1600 -0.8552  0.0558
  637TMC3    H2 9437   0.371   1.630  16.303  2.1781  2.1175 -2.0286
  637TMC3    C7 9438   0.371   1.531  16.061  0.0062 -0.2763 -0.3814
  637TMC3    C8 9439   0.347   1.877  16.230  0.1002 -0.1015 -0.7287
  637TMC3    O1 9440   0.473   1.560  16.117 -0.2227 -0.2526 -0.4248
  637TMC3    O2 9441   0.342   1.958  16.141 -0.3438  0.3137  0.1629
  638MPD2     C 9442   0.082   1.057  14.639  0.2597 -0.2934 -0.2435
  638MPD2    C1 9443   4.718   0.978  14.566 -0.4492  0.2096  0.2095
  638MPD2    C2 9444   4.672   0.863  14.621 -1.4663 -0.1140  0.0537
  638MPD2    C3 9445   4.713   0.829  14.754 -0.0151 -0.4750  0.4496
  638MPD2    C4 9446   0.074   0.913  14.826 -0.1617  0.4607  0.4163
  638MPD2    C5 9447   0.118   1.023  14.762 -0.6893 -0.0103  0.6478
  638MPD2     H 9448   4.602   0.800  14.567 -0.5831 -0.4949 -0.6662
  638MPD2    H1 9449   0.114   0.896  14.925  1.2043  2.8658  0.2669
  638MPD2    H2 9450   0.112   1.150  14.591 -1.5109  0.5920  0.3452
  638MPD2    H3 9451   0.178   1.098  14.812  1.8418 -0.6774 -1.3901
  638MPD2     N 9452   4.657   0.710  14.806 -0.1114 -0.0252 -0.1655
  638MPD2    H5 9453   4.604   0.656  14.738 -1.5557 -2.1346  2.6413
  638MPD2    N1 9454   4.695   1.026  14.433 -0.3564  0.2290  0.2288
  638MPD2    H7 9455   0.033   1.098  14.396  0.1879 -0.1195  0.4316
  639TMC3    C1 9456   4.610   0.551  14.981  0.2302 -0.5530 -0.0994
  639TMC3    C2 9457   4.540   0.486  14.890  0.7456 -0.2570 -0.6142
  639TMC3    C3 9458   4.525   0.350  14.902 -0.8928  0.1832  0.4708
  639TMC3    C4 9459   4.668   0.488  15.086  0.8926  0.0959 -0.0938
  639TMC3    C5 9460   4.639   0.354  15.101 -0.5037  0.9608  0.1700
  639TMC3    C6 9461   4.571   0.284  15.014 -0.3979 -0.0972  0.0696
  639TMC3     C 9462   4.655   0.686  14.944  0.3702  0.0851  0.2557
  639TMC3     O 9463   4.714   0.746  15.036  0.0519  0.0496 -0.2244
  639TMC3     H 9464   4.492   0.531  14.804  2.8358 -1.5204 -2.4188
  639TMC3    H1 9465   4.713   0.550  15.163  0.2769 -1.0135  1.1715
  639TMC3    H2 9466   4.575   0.176  15.023  1.5678 -0.0918 -0.7513
  639TMC3    C7 9467   0.023   0.290  15.171  0.1549 -0.2181 -0.0814
  639TMC3    C8 9468   4.428   0.266  14.824  0.2641  0.2533 -0.4719
  639TMC3    O1 9469   4.715   0.173  15.210 -0.3000  0.0154  0.2288
  639TMC3    O2 9470   4.430   0.296  14.705 -0.2027 -0.0975 -0.6363
  640MPD2     C 9471   1.321   3.827   9.312  0.8835 -0.6845  0.3034
  640MPD2    C1 9472   1.300   3.770   9.433  0.2245 -0.4117 -0.0270
  640MPD2    C2 9473   1.185   3.813   9.507  0.2050  0.2363  0.4942
  640MPD2    C3 9474   1.097   3.910   9.458  0.0548  0.7716 -0.1239
  640MPD2    C4 9475   1.119   3.966   9.337 -0.0838 -1.0700  0.5610
  640MPD2    C5 9476   1.228   3.917   9.260 -0.1089  0.1754 -0.1216
  640MPD2     H 9477   1.174   3.765   9.603 -4.1267  1.5359  0.6642
  640MPD2    H1 9478   1.052   4.041   9.298  0.0708 -1.5564 -0.6387
  640MPD2    H2 9479   1.401   3.784   9.251 -0.8966 -0.6591 -2.0579
  640MPD2    H3 9480   1.247   3.950   9.158 -2.5244  1.5746 -0.1149
  640MPD2     N 9481   0.981   3.940   9.534 -0.3347  0.1357 -0.1484
  640MPD2    H5 9482   0.928   4.022   9.505  0.8328  0.4991 -1.2208
  640MPD2    N1 9483   1.402   3.682   9.481 -0.1900 -0.2866  0.4894
  640MPD2    H7 9484   1.478   3.666   9.417  1.3288 -1.0620  2.4815
  641TMC3    C1 9485   1.533   3.541   9.619  0.2736 -0.4010  0.3671
  641TMC3    C2 9486   1.523   3.404   9.653 -0.4696 -0.4561 -0.3310
  641TMC3    C3 9487   1.624   3.320   9.621  0.3648  0.0543  0.1365
  641TMC3    C4 9488   1.642   3.581   9.548  1.0426  0.0364 -0.7678
  641TMC3    C5 9489   1.746   3.498   9.522 -1.1581  0.1298 -0.0735
  641TMC3    C6 9490   1.738   3.368   9.557 -0.1932 -0.0054 -0.7012
  641TMC3     C 9491   1.409   3.608   9.597  0.3664 -0.3194 -0.4709
  641TMC3     O 9492   1.328   3.599   9.690 -0.1677  0.5401  0.0960
  641TMC3     H 9493   1.428   3.362   9.682 -0.6591 -0.4461 -0.9270
  641TMC3    H1 9494   1.660   3.686   9.525  2.0961 -0.0312 -0.2628
  641TMC3    H2 9495   1.817   3.298   9.529  0.0436 -0.0586  0.0912
  641TMC3    C7 9496   1.864   3.546   9.461 -0.0201 -0.6801  0.6701
  641TMC3    C8 9497   1.622   3.179   9.649 -0.2115  0.1547 -0.4718
  641TMC3    O1 9498   1.926   3.460   9.401 -0.0535 -0.2428 -0.5589
  641TMC3    O2 9499   1.674   3.113   9.555 -0.1761 -0.3868  0.0250
  642TMC3    C1 9500   1.556   0.197  12.102 -0.1536  0.3544 -0.4891
  642TMC3    C2 9501   1.676   0.156  12.152  0.1046  0.5068  0.1142
  642TMC3    C3 9502   1.709   0.027  12.131 -0.0587  0.1657  0.2732
  642TMC3    C4 9503   1.466   0.111  12.046  0.0965 -0.2124  0.3986
  642TMC3    C5 9504   1.498   4.700  12.038  0.3923 -0.2187 -0.0927
  642TMC3    C6 9505   1.626   4.655  12.069 -0.3000 -0.2522 -0.7055
  642TMC3     C 9506   1.527   0.338  12.095 -0.8849 -0.7857 -0.2373
  642TMC3     O 9507   1.619   0.415  12.119  0.6623  0.5445 -0.2939
  642TMC3     H 9508   1.740   0.227  12.202 -1.2955  1.2647  0.8336
  642TMC3    H1 9509   1.377   0.154  12.001 -0.1510  1.0211  2.0754
  642TMC3    H2 9510   1.654   4.553  12.047 -1.7840 -0.8672  0.2758
  642TMC3    C7 9511   1.410   4.608  11.989 -0.0002  0.6826  0.0843
  642TMC3    C8 9512   1.850   4.717  12.146  0.5138 -0.7611 -0.6084
  642TMC3    O1 9513   1.456   4.514  11.921 -0.1833  0.0868  0.0699
  642TMC3    O2 9514   1.884   4.601  12.177  0.1801 -0.4743  0.3976
  643TMC3    C1 9515   0.273   0.059   0.639  0.4693  0.5421  0.7819
  643TMC3    C2 9516   0.149   0.122   0.642 -0.2611 -0.4365  0.3901
  643TMC3    C3 9517   0.053   0.070   0.562  0.0552 -0.6314  0.0626
  643TMC3    C4 9518   0.302   4.683   0.545 -0.9703 -0.0676  0.4892
  643TMC3    C5 9519   0.200   4.647   0.462 -0.3525 -1.1023 -0.6315
  643TMC3    C6 9520   0.070   4.684   0.487  0.2650 -0.3201 -0.2691
  643TMC3     C 9521   0.373   0.161   0.653 -0.2305 -0.4756  0.1374
  643TMC3     O 9522   0.332   0.274   0.631  0.1685 -0.5110 -0.0356
  643TMC3     H 9523   0.130   0.196   0.719 -0.7065  2.2323 -2.2940
  643TMC3    H1 9524   0.396   4.645   0.507  0.3660  2.2821  1.4290
  643TMC3    H2 9525   4.719   4.665   0.410  0.3780 -0.6161 -0.3014
  643TMC3    C7 9526   0.254   4.667   0.324  0.4391 -0.3128  0.1635
  643TMC3    C8 9527   4.717   0.168   0.479  0.1317  0.1643 -0.0717
  643TMC3    O1 9528   0.365   0.003   0.305 -0.1136  0.0084 -0.5944
  643TMC3    O2 9529   4.609   0.143   0.426  0.1697 -0.2216 -0.3402
  644MPD2     C 9530   3.196   3.885   9.281 -0.6526  0.8733 -0.3340
  644MPD2    C1 9531   3.115   3.885   9.398 -0.1860 -0.0543  0.8868
  644MPD2    C2 9532   3.119   4.006   9.467  0.1317  0.1405 -0.0508
  644MPD2    C3 9533   3.190   4.122   9.428 -0.1216  0.6588 -0.1351
  644MPD2    C4 9534   3.274   4.110   9.320 -0.0421  0.0627  0.1733
  644MPD2    C5 9535   3.270   3.995   9.243 -0.4636  0.8795  0.0058
  644MPD2     H 9536   3.064   4.012   9.560  0.0652 -2.1017  0.0678
  644MPD2    H1 9537   3.332   4.197   9.292 -2.4705  2.2768  2.0331
  644MPD2    H2 9538   3.180   3.799   9.216  0.2840  1.0320 -0.7850
  644MPD2    H3 9539   3.331   3.991   9.154  0.2597  2.2121  0.4426
  644MPD2     N 9540   3.178   4.242   9.508 -0.2248 -0.5465 -0.4685
  644MPD2    H5 9541   3.107   4.234   9.580  1.7583 -3.1150  1.2294
  644MPD2    N1 9542   3.045   3.769   9.430 -0.1308 -1.0692 -0.2300
  644MPD2    H7 9543   3.065   3.692   9.366 -0.0289  0.0028 -1.5057
  645TMC3    C1 9544   3.177   4.470   9.570  0.8981  0.6063 -1.2220
  645TMC3    C2 9545   3.049   4.446   9.623  0.0813 -0.1441  0.5622
  645TMC3    C3 9546   2.972   4.553   9.673 -0.2058 -0.4764  0.7889
  645TMC3    C4 9547   3.236   4.597   9.568  0.1766 -0.0479  0.6678
  645TMC3    C5 9548   3.167   4.696   9.630  0.0795  0.1689 -0.4024
  645TMC3    C6 9549   3.042   4.671   9.680  0.2263  0.1324 -0.2479
  645TMC3     C 9550   3.237   4.362   9.494  0.4466 -0.2692  0.0787
  645TMC3     O 9551   3.316   4.407   9.408  0.3263  0.4299  0.0972
  645TMC3     H 9552   2.997   4.352   9.609 -0.2472  0.2030 -0.5742
  645TMC3    H1 9553   3.331   4.611   9.517  0.2507  1.0672  1.0982
  645TMC3    H2 9554   2.988   0.035   9.718 -0.4111 -0.0729 -0.6885
  645TMC3    C7 9555   3.219   0.106   9.640  0.2948 -0.2193 -0.7776
  645TMC3    C8 9556   2.831   4.538   9.714 -0.1170 -0.4831  0.5998
  645TMC3    O1 9557   3.148   0.191   9.686 -0.0594  0.5566 -0.3361
  645TMC3    O2 9558   2.806   4.427   9.768 -0.5991  0.0277  0.7314
  646MPD2     C 9559   0.242   4.551  14.427 -0.5075 -0.0363 -0.4580
  646MPD2    C1 9560   0.158   4.457  14.487 -0.0485 -0.4626  0.3430
  646MPD2    C2 9561   0.031   4.425  14.431  0.5076 -0.6150 -0.2287
  646MPD2    C3 9562   4.707   4.499  14.331  0.8306  0.7818  0.0471
  646MPD2    C4 9563   0.065   4.598  14.274 -0.6481  0.1419  0.2143
  646MPD2    C5 9564   0.200   4.622  14.318  0.1489 -0.7408 -1.1018
  646MPD2     H 9565   4.697   4.337  14.459  1.2241 -1.5274 -1.6481
  646MPD2    H1 9566   0.035   4.667  14.196 -0.6286  0.0331  0.1109
  646MPD2    H2 9567   0.340   4.566  14.471  0.1052 -1.2221 -1.4207
  646MPD2    H3 9568   0.259   4.698  14.269  0.4552 -1.2358 -1.5048
  646MPD2     N 9569   4.573   4.482  14.290  0.1810  0.2187  0.2718
  646MPD2    H5 9570   4.515   4.432  14.357  0.5925 -0.6943 -0.0646
  646MPD2    N1 9571   0.231   4.373  14.578 -0.4223 -0.1016  0.3371
  646MPD2    H7 9572   0.332   4.383  14.585 -0.5542  0.6580  1.1872
  647TMC3    C1 9573   0.265   4.184  14.710  0.1281  0.0006  0.1170
  647TMC3    C2 9574   0.199   4.095  14.789  0.8265  0.4662  0.2013
  647TMC3    C3 9575   0.271   4.046  14.899 -0.0390  0.3262  0.3677
  647TMC3    C4 9576   0.389   4.236  14.749  0.2076 -0.2767  0.2339
  647TMC3    C5 9577   0.445   4.189  14.869 -0.3846  0.0549  0.4724
  647TMC3    C6 9578   0.395   4.082  14.930  0.0131  0.4779 -0.5619
  647TMC3     C 9579   0.168   4.275  14.653 -0.3414 -0.1094 -0.1013
  647TMC3     O 9580   0.047   4.240  14.633  0.5321  0.1560 -0.2316
  647TMC3     H 9581   0.098   4.066  14.761  0.7549 -0.3769  1.3370
  647TMC3    H1 9582   0.435   4.319  14.698 -0.6761  0.6553  0.9520
  647TMC3    H2 9583   0.434   4.053  15.026 -0.8136 -0.6059 -0.5603
  647TMC3    C7 9584   0.564   4.249  14.929  1.0430  0.4987  0.3593
  647TMC3    C8 9585   0.207   3.967  14.995 -0.1779 -0.2367 -0.6590
  647TMC3    O1 9586   0.609   4.205  15.032 -0.5541 -0.1771  0.2457
  647TMC3    O2 9587   0.274   3.877  15.041 -0.5999 -0.0846 -0.3069
  648TMC3    C1 9588   3.971   1.984  15.996 -0.5985 -0.0927 -0.0865
  648TMC3    C2 9589   4.040   1.884  15.959 -0.0779  0.7860  0.5178
  648TMC3    C3 9590   4.010   1.823  15.840 -0.0787 -0.0974  0.4328
  648TMC3    C4 9591   3.882   2.055  15.917 -0.5823  0.1162  0.7743
  648TMC3    C5 9592   3.849   1.995  15.801 -0.0094  0.5951  0.1925
  648TMC3    C6 9593   3.914   1.881  15.756 -0.8923 -0.0581 -1.0681
  648TMC3     C 9594   3.987   2.033  16.126  0.1953 -0.3193 -0.1800
  648TMC3     O 9595   3.965   2.153  16.150  0.0889 -0.4643  0.3306
  648TMC3     H 9596   4.105   1.824  16.021  0.1580  0.1439 -0.3526
  648TMC3    H1 9597   3.853   2.154  15.950 -0.1963  0.1549  0.9947
  648TMC3    H2 9598   3.885   1.849  15.656  0.0278  0.6248 -1.5472
  648TMC3    C7 9599   3.733   2.045  15.729 -0.4669  0.7337  0.7571
  648TMC3    C8 9600   4.073   1.701  15.787  0.5011 -0.2109  0.6377
  648TMC3    O1 9601   3.712   2.004  15.614 -0.0880 -0.1222 -0.0919
  648TMC3    O2 9602   4.192   1.680  15.800 -0.0233 -0.7151 -0.4617
  649TMC3    C1 9603   3.055   2.713  12.570 -0.4425 -0.3101 -0.4325
  649TMC3    C2 9604   3.166   2.683  12.491  0.2361 -0.3440 -0.4341
  649TMC3    C3 9605   3.266   2.613  12.551 -0.3386  1.1593  0.2672
  649TMC3    C4 9606   3.039   2.674  12.700  0.0328  0.2565  0.9067
  649TMC3    C5 9607   3.142   2.601  12.750  0.5956  0.1552 -0.4731
  649TMC3    C6 9608   3.258   2.569  12.678  0.0071  0.0327  0.1977
  649TMC3     C 9609   2.921   2.744  12.516 -0.0418 -0.1704 -0.1474
  649TMC3     O 9610   2.829   2.762  12.586  0.0271 -0.2833 -0.3363
  649TMC3     H 9611   3.158   2.699  12.384  0.0528  0.1916 -0.3366
  649TMC3    H1 9612   2.943   2.671  12.750  0.1054  0.2732  1.0453
  649TMC3    H2 9613   3.336   2.515  12.730 -0.1762 -0.0782  0.3559
  649TMC3    C7 9614   3.108   2.544  12.879  0.1772  0.2410  0.3743
  649TMC3    C8 9615   3.397   2.596  12.478  0.1023  0.5926 -0.1857
  649TMC3    O1 9616   3.024   2.606  12.946  0.0471 -0.0349  0.2952
  649TMC3    O2 9617   3.493   2.564  12.550  0.0690  0.1274 -0.0611
  650TMC3    C1 9618   0.660   4.402  12.705 -0.4435  0.0469  0.4885
  650TMC3    C2 9619   0.655   4.535  12.682 -0.0697  0.3299 -0.3015
  650TMC3    C3 9620   0.667   4.573  12.555 -0.1669 -0.7745  0.6046
  650TMC3    C4 9621   0.647   4.313  12.601 -0.3470 -0.0993 -0.1642
  650TMC3    C5 9622   0.638   4.356  12.471  0.9145 -0.5005  0.3616
  650TMC3    C6 9623   0.662   4.488  12.448 -0.3330  0.0584  0.6676
  650TMC3     C 9624   0.658   4.357  12.845  0.0210  0.4066 -0.9112
  650TMC3     O 9625   0.609   4.432  12.931  0.2380 -0.3023 -0.6080
  650TMC3     H 9626   0.645   4.598  12.770  0.0271 -0.6126  0.3825
  650TMC3    H1 9627   0.639   4.208  12.630  1.9284  0.2949  1.8931
  650TMC3    H2 9628   0.688   4.530  12.352 -2.7369  2.4810  1.0522
  650TMC3    C7 9629   0.638   4.264  12.360  0.7465 -0.0816 -0.9566
  650TMC3    C8 9630   0.640   4.710  12.520  0.4510  0.1748  0.5905
  650TMC3    O1 9631   0.663   4.148  12.389 -0.3104 -0.4081  0.3874
  650TMC3    O2 9632   0.590   0.010  12.414  0.0262 -0.0314 -0.3872
  651MPD2     C 9633   0.267   0.819  10.017 -0.4170 -0.2119  0.1200
  651MPD2    C1 9634   0.215   0.928  10.098 -0.3426 -0.3564 -0.5404
  651MPD2    C2 9635   0.297   1.044  10.108 -0.1810  0.4983  0.4195
  651MPD2    C3 9636   0.422   1.047  10.046 -0.1971  0.0736 -0.3311
  651MPD2    C4 9637   0.469   0.941   9.977 -0.0730  0.1981 -0.6235
  651MPD2    C5 9638   0.386   0.831   9.952 -0.7491  0.6097 -0.1957
  651MPD2     H 9639   0.267   1.120  10.180 -0.5083 -0.2711  1.0998
  651MPD2    H1 9640   0.563   0.942   9.924  1.7364  0.9528  2.6169
  651MPD2    H2 9641   0.200   0.740   9.986  0.9427 -1.0566 -0.6326
  651MPD2    H3 9642   0.423   0.748   9.893 -0.9368 -1.3588  2.4515
  651MPD2     N 9643   0.504   1.161  10.063 -0.5844 -0.2353 -0.2709
  651MPD2    H5 9644   0.462   1.244  10.104 -2.2112 -2.0423  1.7014
  651MPD2    N1 9645   0.088   0.930  10.162  0.3184  0.0435  0.0804
  651MPD2    H7 9646   0.065   1.015  10.211  1.5797  0.7329 -0.5249
  652TMC3    C1 9647   0.909   1.384  10.116 -0.5167  0.5567  0.2046
  652TMC3    C2 9648   0.836   1.304  10.035 -0.3343 -0.0893  0.1152
  652TMC3    C3 9649   0.700   1.297  10.060  0.0719  0.7481  0.2100
  652TMC3    C4 9650   0.856   1.450  10.218  0.7429 -0.0584 -0.6334
  652TMC3    C5 9651   0.723   1.454  10.232  0.0293 -0.1428 -0.0867
  652TMC3    C6 9652   0.642   1.372  10.161  0.3482  0.7109 -0.5021
  652TMC3     C 9653   1.044   1.335  10.140 -0.5595  1.1212 -0.1874
  652TMC3     O 9654   1.104   1.286  10.043  0.2121  0.0563  0.4854
  652TMC3     H 9655   0.879   1.238   9.961  1.6130  0.6451  0.5952
  652TMC3    H1 9656   0.925   1.509  10.278  0.3272  0.3292 -0.5369
  652TMC3    H2 9657   0.535   1.386  10.175 -0.1634 -1.7141 -1.8394
  652TMC3    C7 9658   0.659   1.545  10.327  0.3042  0.1218  0.0758
  652TMC3    C8 9659   0.640   1.162  10.038  0.6996 -0.3340  0.0110
  652TMC3    O1 9660   0.538   1.533  10.343  0.3453 -0.2491  0.0941
  652TMC3    O2 9661   0.719   1.070  10.027 -0.1078  0.4129  0.4881
  653MPD2     C 9662   2.998   1.784  17.524 -0.3931 -0.3836 -0.1288
  653MPD2    C1 9663   2.928   1.885  17.456 -0.0479  0.3778 -0.2375
  653MPD2    C2 9664   2.853   1.859  17.344 -0.4099  0.1288 -0.3651
  653MPD2    C3 9665   2.844   1.730  17.299  0.5515  0.2127 -0.4478
  653MPD2    C4 9666   2.925   1.631  17.357 -0.8568  0.4979  0.5356
  653MPD2    C5 9667   2.992   1.650  17.472 -0.1062 -0.3371  0.4608
  653MPD2     H 9668   2.801   1.940  17.294  1.2954 -0.4323 -3.0324
  653MPD2    H1 9669   2.935   1.529  17.323  0.6959 -0.0243  2.5899
  653MPD2    H2 9670   3.038   1.801  17.624 -1.7465  0.7207  0.2195
  653MPD2    H3 9671   3.041   1.560  17.504 -0.0528 -1.4966 -2.9398
  653MPD2     N 9672   2.778   1.704  17.176  0.1222  0.1434 -0.2391
  653MPD2    H5 9673   2.774   1.780  17.109  1.7171  0.9682  0.5863
  653MPD2    N1 9674   2.923   2.019  17.497 -0.5780 -0.2053 -1.2978
  653MPD2    H7 9675   2.873   2.086  17.438  0.0188  1.4589  0.0797
  654TMC3    C1 9676   2.698   1.576  16.982 -0.2052 -0.2319  0.1559
  654TMC3    C2 9677   2.672   1.690  16.911 -0.9502  0.4879 -0.1167
  654TMC3    C3 9678   2.653   1.681  16.775  0.6531 -0.1529  0.0692
  654TMC3    C4 9679   2.698   1.452  16.925  0.3420 -0.5437 -0.5793
  654TMC3    C5 9680   2.668   1.445  16.788  0.1062 -0.2271 -0.1808
  654TMC3    C6 9681   2.651   1.562  16.713 -0.1265  0.2902 -0.2603
  654TMC3     C 9682   2.735   1.579  17.129  0.5168  0.1838 -0.3095
  654TMC3     O 9683   2.723   1.477  17.195  0.2342  0.6452  0.1093
  654TMC3     H 9684   2.676   1.788  16.958  1.4675  0.6747 -0.6757
  654TMC3    H1 9685   2.722   1.361  16.978 -1.1624 -0.0565  0.9223
  654TMC3    H2 9686   2.629   1.558  16.607  0.6652 -3.4446 -0.2969
  654TMC3    C7 9687   2.664   1.316  16.716  0.0633 -0.7495  0.4308
  654TMC3    C8 9688   2.593   1.790  16.709 -0.7181 -0.4592 -0.1480
  654TMC3    O1 9689   2.650   1.323  16.596  0.2368  0.9095 -0.2017
  654TMC3    O2 9690   2.529   1.866  16.783  0.5352  0.3080  0.8235
  655MPD2     C 9691   4.075   2.163  15.620 -0.0962  0.1566  0.6275
  655MPD2    C1 9692   3.973   2.235  15.545 -0.1750  0.1852 -0.0575
  655MPD2    C2 9693   3.930   2.174  15.431  0.5772  0.3078 -0.5063
  655MPD2    C3 9694   3.973   2.049  15.384  0.1406  0.3376  0.1469
  655MPD2    C4 9695   4.067   1.981  15.457 -0.2270  0.4300 -0.0987
  655MPD2    C5 9696   4.115   2.042  15.576  0.2307 -0.0365  0.1652
  655MPD2     H 9697   3.857   2.222  15.367 -1.5610 -2.4129 -0.1549
  655MPD2    H1 9698   4.100   1.882  15.428  0.3249  0.0404  1.8300
  655MPD2    H2 9699   4.121   2.191  15.714 -1.4304  0.6943  1.1318
  655MPD2    H3 9700   4.186   1.994  15.642  0.5141 -0.3315 -0.3500
  655MPD2     N 9701   3.927   1.988  15.269  0.1060  0.2713 -0.5467
  655MPD2    H5 9702   3.970   1.902  15.237 -0.7262 -0.7350  1.0072
  655MPD2    N1 9703   3.907   2.363  15.580 -0.4792 -1.0042  0.4174
  655MPD2    H7 9704   3.849   2.408  15.509 -0.4790 -1.2170  0.2813
  656TMC3    C1 9705   3.802   2.525  15.713 -0.7033  0.7756 -0.2993
  656TMC3    C2 9706   3.783   2.574  15.835 -0.1953 -0.7543 -0.3497
  656TMC3    C3 9707   3.677   2.655  15.859 -0.1047  0.2905  0.1323
  656TMC3    C4 9708   3.716   2.564  15.607  0.4694  0.4685 -0.0946
  656TMC3    C5 9709   3.612   2.648  15.641  0.0161 -0.2158  0.7268
  656TMC3    C6 9710   3.589   2.700  15.766  0.0972  0.0801 -0.0839
  656TMC3     C 9711   3.896   2.413  15.705 -0.3349  0.3997 -1.5483
  656TMC3     O 9712   3.939   2.365  15.810 -0.9488  0.4312  0.6230
  656TMC3     H 9713   3.840   2.542  15.921  0.2820  0.6012 -0.1682
  656TMC3    H1 9714   3.732   2.538  15.504  0.7897  0.4525 -0.0406
  656TMC3    H2 9715   3.502   2.762  15.787 -0.5538  0.4993 -4.1071
  656TMC3    C7 9716   3.536   2.700  15.531 -0.1112 -0.1011 -0.0426
  656TMC3    C8 9717   3.631   2.666  15.998  0.0474  0.5944  0.3836
  656TMC3    O1 9718   3.585   2.681  15.421 -0.5560 -0.0802  0.2321
  656TMC3    O2 9719   3.547   2.752  16.026 -0.3426  0.8697 -0.1065
  657TMC3    C1 9720   2.885   1.374  15.314  0.6157  0.7109 -0.3090
  657TMC3    C2 9721   2.981   1.399  15.416  0.2577  0.4664  0.5546
  657TMC3    C3 9722   2.955   1.488  15.509 -0.8661  0.0805  0.5171
  657TMC3    C4 9723   2.771   1.448  15.297  0.2765  0.4101  0.1885
  657TMC3    C5 9724   2.757   1.550  15.386 -0.2361 -0.0553  1.7210
  657TMC3    C6 9725   2.852   1.577  15.488 -0.5687  0.2199  0.2888
  657TMC3     C 9726   2.906   1.284  15.208  0.4404  0.6616  1.0258
  657TMC3     O 9727   2.808   1.254  15.145  0.0463  0.4321 -0.5857
  657TMC3     H 9728   3.066   1.336  15.440  0.9305  1.4051  0.6401
  657TMC3    H1 9729   2.706   1.442  15.211 -1.4060 -0.0659  1.4906
  657TMC3    H2 9730   2.817   1.644  15.566  0.0298 -0.6636  1.3250
  657TMC3    C7 9731   2.641   1.644  15.363  0.9144  0.0962  0.1369
  657TMC3    C8 9732   3.053   1.515  15.614 -0.7105  0.0720 -0.3686
  657TMC3    O1 9733   2.662   1.761  15.402 -0.6898 -0.1550  0.4936
  657TMC3    O2 9734   3.118   1.420  15.661 -0.6367  0.1349 -0.9515
  658MPD2     C 9735   4.281   1.743  14.814  0.4195  0.4918 -0.3152
  658MPD2    C1 9736   4.161   1.764  14.751 -0.0014 -0.3155  0.0423
  658MPD2    C2 9737   4.156   1.723  14.615 -1.0041 -0.8915 -0.1285
  658MPD2    C3 9738   4.268   1.664  14.555  0.2948  0.1199 -0.2233
  658MPD2    C4 9739   4.380   1.642  14.630 -0.1484 -0.7211  0.0157
  658MPD2    C5 9740   4.391   1.686  14.753 -0.0157  0.3988  0.1139
  658MPD2     H 9741   4.069   1.741  14.553 -0.3425  1.1358 -0.4868
  658MPD2    H1 9742   4.467   1.596  14.586  0.9417  0.9500  0.4142
  658MPD2    H2 9743   4.285   1.766  14.920  0.6858  1.7470 -0.5937
  658MPD2    H3 9744   4.480   1.659  14.810  0.6636  2.8303  0.2390
  658MPD2     N 9745   4.249   1.615  14.426 -0.4600  0.3313  0.0683
  658MPD2    H5 9746   4.150   1.619  14.400 -0.2658  1.8040 -0.4499
  658MPD2    N1 9747   4.055   1.800  14.836  0.2165 -0.4513  0.1945
  658MPD2    H7 9748   4.072   1.824  14.933  0.7820  0.9442 -0.2596
  659TMC3    C1 9749   3.837   1.822  14.915 -0.1981 -0.2244 -0.1377
  659TMC3    C2 9750   3.877   1.897  15.021 -0.3217 -0.1213  0.4275
  659TMC3    C3 9751   3.777   1.956  15.094  0.1332 -0.1762  0.2822
  659TMC3    C4 9752   3.710   1.785  14.893  0.3589  0.2605 -0.0460
  659TMC3    C5 9753   3.613   1.844  14.967  0.3354 -0.5102 -0.0448
  659TMC3    C6 9754   3.647   1.929  15.071  0.3518  0.2588 -0.3824
  659TMC3     C 9755   3.921   1.802  14.803  0.4879 -0.2122  0.6698
  659TMC3     O 9756   3.863   1.775  14.701  0.4297  0.2298  0.0700
  659TMC3     H 9757   3.975   1.941  15.035  0.9408 -2.9512  0.3276
  659TMC3    H1 9758   3.678   1.729  14.805  2.2511 -1.8650  0.6112
  659TMC3    H2 9759   3.567   1.978  15.127 -0.2036 -0.5320 -0.4883
  659TMC3    C7 9760   3.485   1.776  14.973 -0.7042 -0.6785  0.2919
  659TMC3    C8 9761   3.806   2.032  15.209 -0.1633  0.1955  0.1738
  659TMC3    O1 9762   3.403   1.842  15.034  0.3506 -0.0171 -0.5585
  659TMC3    O2 9763   3.711   2.098  15.255  0.1222 -0.8779 -0.0332
  660MPD2     C 9764   2.918   0.517  12.334 -0.5813 -0.2336  0.9387
  660MPD2    C1 9765   2.785   0.550  12.354  0.0786 -0.0482  0.9088
  660MPD2    C2 9766   2.727   0.526  12.483 -0.8064 -0.7262 -0.0656
  660MPD2    C3 9767   2.797   0.458  12.581  0.2222  1.3386 -0.4970
  660MPD2    C4 9768   2.932   0.432  12.562 -0.3469 -0.4788 -0.4071
  660MPD2    C5 9769   2.986   0.468  12.439 -0.2571  0.3248  0.3284
  660MPD2     H 9770   2.626   0.563  12.495 -0.8136 -1.7184  3.0408
  660MPD2    H1 9771   3.001   0.398  12.639 -0.7331  0.9419  0.5702
  660MPD2    H2 9772   2.968   0.530  12.238 -0.1933 -1.4646  0.9756
  660MPD2    H3 9773   3.088   0.447  12.409 -0.0872  1.2160  0.2852
  660MPD2     N 9774   2.740   0.429  12.705 -0.9363 -0.5717  0.7776
  660MPD2    H5 9775   2.782   0.362  12.769  0.5084  0.2379  0.6818
  660MPD2    N1 9776   2.717   0.603  12.245  0.1588  0.2542  0.2188
  660MPD2    H7 9777   2.769   0.615  12.159 -1.1084  1.5178 -0.3643
  661TMC3    C1 9778   2.548   0.683  12.115 -0.3980 -0.2884  0.1078
  661TMC3    C2 9779   2.626   0.668  11.995 -0.0663  0.3622 -0.5037
  661TMC3    C3 9780   2.556   0.683  11.880 -0.2106 -0.0488 -0.4377
  661TMC3    C4 9781   2.410   0.699  12.107 -0.1915  0.1238 -0.3494
  661TMC3    C5 9782   2.342   0.704  11.985 -0.9341 -0.1517  0.6068
  661TMC3    C6 9783   2.410   0.713  11.873  0.2029  0.2233 -0.8229
  661TMC3     C 9784   2.597   0.657  12.249 -0.5800 -0.1115 -0.6707
  661TMC3     O 9785   2.509   0.646  12.333 -0.4983  0.5518  0.7547
  661TMC3     H 9786   2.734   0.670  11.988 -0.0988 -0.0883 -1.0952
  661TMC3    H1 9787   2.344   0.699  12.193  0.8660 -0.9889  0.4641
  661TMC3    H2 9788   2.357   0.720  11.779 -0.2823  1.1793 -0.4768
  661TMC3    C7 9789   2.202   0.675  11.972  0.5447 -0.7588 -0.3711
  661TMC3    C8 9790   2.631   0.662  11.752 -0.4568 -0.2696  0.0490
  661TMC3    O1 9791   2.122   0.742  12.035 -0.2223  0.4786 -0.3111
  661TMC3    O2 9792   2.739   0.607  11.757 -0.9692  0.2177  0.0735
  662MPD2     C 9793   2.118   0.650  17.618  0.7210 -0.4144  0.0654
  662MPD2    C1 9794   2.029   0.548  17.650  0.0608 -0.6116 -0.2160
  662MPD2    C2 9795   1.911   0.586   0.014 -0.0271 -0.4843  0.3707
  662MPD2    C3 9796   1.873   0.715   0.044 -0.3917 -0.6667  0.3241
  662MPD2    C4 9797   1.972   0.809   0.024  0.1949  0.4030  0.3227
  662MPD2    C5 9798   2.091   0.776  17.655  0.5383  0.1691  0.6416
  662MPD2     H 9799   1.841   0.504   0.029 -0.9034  0.0778 -0.6297
  662MPD2    H1 9800   1.950   0.915   0.030  1.8662  0.7370  0.4773
  662MPD2    H2 9801   2.211   0.635  17.565 -0.0489 -1.2235 -1.0471
  662MPD2    H3 9802   2.175   0.842  17.637  0.2574 -0.6057 -3.4987
  662MPD2     N 9803   1.743   0.750   0.091  0.8360 -0.0204 -0.8730
  662MPD2    H5 9804   1.739   0.845   0.127 -0.5136 -0.4125  0.0452
  662MPD2    N1 9805   2.057   0.410  17.633 -0.0520 -0.4239 -0.3952
  662MPD2    H7 9806   1.986   0.344  17.662  1.9333 -2.6988 -0.6831
  663TMC3    C1 9807   2.210   0.226  17.636 -0.6192  0.1942 -0.0209
  663TMC3    C2 9808   2.156   0.205   0.060  0.0689  0.2922 -1.3173
  663TMC3    C3 9809   2.151   0.075   0.103  0.0046 -0.4232 -0.0776
  663TMC3    C4 9810   2.257   0.141  17.543  0.1358  0.4877 -0.1083
  663TMC3    C5 9811   2.241   0.013  17.587 -0.4760  1.3323  0.7465
  663TMC3    C6 9812   2.178   4.698   0.009 -0.0937  0.0720  0.3611
  663TMC3     C 9813   2.177   0.355  17.579 -0.4638 -1.0281 -0.6393
  663TMC3     O 9814   2.249   0.400  17.490 -0.2138  0.4335 -0.6545
  663TMC3     H 9815   2.158   0.293   0.124  3.2653 -2.2033  1.9815
  663TMC3    H1 9816   2.290   0.167  17.443 -1.9426 -1.1279 -1.2165
  663TMC3    H2 9817   2.185   4.599   0.051 -1.0555  1.0658  2.9351
  663TMC3    C7 9818   2.316   4.633  17.513 -0.3037 -0.2372  0.4693
  663TMC3    C8 9819   2.203   0.059   0.238  0.1721  0.6276 -0.5274
  663TMC3    O1 9820   2.387   4.675  17.422  0.0520 -0.2292  0.2509
  663TMC3    O2 9821   2.272   4.682   0.253 -0.0557 -0.1020 -0.8961
  664MPD2     C 9822   0.694   3.526   0.264  0.6043  0.1930 -0.7010
  664MPD2    C1 9823   0.739   3.653   0.287  0.2597  0.6991 -0.3319
  664MPD2    C2 9824   0.764   3.698   0.415 -0.4377  0.3104  0.1927
  664MPD2    C3 9825   0.739   3.622   0.525  0.0746 -0.1990  0.3169
  664MPD2    C4 9826   0.696   3.498   0.507  0.2374 -0.6365  0.0195
  664MPD2    C5 9827   0.679   3.448   0.381 -0.1998 -0.1691 -0.5230
  664MPD2     H 9828   0.798   3.801   0.418  1.4628 -0.3274  0.4055
  664MPD2    H1 9829   0.674   3.430   0.589 -1.5201  0.8992  0.7992
  664MPD2    H2 9830   0.673   3.486   0.165 -0.3265  1.9580 -1.2161
  664MPD2    H3 9831   0.635   3.349   0.374 -0.5440  0.1067 -2.1434
  664MPD2     N 9832   0.764   3.676   0.652  0.2239 -0.4243  0.4142
  664MPD2    H5 9833   0.795   3.772   0.660 -2.6409  0.6366 -1.2964
  664MPD2    N1 9834   0.778   3.745   0.186 -0.4435 -0.1238  0.1994
  664MPD2    H7 9835   0.830   3.827   0.216 -1.0862  0.0823  0.7472
  665TMC3    C1 9836   0.760   3.713   0.884 -0.6558 -0.1355  0.4420
  665TMC3    C2 9837   0.765   3.663   1.007  0.0860  0.0412  0.8906
  665TMC3    C3 9838   0.740   3.744   1.111 -0.6305  0.3510  0.1263
  665TMC3    C4 9839   0.722   3.845   0.860 -0.7005  0.0067  0.2337
  665TMC3    C5 9840   0.706   3.923   0.966 -0.3477 -0.3335  0.1214
  665TMC3    C6 9841   0.715   3.879   1.093 -0.0330  0.4301  0.0149
  665TMC3     C 9842   0.747   3.616   0.776 -0.3689  0.3360  0.1008
  665TMC3     O 9843   0.743   3.496   0.806  0.6048 -0.1200 -0.2701
  665TMC3     H 9844   0.784   3.558   1.027 -0.0607 -0.3060 -0.8091
  665TMC3    H1 9845   0.714   3.889   0.761 -1.8095 -0.8227 -0.0496
  665TMC3    H2 9846   0.708   3.946   1.178 -2.7915 -2.3459  1.9803
  665TMC3    C7 9847   0.683   4.064   0.931  0.0420 -1.1236  0.3749
  665TMC3    C8 9848   0.660   3.698   1.209  0.0489  0.6539 -0.2051
  665TMC3    O1 9849   0.684   4.090   0.813  0.0078 -0.0579 -0.7829
  665TMC3    O2 9850   0.658   3.761   1.312 -0.6769  0.2089 -0.7411
  666TMC3    C1 9851   1.311   2.668   9.865 -0.3415  0.4814 -0.6740
  666TMC3    C2 9852   1.340   2.600   9.979 -0.1395  0.4364 -0.5885
  666TMC3    C3 9853   1.325   2.667  10.097  0.4022  0.3998 -0.2563
  666TMC3    C4 9854   1.250   2.789   9.868 -0.7051  0.7659  0.1995
  666TMC3    C5 9855   1.238   2.846   9.989  0.7623  0.5956 -0.1088
  666TMC3    C6 9856   1.265   2.788  10.109  1.0082 -0.3484 -0.2299
  666TMC3     C 9857   1.267   2.592   9.755  0.8801 -0.6077 -0.5317
  666TMC3     O 9858   1.284   2.635   9.640 -0.2082  0.1104 -0.1922
  666TMC3     H 9859   1.367   2.495   9.973  0.5017  0.6151 -0.8351
  666TMC3    H1 9860   1.210   2.833   9.777 -0.0802  0.6611 -0.1206
  666TMC3    H2 9861   1.260   2.846  10.200 -0.7885 -1.9615  0.6908
  666TMC3    C7 9862   1.195   2.985  10.000 -0.7622  0.4606 -0.0134
  666TMC3    C8 9863   1.364   2.598  10.219  0.4367  0.6986 -0.1917
  666TMC3    O1 9864   1.168   3.036  10.107  0.2421 -0.7466  0.6972
  666TMC3    O2 9865   1.291   2.609  10.315 -0.0216  0.2501  0.3282
  667MPD2     C 9866   1.635   3.921  14.396  0.3231 -0.3717  0.1855
  667MPD2    C1 9867   1.641   3.855  14.516  0.2856  0.7868 -0.5948
  667MPD2    C2 9868   1.547   3.753  14.534 -0.5163 -0.0637  0.1870
  667MPD2    C3 9869   1.447   3.720  14.445 -0.8840  0.5174 -0.2954
  667MPD2    C4 9870   1.445   3.798  14.331  0.0235 -0.1431  0.3991
  667MPD2    C5 9871   1.539   3.895  14.304  0.1643  0.3790  0.0638
  667MPD2     H 9872   1.556   3.706  14.631  0.7925 -2.3561 -1.0728
  667MPD2    H1 9873   1.380   3.765  14.251 -2.8657  1.3512  2.1020
  667MPD2    H2 9874   1.696   4.005  14.365 -0.2310 -0.5223 -1.3037
  667MPD2    H3 9875   1.557   3.935  14.205  0.1926  1.4861  0.5205
  667MPD2     N 9876   1.356   3.616  14.466  0.4019  0.1179 -0.4279
  667MPD2    H5 9877   1.288   3.595  14.394  1.8960  0.0533 -1.8104
  667MPD2    N1 9878   1.725   3.894  14.627  1.0881 -0.2400  0.5389
  667MPD2    H7 9879   1.706   3.851  14.716  1.3216  1.0984  1.2296
  668TMC3    C1 9880   1.864   4.030  14.755 -0.1772  0.3070 -0.2706
  668TMC3    C2 9881   1.972   4.114  14.760  0.3684 -0.1201 -0.3343
  668TMC3    C3 9882   1.983   4.185  14.879  0.0544 -1.0318 -0.1551
  668TMC3    C4 9883   1.785   4.004  14.865 -0.0631 -0.6671  0.1674
  668TMC3    C5 9884   1.803   4.071  14.983  1.5915  0.0698  0.1499
  668TMC3    C6 9885   1.902   4.166  14.988 -1.0630  1.0627 -0.5516
  668TMC3     C 9886   1.818   3.997  14.622 -0.1437 -0.1535 -0.0263
  668TMC3     O 9887   1.839   4.072  14.529  1.1613  0.0788  0.3382
  668TMC3     H 9888   2.016   4.124  14.661  1.2651 -0.1269  0.0637
  668TMC3    H1 9889   1.719   3.919  14.854 -0.4777 -0.6478  2.5092
  668TMC3    H2 9890   1.914   4.221  15.081 -2.7267  2.2578 -1.0539
  668TMC3    C7 9891   1.740   4.031  15.107  0.2810 -0.3076  0.7341
  668TMC3    C8 9892   2.089   4.282  14.893  0.5509  0.1244  0.3408
  668TMC3    O1 9893   1.775   4.088  15.208  0.3753 -0.0256  0.3095
  668TMC3    O2 9894   2.098   4.349  14.999  0.7513  0.5299  0.2437
  669TMC3    C1 9895   0.190   3.651  14.595 -0.5267  0.6703 -1.0230
  669TMC3    C2 9896   0.148   3.640  14.467  0.3401 -0.0296  0.1991
  669TMC3    C3 9897   0.167   3.743  14.379 -1.1401  0.4722  0.5325
  669TMC3    C4 9898   0.260   3.765  14.631  0.4102 -0.1684 -0.2447
  669TMC3    C5 9899   0.295   3.862  14.536 -0.1363  0.1343  0.2065
  669TMC3    C6 9900   0.229   3.858  14.412  0.3816 -0.1072  0.0719
  669TMC3     C 9901   0.126   3.572  14.696 -0.1013  0.1547 -1.5338
  669TMC3     O 9902   0.022   3.512  14.661  0.5117 -0.1199 -0.1198
  669TMC3     H 9903   0.105   3.544  14.441 -1.7323  0.6350  1.1582
  669TMC3    H1 9904   0.282   3.788  14.735 -0.2700  1.8918 -0.5617
  669TMC3    H2 9905   0.255   3.938  14.343  0.8393  0.5530  1.0026
  669TMC3    C7 9906   0.418   3.940  14.542 -0.6614 -0.0345  0.5831
  669TMC3    C8 9907   0.124   3.719  14.244  0.3240 -0.4547 -0.6967
  669TMC3    O1 9908   0.452   3.997  14.437  0.3933 -0.1092 -0.3160
  669TMC3    O2 9909   0.097   3.602  14.219 -0.1030  0.0239  0.5436
  670MPD2     C 9910   2.405   1.182  13.483 -0.8447  0.2941  0.3407
  670MPD2    C1 9911   2.534   1.212  13.505 -0.1156 -0.0237  0.0234
  670MPD2    C2 9912   2.596   1.188  13.628 -0.8897  0.4814 -0.3363
  670MPD2    C3 9913   2.521   1.143  13.736 -0.5219  0.2653 -0.0757
  670MPD2    C4 9914   2.394   1.117  13.712  0.2915  0.0023 -0.2261
  670MPD2    C5 9915   2.336   1.133  13.589  0.5716  0.0759  0.0243
  670MPD2     H 9916   2.700   1.217  13.632 -0.4386 -1.1781 -0.1497
  670MPD2    H1 9917   2.329   1.081  13.791 -0.3952  0.7048 -0.4631
  670MPD2    H2 9918   2.356   1.203  13.388 -1.1219 -0.5347  0.2974
  670MPD2    H3 9919   2.234   1.105  13.565  0.4518  0.3954  0.1674
  670MPD2     N 9920   2.582   1.128  13.865  0.0449 -0.2747 -0.9460
  670MPD2    H5 9921   2.677   1.165  13.863  0.8706 -2.2906  0.9530
  670MPD2    N1 9922   2.612   1.261  13.397 -0.5748  0.0274 -0.0121
  670MPD2    H7 9923   2.707   1.286  13.422  0.0784 -0.3460 -2.0574
  671TMC3    C1 9924   2.595   1.074  14.104  0.2206 -0.2072 -1.1521
  671TMC3    C2 9925   2.727   1.054  14.103  0.3554  0.5320  0.3366
  671TMC3    C3 9926   2.776   0.965  14.199  0.3168 -0.6121 -0.1801
  671TMC3    C4 9927   2.515   1.039  14.214  0.4108 -0.3035  0.6475
  671TMC3    C5 9928   2.564   0.948  14.304  0.0523 -0.4376  0.7661
  671TMC3    C6 9929   2.696   0.903  14.291  0.1516 -0.1266  0.2032
  671TMC3     C 9930   2.516   1.090  13.980  0.0436 -0.2445 -0.0309
  671TMC3     O 9931   2.397   1.077  13.998 -0.7485  0.1733 -0.5029
  671TMC3     H 9932   2.785   1.061  14.011  0.0414 -2.2018 -0.0468
  671TMC3    H1 9933   2.420   1.090  14.232 -0.2513 -0.9810 -0.8980
  671TMC3    H2 9934   2.744   0.829  14.354 -0.5417  0.0301  0.9163
  671TMC3    C7 9935   2.468   0.839  14.332  0.3799  0.5972  0.4462
  671TMC3    C8 9936   2.909   0.913  14.174  0.2144  0.8284  0.4781
  671TMC3    O1 9937   2.354   0.854  14.284  0.2746  0.2953 -0.2779
  671TMC3    O2 9938   2.925   0.794  14.191  0.2922 -0.0834  0.2106
  672MPD2     C 9939   3.398   1.222   0.517 -0.5532  0.8547  0.2701
  672MPD2    C1 9940   3.280   1.289   0.489 -0.1145  0.2031 -0.4168
  672MPD2    C2 9941   3.213   1.343   0.590  0.7431 -0.5966 -0.2003
  672MPD2    C3 9942   3.266   1.339   0.723  0.2898 -1.1005  0.9569
  672MPD2    C4 9943   3.387   1.276   0.749 -0.1675 -0.7719  0.4853
  672MPD2    C5 9944   3.450   1.219   0.643 -0.4867  1.1730 -0.6328
  672MPD2     H 9945   3.114   1.385   0.571  0.1158 -1.5297  0.9958
  672MPD2    H1 9946   3.438   1.265   0.843 -0.3708 -1.3569  0.5283
  672MPD2    H2 9947   3.449   1.173   0.435 -0.4356 -0.0316  0.8768
  672MPD2    H3 9948   3.549   1.182   0.664 -2.0643 -1.7842  1.5826
  672MPD2     N 9949   3.200   1.400   0.831 -0.2964  0.7188 -0.0064
  672MPD2    H5 9950   3.224   1.359   0.920  1.5499  0.9739 -0.3956
  672MPD2    N1 9951   3.221   1.282   0.361  0.3482  0.1638 -0.2274
  672MPD2    H7 9952   3.125   1.314   0.352 -0.3054 -1.4118  1.2097
  673TMC3    C1 9953   3.156   1.143   0.179 -0.2192  0.6834  0.3294
  673TMC3    C2 9954   3.193   1.019   0.139  0.1331  0.0049  0.1462
  673TMC3    C3 9955   3.098   0.925   0.126 -0.5085  0.2380 -0.5524
  673TMC3    C4 9956   3.024   1.177   0.188 -0.7387 -0.2778  0.4842
  673TMC3    C5 9957   2.931   1.075   0.174  0.0027  0.7431  0.1106
  673TMC3    C6 9958   2.967   0.947   0.146 -0.0503 -0.2941  0.3730
  673TMC3     C 9959   3.266   1.214   0.246  0.3229 -0.0868 -0.3294
  673TMC3     O 9960   3.380   1.185   0.212  0.4677  0.2002 -0.0360
  673TMC3     H 9961   3.298   0.993   0.130  0.0721 -0.1054 -0.2630
  673TMC3    H1 9962   3.005   1.279   0.222  1.2939  0.2798 -0.0678
  673TMC3    H2 9963   2.899   0.863   0.149 -2.1489  1.3620 -1.0902
  673TMC3    C7 9964   2.802   1.104   0.224  0.5331  0.0320  0.3609
  673TMC3    C8 9965   3.146   0.785   0.113 -0.2011  0.0897  0.5462
  673TMC3    O1 9966   2.725   1.013   0.236  0.1226 -0.7685  0.3819
  673TMC3    O2 9967   3.257   0.767   0.067 -0.0714  0.0684  0.3255
  674MPD2     C 9968   2.317   1.699   0.078 -0.3516 -0.2191 -0.1243
  674MPD2    C1 9969   2.301   1.579   0.137 -0.0999 -0.5047  0.9638
  674MPD2    C2 9970   2.218   1.576   0.249  0.3187  0.2108  0.3074
  674MPD2    C3 9971   2.153   1.682   0.296  0.3364  0.3445 -0.5342
  674MPD2    C4 9972   2.163   1.803   0.228  0.4097  0.1462  1.1556
  674MPD2    C5 9973   2.249   1.808   0.117  0.1503  0.2769 -1.0143
  674MPD2     H 9974   2.208   1.482   0.302 -0.2745  0.2152  0.1930
  674MPD2    H1 9975   2.136   1.901   0.265 -0.2186  0.0772  0.8811
  674MPD2    H2 9976   2.390   1.718  17.690 -0.7164  0.2544 -0.3436
  674MPD2    H3 9977   2.268   1.907   0.076 -2.1525  1.1828  0.0690
  674MPD2     N 9978   2.081   1.662   0.422 -0.0216  0.2083 -0.1605
  674MPD2    H5 9979   2.068   1.569   0.460  0.6229  0.5052  0.8013
  674MPD2    N1 9980   2.371   1.470   0.082 -0.6378 -0.1989 -0.3123
  674MPD2    H7 9981   2.421   1.488  17.686  2.9762  3.4822  2.5026
  675TMC3    C1 9982   2.437   1.242   0.055  0.4240 -0.0948  0.1001
  675TMC3    C2 9983   2.372   1.121   0.031 -0.2939 -0.1322  0.5980
  675TMC3    C3 9984   2.441   1.028  17.649  0.0588 -0.3040  0.4262
  675TMC3    C4 9985   2.546   1.279  17.677  0.7835 -0.2716 -0.1375
  675TMC3    C5 9986   2.608   1.185  17.595 -0.1066 -0.3487 -0.4401
  675TMC3    C6 9987   2.546   1.060  17.569 -0.1323 -0.1501 -0.3824
  675TMC3     C 9988   2.360   1.340   0.126  0.1341 -0.2437 -0.1445
  675TMC3     O 9989   2.274   1.290   0.200 -0.2121  0.5011  0.1213
  675TMC3     H 9990   2.281   1.097   0.084 -0.8130  1.4079  0.3999
  675TMC3    H1 9991   2.593   1.372   0.017  1.3131 -1.2683  2.0335
  675TMC3    H2 9992   2.589   0.991  17.497  1.0129  0.1277  0.0289
  675TMC3    C7 9993   2.754   1.207  17.580  0.6701  0.3008 -0.6999
  675TMC3    C8 9994   2.448   0.889  17.691 -0.0529  0.5418  0.3842
  675TMC3    O1 9995   2.793   1.324  17.582 -0.2353  0.4366  0.0412
  675TMC3    O2 9996   2.505   0.810  17.615 -0.2095  0.0190 -0.1156
  676MPD2     C 9997   1.478   3.710  11.108  0.2324  0.4614 -0.0335
  676MPD2    C1 9998   1.369   3.654  11.170  0.0755 -0.4877  0.3334
  676MPD2    C2 9999   1.380   3.521  11.221  0.1683 -0.5773 -0.0407
  676MPD2    C310000   1.496   3.447  11.220 -0.2578  0.2722 -0.5401
  676MPD2    C410001   1.604   3.512  11.163 -0.7496  0.3340  0.5199
  676MPD2    C510002   1.594   3.635  11.101  0.3450  0.6204 -0.7687
  676MPD2     H10003   1.300   3.481  11.282  1.6783 -0.7474  1.8267
  676MPD2    H110004   1.693   3.449  11.159 -1.2875 -0.5331  2.1550
  676MPD2    H210005   1.495   3.808  11.064  0.0246  0.5869  0.1686
  676MPD2    H310006   1.680   3.677  11.051  1.2874  0.1767  0.5023
  676MPD2     N10007   1.509   3.313  11.266 -0.3466 -0.1676 -0.1764
  676MPD2    H510008   1.595   3.268  11.237 -2.2840 -3.0910 -1.4192
  676MPD2    N110009   1.248   3.728  11.188 -0.4416  0.3072  0.3824
  676MPD2    H710010   1.170   3.688  11.238  0.2013 -1.8883 -0.3897
  677TMC3    C110011   1.090   3.888  11.165  0.7337 -0.8371 -0.0329
  677TMC3    C210012   1.001   3.793  11.202 -0.4230 -0.8155 -0.3754
  677TMC3    C310013   0.894   3.834  11.265 -0.0781  0.1601 -0.6696
  677TMC3    C410014   1.063   4.020  11.170 -0.6106 -0.3404  0.2629
  677TMC3    C510015   0.948   4.062  11.234  0.1246 -0.3099 -0.0332
  677TMC3    C610016   0.857   3.969  11.273 -0.7223  0.3869 -0.1858
  677TMC3     C10017   1.225   3.850  11.137  0.1889  0.1598  0.2771
  677TMC3     O10018   1.305   3.938  11.112  0.6699 -0.0743  0.1927
  677TMC3     H10019   1.003   3.685  11.194 -1.7786 -0.9074  0.5536
  677TMC3    H110020   1.128   4.095  11.128  0.5432 -0.6934  1.4255
  677TMC3    H210021   0.766   4.008  11.317 -1.3468 -0.3277 -0.8383
  677TMC3    C710022   0.964   4.156  11.343 -0.2441  0.2793  0.2763
  677TMC3    C810023   0.883   3.766  11.383  0.1484 -0.4642  0.3352
  677TMC3    O110024   0.871   4.155  11.425  0.2791 -0.0958  0.2940
  677TMC3    O210025   0.983   3.703  11.417 -0.3381  0.2941  0.7493
  678MPD2     C10026   1.236   0.573   2.070  0.2904 -0.1656 -0.4023
  678MPD2    C110027   1.241   0.500   1.952 -0.2717 -0.5747 -0.0379
  678MPD2    C210028   1.125   0.461   1.883 -0.2155 -0.1540  0.3019
  678MPD2    C310029   1.002   0.491   1.944 -0.6979 -0.0612 -0.3563
  678MPD2    C410030   1.000   0.555   2.068  0.4681  0.1203  0.3640
  678MPD2    C510031   1.112   0.601   2.122 -0.1792  0.0992  0.5474
  678MPD2     H10032   1.131   0.434   1.778  1.0576  1.2195  0.0133
  678MPD2    H110033   0.907   0.579   2.117 -1.0560 -1.4218 -1.8099
  678MPD2    H210034   1.328   0.608   2.115  1.2212 -0.7386 -1.8731
  678MPD2    H310035   1.100   0.651   2.218  0.5439  0.7765  0.2858
  678MPD2     N10036   0.884   0.465   1.867  0.3055  0.1370  0.6626
  678MPD2    H510037   0.902   0.418   1.779  1.3347 -0.1761  1.0440
  678MPD2    N110038   1.365   0.467   1.901  0.1292  0.2688 -0.3884
  678MPD2    H710039   1.367   0.394   1.831  1.1641 -0.2427  0.1845
  679TMC3    C110040   1.665   0.197   1.875  0.2840 -0.5253  0.6021
  679TMC3    C210041   1.565   0.287   1.887 -0.0089 -0.3878 -0.1676
  679TMC3    C310042   1.592   0.422   1.899 -0.9692 -0.5719 -0.0545
  679TMC3    C410043   1.799   0.237   1.868  0.5301  0.2824  1.1005
  679TMC3    C510044   1.826   0.369   1.868 -0.1174 -0.2670  0.2219
  679TMC3    C610045   1.728   0.462   1.892  0.5234 -0.3806  0.0266
  679TMC3     C10046   1.637   0.080   1.788 -0.5408 -0.1360 -0.0734
  679TMC3     O10047   1.716   4.710   1.784 -0.9616  0.0051  0.0268
  679TMC3     H10048   1.464   0.248   1.897 -0.4709  0.1033 -2.7007
  679TMC3    H110049   1.875   0.161   1.857  0.7795  0.8985 -1.3183
  679TMC3    H210050   1.757   0.567   1.892  0.8434 -0.4722  1.0627
  679TMC3    C710051   1.902   0.406   1.750 -0.1400  0.1066  0.1998
  679TMC3    C810052   1.485   0.516   1.939  0.0578 -0.0776  0.7217
  679TMC3    O110053   1.860   0.500   1.686  0.4324  0.0008 -0.8137
  679TMC3    O210054   1.521   0.618   1.989 -0.3915 -0.4806  0.3912
  680MPD2     C10055   3.281   2.885  13.808 -0.3271 -0.1638  0.6210
  680MPD2    C110056   3.145   2.898  13.806 -0.0933  0.7808 -0.2015
  680MPD2    C210057   3.084   3.026  13.818 -0.1248 -0.3409 -0.5150
  680MPD2    C310058   3.164   3.135  13.850  0.6684  0.6950 -0.2190
  680MPD2    C410059   3.301   3.114  13.852  0.0944  0.0808 -0.3620
  680MPD2    C510060   3.359   2.992  13.833  0.1960  0.6203 -0.2816
  680MPD2     H10061   2.977   3.040  13.807 -0.3714  0.1826  2.4412
  680MPD2    H110062   3.360   3.201  13.880 -0.5786  0.6886 -0.8239
  680MPD2    H210063   3.337   2.794  13.787 -2.4786 -0.6581 -3.0545
  680MPD2    H310064   3.466   2.981  13.847 -0.0342  1.6508  2.3016
  680MPD2     N10065   3.108   3.261  13.877 -0.3280  0.1254 -0.5377
  680MPD2    H510066   3.172   3.338  13.895 -0.9159  0.6297 -0.6030
  680MPD2    N110067   3.059   2.789  13.773 -0.4553  0.0531  1.0038
  680MPD2    H710068   2.958   2.800  13.775 -0.3047  1.8525 -2.1002
  681TMC3    C110069   2.981   2.581  13.683  0.3673  0.4563 -0.8001
  681TMC3    C210070   2.856   2.625  13.672 -0.4579  0.4368 -0.2518
  681TMC3    C310071   2.765   2.540  13.609 -0.0023  0.0656 -0.4614
  681TMC3    C410072   3.020   2.459  13.642  0.3650 -0.3154 -0.4736
  681TMC3    C510073   2.939   2.386  13.561 -0.1397 -0.2696 -0.4119
  681TMC3    C610074   2.812   2.431  13.540  0.1999 -0.3118  0.1726
  681TMC3     C10075   3.095   2.667  13.733  0.7540  0.3409  0.8787
  681TMC3     O10076   3.208   2.622  13.725 -0.3091 -0.2850 -0.6206
  681TMC3     H10077   2.825   2.727  13.691 -0.5290  0.1088  1.3935
  681TMC3    H110078   3.121   2.421  13.654  1.4093  2.3693 -0.7215
  681TMC3    H210079   2.742   2.369  13.485 -1.0256  1.1949  0.0525
  681TMC3    C710080   3.012   2.297  13.472  0.2922 -0.6759 -0.5420
  681TMC3    C810081   2.624   2.554  13.639  0.7052 -0.2009  0.0957
  681TMC3    O110082   3.079   2.207  13.522 -0.3839  0.2869 -0.2093
  681TMC3    O210083   2.535   2.501  13.569  0.3659  0.1395  0.3935
  682MPD2     C10084   0.496   4.020  10.526 -0.2318 -0.5579 -0.6046
  682MPD2    C110085   0.476   3.884  10.514  0.0086 -0.2343  0.3332
  682MPD2    C210086   0.429   3.810  10.627  0.4827 -0.1109  0.2744
  682MPD2    C310087   0.385   3.875  10.738  0.2968 -0.4258  0.2032
  682MPD2    C410088   0.397   4.015  10.749  0.1076 -0.8070 -0.4700
  682MPD2    C510089   0.468   4.078  10.645  0.0294 -0.2343  0.2365
  682MPD2     H10090   0.439   3.702  10.625 -2.4959 -0.4464  2.8460
  682MPD2    H110091   0.365   4.073  10.834 -0.5212 -0.4394 -0.9607
  682MPD2    H210092   0.544   4.067  10.440  1.7622 -3.3894 -1.0043
  682MPD2    H310093   0.501   4.180  10.660 -0.7316  0.3723 -2.3280
  682MPD2     N10094   0.329   3.805  10.849  0.3012 -0.0763 -0.9981
  682MPD2    H510095   0.297   3.871  10.920  1.9925  0.1529 -0.4527
  682MPD2    N110096   0.508   3.818  10.394 -0.0825 -0.3207 -0.2929
  682MPD2    H710097   0.485   3.720  10.405 -0.7023  0.1976  3.2269
  683TMC3    C110098   0.151   3.694  11.195  0.3773  0.3074  0.1796
  683TMC3    C210099   0.078   3.579  11.197  0.1833 -0.1306  0.0840
  683TMC3    C310100   0.083   3.481  11.099 -1.1538  0.0942 -0.2883
  683TMC3    C410101   0.228   3.726  11.087  0.3183  0.5163 -0.6904
  683TMC3    C510102   0.228   3.633  10.984 -1.0449  0.0786 -0.2881
  683TMC3    C610103   0.163   3.512  10.992 -0.1494  0.0373 -0.7606
  683TMC3     C10104   0.208   3.753  11.310  0.0559  0.0136  0.0479
  683TMC3     O10105   0.276   3.857  11.304 -0.4026 -0.1342 -0.5014
  683TMC3     H10106   0.014   3.558  11.282 -1.4709  4.2406 -0.1290
  683TMC3    H110107   0.298   3.809  11.082  0.9925  0.1230  2.2523
  683TMC3    H210108   0.170   3.442  10.910  1.6770 -2.8863  1.9041
  683TMC3    C710109   0.305   3.670  10.858 -0.2108 -0.0618  0.4173
  683TMC3    C810110   0.004   3.359  11.106 -0.2895  0.6240  0.1604
  683TMC3    O110111   0.354   3.583  10.790  0.3465  0.2794  0.1166
  683TMC3    O210112   4.634   3.360  11.183  0.2893 -0.3533 -0.1715
  684MPD2     C10113   2.474   3.661  16.535 -0.8587 -0.3022 -0.3120
  684MPD2    C110114   2.433   3.726  16.420 -0.0322 -0.2497 -0.2409
  684MPD2    C210115   2.419   3.860  16.420  0.0893 -0.6749  0.2685
  684MPD2    C310116   2.472   3.933  16.526 -0.1066 -0.1476 -0.0398
  684MPD2    C410117   2.524   3.862  16.642  0.6400 -0.5698 -0.0170
  684MPD2    C510118   2.514   3.727  16.645 -0.0712  0.2109  0.1624
  684MPD2     H10119   2.385   3.902  16.327 -0.3592 -0.6112  0.4608
  684MPD2    H110120   2.571   3.916  16.723  1.9908  0.3198 -1.4127
  684MPD2    H210121   2.475   3.552  16.541  0.0629 -0.3171 -0.7671
  684MPD2    H310122   2.549   3.674  16.733  0.3124  0.7786  0.3470
  684MPD2     N10123   2.500   4.072  16.520 -0.1642 -0.4880 -0.0992
  684MPD2    H510124   2.543   4.111  16.603  1.8513 -0.3121 -1.2071
  684MPD2    N110125   2.386   3.659  16.311  0.6912  0.5827 -0.3252
  684MPD2    H710126   2.338   3.714  16.239  0.3050 -1.3009 -1.5039
  685TMC3    C110127   2.386   3.487  16.151 -0.6829 -0.0440  0.2269
  685TMC3    C210128   2.299   3.565  16.083 -0.6485  0.1903 -0.0455
  685TMC3    C310129   2.295   3.551  15.949 -0.2757 -0.1345 -0.2099
  685TMC3    C410130   2.469   3.393  16.086 -0.0194 -0.1919  0.7964
  685TMC3    C510131   2.472   3.395  15.948  0.4745 -0.0131  0.4150
  685TMC3    C610132   2.381   3.475  15.880  0.0712  0.1355  0.6924
  685TMC3     C10133   2.418   3.526  16.287  0.0633 -0.1890 -0.1735
  685TMC3     O10134   2.483   3.446  16.355 -0.2632  0.2293  0.2461
  685TMC3     H10135   2.229   3.629  16.135 -1.4688 -0.4790 -0.3208
  685TMC3    H110136   2.523   3.321  16.146  1.1795  1.6615  1.9689
  685TMC3    H210137   2.379   3.463  15.773 -1.2257  2.2103  0.4844
  685TMC3    C710138   2.607   3.420  15.903 -0.0459  0.8873  0.3383
  685TMC3    C810139   2.186   3.611  15.867  0.5807 -0.2340 -0.0193
  685TMC3    O110140   2.616   3.443  15.783 -0.2213  0.9397 -0.5953
  685TMC3    O210141   2.181   3.569  15.750 -0.1127 -0.4186  0.0534
  686MPD2     C10142   3.947   3.753  15.433  0.1461 -0.2916 -0.5793
  686MPD2    C110143   3.938   3.734  15.565  0.1084  0.5164  0.1171
  686MPD2    C210144   4.055   3.714  15.636 -0.3732  0.2766 -0.0921
  686MPD2    C310145   4.179   3.698  15.571 -0.7381 -0.0529  0.0011
  686MPD2    C410146   4.186   3.714  15.431 -0.3926  0.0282  0.2893
  686MPD2    C510147   4.068   3.734  15.365  0.7913  0.1266 -0.9021
  686MPD2     H10148   4.049   3.714  15.744 -0.5318  3.1422 -0.1097
  686MPD2    H110149   4.277   3.686  15.379 -2.0960 -0.1356 -2.6135
  686MPD2    H210150   3.854   3.762  15.378  0.6848  0.1164 -1.4149
  686MPD2    H310151   4.067   3.742  15.257  1.0858  0.7918 -0.8539
  686MPD2     N10152   4.296   3.686  15.649  0.0361  0.1052  0.3543
  686MPD2    H510153   4.371   3.650  15.590 -1.2812 -3.3841  0.7712
  686MPD2    N110154   3.810   3.748  15.618 -0.6401 -0.3391 -0.9056
  686MPD2    H710155   3.738   3.774  15.551 -0.9194  1.4429  0.0844
  687TMC3    C110156   4.361   3.546  15.822  0.4368 -0.3190  0.7322
  687TMC3    C210157   4.288   3.443  15.768 -0.4058  0.6587 -0.2251
  687TMC3    C310158   4.246   3.340  15.852  0.2414 -0.7298 -0.1660
  687TMC3    C410159   4.380   3.548  15.959 -0.9927 -0.6949  0.3207
  687TMC3    C510160   4.345   3.441  16.036 -0.1926  0.0625 -0.0039
  687TMC3    C610161   4.283   3.335  15.986 -0.3416 -0.3671 -0.1355
  687TMC3     C10162   4.308   3.672  15.785  0.6289 -0.3999 -0.8434
  687TMC3     O10163   4.260   3.739  15.874  0.1928  0.5144 -0.3217
  687TMC3     H10164   4.267   3.455  15.662 -1.1616  1.6159  0.0397
  687TMC3    H110165   4.431   3.633  16.003 -0.6753  0.1030 -1.6302
  687TMC3    H210166   4.241   3.255  16.047 -1.0474 -2.0087 -2.7777
  687TMC3    C710167   4.340   3.444  16.177  0.4749 -0.9435  0.1750
  687TMC3    C810168   4.105   3.307  15.832  0.0946  0.2092 -0.0419
  687TMC3    O110169   4.295   3.348  16.237  0.2259  0.0900  0.0754
  687TMC3    O210170   4.044   3.279  15.932  0.3333  0.2183 -0.5024
  688MPD2     C10171   2.983   2.643  17.133  0.0479  0.8153 -0.4456
  688MPD2    C110172   3.064   2.549  17.188 -0.3960  0.8225 -0.0536
  688MPD2    C210173   3.182   2.517  17.127 -0.0710 -0.5158 -0.1010
  688MPD2    C310174   3.230   2.595  17.029 -0.1920 -0.2360  0.5776
  688MPD2    C410175   3.154   2.698  16.987  0.1658 -0.3538 -0.0616
  688MPD2    C510176   3.027   2.715  17.030 -0.6115  0.9236 -0.4285
  688MPD2     H10177   3.231   2.427  17.164 -0.0212 -0.0840  0.8903
  688MPD2    H110178   3.186   2.757  16.902 -0.7859 -0.6198 -0.6140
  688MPD2    H210179   2.886   2.662  17.178  1.1161  2.8151  1.0367
  688MPD2    H310180   2.958   2.788  16.991 -1.4057  1.0291  1.1569
  688MPD2     N10181   3.353   2.568  16.959 -0.1613 -0.1141 -0.0200
  688MPD2    H510182   3.379   2.639  16.891  1.4593 -0.9384 -0.2533
  688MPD2    N110183   3.032   2.460  17.297  0.2105  0.5001 -0.0924
  688MPD2    H710184   3.093   2.381  17.313 -0.8619 -0.1815  0.6689
  689TMC3    C110185   2.942   2.412  17.510  0.1500  0.4216  0.1359
  689TMC3    C210186   2.908   2.475  17.627  0.3822 -0.5389  0.2251
  689TMC3    C310187   2.911   2.396   0.048  0.6755  0.5567 -0.5783
  689TMC3    C410188   2.979   2.284  17.498 -0.1495 -0.5462 -0.1835
  689TMC3    C510189   2.981   2.217  17.616  0.2368 -0.3056  0.3898
  689TMC3    C610190   2.943   2.256   0.049 -0.2001 -0.0860 -0.5625
  689TMC3     C10191   2.948   2.499  17.395  0.1293  0.1163 -0.2448
  689TMC3     O10192   2.892   2.607  17.407  0.0133 -0.4650 -0.2264
  689TMC3     H10193   2.857   2.571  17.621 -1.3242 -1.4063  0.8784
  689TMC3    H110194   2.981   2.237  17.400 -0.9669 -0.8094 -0.0727
  689TMC3    H210195   2.945   2.195   0.139  1.5872  0.2504 -0.3750
  689TMC3    C710196   2.989   2.073  17.607  0.5436 -0.1496 -0.2468
  689TMC3    C810197   2.833   2.430   0.169 -0.2119 -0.4766  0.6742
  689TMC3    O110198   3.054   2.015   0.005  0.3530  0.0131  0.0431
  689TMC3    O210199   2.812   2.341   0.252  0.6315 -0.0327 -0.0303
  690MPD2     C10200   0.699   0.024  16.385  0.5163 -1.1976 -0.7765
  690MPD2    C110201   0.678   4.683  16.268  0.8439 -0.4981  0.7520
  690MPD2    C210202   0.772   4.699  16.163  0.0366 -0.4154  0.0757
  690MPD2    C310203   0.882   0.054  16.180 -0.4772  0.3253  0.0461
  690MPD2    C410204   0.900   0.114  16.300 -0.1862  0.5600  0.0198
  690MPD2    C510205   0.810   0.109  16.403  0.1927 -0.1322 -0.6906
  690MPD2     H10206   0.757   4.632  16.079 -0.7145 -1.2497  0.8628
  690MPD2    H110207   0.995   0.166  16.306  1.5668 -2.5493 -0.5366
  690MPD2    H210208   0.628   0.017  16.467  2.1217  1.4312  0.8262
  690MPD2    H310209   0.821   0.172  16.491 -0.1658  1.0690 -1.5056
  690MPD2     N10210   0.968   0.060  16.070  0.3325 -0.0495 -0.0168
  690MPD2    H510211   0.936   0.022  15.981 -2.0089 -0.6092  1.0592
  690MPD2    N110212   0.574   4.602  16.235 -0.0466 -0.0775 -0.1370
  690MPD2    H710213   0.578   4.550  16.148 -1.1185 -1.8187  0.8552
  691TMC3    C110214   0.377   4.490  16.253  0.6517 -0.2600  0.2465
  691TMC3    C210215   0.243   4.505  16.271  0.1045  0.2167 -0.0988
  691TMC3    C310216   0.165   4.394  16.256  0.3206  0.1777  0.0906
  691TMC3    C410217   0.429   4.368  16.250 -0.6833 -0.4611  0.3468
  691TMC3    C510218   0.348   4.258  16.246  0.1733 -0.1791  0.0655
  691TMC3    C610219   0.208   4.271  16.256  0.2130 -0.3002 -0.4329
  691TMC3     C10220   0.461   4.590  16.311  0.3604  0.0231  0.8166
  691TMC3     O10221   0.426   4.653  16.407  0.3945  0.1618 -0.0165
  691TMC3     H10222   0.200   4.602  16.295  0.2018  0.4772 -0.9550
  691TMC3    H110223   0.536   4.351  16.242 -1.3026 -3.6392 -1.4737
  691TMC3    H210224   0.133   4.193  16.255  0.0736 -0.1839  0.4848
  691TMC3    C710225   0.410   4.128  16.228 -0.1832  0.0119 -0.3719
  691TMC3    C810226   0.021   4.400  16.238 -0.3382 -0.5402 -0.0239
  691TMC3    O110227   0.528   4.120  16.256  0.3630 -0.9807  0.1115
  691TMC3    O210228   4.683   4.306  16.275  0.8550 -0.8800 -0.3423
  692TMC3    C110229   2.916   0.540  15.978  0.1763  0.9706 -0.4578
  692TMC3    C210230   3.024   0.512  16.053 -0.2559  0.4309 -0.3637
  692TMC3    C310231   3.092   0.393  16.041 -0.2932  0.3476 -0.7430
  692TMC3    C410232   2.865   0.454  15.890 -0.1373 -0.4237 -0.3918
  692TMC3    C510233   2.948   0.350  15.854 -0.8680  0.3445 -0.0353
  692TMC3    C610234   3.062   0.320  15.927 -0.0004  0.7697 -0.3980
  692TMC3     C10235   2.820   0.648  16.007 -0.0124 -0.4160 -0.5609
  692TMC3     O10236   2.718   0.654  15.943 -0.4074 -0.4309 -0.3150
  692TMC3     H10237   3.053   0.581  16.132 -2.0905  0.0283  0.6713
  692TMC3    H110238   2.785   0.484  15.824 -0.6232  0.5871  0.6455
  692TMC3    H210239   3.107   0.222  15.915  2.8096  1.8433  1.4083
  692TMC3    C710240   2.882   0.235  15.807 -0.0197 -0.1054  0.5222
  692TMC3    C810241   3.078   0.301  16.156 -0.8030 -0.7178  0.1607
  692TMC3    O110242   2.952   0.169  15.734 -0.2225  0.5302 -0.2069
  692TMC3    O210243   3.146   0.197  16.174 -0.4299 -0.8975  0.1417
  693MPD2     C10244   2.384   2.818  10.631  0.6416  0.0509 -0.0150
  693MPD2    C110245   2.370   2.681  10.601 -0.3158  0.9539  0.1435
  693MPD2    C210246   2.471   2.611  10.546  0.3005 -0.3610  0.9167
  693MPD2    C310247   2.592   2.672  10.536 -0.2770  0.7481  0.5001
  693MPD2    C410248   2.605   2.810  10.566 -0.0016 -0.1983  0.4872
  693MPD2    C510249   2.500   2.884  10.604  0.0622  0.0303 -0.4111
  693MPD2     H10250   2.456   2.504  10.545  0.2286 -0.3506  0.9037
  693MPD2    H110251   2.706   2.847  10.550  0.2206 -0.9569  0.1630
  693MPD2    H210252   2.296   2.878  10.654 -1.4649 -2.4760 -1.4989
  693MPD2    H310253   2.498   2.989  10.630  0.3370 -0.0084 -0.2314
  693MPD2     N10254   2.700   2.590  10.498  0.1094 -0.0298  0.1218
  693MPD2    H510255   2.790   2.632  10.519  0.2102  0.4019 -1.1739
  693MPD2    N110256   2.249   2.622  10.638  0.1342  0.3066 -0.5960
  693MPD2    H710257   2.178   2.670  10.693 -1.4495 -0.6173 -1.8002
  694TMC3    C110258   2.101   2.441  10.684  0.4649  0.2526 -0.6659
  694TMC3    C210259   2.038   2.336  10.627  0.0473 -0.1529 -0.7671
  694TMC3    C310260   1.965   2.248  10.707 -0.2803 -0.4507  0.4185
  694TMC3    C410261   2.102   2.466  10.821 -0.3000 -0.2753 -0.3592
  694TMC3    C510262   2.033   2.369  10.899 -0.2770  0.4490  0.9991
  694TMC3    C610263   1.965   2.265  10.842  0.0371 -0.8854  0.0791
  694TMC3     C10264   2.209   2.499  10.608  0.0843  0.2872 -0.0810
  694TMC3     O10265   2.246   2.416  10.525  0.5327  0.2523 -0.5262
  694TMC3     H10266   2.042   2.321  10.519 -0.9849  0.3300 -0.8765
  694TMC3    H110267   2.164   2.542  10.868  0.7937 -0.9243 -0.7657
  694TMC3    H210268   1.910   2.198  10.907 -0.4473 -0.2904  0.2837
  694TMC3    C710269   2.028   2.399  11.044 -0.0152  0.9079  0.1037
  694TMC3    C810270   1.917   2.121  10.655 -0.0326  0.4610  0.1384
  694TMC3    O110271   2.067   2.507  11.084  0.1682 -0.2558  0.2951
  694TMC3    O210272   1.829   2.063  10.716  0.3082 -0.3500 -0.1965
  695MPD2     C10273   2.845   0.177  13.460 -0.2812 -0.6035 -0.2288
  695MPD2    C110274   2.853   0.239  13.584  0.1255  0.3859  0.1942
  695MPD2    C210275   2.737   0.282  13.642  0.1755 -0.2383  0.3672
  695MPD2    C310276   2.618   0.291  13.568 -0.3452  0.1691 -0.5009
  695MPD2    C410277   2.613   0.226  13.446 -0.9197  0.0347 -0.4028
  695MPD2    C510278   2.725   0.172  13.391 -0.4452 -0.5997  0.4613
  695MPD2     H10279   2.750   0.342  13.731  0.6455 -0.1586  0.2449
  695MPD2    H110280   2.522   0.233  13.388 -0.3452  1.5460 -1.1096
  695MPD2    H210281   2.927   0.123  13.414  0.9894  0.1881  1.1190
  695MPD2    H310282   2.722   0.131  13.291 -0.5073 -0.8129  0.5493
  695MPD2     N10283   2.506   0.350  13.637  0.2345  0.0688 -0.7363
  695MPD2    H510284   2.515   0.379  13.734 -1.1382  0.1015 -0.6268
  695MPD2    N110285   2.978   0.272  13.646  0.2454 -0.5608 -0.4344
  695MPD2    H710286   2.963   0.320  13.734 -1.3316  1.2142 -1.6742
  696TMC3    C110287   2.290   0.443  13.646 -0.1860  0.1240  0.5709
  696TMC3    C210288   2.283   0.420  13.780  0.4081 -0.3489 -0.1424
  696TMC3    C310289   2.194   0.494  13.861 -1.0727 -0.7614 -0.6116
  696TMC3    C410290   2.214   0.537  13.594  0.5309  0.2917  1.3411
  696TMC3    C510291   2.137   0.615  13.670 -0.8434  0.0038 -0.7915
  696TMC3    C610292   2.120   0.594  13.804  0.0574 -0.0489 -0.5558
  696TMC3     C10293   2.394   0.386  13.573  0.2045  0.0127 -0.8493
  696TMC3     O10294   2.367   0.372  13.454 -0.0837 -0.3082  0.2672
  696TMC3     H10295   2.346   0.346  13.828  0.2955  0.2062  0.8480
  696TMC3    H110296   2.236   0.558  13.490  0.6267  0.2819  1.3590
  696TMC3    H210297   2.042   0.649  13.855  0.0186 -0.6280 -0.0012
  696TMC3    C710298   2.103   0.744  13.614 -0.2340  0.7105  0.0127
  696TMC3    C810299   2.220   0.508  14.001 -0.8318 -0.0028  0.4445
  696TMC3    O110300   2.107   0.753  13.492 -0.0689  0.2603 -0.1799
  696TMC3    O210301   2.163   0.600  14.062 -0.2084  0.3866  0.4027
  697MPD2     C10302   1.643   2.702  15.417 -0.8496  0.4161 -0.4354
  697MPD2    C110303   1.698   2.647  15.302 -0.4424  0.1955 -0.5687
  697MPD2    C210304   1.785   2.727  15.234  0.0205 -0.6030  0.6141
  697MPD2    C310305   1.836   2.846  15.283 -0.3365  0.6685 -0.3567
  697MPD2    C410306   1.794   2.886  15.411  0.0765 -0.5709  0.0979
  697MPD2    C510307   1.690   2.819  15.466 -0.8922 -0.0176 -0.3419
  697MPD2     H10308   1.825   2.682  15.143  1.1843  1.1596  0.2510
  697MPD2    H110309   1.836   2.967  15.468 -0.0814  0.6407 -1.5004
  697MPD2    H210310   1.566   2.643  15.466 -1.7064  0.2316 -2.0078
  697MPD2    H310311   1.650   2.866  15.555 -0.7170  0.1729 -0.3633
  697MPD2     N10312   1.936   2.910  15.209  0.4416 -0.5345 -0.1569
  697MPD2    H510313   1.982   2.850  15.141  3.4345  2.2981 -0.6699
  697MPD2    N110314   1.660   2.520  15.250  0.9139  0.4789  0.4892
  697MPD2    H710315   1.708   2.484  15.168  1.1211  0.5581  0.5776
  698TMC3    C110316   2.079   3.081  15.149  0.9714  0.2077  0.4906
  698TMC3    C210317   2.155   3.184  15.197  0.8500 -0.2138  0.0121
  698TMC3    C310318   2.269   3.217  15.129  0.1798 -0.5207 -0.5608
  698TMC3    C410319   2.103   3.019  15.026  0.1176  0.5388  0.0379
  698TMC3    C510320   2.216   3.068  14.959 -0.0891  0.5335 -0.0786
  698TMC3    C610321   2.295   3.171  15.009 -0.5634 -0.5377 -0.2175
  698TMC3     C10322   1.968   3.044  15.231 -0.0962 -0.5896  0.5745
  698TMC3     O10323   1.938   3.115  15.330 -0.4007 -0.0693  0.3364
  698TMC3     H10324   2.140   3.231  15.294  0.5050 -0.9950  0.3400
  698TMC3    H110325   2.046   2.935  14.989  1.6896 -1.6623  2.5748
  698TMC3    H210326   2.380   3.214  14.957  0.8913 -0.7994  1.9220
  698TMC3    C710327   2.251   3.000  14.838 -0.3618  0.8433  0.1062
  698TMC3    C810328   2.309   3.351  15.155 -0.3568  0.0731 -0.1968
  698TMC3    O110329   2.166   2.927  14.796 -0.2477  0.1039 -0.0278
  698TMC3    O210330   2.217   3.424  15.189 -0.3146  0.3039  0.4810
  699TMC3    C110331   2.569   0.485  12.872 -0.4744  0.2455  0.1783
  699TMC3    C210332   2.591   0.361  12.921 -0.5761  0.0270 -0.6392
  699TMC3    C310333   2.557   0.336  13.052 -0.5023 -0.1987  0.2121
  699TMC3    C410334   2.512   0.586  12.941  0.4885  0.1067  0.4251
  699TMC3    C510335   2.482   0.561  13.071  0.3029  0.0656 -0.3817
  699TMC3    C610336   2.510   0.442  13.126  0.4422  0.7825 -0.0308
  699TMC3     C10337   2.646   0.524  12.757 -0.1304 -0.3828 -0.4770
  699TMC3     O10338   2.624   0.637  12.715 -0.0318 -0.6912 -0.0528
  699TMC3     H10339   2.608   0.273  12.860  0.2957 -1.2035  1.3802
  699TMC3    H110340   2.502   0.683  12.892  0.5487  0.4412  1.0813
  699TMC3    H210341   2.486   0.425  13.230  1.6102 -1.7821 -0.1690
  699TMC3    C710342   2.357   0.625  13.107 -0.1180  0.2785 -0.1123
  699TMC3    C810343   2.498   0.209  13.085 -0.6141  0.1581  0.2066
  699TMC3    O110344   2.315   0.617  13.223  0.3412  0.2184 -0.1332
  699TMC3    O210345   2.390   0.226  13.141  0.0956  0.1182 -0.2794
  700TMC3    C110346   0.998   2.756  17.173  0.5045  0.1823 -0.1325
  700TMC3    C210347   1.079   2.661  17.115 -0.0283  0.2678 -0.2435
  700TMC3    C310348   1.201   2.644  17.177 -0.0898 -0.6490  0.1096
  700TMC3    C410349   1.024   2.811  17.299 -0.2418 -0.3853  0.0329
  700TMC3    C510350   1.138   2.770  17.367  0.5909  0.2914  0.2810
  700TMC3    C610351   1.225   2.682  17.310  0.0452 -0.0347  0.5142
  700TMC3     C10352   0.926   2.836  17.071  0.4517  0.5019  0.0002
  700TMC3     O10353   0.894   2.774  16.969 -0.0826 -0.3406  0.8318
  700TMC3     H10354   1.077   2.643  17.008  1.8503  0.9590 -0.4015
  700TMC3    H110355   0.972   2.904  17.321 -1.2565 -0.5181 -1.8321
  700TMC3    H210356   1.323   2.669  17.356  0.6800 -3.9636 -1.9476
  700TMC3    C710357   1.185   2.833  17.485  0.7953  0.3826  0.5013
  700TMC3    C810358   1.299   2.560  17.117  1.0536  0.0612  0.4502
  700TMC3    O110359   1.298   2.816  17.522  0.4523  0.2197  0.5468
  700TMC3    O210360   1.410   2.548  17.167 -0.0483 -0.1171  0.0378
  701TMC3    C110361   0.882   1.541  15.120  0.5072  0.6784  0.8356
  701TMC3    C210362   0.940   1.497  15.006 -0.1967  0.1223 -1.0758
  701TMC3    C310363   1.012   1.588  14.928  0.1990  0.1962  0.0665
  701TMC3    C410364   0.892   1.674  15.154  0.2111 -0.1304 -0.5989
  701TMC3    C510365   0.966   1.759  15.077 -0.5450  0.2519 -0.0470
  701TMC3    C610366   1.026   1.715  14.959  0.5620 -0.6650 -0.3876
  701TMC3     C10367   0.824   1.454  15.213  0.1925  0.3655 -0.0404
  701TMC3     O10368   0.807   1.502  15.324 -0.4925  0.1258 -0.2436
  701TMC3     H10369   0.935   1.394  14.974 -1.3783  0.1806 -1.0703
  701TMC3    H110370   0.835   1.707  15.241  2.5933 -0.4921  1.1148
  701TMC3    H210371   1.089   1.783  14.904  0.7943 -2.4307 -2.2994
  701TMC3    C710372   0.996   1.899  15.123  0.1086 -0.3883  0.3282
  701TMC3    C810373   1.094   1.529  14.828 -0.4876  0.4087  0.9031
  701TMC3    O110374   1.029   1.972  15.033  0.3048 -0.1255 -0.8001
  701TMC3    O210375   1.128   1.407  14.834  0.3211 -0.6407  0.4291
  702MPD2     C10376   1.590   2.857  10.787 -0.2597  0.7910 -0.3201
  702MPD2    C110377   1.561   2.973  10.858 -0.5031 -0.3683 -0.3103
  702MPD2    C210378   1.559   3.096  10.788  0.1716 -0.4687 -0.4602
  702MPD2    C310379   1.578   3.090  10.645 -0.5241 -0.5079  1.0290
  702MPD2    C410380   1.602   2.969  10.580 -0.0775  0.4254 -0.3301
  702MPD2    C510381   1.616   2.855  10.649  0.1912 -0.8453  0.5046
  702MPD2     H10382   1.554   3.195  10.832  1.3498 -0.4705 -0.3225
  702MPD2    H110383   1.614   2.960  10.472 -0.9272  1.0322 -0.4677
  702MPD2    H210384   1.588   2.757  10.828  1.7350  0.8047 -0.1789
  702MPD2    H310385   1.633   2.766  10.590  0.9983  0.6868 -1.5648
  702MPD2     N10386   1.560   3.214  10.579  0.0155  0.6526 -1.2776
  702MPD2    H510387   1.536   3.294  10.636 -0.5755 -0.2779 -0.2225
  702MPD2    N110388   1.533   2.973  10.998 -0.9634 -0.8051 -0.4797
  702MPD2    H710389   1.500   3.057  11.044 -0.7770 -1.0054  0.0144
  703TMC3    C110390   1.566   3.370  10.393 -0.1368 -0.4491  0.4166
  703TMC3    C210391   1.511   3.474  10.462  0.3937  0.1725 -0.1543
  703TMC3    C310392   1.528   3.604  10.411 -0.3210  0.0036 -0.4436
  703TMC3    C410393   1.623   3.393  10.272 -0.2667  0.4867  0.1278
  703TMC3    C510394   1.638   3.518  10.226 -0.3083  0.1928  0.6220
  703TMC3    C610395   1.592   3.629  10.294  0.2117 -0.1897 -0.4009
  703TMC3     C10396   1.576   3.234  10.440 -0.3071 -0.5717  0.2433
  703TMC3     O10397   1.601   3.146  10.361  0.2291 -0.0550 -0.2367
  703TMC3     H10398   1.484   3.461  10.567  1.7411  1.4220  0.3568
  703TMC3    H110399   1.625   3.300  10.216 -0.4548 -0.5828  1.8737
  703TMC3    H210400   1.621   3.724  10.252  1.6122 -0.3299  0.2670
  703TMC3    C710401   1.732   3.539  10.118 -0.3456 -0.2821 -0.0131
  703TMC3    C810402   1.475   3.718  10.484  0.1799 -0.4116  0.1637
  703TMC3    O110403   1.775   3.651  10.105 -0.2256  0.1689  0.0095
  703TMC3    O210404   1.498   3.834  10.449  0.5379 -0.1661  0.0292
  704TMC3    C110405   3.213   1.715  11.514  0.2595  0.1219  0.7140
  704TMC3    C210406   3.326   1.799  11.512 -0.4705  0.6855  0.0227
  704TMC3    C310407   3.415   1.780  11.622 -0.7764  0.4082 -0.2651
  704TMC3    C410408   3.201   1.607  11.594 -1.0728  0.0350 -0.3265
  704TMC3    C510409   3.295   1.587  11.691  0.1098 -0.6368  0.2207
  704TMC3    C610410   3.403   1.674  11.700 -0.0853  0.2618 -0.9318
  704TMC3     C10411   3.111   1.722  11.405 -0.4118 -0.2017  0.3738
  704TMC3     O10412   3.016   1.641  11.402 -0.0406 -0.0371  0.0176
  704TMC3     H10413   3.345   1.887  11.451  1.3480  1.3273  1.5332
  704TMC3    H110414   3.121   1.538  11.571  1.1893 -1.8722 -2.4398
  704TMC3    H210415   3.480   1.653  11.774  0.1744 -0.3754 -1.3860
  704TMC3    C710416   3.331   1.452  11.712  0.4747  0.2828  0.1303
  704TMC3    C810417   3.551   1.813  11.589  0.3749 -0.2850  0.4205
  704TMC3    O110418   3.445   1.423  11.668 -0.2956 -0.2331 -0.2561
  704TMC3    O210419   3.582   1.813  11.469  0.0381 -0.4105 -0.6268
  705MPD2     C10420   3.016   0.113  16.902 -0.0232 -0.5551  0.2261
  705MPD2    C110421   2.984   0.243  16.860  0.5271 -0.6422 -0.7878
  705MPD2    C210422   2.870   0.294  16.922 -0.1150  0.1035 -0.1606
  705MPD2    C310423   2.781   0.221  17.007 -0.6626 -0.0522 -0.6711
  705MPD2    C410424   2.818   0.092  17.050  0.4255  0.3091 -0.4629
  705MPD2    C510425   2.937   0.043  16.997  0.6606 -0.0756  0.7180
  705MPD2     H10426   2.851   0.399  16.904  0.2352  0.1099 -0.5075
  705MPD2    H110427   2.760   0.036  17.122  1.3789 -0.8713 -0.6069
  705MPD2    H210428   3.098   0.056  16.860  1.5030  2.7451 -1.3268
  705MPD2    H310429   2.955   4.660  17.017  1.5262  0.2280  1.5129
  705MPD2     N10430   2.665   0.273  17.065 -0.6406 -0.0747  0.3753
  705MPD2    H510431   2.607   0.209  17.119 -1.2207 -0.0554 -0.2213
  705MPD2    N110432   3.052   0.321  16.762  0.0785 -0.3007  0.4543
  705MPD2    H710433   3.003   0.406  16.738 -0.4470 -0.1219  2.1640
  706TMC3    C110434   3.345   0.362  16.396  0.2139 -0.3740 -0.3134
  706TMC3    C210435   3.342   0.495  16.400 -0.5881  0.1266 -0.0160
  706TMC3    C310436   3.275   0.557  16.499  0.4587 -0.1365 -1.1662
  706TMC3    C410437   3.283   0.287  16.492  0.2069  0.8927  0.0253
  706TMC3    C510438   3.205   0.351  16.581  0.0576  0.1334  0.2351
  706TMC3    C610439   3.199   0.488  16.583 -0.1287 -0.2350  0.1147
  706TMC3     C10440   3.458   0.300  16.333  0.1835  0.7126  0.3845
  706TMC3     O10441   3.477   0.187  16.379 -0.1938 -0.4506 -0.0560
  706TMC3     H10442   3.372   0.564  16.323  2.4137 -1.4304 -0.2208
  706TMC3    H110443   3.294   0.179  16.502 -0.6171  0.9327  1.4183
  706TMC3    H210444   3.136   0.542  16.653  1.7542  2.2024 -0.0762
  706TMC3    C710445   3.170   0.283  16.704 -0.0186 -0.7156  0.7696
  706TMC3    C810446   3.253   0.695  16.464 -0.4839 -0.2729  0.7091
  706TMC3    O110447   3.233   0.177  16.718  0.0720  0.5391  0.1627
  706TMC3    O210448   3.256   0.735  16.350  0.8572 -0.6570 -0.5036
  707TMC3    C110449   4.028   4.270   1.179 -0.2491  0.5507  0.7921
  707TMC3    C210450   4.035   4.180   1.282  0.5533  0.1977 -0.4744
  707TMC3    C310451   3.965   4.067   1.278 -0.0408  0.4903 -0.0644
  707TMC3    C410452   3.936   4.258   1.078  0.0162 -0.1911 -0.6980
  707TMC3    C510453   3.849   4.152   1.092  0.1083 -0.1056 -0.3990
  707TMC3    C610454   3.871   4.055   1.185 -0.7290 -0.1257  0.1565
  707TMC3     C10455   4.140   4.366   1.177  0.7520  0.1753 -0.1876
  707TMC3     O10456   4.211   4.380   1.278 -0.1191  0.0567  0.0711
  707TMC3     H10457   4.115   4.195   1.354  0.0179 -2.5514  0.7182
  707TMC3    H110458   3.927   4.324   0.993  1.0170 -0.5008 -1.0399
  707TMC3    H210459   3.800   3.972   1.185 -2.8166  1.6612 -1.0012
  707TMC3    C710460   3.724   4.162   1.035  0.3510 -0.2111 -0.8302
  707TMC3    C810461   3.996   3.951   1.362 -0.1571  0.6498  0.2231
  707TMC3    O110462   3.663   4.055   1.022  0.0123 -0.4804 -0.4406
  707TMC3    O210463   3.928   3.846   1.349  0.2142 -0.1398  0.2769
  708MPD2     C10464   1.006   4.188  14.139  0.2788 -0.4092  0.3850
  708MPD2    C110465   1.038   4.077  14.206  0.2789 -0.1535  0.7724
  708MPD2    C210466   1.159   4.059  14.276  0.4416  0.7099  0.1756
  708MPD2    C310467   1.253   4.162  14.285 -0.3285  0.9381  0.2457
  708MPD2    C410468   1.216   4.272  14.209  0.3742 -0.0660  1.0060
  708MPD2    C510469   1.098   4.288  14.144  0.0108 -0.0799 -0.7555
  708MPD2     H10470   1.180   3.966  14.327 -1.0910  0.4746  0.3848
  708MPD2    H110471   1.278   4.362  14.207 -4.4009  3.2066  0.0207
  708MPD2    H210472   0.909   4.201  14.093 -0.5833 -0.2706  2.2659
  708MPD2    H310473   1.073   4.389  14.112  0.9440  0.8708  1.4564
  708MPD2     N10474   1.364   4.148  14.361 -0.7926 -0.0251 -0.1881
  708MPD2    H510475   1.376   4.058  14.406  0.7760  0.3090  0.0654
  708MPD2    N110476   0.949   3.972  14.239  0.4140  0.0009  0.0878
  708MPD2    H710477   0.983   3.901  14.302  2.2939 -0.0130 -0.9287
  709TMC3    C110478   0.773   3.825  14.214 -0.4881  0.1554  0.3995
  709TMC3    C210479   0.793   3.727  14.119  0.2958 -0.1387  0.1373
  709TMC3    C310480   0.843   3.611  14.167  0.4850 -0.3577 -0.1916
  709TMC3    C410481   0.787   3.793  14.342  0.2499  0.0299  0.1153
  709TMC3    C510482   0.829   3.668  14.388 -0.2595 -0.4644  0.1876
  709TMC3    C610483   0.853   3.575  14.296 -0.5720  0.5172  0.1217
  709TMC3     C10484   0.829   3.957  14.183  0.4831  0.0050  0.0296
  709TMC3     O10485   0.775   4.029  14.101 -0.1924  0.3488 -0.4442
  709TMC3     H10486   0.795   3.762  14.016 -3.7433 -1.1261 -0.3001
  709TMC3    H110487   0.798   3.875  14.413 -0.3310 -0.6561  0.9867
  709TMC3    H210488   0.923   3.499  14.328  1.3386  1.8982 -0.7700
  709TMC3    C710489   0.946   3.688  14.460 -0.1423 -0.0262 -0.3485
  709TMC3    C810490   0.879   3.510  14.068 -0.5725 -0.3887  0.6154
  709TMC3    O110491   1.033   3.756  14.407 -0.1631  0.3715  0.7205
  709TMC3    O210492   0.917   3.409  14.117  0.4040 -0.2642 -0.4346
  710TMC3    C110493   1.649   0.548   0.920 -0.5601  0.8345  0.3321
  710TMC3    C210494   1.724   0.501   0.817 -0.0998  0.0836  0.1464
  710TMC3    C310495   1.849   0.442   0.841  0.0121  0.3618 -0.2483
  710TMC3    C410496   1.694   0.527   1.051  0.7011 -0.8963 -0.2767
  710TMC3    C510497   1.820   0.475   1.072  1.1892 -0.6558 -0.5819
  710TMC3    C610498   1.905   0.435   0.964 -0.2260 -0.5755 -0.7701
  710TMC3     C10499   1.516   0.575   0.894 -0.4800 -0.7212  0.0553
  710TMC3     O10500   1.464   0.530   0.796  0.0343  0.0215  0.0819
  710TMC3     H10501   1.695   0.518   0.714 -1.2779  1.3820  0.6939
  710TMC3    H110502   1.640   0.550   1.142  1.3403 -1.6849  0.3042
  710TMC3    H210503   2.005   0.399   0.985  0.0837  0.8731  0.2820
  710TMC3    C710504   1.866   0.464   1.212  0.3904  0.3815 -0.0925
  710TMC3    C810505   1.926   0.380   0.734  0.1283  0.1263  0.5946
  710TMC3    O110506   1.789   0.489   1.301 -0.0270 -0.0426 -0.2267
  710TMC3    O210507   1.912   0.444   0.630 -0.5606  0.4379 -0.3604
  711TMC3    C110508   2.104   1.236  15.295  0.3697 -0.4568 -0.1433
  711TMC3    C210509   2.127   1.323  15.393 -0.7638 -0.7402 -0.2747
  711TMC3    C310510   2.232   1.287  15.478 -0.2990  0.7469 -0.0100
  711TMC3    C410511   2.165   1.116  15.280  0.0220 -0.1342  0.0722
  711TMC3    C510512   2.259   1.083  15.373 -0.2684  0.1120 -0.1693
  711TMC3    C610513   2.292   1.168  15.474  0.1583 -0.3032  0.0884
  711TMC3     C10514   1.977   1.234  15.224  0.4501  0.3032 -0.4278
  711TMC3     O10515   1.966   1.158  15.128 -0.1158 -0.1662  0.5648
  711TMC3     H10516   2.097   1.427  15.401  0.6554 -0.3743  0.3459
  711TMC3    H110517   2.148   1.059  15.190 -0.7944  0.4742 -0.1520
  711TMC3    H210518   2.346   1.129  15.559  0.5144  0.8183  0.3771
  711TMC3    C710519   2.333   0.958  15.371  0.5251  0.1048 -1.3907
  711TMC3    C810520   2.293   1.397  15.549  0.5826  0.2466 -0.3067
  711TMC3    O110521   2.431   0.958  15.447 -0.7037 -0.0783 -0.4296
  711TMC3    O210522   2.220   1.493  15.572  0.1489 -0.4687 -0.1848
  712MPD2     C10523   3.626   1.794  13.811  0.3081 -0.3839 -0.0263
  712MPD2    C110524   3.546   1.876  13.742 -0.1969  0.7128  0.5632
  712MPD2    C210525   3.603   1.993  13.698  0.2159  0.9035  0.7185
  712MPD2    C310526   3.729   2.031  13.723  0.8783  0.4523  0.4970
  712MPD2    C410527   3.805   1.941  13.784  0.1777 -1.5821  0.1731
  712MPD2    C510528   3.755   1.825  13.839 -0.1179  0.3347  0.0114
  712MPD2     H10529   3.537   2.057  13.641 -0.9503  0.2096  1.2885
  712MPD2    H110530   3.909   1.963  13.807  0.3551 -2.9028  0.6670
  712MPD2    H210531   3.587   1.710  13.866 -1.3186 -0.8946 -1.9345
  712MPD2    H310532   3.805   1.754  13.902 -1.4424 -1.7260 -1.2738
  712MPD2     N10533   3.784   2.147  13.672  0.3115 -0.3426 -0.1704
  712MPD2    H510534   3.882   2.158  13.698 -0.0346  1.8160  0.1848
  712MPD2    N110535   3.413   1.852  13.715 -0.1418 -0.4578  0.0101
  712MPD2    H710536   3.355   1.929  13.682  1.5482  1.6986  2.0479
  713TMC3    C110537   3.794   2.381  13.582 -1.1904 -0.7858  0.8581
  713TMC3    C210538   3.931   2.370  13.574  0.4870 -0.1242 -0.5169
  713TMC3    C310539   3.992   2.487  13.520  0.4964  0.1555  0.7533
  713TMC3    C410540   3.722   2.495  13.552 -0.1076 -0.6547 -0.4309
  713TMC3    C510541   3.788   2.593  13.486  0.7510  0.1538  0.5348
  713TMC3    C610542   3.924   2.595  13.469 -0.5634 -0.1729 -0.6962
  713TMC3     C10543   3.715   2.259  13.626  0.9493 -0.1683 -0.2778
  713TMC3     O10544   3.593   2.272  13.614 -0.1482  0.3036 -0.1578
  713TMC3     H10545   3.982   2.275  13.582 -1.0754 -0.7955  1.5503
  713TMC3    H110546   3.617   2.511  13.576  0.4171  0.3396  1.2032
  713TMC3    H210547   3.979   2.674  13.420  0.0649  0.3920  0.9303
  713TMC3    C710548   3.723   2.726  13.480  0.3484 -0.8868  0.1403
  713TMC3    C810549   4.142   2.502  13.520 -0.4506  0.4163 -0.4316
  713TMC3    O110550   3.801   2.819  13.483  0.1372  0.1536 -0.1949
  713TMC3    O210551   4.202   2.564  13.435  0.1327 -0.2640  0.2178
  714MPD2     C10552   0.292   0.956   1.770  0.4721 -1.0031 -0.1089
  714MPD2    C110553   0.358   0.896   1.666 -0.2023  0.0359  0.2028
  714MPD2    C210554   0.320   0.931   1.532  0.1769 -0.0763  1.4244
  714MPD2    C310555   0.206   1.005   1.515  0.3886 -0.5401 -0.4399
  714MPD2    C410556   0.145   1.063   1.626  0.0884 -0.3526 -0.1544
  714MPD2    C510557   0.187   1.036   1.752  0.4577  0.6659  0.0536
  714MPD2     H10558   0.365   0.888   1.444 -2.1491  3.1871 -1.3724
  714MPD2    H110559   0.064   1.135   1.622  1.8058  1.6520  1.3997
  714MPD2    H210560   0.326   0.943   1.872  0.6437  1.8316  0.2138
  714MPD2    H310561   0.149   1.093   1.836  1.6076 -2.0845  2.4107
  714MPD2     N10562   0.163   1.036   1.380  0.3575 -0.5371 -0.4335
  714MPD2    H510563   0.209   1.014   1.292 -0.9930 -2.5432 -0.6450
  714MPD2    N110564   0.481   0.835   1.702  0.2499  0.1299  0.2518
  714MPD2    H710565   0.513   0.844   1.798  0.0473  0.9723  0.2467
  715TMC3    C110566   0.703   0.741   1.647  0.1694  0.3642  0.0955
  715TMC3    C210567   0.783   0.684   1.550 -0.4052 -0.3240 -0.0949
  715TMC3    C310568   0.916   0.686   1.567 -0.9346 -0.5546  0.6584
  715TMC3    C410569   0.757   0.809   1.759 -0.4872  0.2773  0.0077
  715TMC3    C510570   0.892   0.801   1.771 -0.5066 -0.8706  0.1641
  715TMC3    C610571   0.974   0.755   1.675  0.0658 -0.8513  0.9560
  715TMC3     C10572   0.565   0.773   1.603 -0.2611  0.0195  0.2389
  715TMC3     O10573   0.536   0.750   1.487 -0.1366 -0.1524 -0.0462
  715TMC3     H10574   0.746   0.625   1.467 -0.1029  2.9487 -2.5624
  715TMC3    H110575   0.707   0.877   1.827  0.6897  1.6596 -0.4841
  715TMC3    H210576   1.080   0.754   1.699  0.8665  1.9811 -2.4048
  715TMC3    C710577   0.962   0.846   1.892  0.1030 -0.3447  0.5754
  715TMC3    C810578   0.987   0.603   1.479 -0.2648 -0.1814  0.2469
  715TMC3    O110579   1.081   0.879   1.883  1.0104 -0.0570 -0.1656
  715TMC3    O210580   0.929   0.499   1.444  0.6797 -0.7097 -0.0187
  716MPD2     C10581   1.562   3.038   9.989 -0.6446 -0.1498 -0.7252
  716MPD2    C110582   1.581   3.031   9.849 -0.4979  0.0504 -0.1165
  716MPD2    C210583   1.611   2.909   9.798  0.3525 -0.1503  0.0599
  716MPD2    C310584   1.620   2.793   9.873  0.6666 -1.0440  0.1979
  716MPD2    C410585   1.615   2.809  10.015  0.4798 -0.1800  0.2048
  716MPD2    C510586   1.585   2.929  10.073  0.3608 -0.4068  0.5007
  716MPD2     H10587   1.624   2.898   9.691 -0.8958 -0.3598 -0.0628
  716MPD2    H110588   1.624   2.729  10.088 -3.0344 -0.2650  0.5371
  716MPD2    H210589   1.543   3.131  10.042 -1.7746 -1.5357  1.2979
  716MPD2    H310590   1.578   2.944  10.181  1.3977  0.8928  0.3881
  716MPD2     N10591   1.652   2.669   9.809 -0.0316  0.3884  0.2415
  716MPD2    H510592   1.652   2.679   9.708 -0.6015 -1.7118  0.0419
  716MPD2    N110593   1.574   3.152   9.777  0.8002 -0.1681 -0.0246
  716MPD2    H710594   1.558   3.229   9.841  1.2150  2.1740 -2.7606
  717TMC3    C110595   1.708   2.443   9.777 -0.4238  0.3282 -0.6119
  717TMC3    C210596   1.629   2.427   9.665  0.0955  0.0072  0.6344
  717TMC3    C310597   1.627   2.304   9.611 -0.3009 -0.7685 -0.5140
  717TMC3    C410598   1.770   2.338   9.837 -1.0389 -0.0490 -0.0051
  717TMC3    C510599   1.764   2.219   9.779  0.0775  0.2895  0.3026
  717TMC3    C610600   1.692   2.195   9.668  0.3731 -0.4426  0.4880
  717TMC3     C10601   1.653   2.542   9.866 -0.2199  0.1718  0.7306
  717TMC3     O10602   1.645   2.522   9.985  0.7685  0.1593  0.3717
  717TMC3     H10603   1.575   2.509   9.617  1.0532  0.1711 -0.1571
  717TMC3    H110604   1.820   2.365   9.929  0.6533  0.5498 -1.1019
  717TMC3    H210605   1.699   2.105   9.608 -0.6727 -0.9152  1.0653
  717TMC3    C710606   1.817   2.104   9.846  0.3385  0.4563  0.3174
  717TMC3    C810607   1.571   2.274   9.480 -0.2746  0.1408 -1.0615
  717TMC3    O110608   1.819   2.102   9.969 -0.2654 -0.6453 -0.4110
  717TMC3    O210609   1.472   2.333   9.450 -0.5921  0.1859 -0.3275
  718MPD2     C10610   0.806   2.202  13.456 -0.5445 -0.8236 -0.5932
  718MPD2    C110611   0.817   2.223  13.323 -0.2035  0.6812 -0.4358
  718MPD2    C210612   0.704   2.189  13.248 -0.3342 -0.6249  0.3002
  718MPD2    C310613   0.583   2.147  13.305  0.4984  0.3266 -0.3851
  718MPD2    C410614   0.573   2.142  13.441 -0.5336 -1.0259 -0.5959
  718MPD2    C510615   0.686   2.177  13.517 -0.4315 -0.0542  0.4183
  718MPD2     H10616   0.701   2.214  13.143  1.2457 -0.5035  0.2794
  718MPD2    H110617   0.474   2.132  13.485 -1.3461 -2.6275 -2.7958
  718MPD2    H210618   0.893   2.213  13.520 -1.4500 -1.9326  0.8140
  718MPD2    H310619   0.672   2.184  13.624  0.8237  2.3664  0.4220
  718MPD2     N10620   0.471   2.144  13.214  0.5139  0.0197 -0.9272
  718MPD2    H510621   0.486   2.174  13.119 -1.2330  0.4560 -1.0745
  718MPD2    N110622   0.936   2.267  13.267  0.2533  0.2333  0.5123
  718MPD2    H710623   1.023   2.261  13.320  1.1081  0.1866 -0.8889
  719TMC3    C110624   1.059   2.280  13.078  0.0646  0.2977  0.3052
  719TMC3    C210625   1.032   2.152  13.029 -0.4925  0.4527  0.4493
  719TMC3    C310626   1.074   2.120  12.901 -0.4418 -0.3131 -0.4978
  719TMC3    C410627   1.135   2.372  13.004 -0.4935  0.0158 -0.0985
  719TMC3    C510628   1.178   2.328  12.876  0.3215  0.4353  0.5521
  719TMC3    C610629   1.149   2.202  12.821 -0.2729 -1.0284  0.7231
  719TMC3     C10630   0.943   2.328  13.140 -0.0146 -0.2797  0.0659
  719TMC3     O10631   0.857   2.372  13.064 -0.4237 -0.2856  0.0880
  719TMC3     H10632   0.981   2.081  13.092  0.0730  1.3573  1.9457
  719TMC3    H110633   1.139   2.475  13.037  0.9876  0.0554 -0.3945
  719TMC3    H210634   1.173   2.177  12.718  0.2266  1.6733  0.1811
  719TMC3    C710635   1.290   2.385  12.805  0.4377 -0.0138  0.6086
  719TMC3    C810636   0.967   2.039  12.841  0.1354 -0.5892  0.1231
  719TMC3    O110637   1.301   2.366  12.685 -0.0790  0.6741 -0.7450
  719TMC3    O210638   0.902   1.975  12.922  0.2356  0.7605  0.3237
  720MPD2     C10639   4.258   3.339  13.791  0.4861 -0.2121 -0.2870
  720MPD2    C110640   4.272   3.474  13.755  0.2252 -0.0402  0.2564
  720MPD2    C210641   4.306   3.570  13.848  0.0471 -0.1861 -0.0275
  720MPD2    C310642   4.346   3.528  13.972  0.3562  0.0711 -0.9071
  720MPD2    C410643   4.332   3.397  14.008 -0.0490  0.1893  0.2379
  720MPD2    C510644   4.284   3.303  13.924  0.4415 -0.3873 -0.1023
  720MPD2     H10645   4.304   3.674  13.817 -2.1380 -0.3802 -0.5433
  720MPD2    H110646   4.366   3.361  14.105  0.1668  1.5175  0.6504
  720MPD2    H210647   4.228   3.262  13.721  3.1365 -0.7838 -0.8061
  720MPD2    H310648   4.262   3.200  13.952  0.1309 -0.4116 -0.4364
  720MPD2     N10649   4.385   3.633  14.059 -0.0890  0.1020 -0.4503
  720MPD2    H510650   4.377   3.727  14.020 -0.0226  0.5998  0.7491
  720MPD2    N110651   4.239   3.517  13.624  0.7477 -0.0401  0.0949
  720MPD2    H710652   4.222   3.616  13.612  1.2952 -0.1058 -1.3243
  721TMC3    C110653   4.478   3.750  14.243 -0.0417 -0.0477  0.3296
  721TMC3    C210654   4.520   3.749  14.372 -0.5332 -0.2992  0.1281
  721TMC3    C310655   4.578   3.864  14.421 -0.6636 -0.0161 -0.4085
  721TMC3    C410656   4.485   3.863  14.165  0.1293  0.1393  0.0678
  721TMC3    C510657   4.532   3.976  14.226  0.0197 -0.6765  0.0625
  721TMC3    C610658   4.579   3.981  14.356 -0.2514 -0.0497 -0.8711
  721TMC3     C10659   4.444   3.621  14.188 -0.4158  0.8058  0.6850
  721TMC3     O10660   4.465   3.517  14.250  0.0170 -0.0759  0.0197
  721TMC3     H10661   4.520   3.656  14.426  1.4233 -1.3825 -1.7120
  721TMC3    H110662   4.472   3.856  14.057 -1.4026 -1.2824  0.3346
  721TMC3    H210663   4.612   4.063  14.419 -0.8752  2.7323 -4.2319
  721TMC3    C710664   4.530   4.097  14.150  0.7073 -0.2667 -0.7115
  721TMC3    C810665   4.574   3.869  14.565 -0.1282  0.2039  0.3071
  721TMC3    O110666   4.607   4.189  14.181 -0.3038  1.0179  0.3963
  721TMC3    O210667   4.667   3.928  14.619 -0.5149  0.6246  0.3717
  722MPD2     C10668   2.631   2.364  13.234 -0.0746  0.5211  0.3896
  722MPD2    C110669   2.573   2.487  13.246 -0.5997  0.3904 -0.1670
  722MPD2    C210670   2.436   2.491  13.280  0.3194  0.4921 -0.2782
  722MPD2    C310671   2.363   2.383  13.333  0.3049  0.5633 -0.6895
  722MPD2    C410672   2.425   2.261  13.309 -0.8103  0.5076 -0.4924
  722MPD2    C510673   2.556   2.255  13.257 -0.2704 -0.3451  0.1863
  722MPD2     H10674   2.399   2.593  13.282 -2.8271 -0.6908  0.5520
  722MPD2    H110675   2.389   2.161  13.329 -1.4235  0.8132 -0.0911
  722MPD2    H210676   2.728   2.342  13.191  0.1773 -0.4231  1.4302
  722MPD2    H310677   2.598   2.158  13.234 -0.9977 -0.9952  1.5528
  722MPD2     N10678   2.237   2.403  13.393 -0.4151  0.1239  0.0563
  722MPD2    H510679   2.219   2.503  13.394 -0.1702  0.1845 -1.2131
  722MPD2    N110680   2.643   2.606  13.216  0.1788 -0.7865 -0.2740
  722MPD2    H710681   2.590   2.692  13.206  0.8443 -0.6374 -2.5682
  723TMC3    C110682   2.045   2.349  13.512 -0.0854 -0.5858 -0.3333
  723TMC3    C210683   1.934   2.299  13.455  0.2133  0.2048  0.5941
  723TMC3    C310684   1.816   2.370  13.467  0.1384  0.8517  0.7212
  723TMC3    C410685   2.050   2.470  13.567  0.6358  0.1217 -0.3135
  723TMC3    C510686   1.934   2.540  13.575 -0.2264 -0.0413  0.1670
  723TMC3    C610687   1.812   2.486  13.528  0.1721  0.0543 -0.6152
  723TMC3     C10688   2.164   2.303  13.445 -0.2923 -0.0451  0.2261
  723TMC3     O10689   2.163   2.182  13.424  0.2244  0.5089  0.4113
  723TMC3     H10690   1.942   2.203  13.405  0.4895  1.3549 -1.5419
  723TMC3    H110691   2.139   2.515  13.609  1.1198 -1.3717  0.2319
  723TMC3    H210692   1.714   2.528  13.547  0.4911  0.0968  0.9051
  723TMC3    C710693   1.943   2.682  13.589 -0.0946  0.2394 -0.8681
  723TMC3    C810694   1.705   2.329  13.388  0.5640  0.6836 -0.2113
  723TMC3    O110695   2.043   2.740  13.544  0.1696  0.1119 -0.0032
  723TMC3    O210696   1.605   2.398  13.402  0.2881  0.4967  0.1056
  724TMC3    C110697   3.126   2.054   8.794  0.5357  0.3232  0.3129
  724TMC3    C210698   3.148   2.169   8.859 -0.5389  0.5931  0.0900
  724TMC3    C310699   3.230   2.169   8.964 -0.2369  0.2548 -0.1910
  724TMC3    C410700   3.204   1.951   8.811 -0.6998  0.4549 -0.2704
  724TMC3    C510701   3.280   1.949   8.922  0.2789  0.0744  0.7239
  724TMC3    C610702   3.307   2.064   8.993  0.5520  0.0778  0.4856
  724TMC3     C10703   3.020   2.052   8.694  0.6347  0.2056 -0.5353
  724TMC3     O10704   2.925   2.124   8.715  0.2052 -0.5316  0.2427
  724TMC3     H10705   3.080   2.253   8.847 -1.6458 -0.0769  1.8095
  724TMC3    H110706   3.182   1.852   8.774  0.5057 -0.4180  1.3139
  724TMC3    H210707   3.363   2.060   9.086  2.6919  0.0250 -0.8091
  724TMC3    C710708   3.307   1.824   8.994  0.2115 -0.8583  0.2213
  724TMC3    C810709   3.210   2.276   9.053  0.0370  0.4298 -0.1102
  724TMC3    O110710   3.311   1.828   9.118  0.2673 -0.2175  0.1885
  724TMC3    O210711   3.177   2.386   9.009  0.0244 -0.2004 -0.4744
  725TMC3    C110712   4.720   3.902  12.152 -0.2913 -0.1535  0.3642
  725TMC3    C210713   4.675   3.932  12.023 -0.1567  0.4191 -0.1645
  725TMC3    C310714   4.641   3.821  11.943  0.5853  0.1670  0.0193
  725TMC3    C410715   0.020   3.774  12.200  0.4726  0.4053 -0.3536
  725TMC3    C510716   4.698   3.666  12.120  0.1978  0.5504  0.3857
  725TMC3    C610717   4.653   3.694  11.991  0.1880  0.1629  0.5864
  725TMC3     C10718   0.024   4.013  12.241  0.8120 -0.5053  0.0089
  725TMC3     O10719   4.673   4.110  12.224 -0.5848 -0.3918  0.2621
  725TMC3     H10720   4.683   4.035  11.992  1.0735  0.1652 -0.7299
  725TMC3    H110721   0.044   3.755  12.305  1.6204 -1.4793 -0.9516
  725TMC3    H210722   4.607   3.619  11.928  0.6538  1.4245 -1.2465
  725TMC3    C710723   4.722   3.520  12.152  0.5210  0.6504 -0.2019
  725TMC3    C810724   4.594   3.840  11.806  0.6904  0.1902  0.0388
  725TMC3    O110725   4.660   3.438  12.088 -0.1826 -0.0465  0.6629
  725TMC3    O210726   4.569   3.736  11.742  0.0500  0.0988 -0.1070
  726MPD2     C10727   2.852   0.356  10.415 -0.7217 -0.4079 -0.4478
  726MPD2    C110728   2.758   0.389  10.321 -0.2210  0.1813  0.0950
  726MPD2    C210729   2.639   0.321  10.330  0.3385 -0.1232  0.5426
  726MPD2    C310730   2.610   0.225  10.426 -0.1247 -0.7496 -0.5964
  726MPD2    C410731   2.714   0.185  10.512  0.1017 -0.1053 -0.3976
  726MPD2    C510732   2.831   0.252  10.508 -0.0007 -0.3529  0.2835
  726MPD2     H10733   2.560   0.364  10.269 -1.1821 -1.1275  1.7931
  726MPD2    H110734   2.704   0.102  10.582  1.5735 -0.2814 -0.4007
  726MPD2    H210735   2.942   0.416  10.417 -1.7462  1.1170  1.1433
  726MPD2    H310736   2.906   0.224  10.580  0.5526 -0.7283 -0.4343
  726MPD2     N10737   2.481   0.170  10.440  0.5000  0.3126 -0.3383
  726MPD2    H510738   2.469   0.097  10.509  1.5451  1.7936  1.3974
  726MPD2    N110739   2.773   0.495  10.231  0.2986 -0.0117  0.1600
  726MPD2    H710740   2.702   0.509  10.160 -1.6951  0.8101  2.3296
  727TMC3    C110741   2.855   0.681  10.118  0.2895 -0.4981 -0.2718
  727TMC3    C210742   2.895   0.813  10.144 -0.7980  0.4009  0.6140
  727TMC3    C310743   2.858   0.905  10.047 -0.1576 -0.3750  0.0172
  727TMC3    C410744   2.794   0.644  10.002 -0.1353 -0.2988 -0.4168
  727TMC3    C510745   2.753   0.740   9.909  0.2565 -0.4610 -0.0908
  727TMC3    C610746   2.787   0.873   9.930  0.2507 -0.1749  0.1800
  727TMC3     C10747   2.873   0.587  10.232  0.4088 -0.6395 -0.0897
  727TMC3     O10748   2.955   0.618  10.323  0.3090 -0.0690 -0.0335
  727TMC3     H10749   2.921   0.838  10.246 -0.6917  2.1828  0.1456
  727TMC3    H110750   2.755   0.545   9.979  2.4015 -1.2112 -0.7979
  727TMC3    H210751   2.772   0.944   9.850  4.6102 -0.9822 -1.3761
  727TMC3    C710752   2.716   0.705   9.782  0.3613  0.6253 -0.3761
  727TMC3    C810753   2.874   1.045  10.084 -0.6996 -0.2656 -0.3854
  727TMC3    O110754   2.728   0.787   9.691 -0.0856 -0.0062 -0.5110
  727TMC3    O210755   2.927   1.073  10.192 -0.3190  0.1616  0.1570
  728TMC3    C110756   1.163   0.102  15.940 -0.5519 -0.5503  0.2363
  728TMC3    C210757   1.300   0.083  15.945  0.3435 -0.3052  0.3670
  728TMC3    C310758   1.371   0.127  15.833  0.8760  0.1135 -0.4906
  728TMC3    C410759   1.089   0.153  15.839 -0.2748 -0.7354 -0.4101
  728TMC3    C510760   1.159   0.188  15.728  0.1268 -0.4475  0.2827
  728TMC3    C610761   1.297   0.170  15.724 -0.0165 -0.1606  0.1404
  728TMC3     C10762   1.095   0.120  16.073 -0.3586  0.3282  0.1713
  728TMC3     O10763   1.165   0.148  16.171 -0.0540  0.0663 -0.7390
  728TMC3     H10764   1.361   0.055  16.030  0.5689  0.9988  0.6322
  728TMC3    H110765   0.985   0.182  15.851 -0.1098 -0.7574  1.1472
  728TMC3    H210766   1.345   0.196  15.630  1.8891  3.5538  2.1277
  728TMC3    C710767   1.083   0.236  15.611 -0.0527 -0.1112 -0.4212
  728TMC3    C810768   1.506   0.182  15.856 -1.0494 -0.5203  0.4508
  728TMC3    O110769   0.963   0.203  15.610  0.7419 -0.0546  0.6140
  728TMC3    O210770   1.544   0.194  15.969 -0.5076 -0.6081 -0.0963
  729MPD2     C10771   3.685   0.397  16.585 -0.2125 -0.2792 -0.1911
  729MPD2    C110772   3.678   0.535  16.603  0.6946  0.2499 -0.4418
  729MPD2    C210773   3.595   0.581  16.699 -0.2959  0.5139  0.5231
  729MPD2    C310774   3.513   0.498  16.767  0.1493  0.3891 -0.6491
  729MPD2    C410775   3.528   0.362  16.759  0.4753 -0.2728  0.4260
  729MPD2    C510776   3.608   0.315  16.661 -0.1030  0.6620 -0.6472
  729MPD2     H10777   3.590   0.687  16.725 -0.1174  0.3915  1.0703
  729MPD2    H110778   3.478   0.285  16.816  0.3534 -0.5897 -0.1074
  729MPD2    H210779   3.754   0.358  16.510  0.5838 -0.4577  0.6332
  729MPD2    H310780   3.612   0.207  16.649 -2.1424  0.4221  0.8140
  729MPD2     N10781   3.428   0.549  16.864 -0.5200 -0.1718 -0.4199
  729MPD2    H510782   3.402   0.479  16.933  1.9608 -1.0313 -0.3385
  729MPD2    N110783   3.782   0.607  16.540 -0.0059 -0.1071 -0.4932
  729MPD2    H710784   3.843   0.559  16.475  1.5377  1.7470 -0.3959
  730TMC3    C110785   3.361   0.709  17.021 -0.0760  0.2683  0.0492
  730TMC3    C210786   3.467   0.655  17.086 -0.7116  0.4800  0.0492
  730TMC3    C310787   3.545   0.740  17.168 -0.1878  0.7595 -0.4225
  730TMC3    C410788   3.319   0.830  17.049  0.6621  0.6634  0.3872
  730TMC3    C510789   3.400   0.909  17.119  0.0366 -0.7537  0.5098
  730TMC3    C610790   3.506   0.869  17.184 -0.3653 -0.7499  0.3162
  730TMC3     C10791   3.380   0.674  16.882 -0.3048 -0.1644  0.1115
  730TMC3     O10792   3.377   0.773  16.805  0.0537 -0.2869 -0.1243
  730TMC3     H10793   3.516   0.560  17.070 -0.1398  0.6225  0.9740
  730TMC3    H110794   3.245   0.874  16.983  0.2787 -0.8509 -0.2194
  730TMC3    H210795   3.561   0.945  17.239 -1.2728  0.8139 -0.9203
  730TMC3    C710796   3.374   1.050  17.124  0.5849 -0.0601  0.1483
  730TMC3    C810797   3.679   0.738  17.106 -0.0574 -0.5370 -0.8948
  730TMC3    O110798   3.473   1.117  17.154 -0.6017  0.2622 -0.1825
  730TMC3    O210799   3.738   0.631  17.095 -0.5749 -0.1020  0.8738
  731MPD2     C10800   4.156   3.694  11.531 -0.8924 -0.4791 -0.4990
  731MPD2    C110801   4.090   3.617  11.622  0.2568 -0.2314 -0.1519
  731MPD2    C210802   4.107   3.636  11.759  0.8082  0.2908  0.0155
  731MPD2    C310803   4.186   3.744  11.803 -0.0540 -0.5949  0.1116
  731MPD2    C410804   4.249   3.821  11.708 -0.3053  0.9462 -0.3821
  731MPD2    C510805   4.239   3.795  11.571  0.3912 -0.7874  0.1484
  731MPD2     H10806   4.065   3.571  11.835  2.0377  1.5069  1.7421
  731MPD2    H110807   4.326   3.894  11.730  1.9493 -1.3690 -0.5402
  731MPD2    H210808   4.132   3.680  11.426  1.0707  2.4814 -1.3512
  731MPD2    H310809   4.296   3.866  11.512  1.7045 -1.6049  0.4350
  731MPD2     N10810   4.219   3.762  11.937 -0.4082 -0.3775 -0.0270
  731MPD2    H510811   4.176   3.695  11.999  0.6230 -1.8734 -0.9446
  731MPD2    N110812   4.009   3.521  11.560 -0.3741  0.1212 -0.1109
  731MPD2    H710813   4.031   3.509  11.461 -0.7879  2.9515 -0.5379
  732TMC3    C110814   3.861   3.337  11.546  0.0699 -0.3553  0.1210
  732TMC3    C210815   3.746   3.272  11.588 -0.3512  0.3055  0.1571
  732TMC3    C310816   3.723   3.144  11.549  0.4976 -0.3468 -0.5072
  732TMC3    C410817   3.962   3.269  11.473  0.1442 -0.4874 -0.1384
  732TMC3    C510818   3.925   3.144  11.429 -0.2522 -0.2155 -0.2597
  732TMC3    C610819   3.805   3.084  11.459  0.7753  0.4487  0.4702
  732TMC3     C10820   3.906   3.456  11.619 -0.2989  0.1393 -0.6470
  732TMC3     O10821   3.860   3.466  11.728 -0.2409 -0.1392 -0.0471
  732TMC3     H10822   3.686   3.329  11.658  0.3439 -0.3283  1.2810
  732TMC3    H110823   4.049   3.323  11.439  0.2397 -1.3485 -1.2522
  732TMC3    H210824   3.789   2.982  11.424  2.5771  0.2082  0.3783
  732TMC3    C710825   4.034   3.072  11.370  0.0994 -0.4643 -0.0600
  732TMC3    C810826   3.608   3.063  11.587 -0.5650  0.0997  0.1089
  732TMC3    O110827   4.002   2.990  11.283 -0.1678  0.4722  0.0745
  732TMC3    O210828   3.580   2.975  11.510 -0.2279  0.0240 -0.4610
  733TMC3    C110829   0.078   1.967  13.033  0.4507  1.0988 -0.3509
  733TMC3    C210830   0.135   2.030  13.140 -0.1132 -0.3511 -0.2046
  733TMC3    C310831   0.273   2.041  13.128  0.3988 -0.6588  0.5111
  733TMC3    C410832   0.141   1.937  12.920  0.0883 -0.7350 -0.0288
  733TMC3    C510833   0.278   1.956  12.911  0.3137  0.0442 -0.0592
  733TMC3    C610834   0.344   2.011  13.017 -0.0454  0.4804  0.6953
  733TMC3     C10835   4.669   1.901  13.053  0.3818 -0.5036  0.8680
  733TMC3     O10836   4.598   1.892  12.956 -0.0402  0.7774 -0.2319
  733TMC3     H10837   0.078   2.069  13.223  2.2483 -0.9395  1.6966
  733TMC3    H110838   0.083   1.897  12.838  0.2564  0.0730 -0.5412
  733TMC3    H210839   0.451   2.012  13.035  0.1440 -0.8696 -0.3609
  733TMC3    C710840   0.339   1.966  12.781 -0.5921  0.0248 -0.2187
  733TMC3    C810841   0.350   2.083  13.246  0.4776  0.1209  0.8512
  733TMC3    O110842   0.269   1.965  12.676 -0.4032  0.1785  0.0508
  733TMC3    O210843   0.290   2.072  13.354  0.2807 -0.1868 -0.9400
  734MPD2     C10844   2.149   4.479  11.879  1.0780 -0.0362  0.0991
  734MPD2    C110845   2.120   4.356  11.823 -0.6434 -0.2729 -0.0099
  734MPD2    C210846   2.195   4.315  11.709  0.2429  0.6536  0.5824
  734MPD2    C310847   2.284   4.403  11.650 -0.2996  0.0205 -0.1791
  734MPD2    C410848   2.299   4.528  11.707  0.0705  0.3151 -1.0359
  734MPD2    C510849   2.233   4.567  11.820  0.6882 -0.1067  0.4432
  734MPD2     H10850   2.184   4.218  11.662 -1.3809  0.7707  0.6875
  734MPD2    H110851   2.367   4.596  11.658  0.6399  1.0665  0.8104
  734MPD2    H210852   2.082   4.506  11.960 -1.5293 -1.9191 -1.4363
  734MPD2    H310853   2.257   4.666  11.857  1.4323 -0.1219 -0.0001
  734MPD2     N10854   2.340   4.367  11.528 -0.4627  0.0689 -0.1461
  734MPD2    H510855   2.319   4.274  11.493  0.6162 -0.5801  0.9206
  734MPD2    N110856   2.021   4.272  11.886  0.3488 -0.6771 -0.1387
  734MPD2    H710857   1.993   4.294  11.981 -4.0647 -1.9626 -1.1463
  735TMC3    C110858   1.862   4.087  11.891 -0.5684  0.4922 -0.3221
  735TMC3    C210859   1.797   4.003  11.797 -0.4412 -0.5318 -0.7231
  735TMC3    C310860   1.812   3.871  11.803 -0.0607 -0.4476 -0.4141
  735TMC3    C410861   1.923   4.037  12.004 -0.9793 -0.0060 -0.7878
  735TMC3    C510862   1.923   3.900  12.008  0.8086 -0.3319  0.1068
  735TMC3    C610863   1.870   3.814  11.912 -0.0728  0.2938  0.5986
  735TMC3     C10864   1.951   4.174  11.817  0.1298 -0.5017  0.9545
  735TMC3     O10865   1.964   4.142  11.698  0.1753  0.4485 -0.1758
  735TMC3     H10866   1.757   4.054  11.710 -0.6983 -1.0738 -0.9217
  735TMC3    H110867   1.978   4.098  12.075 -0.5766 -1.0460 -0.2012
  735TMC3    H210868   1.880   3.706  11.908  0.5873  0.2605  2.8374
  735TMC3    C710869   2.054   3.855  12.032 -0.7617 -0.1780 -0.0978
  735TMC3    C810870   1.822   3.802  11.677 -0.8375  0.5540 -0.3738
  735TMC3    O110871   2.143   3.938  12.011  0.5475 -0.3788  0.1143
  735TMC3    O210872   1.794   3.682  11.665  0.8579 -0.1498  0.4142
  736MPD2     C10873   2.156   3.513  12.125 -0.2114  0.2113  0.3489
  736MPD2    C110874   2.175   3.645  12.096 -0.2875 -0.2546 -0.0980
  736MPD2    C210875   2.300   3.690  12.060  0.1631 -0.1743 -0.7076
  736MPD2    C310876   2.414   3.613  12.081  0.5729  0.1588 -0.2006
  736MPD2    C410877   2.394   3.486  12.127  0.1897  0.1780  0.3021
  736MPD2    C510878   2.264   3.433  12.150  0.5010  0.0228 -0.6125
  736MPD2     H10879   2.314   3.793  12.031  0.0032 -0.5495 -2.1068
  736MPD2    H110880   2.484   3.427  12.141  0.2467 -0.0900 -1.2031
  736MPD2    H210881   2.060   3.465  12.134 -0.3060  0.7362  2.1173
  736MPD2    H310882   2.239   3.330  12.175 -1.1603  0.4279 -0.5728
  736MPD2     N10883   2.538   3.644  12.025 -0.7968 -0.2747  0.5822
  736MPD2    H510884   2.611   3.574  12.017  1.3465  1.9278  0.8826
  736MPD2    N110885   2.059   3.724  12.073  0.3273 -0.3111  0.3773
  736MPD2    H710886   1.971   3.675  12.089  1.1442 -2.2578 -1.0365
  737TMC3    C110887   2.703   3.777  11.904  0.0295 -0.5450 -0.1588
  737TMC3    C210888   2.702   3.877  11.808  1.4796  0.3346 -0.1458
  737TMC3    C310889   2.797   3.871  11.713 -0.4002 -0.7915 -0.3172
  737TMC3    C410890   2.783   3.664  11.895 -0.0620  0.0315 -0.5899
  737TMC3    C510891   2.864   3.655  11.784  0.3218 -0.1566 -0.0379
  737TMC3    C610892   2.881   3.769  11.705 -0.7335 -0.1168 -0.2081
  737TMC3     C10893   2.586   3.775  11.992  0.8299 -0.0241 -0.3839
  737TMC3     O10894   2.524   3.882  11.997 -0.0193 -0.3202 -0.3698
  737TMC3     H10895   2.633   3.960  11.810  0.9099 -0.1855  2.1445
  737TMC3    H110896   2.780   3.588  11.972 -1.0293  1.0807  0.3975
  737TMC3    H210897   2.969   3.791  11.646 -1.0499  1.1862 -0.1967
  737TMC3    C710898   2.950   3.539  11.779  0.7710  0.4671  0.3198
  737TMC3    C810899   2.805   3.975  11.614 -0.6043 -0.0034 -0.0890
  737TMC3    O110900   2.939   3.461  11.873 -0.3958  0.4487  0.4139
  737TMC3    O210901   2.790   4.085  11.662  0.4427 -0.5121  0.0319
  738MPD2     C10902   2.447   3.617  15.085  0.1434 -0.6611 -0.1384
  738MPD2    C110903   2.507   3.490  15.079  0.5596 -0.3482 -0.7803
  738MPD2    C210904   2.644   3.488  15.051  0.4521  0.4694  0.2436
  738MPD2    C310905   2.719   3.608  15.040  0.0670 -0.3210  0.3382
  738MPD2    C410906   2.649   3.729  15.052  0.1631  0.2435 -0.3925
  738MPD2    C510907   2.518   3.731  15.085 -0.3914 -0.2275  0.4179
  738MPD2     H10908   2.703   3.399  15.066 -0.4889 -0.0797  0.6929
  738MPD2    H110909   2.714   3.815  15.051  0.8410 -0.1794  5.2690
  738MPD2    H210910   2.344   3.643  15.107 -0.4453 -1.6448 -1.7227
  738MPD2    H310911   2.477   3.830  15.101 -0.0119 -0.6285  3.8450
  738MPD2     N10912   2.859   3.619  15.030 -0.1306 -0.1969 -0.0645
  738MPD2    H510913   2.895   3.713  15.023  0.6600 -0.3313  2.0321
  738MPD2    N110914   2.442   3.366  15.113 -0.1672 -0.3303  0.1952
  738MPD2    H710915   2.496   3.283  15.092  1.0276  0.7936 -1.2049
  739TMC3    C110916   3.092   3.553  14.991 -0.2953  0.3160  0.3161
  739TMC3    C210917   3.099   3.626  14.877 -1.0861 -0.6943 -0.7455
  739TMC3    C310918   3.218   3.619  14.809  0.2966  0.5168  0.4800
  739TMC3    C410919   3.194   3.474  15.041 -0.0291 -0.5366 -0.4259
  739TMC3    C510920   3.303   3.463  14.962 -0.3019 -0.2825  0.3734
  739TMC3    C610921   3.318   3.532  14.844  0.0861  0.1227  0.1316
  739TMC3     C10922   2.955   3.524  15.041  0.1069  0.3403  0.0007
  739TMC3     O10923   2.931   3.405  15.065  0.5806 -0.1389  0.3542
  739TMC3     H10924   3.013   3.681  14.841 -0.8447 -0.8620 -1.5779
  739TMC3    H110925   3.161   3.396  15.109  1.2966 -0.0824  0.7445
  739TMC3    H210926   3.416   3.528  14.799  0.3961 -1.2820  0.9294
  739TMC3    C710927   3.408   3.371  14.990 -0.5490  0.8059 -0.7436
  739TMC3    C810928   3.210   3.657  14.674  0.7015 -0.2949 -0.2117
  739TMC3    O110929   3.495   3.339  14.903  0.2944 -0.2832 -0.0622
  739TMC3    O210930   3.095   3.670  14.639  0.0080  0.0283 -0.9088
  740TMC3    C110931   3.597   4.412  14.419  0.0331 -0.4208 -0.1957
  740TMC3    C210932   3.619   4.358  14.542 -0.4389  0.5881  0.3661
  740TMC3    C310933   3.751   4.308  14.568 -0.1210 -0.0040  0.4709
  740TMC3    C410934   3.690   4.411  14.313 -0.0739 -0.2025  0.1115
  740TMC3    C510935   3.812   4.353  14.339 -0.3095  0.3225 -0.7418
  740TMC3    C610936   3.843   4.302  14.465 -0.6595 -0.1726  0.4059
  740TMC3     C10937   3.478   4.485  14.396 -0.5715 -0.5248  0.0360
  740TMC3     O10938   3.485   4.568  14.305 -0.4266 -0.7028 -0.2512
  740TMC3     H10939   3.550   4.394  14.617  1.0601 -1.1804  2.5715
  740TMC3    H110940   3.670   4.450  14.215  0.2695 -1.0824 -0.3097
  740TMC3    H210941   3.946   4.269  14.481 -0.3528  1.4098  1.6001
  740TMC3    C710942   3.881   4.290  14.234  1.0323  0.7529 -0.4077
  740TMC3    C810943   3.800   4.303  14.703 -0.5429  0.9414 -0.0185
  740TMC3    O110944   3.936   4.186  14.264 -0.5611  0.0368  0.0250
  740TMC3    O210945   3.923   4.281  14.713 -0.2764  0.0495  0.0652
  741TMC3    C110946   2.944   4.029  14.322  0.1364 -0.3447  0.1511
  741TMC3    C210947   2.817   4.057  14.350  0.6442 -0.1233  0.1169
  741TMC3    C310948   2.776   4.080  14.476 -0.4008  0.2894 -0.4069
  741TMC3    C410949   3.032   4.014  14.427  0.4498 -1.0155 -0.0164
  741TMC3    C510950   2.979   4.015  14.558 -1.3035 -0.7151  0.1617
  741TMC3    C610951   2.851   4.051  14.587 -0.1470  0.6005 -0.2407
  741TMC3     C10952   2.970   3.979  14.188 -0.1691  0.5739 -0.0638
  741TMC3     O10953   2.867   3.961  14.120 -0.8116  0.0401 -0.1801
  741TMC3     H10954   2.742   4.091  14.279  0.8510  0.5680  0.2289
  741TMC3    H110955   3.121   3.957  14.401  0.9540  0.5405 -1.6467
  741TMC3    H210956   2.810   4.068  14.686 -1.9830 -2.6316 -0.4695
  741TMC3    C710957   3.072   4.012  14.673  0.1633  0.1443  0.0990
  741TMC3    C810958   2.633   4.085  14.502  0.2592 -0.1191  0.5979
  741TMC3    O110959   3.020   3.987  14.779  0.0408  0.3065  0.3692
  741TMC3    O210960   2.560   4.151  14.426 -0.0491  0.8095  0.2745
  742TMC3    C110961   2.464   2.740  15.102  0.3015  0.4413 -0.1670
  742TMC3    C210962   2.413   2.702  14.984  0.3548 -0.6003 -0.9810
  742TMC3    C310963   2.496   2.622  14.903 -0.5777 -0.4149  0.5526
  742TMC3    C410964   2.582   2.695  15.158 -0.6728 -0.5384  0.5131
  742TMC3    C510965   2.649   2.600  15.084  0.2185  0.0510  0.4914
  742TMC3    C610966   2.609   2.567  14.955 -0.5780  1.1092  0.0838
  742TMC3     C10967   2.375   2.816  15.195 -0.0493  0.4069  0.4936
  742TMC3     O10968   2.260   2.798  15.174 -0.3918  0.2915  0.0178
  742TMC3     H10969   2.335   2.762  14.939 -0.8193 -1.2131  0.2315
  742TMC3    H110970   2.612   2.730  15.256 -1.3599  0.0628  0.5142
  742TMC3    H210971   2.675   2.504  14.896 -0.6308  1.0662  0.0706
  742TMC3    C710972   2.732   2.495  15.143 -0.0267  0.1345  0.4110
  742TMC3    C810973   2.460   2.571  14.775  0.2184 -0.2344  0.6457
  742TMC3    O110974   2.736   2.396  15.076  0.0024  0.0240 -0.2336
  742TMC3    O210975   2.550   2.536  14.702 -0.1655 -0.0117  0.3113
  743MPD2     C10976   0.166   4.214   2.236 -0.1034  0.4060 -0.2986
  743MPD2    C110977   0.252   4.186   2.127  0.5298 -0.6336  0.0421
  743MPD2    C210978   0.378   4.243   2.125  0.2798 -0.2973  0.7415
  743MPD2    C310979   0.424   4.318   2.233 -0.0046  0.0536 -0.4500
  743MPD2    C410980   0.338   4.343   2.336  0.3833  0.5234  0.6606
  743MPD2    C510981   0.218   4.286   2.341 -0.4638 -0.3933 -0.1436
  743MPD2     H10982   0.442   4.225   2.039  0.2248  0.4514  0.5455
  743MPD2    H110983   0.369   4.403   2.421 -0.0026  2.4873 -0.5812
  743MPD2    H210984   0.064   4.176   2.242 -0.1339  0.4119 -0.7383
  743MPD2    H310985   0.159   4.293   2.431  0.8541  0.4230  0.6569
  743MPD2     N10986   0.555   4.366   2.229 -0.0447  0.8271  0.4891
  743MPD2    H510987   0.616   4.319   2.163  0.6108  0.9012  1.0459
  743MPD2    N110988   0.195   4.107   2.022 -0.3108  0.7465  0.0755
  743MPD2    H710989   0.105   4.064   2.038 -0.4301  0.1759 -2.1556
  744TMC3    C110990   0.182   3.988   1.821  0.4750 -0.1534  0.1256
  744TMC3    C210991   0.050   3.990   1.798 -0.6915  0.7345  0.0282
  744TMC3    C310992   4.722   3.905   1.704  0.4945  0.0485  0.1035
  744TMC3    C410993   0.254   3.890   1.751  0.2111 -0.4695  0.2782
  744TMC3    C510994   0.197   3.806   1.663  0.4512 -0.5060  0.0085
  744TMC3    C610995   0.071   3.813   1.632  0.4638  0.1336  0.0543
  744TMC3     C10996   0.264   4.070   1.905  0.8942  0.0392 -0.1774
  744TMC3     O10997   0.384   4.070   1.885  0.1097  0.2789  0.2870
  744TMC3     H10998   4.707   4.059   1.850 -0.9229 -0.3121  1.1055
  744TMC3    H110999   0.355   3.879   1.787 -0.1114 -0.3796  1.2221
  744TMC3    H211000   0.020   3.773   1.546  1.6101  0.1554 -0.6324
  744TMC3    C711001   0.295   3.739   1.581 -0.4424  1.0581 -0.0048
  744TMC3    C811002   4.581   3.921   1.668  0.2004  0.5980  0.1723
  744TMC3    O111003   0.411   3.772   1.591 -0.7595  0.1386 -0.3909
  744TMC3    O211004   4.525   4.023   1.699 -0.3022  0.7721  0.3611
  745TMC3    C111005   3.201   1.754  13.679 -0.4983  0.3515 -0.2897
  745TMC3    C211006   3.103   1.821  13.756  0.6755 -0.6297 -0.3946
  745TMC3    C311007   2.989   1.858  13.681 -0.6272  0.2494  0.5367
  745TMC3    C411008   3.185   1.741  13.542  0.4300 -0.8172 -0.8911
  745TMC3    C511009   3.070   1.783  13.485  0.3330 -0.6517 -0.7882
  745TMC3    C611010   2.962   1.832  13.550  0.0855  0.4385 -0.4170
  745TMC3     C11011   3.340   1.737  13.735 -0.4205 -0.0146 -0.1758
  745TMC3     O11012   3.370   1.631  13.793 -0.2520  0.1312 -0.0703
  745TMC3     H11013   3.112   1.851  13.860 -2.5026  0.2906 -0.4006
  745TMC3    H111014   3.268   1.697  13.487 -0.4381 -1.7354 -1.4469
  745TMC3    H211015   2.868   1.864  13.506 -0.1274  2.7745  1.7117
  745TMC3    C711016   3.075   1.794  13.342  0.1320 -0.4801 -0.5334
  745TMC3    C811017   2.898   1.959  13.746  0.0515  0.5387 -0.4213
  745TMC3    O111018   2.966   1.808  13.292  0.5550 -0.1116 -0.4679
  745TMC3    O211019   2.777   1.941  13.741 -0.2380  0.2623  0.3788
  746TMC3    C111020   1.418   3.104  11.319  0.1264 -0.2292 -0.1178
  746TMC3    C211021   1.511   3.050  11.233  0.1434 -0.1259 -0.9336
  746TMC3    C311022   1.508   2.912  11.218  0.0960 -0.0129  0.1940
  746TMC3    C411023   1.324   3.018  11.370 -0.0591 -0.1841 -0.0955
  746TMC3    C511024   1.325   2.881  11.353  0.0273 -0.5810  0.0512
  746TMC3    C611025   1.426   2.827  11.279 -0.0605 -0.3613 -0.4680
  746TMC3     C11026   1.411   3.248  11.334  0.1129  0.0650  0.7010
  746TMC3     O11027   1.318   3.291  11.397  0.0957 -1.0555 -0.2030
  746TMC3     H11028   1.590   3.104  11.183  0.5726  0.6380  0.5653
  746TMC3    H111029   1.239   3.068  11.415 -0.7614 -0.5858 -0.9619
  746TMC3    H211030   1.414   2.723  11.251  0.0700 -0.0646 -1.6132
  746TMC3    C711031   1.194   2.827  11.332 -0.5776 -0.2913  0.3122
  746TMC3    C811032   1.531   2.868  11.081 -1.1941 -0.5175  0.1192
  746TMC3    O111033   1.181   2.761  11.228 -0.5604 -0.1678 -0.2427
  746TMC3    O211034   1.529   2.749  11.048  0.2068 -0.2586 -0.1820
  747TMC3    C111035   3.603   3.579  11.002  0.0150 -0.0628 -0.0245
  747TMC3    C211036   3.523   3.492  11.066  0.7125 -0.1119  0.4506
  747TMC3    C311037   3.546   3.473  11.199 -0.0319 -0.3600  0.2175
  747TMC3    C411038   3.701   3.651  11.063 -0.3790  0.3864  0.2230
  747TMC3    C511039   3.716   3.627  11.194  0.0878 -0.0650  0.5427
  747TMC3    C611040   3.640   3.543  11.268 -0.0068 -0.4194 -0.1065
  747TMC3     C11041   3.567   3.631  10.864 -0.4942 -0.8024 -0.2093
  747TMC3     O11042   3.609   3.742  10.835 -0.3411 -0.1113 -0.3694
  747TMC3     H11043   3.444   3.427  11.028  0.2408 -1.7832  4.3036
  747TMC3    H111044   3.753   3.731  11.011  0.8028  0.1734  1.0683
  747TMC3    H211045   3.651   3.520  11.373  0.0264  1.0816  0.2205
  747TMC3    C711046   3.814   3.705  11.270  0.7017  0.0264  0.5337
  747TMC3    C811047   3.474   3.384  11.286 -0.1878 -0.6177  0.1319
  747TMC3    O111048   3.790   3.721  11.389 -0.4072  0.1982 -0.3162
  747TMC3    O211049   3.538   3.281  11.306 -0.1525  0.0835 -0.4502
  748MPD2     C11050   3.675   4.256   1.452  0.0083 -0.2907  0.4804
  748MPD2    C111051   3.787   4.248   1.527 -0.3730  0.6747 -1.0529
  748MPD2    C211052   3.876   4.348   1.508  0.7334  0.0580  0.6501
  748MPD2    C311053   3.863   4.446   1.407 -0.0442  0.0860 -0.3742
  748MPD2    C411054   3.746   4.467   1.352  0.5231 -0.4601  0.4406
  748MPD2    C511055   3.655   4.369   1.372  0.4778 -0.2482 -0.0292
  748MPD2     H11056   3.965   4.355   1.568  0.2473 -0.5877  1.4514
  748MPD2    H111057   3.725   4.546   1.280 -2.1503 -0.5660  1.0958
  748MPD2    H211058   3.594   4.189   1.475 -0.5091 -0.4110 -1.7442
  748MPD2    H311059   3.564   4.379   1.314 -0.2683 -1.8302  0.8665
  748MPD2     N11060   3.963   4.538   1.406 -0.1513  0.3723  0.6859
  748MPD2    H511061   4.034   4.529   1.477  0.7030  2.4775  0.1104
  748MPD2    N111062   3.802   4.143   1.621 -0.2864  0.0499 -0.1696
  748MPD2    H711063   3.739   4.064   1.614 -1.4150  0.6483  3.0350
  749TMC3    C111064   4.101   4.714   1.323 -0.4506  0.1207 -0.7218
  749TMC3    C211065   4.162   4.704   1.447  0.1091  0.0956  0.3298
  749TMC3    C311066   4.292   0.020   1.447 -0.6047  0.1362 -0.0360
  749TMC3    C411067   4.172   0.028   1.209 -0.1131 -0.0864  0.2975
  749TMC3    C511068   4.298   0.083   1.217 -0.1500  0.2905  0.3956
  749TMC3    C611069   4.355   0.076   1.340  0.1656  1.1735 -0.1478
  749TMC3     C11070   3.978   4.630   1.303  0.1670 -0.0917  0.1371
  749TMC3     O11071   3.920   4.627   1.192  0.0151  0.0776  0.0664
  749TMC3     H11072   4.108   4.673   1.536  0.8973  1.3885  1.2719
  749TMC3    H111073   4.123   0.043   1.114 -0.9133  0.5194  0.7963
  749TMC3    H211074   4.449   0.125   1.363 -0.3023  3.1151 -2.3727
  749TMC3    C711075   4.377   0.136   1.109 -0.0642  0.1523  0.1181
  749TMC3    C811076   4.345   0.047   1.575  0.7179 -0.0852  0.3279
  749TMC3    O111077   4.493   0.169   1.133  0.3036  0.2973  0.3212
  749TMC3    O211078   4.271   0.040   1.671  0.1336 -0.5502 -0.1661
  750MPD2     C11079   1.606   0.535  11.138 -0.5734 -0.1384  0.3253
  750MPD2    C111080   1.513   0.481  11.219  0.0096 -0.3480 -0.1373
  750MPD2    C211081   1.462   0.351  11.187  0.9985  0.9231 -0.2245
  750MPD2    C311082   1.515   0.277  11.081 -0.2737  0.3074  1.0828
  750MPD2    C411083   1.607   0.335  11.005  0.1811 -1.1257 -0.1250
  750MPD2    C511084   1.643   0.466  11.027 -0.0590  0.3468 -0.8420
  750MPD2     H11085   1.400   0.304  11.263  0.4530 -1.3941 -2.0714
  750MPD2    H111086   1.647   0.290  10.915  0.8222 -0.8034 -0.0059
  750MPD2    H211087   1.650   0.631  11.162  0.3638 -0.2507 -0.9005
  750MPD2    H311088   1.716   0.508  10.959 -0.1309 -0.4338 -1.4028
  750MPD2     N11089   1.476   0.147  11.058 -0.2943 -0.2370  0.7723
  750MPD2    H511090   1.505   0.117  10.965 -0.9184 -0.5690  0.6876
  750MPD2    N111091   1.475   0.560  11.335 -0.0272 -0.0411  0.1752
  750MPD2    H711092   1.525   0.646  11.357  0.0178  0.3852 -1.6284
  751TMC3    C111093   1.372   4.657  11.066 -0.1572 -0.0213 -0.2934
  751TMC3    C211094   1.259   4.586  11.099  0.1534  0.0637  0.1774
  751TMC3    C311095   1.249   4.463  11.039  0.0690 -0.7872  0.0798
  751TMC3    C411096   1.477   4.597  11.008  0.3916  0.0800  0.3846
  751TMC3    C511097   1.473   4.467  10.963 -0.8081  0.6541  0.1795
  751TMC3    C611098   1.357   4.394  10.984 -0.2153 -0.1542 -0.3159
  751TMC3     C11099   1.389   0.067  11.128 -0.3134  0.6063 -0.5583
  751TMC3     O11100   1.324   0.094  11.227  0.0956 -0.3009 -0.6388
  751TMC3     H11101   1.179   4.645  11.142  0.7902  0.2141  1.1429
  751TMC3    H111102   1.567   4.656  10.991 -0.6905  1.1600 -1.6478
  751TMC3    H211103   1.349   4.286  10.975 -0.9261 -0.1807  0.6552
  751TMC3    C711104   1.597   4.400  10.948 -0.5957 -0.0985 -0.1601
  751TMC3    C811105   1.123   4.391  11.028 -0.5985 -0.7970  0.2428
  751TMC3    O111106   1.696   4.464  10.988  0.2299 -0.6898  0.1671
  751TMC3    O211107   1.116   4.288  10.957  0.5014 -0.0950 -0.8304
  752TMC3    C111108   4.416   1.101  17.186 -0.7759 -0.5057 -0.8944
  752TMC3    C211109   4.282   1.081  17.210 -0.4795  0.1993 -0.1786
  752TMC3    C311110   4.232   1.113  17.331  0.7038  0.4402 -0.3530
  752TMC3    C411111   4.501   1.132  17.287  0.2212 -0.0182 -0.3584
  752TMC3    C511112   4.455   1.155  17.413  0.1380 -0.1662 -0.7074
  752TMC3    C611113   4.320   1.151  17.440 -0.0365 -0.2916  0.6088
  752TMC3     C11114   4.477   1.069  17.060 -0.2004  0.4616  0.0208
  752TMC3     O11115   4.592   1.110  17.048  0.2820  0.0917  0.1899
  752TMC3     H11116   4.214   1.043  17.134  1.9292  0.5161 -2.4908
  752TMC3    H111117   4.608   1.128  17.270  0.0262 -1.0701 -1.3165
  752TMC3    H211118   4.284   1.166  17.541 -2.2808  0.8893 -0.3511
  752TMC3    C711119   4.554   1.183  17.517 -0.0386  0.2170 -0.3225
  752TMC3    C811120   4.086   1.088  17.349 -0.5174 -0.4015  0.7033
  752TMC3    O111121   4.503   1.184  17.626  0.0983  0.1108  0.0695
  752TMC3    O211122   4.015   1.034  17.264  0.3187  0.2214 -0.0612
  753TMC3    C111123   1.315   2.217  13.468  0.8972 -0.4101 -0.3465
  753TMC3    C211124   1.427   2.208  13.550 -0.0486 -0.1093  0.0336
  753TMC3    C311125   1.475   2.085  13.580 -0.5351 -0.3450  0.3643
  753TMC3    C411126   1.250   2.104  13.417 -0.5283  0.3702  0.4076
  753TMC3    C511127   1.305   1.987  13.454  0.3443 -1.0314  0.2980
  753TMC3    C611128   1.411   1.970  13.541 -0.0259  0.3829  0.7681
  753TMC3     C11129   1.245   2.333  13.436  0.3870 -0.1292 -1.1095
  753TMC3     O11130   1.127   2.340  13.463  0.1107  0.0681 -0.0849
  753TMC3     H11131   1.470   2.303  13.580  1.1964 -0.3956 -0.8611
  753TMC3    H111132   1.152   2.105  13.371  0.2869  3.9373 -1.2267
  753TMC3    H211133   1.440   1.873  13.580 -0.9800 -0.8613 -1.6134
  753TMC3    C711134   1.215   1.865  13.438 -0.2138  0.4382 -0.0843
  753TMC3    C811135   1.616   2.072  13.608  0.8496 -0.6006 -0.7462
  753TMC3    O111136   1.097   1.896  13.435  0.1276 -0.1121 -0.1536
  753TMC3    O211137   1.674   1.976  13.557  0.8913 -0.3241 -0.1656
  754MPD2     C11138   0.583   0.242  13.043 -0.8201  0.1693 -0.4456
  754MPD2    C111139   0.512   0.326  12.968 -0.1740 -0.2954  0.3353
  754MPD2    C211140   0.413   0.273  12.886  0.1280  0.0594  0.3299
  754MPD2    C311141   0.390   0.133  12.877  0.2486  0.8285 -0.4677
  754MPD2    C411142   0.465   0.050  12.954  0.0522  0.1091 -0.0116
  754MPD2    C511143   0.567   0.104  13.029  0.0992 -1.1891 -0.4669
  754MPD2     H11144   0.363   0.337  12.815  1.3480  0.2006 -0.4025
  754MPD2    H111145   0.453   4.665  12.949 -1.9634  0.2895  1.1283
  754MPD2    H211146   0.642   0.278  13.127  0.0174  1.6014 -1.6636
  754MPD2    H311147   0.609   0.040  13.105 -1.3099  1.1267  2.2409
  754MPD2     N11148   0.282   0.077  12.803  0.2427 -0.3719 -0.2691
  754MPD2    H511149   0.271   4.699  12.792  1.7071 -0.5665  0.0300
  754MPD2    N111150   0.523   0.468  12.978  0.5840  0.6190  0.3851
  754MPD2    H711151   0.458   0.525  12.926 -0.6079 -1.1375 -0.0580
  755MPD2     C11152   3.949   4.670  12.939 -0.6723  0.9376  0.3977
  755MPD2    C111153   4.023   0.065  12.919  0.3149  0.1091  0.8565
  755MPD2    C211154   4.147   0.054  12.868 -0.2747  0.3576 -0.2116
  755MPD2    C311155   4.210   4.655  12.829  0.0016 -0.0704 -0.1418
  755MPD2    C411156   4.131   4.541  12.839 -1.0511  0.4717  0.2944
  755MPD2    C511157   4.003   4.550  12.896  0.5620  0.1502  0.5460
  755MPD2     H11158   4.214   0.140  12.867  0.0285  0.1271  0.8729
  755MPD2    H111159   4.163   4.439  12.827 -0.0475  1.0149 -1.6821
  755MPD2    H211160   3.854   4.671  12.991 -1.8616  1.6503 -1.8075
  755MPD2    H311161   3.940   4.462  12.907  0.5643 -0.0268 -0.9356
  755MPD2     N11162   4.341   4.643  12.782  0.7608  0.5146 -0.8573
  755MPD2    H511163   4.377   4.548  12.785 -0.4332  0.0819 -0.0265
  755MPD2    N111164   3.985   0.191  12.972  0.1788 -0.2598 -0.6540
  755MPD2    H711165   4.043   0.270  12.945  1.3549 -1.0133 -0.3716
  756MPD2     C11166   0.783   1.047   9.318 -0.5232 -0.3910  0.9589
  756MPD2    C111167   0.723   0.968   9.412  0.6037  0.3396  0.5029
  756MPD2    C211168   0.611   0.893   9.368  0.4125  0.1653 -0.7939
  756MPD2    C311169   0.567   0.886   9.238 -0.2806 -0.5634 -0.5758
  756MPD2    C411170   0.636   0.964   9.148  0.7173 -0.0398  0.3364
  756MPD2    C511171   0.742   1.035   9.192  0.3419 -0.3022  0.1895
  756MPD2     H11172   0.555   0.832   9.437  2.1082  1.7146  1.9776
  756MPD2    H111173   0.608   0.970   9.044 -0.8130  0.7242  0.7873
  756MPD2    H211174   0.866   1.113   9.341 -1.5231  1.0908  0.2930
  756MPD2    H311175   0.789   1.094   9.114 -1.8182 -0.2659 -1.0982
  756MPD2     N11176   0.455   0.802   9.213  0.3801  1.0387  0.0362
  756MPD2    H511177   0.420   0.746   9.291  2.0046  2.7088  1.9693
  756MPD2    N111178   0.768   0.949   9.543  0.1077  0.1958  0.1879
  756MPD2    H711179   0.707   0.887   9.595 -0.4747  0.9479  0.3919
  757MPD2     C11180   0.246   4.716   9.513 -0.1347  0.2458  0.2355
  757MPD2    C111181   0.359   0.052   9.463 -0.2914 -0.9974 -0.1484
  757MPD2    C211182   0.351   0.185   9.421  0.4225 -0.3812  0.2269
  757MPD2    C311183   0.230   0.257   9.420 -0.0815  0.1183  0.3183
  757MPD2    C411184   0.120   0.198   9.473 -0.3206  0.3650  0.2247
  757MPD2    C511185   0.128   0.069   9.515  0.2555  0.3039  0.3087
  757MPD2     H11186   0.444   0.229   9.387 -0.3239  1.3223  0.3352
  757MPD2    H111187   0.025   0.249   9.482 -1.0959 -0.6852 -2.1029
  757MPD2    H211188   0.235   4.612   9.545 -1.1337 -0.0679 -1.1507
  757MPD2    H311189   0.036   0.026   9.553 -0.3222 -0.0431 -1.4751
  757MPD2     N11190   0.226   0.381   9.353 -0.4111  0.2342  0.4977
  757MPD2    H511191   0.312   0.404   9.304 -0.1280  0.3902  1.0654
  757MPD2    N111192   0.470   4.689   9.458 -0.0731 -1.0592 -0.2657
  757MPD2    H711193   0.459   4.599   9.502 -1.2123 -1.2089 -0.8362
  758MPD2     C11194   0.379   0.413  16.059 -0.1311 -0.8072  0.4369
  758MPD2    C111195   0.427   0.452  16.180  0.0146 -0.3270 -0.0431
  758MPD2    C211196   0.348   0.521  16.270  0.1964 -0.1772 -0.8643
  758MPD2    C311197   0.217   0.548  16.232  0.1600 -0.1209  0.3722
  758MPD2    C411198   0.167   0.513  16.109 -0.7328 -0.1989 -0.1215
  758MPD2    C511199   0.251   0.448  16.024  0.0164  0.0829 -0.3347
  758MPD2     H11200   0.391   0.559  16.362  0.0613 -2.7422  0.2360
  758MPD2    H111201   0.067   0.540  16.077 -0.7603  1.2654  1.1848
  758MPD2    H211202   0.435   0.353  15.989 -1.8426 -1.8322 -0.0462
  758MPD2    H311203   0.199   0.411  15.936 -0.6039  1.1464 -0.4266
  758MPD2     N11204   0.122   0.606  16.329  0.3590  0.7355 -0.4740
  758MPD2    H511205   0.027   0.629  16.302  0.5332  1.5332 -0.3969
  758MPD2    N111206   0.566   0.432  16.207  0.6202 -0.3135  0.6803
  758MPD2    H711207   0.629   0.398  16.134  0.5847  1.2069 -0.0581
  759MPD2     C11208   0.405   3.199  10.023 -0.7587 -0.3445 -1.1273
  759MPD2    C111209   0.481   3.087  10.015  0.3797 -0.0539 -0.1385
  759MPD2    C211210   0.569   3.069   9.913  0.4849 -0.2516  0.1202
  759MPD2    C311211   0.584   3.168   9.819  0.4690 -0.1413  0.8505
  759MPD2    C411212   0.510   3.282   9.832 -0.2919 -1.0571  0.1571
  759MPD2    C511213   0.425   3.299   9.938 -0.2893 -0.1761  0.7462
  759MPD2     H11214   0.633   2.981   9.910 -0.4877 -0.8853 -2.1462
  759MPD2    H111215   0.525   3.366   9.765 -0.8356 -2.2652 -1.4881
  759MPD2    H211216   0.343   3.224  10.108 -0.2901  2.9455 -1.7556
  759MPD2    H311217   0.382   3.397   9.954 -0.3947 -0.1645  0.4071
  759MPD2     N11218   0.664   3.144   9.711  0.3133 -0.1406  0.5024
  759MPD2    H511219   0.709   3.054   9.727  1.2981  0.1913 -0.3794
  759MPD2    N111220   0.467   2.980  10.104  0.0768  0.0907 -0.1852
  759MPD2    H711221   0.540   2.909  10.106 -0.6214 -0.5820  1.4182
  760MPD2     C11222   4.143   0.468  11.441 -0.7546  0.2390 -0.1123
  760MPD2    C111223   4.270   0.500  11.392 -0.1603 -0.3254  0.0537
  760MPD2    C211224   4.360   0.397  11.396  0.1136 -0.0407  0.6252
  760MPD2    C311225   4.326   0.273  11.446 -0.2423 -0.1410 -0.2863
  760MPD2    C411226   4.204   0.248  11.509  0.4953  0.0978 -0.0807
  760MPD2    C511227   4.114   0.351  11.510 -0.8825  0.2445  0.2902
  760MPD2     H11228   4.464   0.422  11.378  0.1523  1.2746  2.7169
  760MPD2    H111229   4.184   0.151  11.552 -2.0242  0.6485  0.0169
  760MPD2    H211230   4.057   0.535  11.437  1.5222  3.3633  3.4481
  760MPD2    H311231   4.017   0.329  11.553 -0.4976 -3.4172 -0.6951
  760MPD2     N11232   4.420   0.167  11.441  0.8265 -0.0710 -0.0713
  760MPD2    H511233   4.402   0.076  11.482  0.8564 -0.1454 -0.2233
  760MPD2    N111234   4.297   0.619  11.327  0.6797  0.4620 -0.3436
  760MPD2    H711235   4.389   0.632  11.286  1.2624  0.7154  1.0285
  761MPD2     C11236   0.621   4.327  11.139  0.2383 -0.1097  0.5467
  761MPD2    C111237   0.709   4.253  11.056  0.2840 -0.1887  0.0220
  761MPD2    C211238   0.841   4.286  11.053 -0.3912  0.6189  1.1218
  761MPD2    C311239   0.890   4.404  11.110 -0.5780  0.4502 -0.1877
  761MPD2    C411240   0.806   4.469  11.190 -0.3779 -0.1010 -0.2099
  761MPD2    C511241   0.667   4.435  11.205 -0.6694 -0.1501 -0.2560
  761MPD2     H11242   0.907   4.213  11.007  0.4232  0.6012  2.3032
  761MPD2    H111243   0.834   4.558  11.246  0.0771 -0.5285  0.2480
  761MPD2    H211244   0.520   4.291  11.154  0.6824 -1.4955  0.2129
  761MPD2    H311245   0.602   4.484  11.277 -1.4099  0.4848 -1.3571
  761MPD2     N11246   1.018   4.451  11.101 -0.3540 -0.1896  0.1778
  761MPD2    H511247   1.044   4.534  11.155  0.5061 -0.4438  0.1598
  761MPD2    N111248   0.659   4.132  11.008  0.8438  0.5140 -0.1749
  761MPD2    H711249   0.569   4.107  11.048  0.8782 -2.3600 -1.8796
  762MPD2     C11250   1.150   3.944  10.819 -0.1843  0.5239  0.0723
  762MPD2    C111251   1.102   3.823  10.780  0.9197  0.4149  0.6585
  762MPD2    C211252   1.173   3.737  10.701 -0.0944  0.8620 -0.0396
  762MPD2    C311253   1.299   3.771  10.655 -0.3346 -0.6107 -0.4478
  762MPD2    C411254   1.343   3.893  10.687 -0.7032  0.4916 -0.1580
  762MPD2    C511255   1.272   3.986  10.767 -0.4748  0.2315  0.3002
  762MPD2     H11256   1.128   3.648  10.659  0.3938  0.7604 -0.3465
  762MPD2    H111257   1.440   3.930  10.656 -0.4571 -0.4698 -0.5268
  762MPD2    H211258   1.097   4.010  10.886 -1.9761  0.6345 -1.4553
  762MPD2    H311259   1.304   4.084  10.800  0.3298  0.0864 -0.0336
  762MPD2     N11260   1.369   3.675  10.574 -0.0319  0.1730 -0.1609
  762MPD2    H511261   1.338   3.580  10.557  1.3205  0.4334 -4.1648
  762MPD2    N111262   0.966   3.800  10.823  0.0417  0.0253  0.0060
  762MPD2    H711263   0.911   3.883  10.845 -0.7767 -0.4492 -0.2493
  763MPD2     C11264   2.036   0.305  16.152  0.3697 -0.1113 -0.4384
  763MPD2    C111265   2.164   0.343  16.135 -0.1430  0.1840 -0.9146
  763MPD2    C211266   2.241   0.381  16.239 -0.6198 -0.1535  0.1606
  763MPD2    C311267   2.181   0.394  16.361  0.3670  0.0667 -0.0856
  763MPD2    C411268   2.049   0.361  16.376 -0.0014  0.1074 -0.3714
  763MPD2    C511269   1.978   0.304  16.275 -0.0380 -0.2277 -0.0048
  763MPD2     H11270   2.344   0.414  16.231 -0.6165 -0.6895 -1.9921
  763MPD2    H111271   1.997   0.358  16.471  0.1805 -1.6017 -0.3222
  763MPD2    H211272   1.976   0.271  16.068  1.6082 -0.9979 -0.9564
  763MPD2    H311273   1.876   0.283  16.305 -0.9252  3.7674 -0.2584
  763MPD2     N11274   2.262   0.429  16.468 -0.0543  0.4207  0.3152
  763MPD2    H511275   2.361   0.442  16.449 -0.5843  3.1005 -0.5166
  763MPD2    N111276   2.214   0.341  16.001  0.0665  0.3059  0.1888
  763MPD2    H711277   2.144   0.329  15.928  0.3166  0.3601 -0.0603
  764MPD2     C11278   0.626   1.855  17.433 -0.6868 -0.1399  0.5107
  764MPD2    C111279   0.495   1.886  17.396 -0.6820 -0.5834 -0.9654
  764MPD2    C211280   0.393   1.825  17.469  0.7274  0.6985 -1.0407
  764MPD2    C311281   0.407   1.735  17.571  0.4920  0.3111  0.0587
  764MPD2    C411282   0.535   1.708  17.608  0.3141 -0.1026 -0.0610
  764MPD2    C511283   0.639   1.763  17.532 -0.0313  0.6570 -0.1217
  764MPD2     H11284   0.291   1.848  17.438  0.3394  0.5059  0.0875
  764MPD2    H111285   0.556   1.638  17.688  0.3682 -1.2976 -1.0982
  764MPD2    H211286   0.711   1.896  17.380 -2.3885  0.3326 -1.8547
  764MPD2    H311287   0.742   1.733  17.549 -0.7496 -1.6404  0.0402
  764MPD2     N11288   0.298   1.674  17.629 -0.8367 -0.1790  0.8079
  764MPD2    H511289   0.328   1.609   0.011 -2.3392 -1.1592  0.5663
  764MPD2    N111290   0.465   1.973  17.290  0.0193  0.6782  1.2160
  764MPD2    H711291   0.365   1.987  17.281 -0.2350 -0.2906  2.5683
  765MPD2     C11292   4.314   4.608  16.060 -0.2410  0.3035  0.0312
  765MPD2    C111293   4.421   4.678  16.007 -0.1847  0.1767  0.2887
  765MPD2    C211294   4.546   4.636  16.046  0.5133  0.3017 -0.9118
  765MPD2    C311295   4.570   4.539  16.140  0.3353  0.1965  0.2039
  765MPD2    C411296   4.461   4.468  16.192  0.5148  0.1443  0.4951
  765MPD2    C511297   4.330   4.502  16.145 -0.5234  0.3840 -0.1111
  765MPD2     H11298   4.636   4.675  15.998  1.5185 -1.7871 -0.7178
  765MPD2    H111299   4.482   4.400  16.274 -0.5878  1.4391  1.8729
  765MPD2    H211300   4.213   4.623  16.025  0.6016  1.0836 -2.0652
  765MPD2    H311301   4.249   4.446  16.191  0.6894 -2.2644 -1.2320
  765MPD2     N11302   4.702   4.509  16.173  0.3833 -0.5040 -0.6724
  765MPD2    H511303   0.058   4.555  16.129 -1.0424  2.1643 -0.4202
  765MPD2    N111304   4.406   0.054  15.900 -0.2237 -0.6190  0.1814
  765MPD2    H711305   4.310   0.073  15.872  0.5019  2.0283 -0.4526
  766MPD2     C11306   4.366   4.490  15.184 -0.5793  1.0413 -0.9616
  766MPD2    C111307   4.462   4.587  15.181  0.3234  0.5155 -0.4316
  766MPD2    C211308   4.535   4.599  15.065  0.3904  0.4326  0.2018
  766MPD2    C311309   4.501   4.533  14.947 -0.2683  0.1716 -0.3744
  766MPD2    C411310   4.403   4.435  14.952 -0.0368 -0.5596  0.0676
  766MPD2    C511311   4.336   4.422  15.069 -0.7639 -0.3110 -0.1557
  766MPD2     H11312   4.611   4.676  15.072  1.2910 -0.5644  1.3466
  766MPD2    H111313   4.371   4.378  14.866  1.5590  0.9328 -1.5131
  766MPD2    H211314   4.310   4.460  15.272 -0.9667  0.7910 -1.2886
  766MPD2    H311315   4.261   4.344  15.071 -2.6282  1.4810  0.3074
  766MPD2     N11316   4.580   4.555  14.831 -0.0574  0.1585 -0.2311
  766MPD2    H511317   4.549   4.503  14.749  1.5234  1.3197 -1.5471
  766MPD2    N111318   4.475   4.679  15.287  0.3592 -0.1376 -0.8043
  766MPD2    H711319   4.549   0.025  15.272 -0.5459  1.1784  0.6755
  767MPD2     C11320   4.173   0.013  14.919 -0.5361 -0.5481  0.6130
  767MPD2    C111321   4.266   0.081  14.845  0.4446  0.0690 -0.1679
  767MPD2    C211322   4.268   0.050  14.711  0.4147  0.0961 -0.6912
  767MPD2    C311323   4.179   4.684  14.651  0.2249 -0.2897 -0.2690
  767MPD2    C411324   4.087   4.620  14.732  0.6740 -0.1174 -0.2232
  767MPD2    C511325   4.087   4.647  14.862  0.0637  0.4871  0.3689
  767MPD2     H11326   4.344   0.095  14.648 -0.5118 -0.5475 -2.2620
  767MPD2    H111327   4.019   4.544  14.695  0.3832 -0.9395  1.9606
  767MPD2    H211328   4.151   0.020  15.025  1.2190  3.1247  0.7328
  767MPD2    H311329   4.025   4.591  14.932 -0.3402  0.1136 -0.2928
  767MPD2     N11330   4.201   4.657  14.512  0.4311 -0.5330  0.3474
  767MPD2    H511331   4.288   4.693  14.474  0.2279  1.1044  1.4470
  767MPD2    N111332   4.344   0.184  14.901 -0.0964 -0.5865 -0.0741
  767MPD2    H711333   4.334   0.199  15.001  1.5718 -1.3602  0.2177
  768MPD2     C11334   1.153   2.562  10.725  0.3877  0.2344  0.0481
  768MPD2    C111335   1.070   2.530  10.829  0.9572 -0.4116 -0.3481
  768MPD2    C211336   1.136   2.489  10.944 -0.2501 -0.2225  0.4156
  768MPD2    C311337   1.274   2.493  10.963  0.1845  0.8808 -0.4063
  768MPD2    C411338   1.351   2.525  10.854  0.4027 -0.0438  0.0862
  768MPD2    C511339   1.289   2.560  10.735  0.5982  0.4146  0.3757
  768MPD2     H11340   1.087   2.479  11.040  0.3546 -1.8260  0.5490
  768MPD2    H111341   1.459   2.531  10.860  0.4741 -0.3885 -0.9620
  768MPD2    H211342   1.116   2.585  10.625  1.1604 -1.8313 -0.7243
  768MPD2    H311343   1.347   2.593  10.650 -2.5566  0.0103 -1.9293
  768MPD2     N11344   1.334   2.456  11.086  0.4519 -0.1687  0.1208
  768MPD2    H511345   1.433   2.438  11.074  0.4188  1.1375 -2.2513
  768MPD2    N111346   0.931   2.554  10.830  0.4447 -0.9605 -1.0720
  768MPD2    H711347   0.881   2.513  10.908  0.3495 -0.3264 -0.7996
  769MPD2     C11348   1.207   1.561  14.328  0.3803  0.6218  0.2573
  769MPD2    C111349   1.181   1.449  14.403  0.4092  0.5333 -0.2213
  769MPD2    C211350   1.153   1.469  14.540  0.0537  0.4687 -0.2216
  769MPD2    C311351   1.150   1.592  14.598  0.5924  0.3394  0.6547
  769MPD2    C411352   1.182   1.699  14.521 -0.0261 -0.2910  0.2963
  769MPD2    C511353   1.205   1.684  14.390  0.6372  0.1492 -0.2728
  769MPD2     H11354   1.121   1.387  14.604  2.7997 -1.6341 -1.5132
  769MPD2    H111355   1.171   1.798  14.562  0.7989 -0.7589  1.6362
  769MPD2    H211356   1.209   1.552  14.220 -0.0417 -0.0632  0.3065
  769MPD2    H311357   1.212   1.771  14.324 -1.3430  0.2708 -0.3117
  769MPD2     N11358   1.098   1.613  14.721  0.1744  0.4013 -0.5634
  769MPD2    H511359   1.080   1.710  14.744  0.3299  0.0819  0.8927
  769MPD2    N111360   1.158   1.333  14.332  0.0639 -0.1639  0.0784
  769MPD2    H711361   1.165   1.338  14.231  1.6217 -1.5408  0.1290
  770MPD2     C11362   0.819   0.503  14.755  0.6605  0.2227 -0.1567
  770MPD2    C111363   0.880   0.621  14.801  0.2198 -0.3007  0.8399
  770MPD2    C211364   0.941   0.706  14.711 -0.3604 -0.8628  0.2824
  770MPD2    C311365   0.941   0.672  14.572 -0.1259 -0.3408 -0.1631
  770MPD2    C411366   0.889   0.552  14.539 -0.1627 -0.1056  0.5368
  770MPD2    C511367   0.826   0.469  14.626 -0.6741 -0.2782  0.2576
  770MPD2     H11368   0.982   0.802  14.742 -0.2104 -1.5225  2.1064
  770MPD2    H111369   0.903   0.509  14.441 -0.5011  1.0831 -0.0228
  770MPD2    H211370   0.758   0.443  14.821 -1.0489  0.8075 -1.2105
  770MPD2    H311371   0.774   0.379  14.595  0.4956 -0.5968 -0.7928
  770MPD2     N11372   0.997   0.767  14.484 -0.4681  0.1903 -0.3988
  770MPD2    H511373   1.029   0.851  14.531 -0.6186 -0.0381  0.1178
  770MPD2    N111374   0.864   0.640  14.933 -0.1705 -0.0091 -0.2971
  770MPD2    H711375   0.825   0.563  14.986  1.5010 -1.0577 -0.6122
  771MPD2     C11376   2.293   4.115  14.062 -0.5415  0.3593 -0.2092
  771MPD2    C111377   2.239   4.093  13.941 -0.8040 -0.0204 -0.1406
  771MPD2    C211378   2.215   3.962  13.897 -0.3973  0.0847 -0.1430
  771MPD2    C311379   2.251   3.858  13.978 -0.1153 -0.3689 -0.2221
  771MPD2    C411380   2.303   3.883  14.102  0.0902 -0.3275  0.2669
  771MPD2    C511381   2.322   4.010  14.145 -0.0062 -0.2774 -0.2743
  771MPD2     H11382   2.185   3.948  13.794  1.8822  0.7014 -0.9084
  771MPD2    H111383   2.343   3.811  14.172  0.3237  0.3085  0.7919
  771MPD2    H211384   2.318   4.211  14.106  0.3343  0.0808 -0.0934
  771MPD2    H311385   2.352   4.027  14.248  3.2728  0.2286 -1.3077
  771MPD2     N11386   2.232   3.729  13.932  0.3326 -0.7246  0.1324
  771MPD2    H511387   2.187   3.718  13.842  2.5657  0.5652 -1.1303
  771MPD2    N111388   2.207   4.195  13.850 -0.0148 -0.0309 -0.3196
  771MPD2    H711389   2.177   4.175  13.755 -1.3900 -1.5809  0.4529
  772MPD2     C11390   1.700   0.066  13.704  0.0555 -0.7482  0.5197
  772MPD2    C111391   1.707   4.652  13.714 -0.0630 -0.0821 -0.3211
  772MPD2    C211392   1.591   4.583  13.751  0.6465  0.3442 -0.2225
  772MPD2    C311393   1.481   4.651  13.789 -0.5432 -0.7136  0.4574
  772MPD2    C411394   1.472   0.066  13.769  0.4191  0.0931  0.2742
  772MPD2    C511395   1.581   0.131  13.725 -0.5789 -0.2756 -0.1071
  772MPD2     H11396   1.594   4.475  13.761 -1.5308  0.1669 -1.5838
  772MPD2    H111397   1.376   0.117  13.779  1.0814  1.0405  1.8285
  772MPD2    H211398   1.782   0.131  13.675 -0.1105 -0.1833  1.3126
  772MPD2    H311399   1.568   0.238  13.707  0.9768  0.0511  0.7289
  772MPD2     N11400   1.357   4.589  13.818  0.4466  0.1345 -0.4141
  772MPD2    H511401   1.282   4.658  13.820 -0.7609 -1.2590  3.3095
  772MPD2    N111402   1.825   4.580  13.681  0.5824 -0.1562  0.2214
  772MPD2    H711403   1.821   4.485  13.717  3.6215 -1.0502 -1.7803
  773MPD2     C11404   1.027   0.362   0.335 -0.1000  0.0122  0.4093
  773MPD2    C111405   0.905   0.337   0.290 -1.1732 -0.1207 -0.9082
  773MPD2    C211406   0.852   0.209   0.309 -0.4338 -0.2322  0.1282
  773MPD2    C311407   0.927   0.106   0.366 -0.9019  0.4594 -0.1300
  773MPD2    C411408   1.053   0.136   0.413 -0.3471  0.6758 -0.2658
  773MPD2    C511409   1.102   0.261   0.389  0.0372  0.0774  0.6488
  773MPD2     H11410   0.751   0.189   0.276 -0.6340 -0.3338  0.7994
  773MPD2    H111411   1.125   0.074   0.466 -1.6010 -0.6485 -0.1226
  773MPD2    H211412   1.082   0.454   0.325 -1.0110  0.2283 -2.9459
  773MPD2    H311413   1.204   0.288   0.413  0.1762 -0.2401  0.4145
  773MPD2     N11414   0.878   4.699   0.379 -0.4072 -0.7383  0.4748
  773MPD2    H511415   0.786   4.681   0.341  0.1953  1.7191 -2.2128
  773MPD2    N111416   0.820   0.426   0.215  0.0675 -0.8504  0.0969
  773MPD2    H711417   0.721   0.405   0.206  0.1649 -1.3591  0.2266
  774MPD2     C11418   4.635   0.523  13.377 -0.0896  0.7523 -0.8784
  774MPD2    C111419   0.035   0.470  13.419  0.4543 -0.6777 -0.2956
  774MPD2    C211420   0.156   0.537  13.393  0.6638  0.3352  0.5447
  774MPD2    C311421   0.151   0.665  13.337 -0.0776 -0.1256  0.2281
  774MPD2    C411422   0.026   0.723  13.307 -1.1449 -0.5542  0.3331
  774MPD2    C511423   4.636   0.649  13.326  0.4182 -0.1479 -0.1705
  774MPD2     H11424   0.246   0.486  13.426  3.0514  2.4660 -2.5765
  774MPD2    H111425   0.023   0.818  13.256  0.5369 -0.2044  0.8960
  774MPD2    H211426   4.538   0.475  13.385 -0.4251  0.9513 -3.8379
  774MPD2    H311427   4.535   0.686  13.310  0.8164  1.1884  0.4155
  774MPD2     N11428   0.280   0.716  13.298 -0.6473 -0.4148  0.1487
  774MPD2    H511429   0.354   0.646  13.292 -3.0759 -2.9832  0.3971
  774MPD2    N111430   0.052   0.351  13.494 -0.5509  0.1087  0.1262
  774MPD2    H711431   0.146   0.330  13.527 -0.2771  2.0027  0.5396
  775MPD2     C11432   1.156   1.526  15.399  0.2916  0.7441  1.1171
  775MPD2    C111433   1.205   1.621  15.488 -0.1706  1.1366 -0.2296
  775MPD2    C211434   1.268   1.734  15.442 -0.1215  0.5641 -0.1850
  775MPD2    C311435   1.304   1.746  15.312  0.2928  0.0459 -0.4332
  775MPD2    C411436   1.268   1.648  15.226  0.3049  0.2083 -0.2894
  775MPD2    C511437   1.186   1.541  15.263 -0.4559  0.3762 -0.6416
  775MPD2     H11438   1.286   1.820  15.506  0.6626  0.8265 -0.7534
  775MPD2    H111439   1.275   1.656  15.118  1.4390 -3.4632 -0.4965
  775MPD2    H211440   1.093   1.444  15.431 -0.1650  0.6719  0.0497
  775MPD2    H311441   1.157   1.471  15.185 -1.1440 -0.9191  0.7747
  775MPD2     N11442   1.384   1.854  15.258  1.0029 -1.0454  0.4106
  775MPD2    H511443   1.390   1.863  15.157 -2.1487  1.4720  0.4544
  775MPD2    N111444   1.163   1.601  15.621  0.1385 -0.5461 -0.3248
  775MPD2    H711445   1.115   1.517  15.650 -1.3868 -1.1619 -4.5457
  776MPD2     C11446   1.108   1.232  11.430  0.0153 -0.5668 -0.3939
  776MPD2    C111447   1.225   1.198  11.492 -0.2169 -0.4285 -0.0680
  776MPD2    C211448   1.335   1.280  11.460  0.4187 -0.3869  0.7576
  776MPD2    C311449   1.326   1.389  11.378  0.8473  0.0275  0.6520
  776MPD2    C411450   1.210   1.410  11.310 -0.6089  0.4097 -0.0868
  776MPD2    C511451   1.108   1.328  11.336 -0.1845 -0.1612 -0.1192
  776MPD2     H11452   1.429   1.252  11.505  1.8838  2.1128 -0.7634
  776MPD2    H111453   1.209   1.487  11.233 -1.9191  0.0265 -0.4514
  776MPD2    H211454   1.015   1.177  11.440  0.0611 -1.0715 -2.8118
  776MPD2    H311455   1.021   1.332  11.270  1.4037  0.0397 -2.2171
  776MPD2     N11456   1.439   1.478  11.356  0.1037  0.2244  0.1012
  776MPD2    H511457   1.418   1.548  11.286  1.6172 -0.4288 -1.0278
  776MPD2    N111458   1.230   1.074  11.556 -0.3004 -0.7489  0.8165
  776MPD2    H711459   1.145   1.026  11.582 -0.6279 -0.2424  0.6828
  777MPD2     C11460   0.492   4.524   1.105  0.6901  0.1379 -0.7263
  777MPD2    C111461   0.580   4.482   1.197  1.1055 -0.0070  0.0679
  777MPD2    C211462   0.641   4.356   1.169  0.3887 -0.6071  0.1663
  777MPD2    C311463   0.624   4.286   1.051 -0.1851 -0.1265  0.1215
  777MPD2    C411464   0.545   4.342   0.958  0.2023  0.5628 -0.0342
  777MPD2    C511465   0.477   4.456   0.988 -0.2776 -0.1392  0.2638
  777MPD2     H11466   0.710   4.308   1.237  0.9189 -0.9397 -0.6058
  777MPD2    H111467   0.545   4.295   0.860 -1.2945  0.4179  0.0341
  777MPD2    H211468   0.438   4.618   1.106  0.8153  0.1690  1.8208
  777MPD2    H311469   0.411   4.485   0.907 -0.1011 -3.6446 -1.1534
  777MPD2     N11470   0.677   4.150   1.042 -0.5336  0.0484 -0.0123
  777MPD2    H511471   0.717   4.108   1.125  1.6488  1.5030 -0.3385
  777MPD2    N111472   0.588   4.554   1.325  0.1595  0.0603  0.3266
  777MPD2    H711473   0.523   4.632   1.331 -0.3598 -0.3292 -0.2861
  778MPD2     C11474   2.285   4.494  14.836 -0.1187 -0.4007 -0.2119
  778MPD2    C111475   2.273   4.372  14.763  0.0503 -0.7387 -0.3655
  778MPD2    C211476   2.362   4.350  14.663  0.0044 -0.2263  0.1890
  778MPD2    C311477   2.463   4.442  14.627 -0.1179  0.3897 -0.0234
  778MPD2    C411478   2.471   4.560  14.693  0.6615 -0.3658 -0.3567
  778MPD2    C511479   2.385   4.577  14.804  0.0146  0.2467 -0.4312
  778MPD2     H11480   2.349   4.261  14.602  2.0485 -0.2735 -0.1787
  778MPD2    H111481   2.555   4.627  14.679 -0.9191  1.4829 -0.9606
  778MPD2    H211482   2.218   4.522  14.917  0.0613  0.0581 -0.2245
  778MPD2    H311483   2.393   4.675  14.849  0.8825 -0.1062  0.1897
  778MPD2     N11484   2.562   4.401  14.531 -0.1093 -0.0488  0.1108
  778MPD2    H511485   2.540   4.315  14.482 -0.4659 -0.2424  0.6077
  778MPD2    N111486   2.175   4.278  14.786  0.1917  0.3039 -0.2713
  778MPD2    H711487   2.144   4.209  14.719 -2.3355 -0.7216  1.9200
  779MPD2     C11488   1.688   3.218  14.171 -0.3108 -0.7458  0.8975
  779MPD2    C111489   1.824   3.214  14.170  0.5869 -0.0938 -0.3555
  779MPD2    C211490   1.885   3.340  14.190 -0.1440  0.5519 -0.0455
  779MPD2    C311491   1.811   3.463  14.185  0.0462  0.1501  0.4641
  779MPD2    C411492   1.669   3.457  14.190  0.0000  0.0256  0.5844
  779MPD2    C511493   1.611   3.331  14.176 -0.0760  0.4273  0.1160
  779MPD2     H11494   1.994   3.342  14.196 -0.0730  0.0773 -1.1238
  779MPD2    H111495   1.612   3.548  14.201 -1.8887 -1.1583  0.6379
  779MPD2    H211496   1.625   3.130  14.161 -0.0096 -0.9726  0.9756
  779MPD2    H311497   1.503   3.329  14.168 -0.0574  1.5936 -0.5059
  779MPD2     N11498   1.874   3.585  14.191  0.4334  0.6242  0.4864
  779MPD2    H511499   1.959   3.589  14.246 -0.1309  1.5188  1.2986
  779MPD2    N111500   1.892   3.089  14.140  0.5739  0.3873 -0.0076
  779MPD2    H711501   1.991   3.085  14.119  0.6223 -2.2859  0.6243
  780MPD2     C11502   0.516   3.043   0.530 -0.4903  0.0842  0.0404
  780MPD2    C111503   0.523   2.919   0.472  0.9719  0.0246 -0.7587
  780MPD2    C211504   0.656   2.872   0.457  0.2108  0.7113  0.2185
  780MPD2    C311505   0.770   2.932   0.497  0.3345 -0.0130 -0.1589
  780MPD2    C411506   0.760   3.052   0.562  0.0520 -0.2426  0.0164
  780MPD2    C511507   0.631   3.112   0.571  0.2264 -0.4913 -0.5037
  780MPD2     H11508   0.678   2.779   0.406  1.0576 -0.8174  3.3381
  780MPD2    H111509   0.846   3.107   0.598  0.9222  1.5035 -4.6925
  780MPD2    H211510   0.422   3.096   0.537 -0.6201 -0.4410  2.0932
  780MPD2    H311511   0.615   3.209   0.616 -0.9532 -0.0920 -1.7918
  780MPD2     N11512   0.897   2.875   0.463 -0.5257  0.4709  0.5655
  780MPD2    H511513   0.890   2.779   0.431  0.1779  0.3977  0.6286
  780MPD2    N111514   0.406   2.845   0.444 -0.1805 -0.4863  0.0452
  780MPD2    H711515   0.318   2.891   0.466 -1.0668 -0.7771 -2.8439
  781MPD2     C11516   3.856   3.725  12.135 -0.6832  0.4182  0.8857
  781MPD2    C111517   3.921   3.820  12.208  0.2550  0.2927 -0.2373
  781MPD2    C211518   3.954   3.936  12.145  0.6314  0.1485 -0.1213
  781MPD2    C311519   3.918   3.959  12.019 -0.4557  0.6117  0.2445
  781MPD2    C411520   3.848   3.870  11.949 -0.3560 -0.6023  0.2006
  781MPD2    C511521   3.815   3.752  12.009 -0.7669  0.3881 -0.5629
  781MPD2     H11522   4.016   4.011  12.194  0.0603 -0.4881  1.5701
  781MPD2    H111523   3.832   3.894  11.844 -0.8377  0.2507  0.4739
  781MPD2    H211524   3.817   3.633  12.178 -2.3092  1.3517  1.4194
  781MPD2    H311525   3.774   3.682  11.938  0.2426 -0.5865 -0.1853
  781MPD2     N11526   3.974   4.065  11.940 -0.4787 -0.0255 -0.1585
  781MPD2    H511527   3.944   4.080  11.844 -0.4529  1.0144 -0.0043
  781MPD2    N111528   3.963   3.796  12.347  0.0004 -0.0937  0.1846
  781MPD2    H711529   4.017   3.865  12.398  0.9264 -1.3284  0.9098
  782MPD2     C11530   1.787   4.407   9.950  0.4420  0.2605  0.6674
  782MPD2    C111531   1.798   4.358  10.075 -0.5058  0.5600  0.0995
  782MPD2    C211532   1.832   4.442  10.177  0.2109  0.0773 -0.2959
  782MPD2    C311533   1.867   4.578  10.158  0.8066 -0.2074 -0.4147
  782MPD2    C411534   1.860   4.627  10.026 -0.1829 -0.5728 -0.0718
  782MPD2    C511535   1.816   4.539   9.928 -0.1129  0.4542  0.0910
  782MPD2     H11536   1.838   4.412  10.281 -0.3436 -1.6308 -0.7638
  782MPD2    H111537   1.885   0.007   9.999  0.6203 -0.5413  0.7675
  782MPD2    H211538   1.756   4.344   9.868 -2.0660  0.2335  1.6371
  782MPD2    H311539   1.793   4.574   9.828 -0.7821 -1.1608 -0.3166
  782MPD2     N11540   1.908   4.659  10.265  0.3292  0.4341  0.1326
  782MPD2    H511541   1.940   4.616  10.350  1.5945  0.0212 -0.5526
  782MPD2    N111542   1.804   4.217  10.092 -0.1261  0.1918  0.0102
  782MPD2    H711543   1.804   4.169  10.003  1.4854 -1.3582  0.8602
  783MPD2     C11544   1.838   4.226  10.914 -0.2074 -0.4697 -0.1338
  783MPD2    C111545   1.719   4.209  10.840  0.0931 -0.4647 -0.4728
  783MPD2    C211546   1.707   4.118  10.733 -0.1316 -0.9197  0.5679
  783MPD2    C311547   1.809   4.047  10.691  0.3862  0.7851  0.8381
  783MPD2    C411548   1.927   4.063  10.760 -0.0131  0.0615 -0.0816
  783MPD2    C511549   1.941   4.155  10.863  0.1247 -0.4465 -0.2977
  783MPD2     H11550   1.609   4.116  10.687  1.0530  0.0128 -2.0451
  783MPD2    H111551   2.016   4.012  10.726 -0.0665 -1.4195  2.0170
  783MPD2    H211552   1.855   4.291  10.999 -2.5031  1.8813 -1.4839
  783MPD2    H311553   2.042   4.161  10.903  0.6791  3.4437 -2.3742
  783MPD2     N11554   1.795   3.978  10.577 -0.3630  0.4676 -0.3265
  783MPD2    H511555   1.701   3.995  10.541  0.4731  1.7777 -1.9200
  783MPD2    N111556   1.598   4.283  10.874 -0.8740 -0.4759  0.6652
  783MPD2    H711557   1.516   4.257  10.821  0.6570 -2.5219 -0.7185
  784MPD2     C11558   3.216   0.403   0.425  0.7332  0.3301  0.2672
  784MPD2    C111559   3.113   0.473   0.479 -0.7334 -0.1270 -0.4411
  784MPD2    C211560   3.068   0.576   0.395 -0.2800  0.5786  0.8303
  784MPD2    C311561   3.124   0.600   0.270 -0.1206 -0.3957 -0.0389
  784MPD2    C411562   3.219   0.521   0.211 -0.6029 -0.1706  0.0536
  784MPD2    C511563   3.263   0.426   0.297  0.5276  0.3050 -0.1059
  784MPD2     H11564   3.001   0.648   0.441  1.2899  2.8067 -0.3460
  784MPD2    H111565   3.268   0.536   0.115 -0.7908  1.2237  0.1831
  784MPD2    H211566   3.270   0.325   0.477  0.5954  1.5954  2.3164
  784MPD2    H311567   3.343   0.359   0.266 -0.5495 -0.0065 -2.2236
  784MPD2     N11568   3.085   0.718   0.211  0.0983  0.2893 -0.2754
  784MPD2    H511569   3.004   0.768   0.245  0.6252  0.8005  0.2371
  784MPD2    N111570   3.057   0.468   0.611  0.4306  0.3165 -0.0162
  784MPD2    H711571   2.993   0.539   0.644 -1.2059 -1.8198  1.4315
  785MPD2     C11572   4.319   3.268  10.752  0.3082  0.1589 -0.3952
  785MPD2    C111573   4.293   3.399  10.728 -1.2762 -0.5239  0.2648
  785MPD2    C211574   4.172   3.434  10.682  0.1308  0.0581 -0.5325
  785MPD2    C311575   4.084   3.333  10.648 -0.2569  0.9220 -0.2858
  785MPD2    C411576   4.115   3.202  10.669  0.6778 -0.6704 -0.1460
  785MPD2    C511577   4.226   3.171  10.732 -0.1610  0.8606 -0.5091
  785MPD2     H11578   4.145   3.535  10.654 -3.6467 -0.8325 -0.1548
  785MPD2    H111579   4.041   3.123  10.657 -0.4620  0.2677  0.6274
  785MPD2    H211580   4.408   3.228  10.800 -1.2073 -0.2723  2.0177
  785MPD2    H311581   4.242   3.065  10.750 -1.9825  0.3663 -1.7212
  785MPD2     N11582   3.956   3.373  10.604  0.4591 -0.4798 -0.0682
  785MPD2    H511583   3.946   3.474  10.600 -2.0061 -0.7452 -0.0573
  785MPD2    N111584   4.380   3.500  10.777  0.0968 -0.3935  0.4067
  785MPD2    H711585   4.350   3.597  10.789 -1.4735 -0.8026 -0.2251
  786MPD2     C11586   2.111   2.471  14.424 -0.1380  0.1986 -0.4104
  786MPD2    C111587   2.228   2.405  14.456 -0.1283 -0.2157  0.4410
  786MPD2    C211588   2.306   2.449  14.557 -0.0388  0.4655 -0.3165
  786MPD2    C311589   2.271   2.568  14.621 -0.0622  0.3195  0.2064
  786MPD2    C411590   2.154   2.632  14.599 -0.0434  0.1646  0.4568
  786MPD2    C511591   2.081   2.584  14.492 -0.0593  0.2161 -0.4601
  786MPD2     H11592   2.390   2.387  14.585  0.4538  1.0943 -0.3908
  786MPD2    H111593   2.119   2.705  14.671  0.0614  1.2358 -0.5635
  786MPD2    H211594   2.050   2.447  14.338  0.7352 -2.8295 -0.2072
  786MPD2    H311595   1.984   2.629  14.476  0.0148  0.5453  0.0089
  786MPD2     N11596   2.332   2.609  14.739 -0.1432  0.4731 -0.5883
  786MPD2    H511597   2.290   2.690  14.784  1.5003  0.8927  0.1936
  786MPD2    N111598   2.257   2.281  14.400 -0.1250 -0.2817  0.4354
  786MPD2    H711599   2.334   2.225  14.435  0.7279  0.2501 -0.5880
  787MPD2     C11600   2.446   1.794  14.772 -0.1923 -0.7723  0.2080
  787MPD2    C111601   2.409   1.725  14.657  0.4320 -0.1165  0.1344
  787MPD2    C211602   2.465   1.601  14.643 -0.1331 -0.4795  0.5840
  787MPD2    C311603   2.555   1.537  14.728  0.4277  0.2146  0.0273
  787MPD2    C411604   2.563   1.601  14.849 -0.2177  0.5790 -0.1394
  787MPD2    C511605   2.512   1.724  14.865 -0.2081  0.1593  0.4685
  787MPD2     H11606   2.460   1.555  14.545 -0.5963  0.8744 -0.0223
  787MPD2    H111607   2.613   1.551  14.931  1.5398  0.0043 -1.5619
  787MPD2    H211608   2.397   1.887  14.798 -0.8700 -0.7545 -1.0777
  787MPD2    H311609   2.539   1.777  14.956  2.7908  0.9332 -0.8837
  787MPD2     N11610   2.623   1.418  14.698  0.5561 -0.0579 -0.1480
  787MPD2    H511611   2.573   1.356  14.635 -0.2657 -1.0298  1.4702
  787MPD2    N111612   2.339   1.795  14.558 -0.0009  0.3258  0.0266
  787MPD2    H711613   2.334   1.895  14.573  0.0352  0.2994  0.2270
  788MPD2     C11614   3.620   0.833   0.764  0.2861  0.5823  0.2714
  788MPD2    C111615   3.744   0.776   0.725  0.6828 -0.7600  0.1099
  788MPD2    C211616   3.796   0.799   0.601  0.4074 -0.3061  0.7546
  788MPD2    C311617   3.719   0.874   0.512 -0.2463 -0.9103  0.0439
  788MPD2    C411618   3.599   0.932   0.540  0.7911  0.6119 -0.0360
  788MPD2    C511619   3.546   0.901   0.664 -0.4614  0.2100  0.5869
  788MPD2     H11620   3.889   0.756   0.568  1.9180  3.0932  0.5466
  788MPD2    H111621   3.532   0.974   0.466  2.6789  0.7815 -1.6489
  788MPD2    H211622   3.573   0.822   0.862 -0.1975 -0.3486 -0.0620
  788MPD2    H311623   3.449   0.943   0.687 -0.1440  0.7699  0.9020
  788MPD2     N11624   3.771   0.889   0.381 -0.4084 -0.4731 -0.5366
  788MPD2    H511625   3.708   0.916   0.307 -0.8178  0.7487  0.2612
  788MPD2    N111626   3.821   0.698   0.818  0.2951  0.2953 -0.0361
  788MPD2    H711627   3.913   0.669   0.784  0.5228  0.8273  0.1272
  789MPD2     C11628   4.563   4.240  16.996  0.2731  0.2243  0.2687
  789MPD2    C111629   4.438   4.180  17.018  0.2886  0.2827 -0.8174
  789MPD2    C211630   4.322   4.249  16.996  0.3033 -0.9648 -0.0232
  789MPD2    C311631   4.328   4.380  16.942  0.3522 -0.4246 -0.9512
  789MPD2    C411632   4.452   4.437  16.920 -0.5063 -0.7863 -1.2345
  789MPD2    C511633   4.564   4.369  16.957  0.0027 -0.0245 -0.3840
  789MPD2     H11634   4.230   4.192  17.009 -1.6270  1.6350 -2.2341
  789MPD2    H111635   4.462   4.540  16.889  2.4090 -0.7280 -0.0799
  789MPD2    H211636   4.657   4.189  17.015  2.0129  4.0761  2.0288
  789MPD2    H311637   4.659   4.417  16.936  0.6445 -1.4606 -0.7569
  789MPD2     N11638   4.213   4.449  16.896  0.5757 -0.5111 -0.3374
  789MPD2    H511639   4.227   4.541  16.856 -0.8078 -0.9116 -1.7268
  789MPD2    N111640   4.425   4.046  17.064 -0.2688  0.1731  0.4049
  789MPD2    H711641   4.333   4.003  17.057  0.8687 -2.5652  2.8835
  790MPD2     C11642   0.490   1.302  13.432  0.9049  0.0062  0.4399
  790MPD2    C111643   0.624   1.315  13.395  0.4480 -0.1875  0.3482
  790MPD2    C211644   0.662   1.306  13.265  1.2633 -0.6075 -0.0401
  790MPD2    C311645   0.561   1.279  13.169 -0.0930 -0.4010 -0.6276
  790MPD2    C411646   0.433   1.261  13.216 -0.0931 -0.2252  0.3039
  790MPD2    C511647   0.397   1.268  13.343 -0.8359  0.8407 -0.7775
  790MPD2     H11648   0.765   1.305  13.230 -0.0789  0.3683 -4.0605
  790MPD2    H111649   0.346   1.242  13.154 -0.8538  1.6519  0.7779
  790MPD2    H211650   0.461   1.322  13.535 -1.4469  0.9385 -0.3944
  790MPD2    H311651   0.295   1.269  13.380 -0.6882  1.8015 -0.4098
  790MPD2     N11652   0.588   1.262  13.032 -0.3492  0.4864 -0.0413
  790MPD2    H511653   0.684   1.260  13.001 -0.1495 -1.5759  0.7072
  790MPD2    N111654   0.713   1.341  13.504  0.8546 -0.5365 -0.2665
  790MPD2    H711655   0.660   1.379  13.582  1.9901  1.6832 -0.5846
  791MPD2     C11656   0.080   1.462  12.437  0.3889 -0.0565 -0.2133
  791MPD2    C111657   0.189   1.386  12.398  0.4401  0.0386  0.5076
  791MPD2    C211658   0.183   1.331  12.272  0.9024  0.3609  0.0869
  791MPD2    C311659   0.069   1.365  12.193 -0.4338 -0.1899  0.0218
  791MPD2    C411660   4.698   1.454  12.233 -0.1294  0.6629 -0.3398
  791MPD2    C511661   4.704   1.505  12.358  0.6074 -0.1147 -0.5452
  791MPD2     H11662   0.259   1.264  12.234 -0.1410 -0.1649 -1.0980
  791MPD2    H111663   4.613   1.477  12.169  0.2635  1.2781 -0.6472
  791MPD2    H211664   0.090   1.520  12.528 -1.4317 -1.7198  1.0539
  791MPD2    H311665   4.641   1.582  12.400 -0.9990 -1.4847 -0.4430
  791MPD2     N11666   0.056   1.312  12.059 -0.8344 -0.6309 -0.6324
  791MPD2    H511667   0.135   1.252  12.036  0.4171  0.5453  0.6059
  791MPD2    N111668   0.290   1.360  12.489  0.3000 -0.2604 -0.1015
  791MPD2    H711669   0.268   1.389  12.583 -1.1589 -2.3086  0.1814
  792MPD2     C11670   1.064   0.835  11.304  0.3267  0.2065 -0.8814
  792MPD2    C111671   1.146   0.839  11.194  0.1924  0.6911  0.3533
  792MPD2    C211672   1.161   0.724  11.115  0.4958  0.2516 -0.4042
  792MPD2    C311673   1.080   0.610  11.138  0.4774 -0.3014  0.0991
  792MPD2    C411674   1.000   0.607  11.248  0.2836  0.4174  0.1399
  792MPD2    C511675   0.993   0.721  11.329 -0.4802 -0.2250  0.2915
  792MPD2     H11676   1.237   0.724  11.039  1.2732 -0.6700  0.3690
  792MPD2    H111677   0.936   0.524  11.277  1.6667  0.1426  2.3951
  792MPD2    H211678   1.061   0.918  11.373 -0.6469  0.4101 -1.1607
  792MPD2    H311679   0.932   0.713  11.419 -1.8667  0.9322 -0.5363
  792MPD2     N11680   1.089   0.502  11.048  0.1918 -0.2640 -0.3281
  792MPD2    H511681   1.137   0.532  10.965 -1.2575  1.5696 -0.4910
  792MPD2    N111682   1.218   0.953  11.166  0.8013 -0.0705  0.1070
  792MPD2    H711683   1.202   1.029  11.232  0.5537  0.2184 -0.2834
  793MPD2     C11684   0.612   0.558  10.155  0.1814  0.6263 -0.0004
  793MPD2    C111685   0.744   0.600  10.178  0.2048  0.7054  0.0730
  793MPD2    C211686   0.819   0.568  10.298 -0.1223 -0.7245  0.3158
  793MPD2    C311687   0.756   0.502  10.402  0.3572  0.1698 -0.1821
  793MPD2    C411688   0.622   0.467  10.383 -0.3944 -0.1205 -0.3492
  793MPD2    C511689   0.553   0.503  10.270 -0.1403  0.6739  0.1542
  793MPD2     H11690   0.927   0.574  10.298 -0.1991  0.5568  1.4231
  793MPD2    H111691   0.565   0.423  10.464  0.1802 -0.1610  0.0363
  793MPD2    H211692   0.552   0.575  10.066 -0.5637 -0.0184  0.3792
  793MPD2    H311693   0.449   0.472  10.260  0.0785  0.0986 -0.3274
  793MPD2     N11694   0.846   0.460  10.500 -0.5927 -0.0920  1.0356
  793MPD2    H511695   0.941   0.495  10.496 -1.1427  1.3098  0.3084
  793MPD2    N111696   0.811   0.669  10.075  0.0168  0.2216  0.6923
  793MPD2    H711697   0.901   0.706  10.104  0.1462  0.8111 -0.4621
  794MPD2     C11698   0.770   0.783  17.172  0.0473 -0.4050 -1.2654
  794MPD2    C111699   0.655   0.837  17.232 -0.2795 -0.2446 -0.1180
  794MPD2    C211700   0.560   0.898  17.157 -0.0413  0.3053  0.7252
  794MPD2    C311701   0.569   0.904  17.025 -0.1912 -0.1345  0.5618
  794MPD2    C411702   0.680   0.845  16.966 -0.5885 -0.5858 -0.0405
  794MPD2    C511703   0.768   0.781  17.038  0.3600  0.6580  0.3713
  794MPD2     H11704   0.475   0.947  17.204 -1.6993  0.1525 -2.0952
  794MPD2    H111705   0.696   0.846  16.858  1.7476  0.4320  0.3038
  794MPD2    H211706   0.854   0.734  17.219 -1.0328 -2.6353 -1.6406
  794MPD2    H311707   0.848   0.735  16.980 -2.3943  0.4932 -3.3095
  794MPD2     N11708   0.468   0.965  16.940 -0.2095  0.5422  0.0252
  794MPD2    H511709   0.483   0.959  16.839 -1.1603  0.6384 -0.1172
  794MPD2    N111710   0.629   0.824  17.372  0.6535 -0.2365 -0.0617
  794MPD2    H711711   0.532   0.830  17.401  0.6381  0.1670 -0.1970
  795MPD2     C11712   3.327   3.042  13.471  0.3662 -0.0400 -0.6351
  795MPD2    C111713   3.281   2.923  13.427 -0.1648  0.0384  0.3745
  795MPD2    C211714   3.366   2.817  13.437 -0.4781 -0.5827 -0.2372
  795MPD2    C311715   3.502   2.838  13.466 -0.1515  0.6794 -0.0142
  795MPD2    C411716   3.547   2.964  13.518 -0.2874  0.5835 -0.3440
  795MPD2    C511717   3.451   3.062  13.522 -0.1375  0.3073  0.2098
  795MPD2     H11718   3.336   2.718  13.404  2.3153 -1.1780 -1.0228
  795MPD2    H111719   3.645   2.992  13.555  0.0186  0.0312 -0.7371
  795MPD2    H211720   3.266   3.132  13.476  1.1784  0.6008 -2.2214
  795MPD2    H311721   3.479   3.158  13.566 -0.2677 -0.4481  1.9294
  795MPD2     N11722   3.589   2.722  13.460 -0.0754 -1.1750 -0.1624
  795MPD2    H511723   3.550   2.633  13.432  0.6743 -1.2654 -0.8961
  795MPD2    N111724   3.155   2.904  13.368 -0.4119 -0.0082 -0.2628
  795MPD2    H711725   3.147   2.823  13.308 -2.2548 -2.2499  2.9980
  796MPD2     C11726   2.645   4.526  15.893  0.8054  0.2116  0.3905
  796MPD2    C111727   2.681   4.586  16.009 -0.3898  0.2595 -0.3763
  796MPD2    C211728   2.725   4.719  16.006 -0.3045 -1.2702 -0.6505
  796MPD2    C311729   2.741   0.056  15.882  0.2368  0.3555 -0.0979
  796MPD2    C411730   2.710   4.715  15.762 -0.3559  0.6772  0.4210
  796MPD2    C511731   2.660   4.584  15.768 -0.3875  0.3559 -0.4916
  796MPD2     H11732   2.757   0.051  16.094 -0.3392 -3.2340  0.5656
  796MPD2    H111733   2.731   0.046  15.669  0.5383  2.5925  1.7351
  796MPD2    H211734   2.607   4.425  15.900  0.1157  0.1267 -4.2087
  796MPD2    H311735   2.647   4.526  15.678  1.1529 -1.4563  0.4620
  796MPD2     N11736   2.779   0.192  15.879 -0.0336 -0.5756 -0.3359
  796MPD2    H511737   2.763   0.249  15.961 -4.3687 -0.0610 -1.5045
  796MPD2    N111738   2.663   4.512  16.136  0.6452  0.3248 -0.0480
  796MPD2    H711739   2.618   4.421  16.130  0.8103  0.1878  0.8073
  797MPD2     C11740   2.569   4.074  17.689  0.1953  0.0630 -0.0440
  797MPD2    C111741   2.694   4.029   0.034 -0.6105 -0.1421  0.0536
  797MPD2    C211742   2.799   4.114   0.015  0.2926  0.3158 -0.1348
  797MPD2    C311743   2.786   4.231  17.628 -0.1174  0.6393 -0.1295
  797MPD2    C411744   2.659   4.265  17.581  0.4339  0.2704 -0.1260
  797MPD2    C511745   2.552   4.191  17.621 -0.2479 -0.1598 -0.0573
  797MPD2     H11746   2.897   4.085   0.051  1.5490  1.5411 -2.5562
  797MPD2    H111747   2.656   4.359  17.528 -1.3395  0.2596 -0.0431
  797MPD2    H211748   2.476   4.021   0.016  0.5942 -1.6405 -2.9385
  797MPD2    H311749   2.452   4.222  17.592  0.3194  1.5428 -0.2199
  797MPD2     N11750   2.902   4.293  17.593  0.0362 -0.0431  0.0501
  797MPD2    H511751   2.985   4.251  17.633  1.2138  0.6683 -1.6772
  797MPD2    N111752   2.727   3.904   0.092  0.6185 -0.2317  0.7192
  797MPD2    H711753   2.824   3.895   0.122  0.7357 -1.5300 -0.0245
  798MPD2     C11754   3.363   3.814  17.416 -0.0893  0.2229  0.5171
  798MPD2    C111755   3.305   3.892  17.507 -0.9116  0.2978  0.2131
  798MPD2    C211756   3.221   3.830  17.603 -0.1815  0.5022  0.7577
  798MPD2    C311757   3.206   3.695  17.603 -0.6387  0.4973  1.0004
  798MPD2    C411758   3.274   3.610  17.521  0.3457 -0.0292 -0.8201
  798MPD2    C511759   3.357   3.678  17.425  0.1064  0.0944  0.6889
  798MPD2     H11760   3.165   3.881  17.680 -1.5971  1.0615 -0.6455
  798MPD2    H111761   3.263   3.503  17.526  1.8415 -0.1657 -0.2044
  798MPD2    H211762   3.429   3.870  17.351  0.3192 -0.0821  0.6678
  798MPD2    H311763   3.402   3.623  17.343 -0.1543 -0.6971  1.0769
  798MPD2     N11764   3.107   3.648   0.003  0.1956 -0.0282 -0.0850
  798MPD2    H511765   3.065   3.718   0.063  1.9055  1.2701 -0.4078
  798MPD2    N111766   3.317   4.032  17.477 -0.2758 -0.4647  0.1019
  798MPD2    H711767   3.385   4.061  17.408  1.2127 -1.8887  0.9744
  799MPD2     C11768   2.246   1.230  14.935 -0.5009  0.0307  0.2568
  799MPD2    C111769   2.328   1.153  14.852 -0.6400 -0.2274 -0.3363
  799MPD2    C211770   2.311   1.168  14.715  0.2250 -0.2617 -0.1821
  799MPD2    C311771   2.221   1.262  14.665 -0.1671  0.1163 -0.2974
  799MPD2    C411772   2.128   1.324  14.748  0.5142  0.1342  0.1220
  799MPD2    C511773   2.156   1.317  14.885 -0.2529  0.8224  0.0292
  799MPD2     H11774   2.376   1.116  14.645 -0.6149  1.2210 -2.0936
  799MPD2    H111775   2.057   1.391  14.701  0.9527 -0.7780 -1.8225
  799MPD2    H211776   2.249   1.219  15.043 -0.6542 -0.9801  0.1579
  799MPD2    H311777   2.099   1.382  14.950  0.6595  0.2326  1.4469
  799MPD2     N11778   2.205   1.300  14.530 -0.2799 -0.0587  0.5015
  799MPD2    H511779   2.136   1.369  14.503 -1.6052 -0.7248  2.2067
  799MPD2    N111780   2.421   1.052  14.899  0.3203 -0.4370 -0.0970
  799MPD2    H711781   2.467   0.994  14.830  0.5530  0.8870 -1.0549
  800MPD2     C11782   2.835   2.403  13.960 -0.0229 -0.1098 -0.5548
  800MPD2    C111783   2.969   2.376  13.978  0.4912  0.5607  0.2559
  800MPD2    C211784   3.020   2.259  13.924  0.1312 -0.5547  0.5072
  800MPD2    C311785   2.931   2.171  13.865  0.0288 -0.0297  0.2866
  800MPD2    C411786   2.799   2.190  13.872  0.1960 -0.3435 -0.7807
  800MPD2    C511787   2.752   2.313  13.898  0.7060  0.4207  0.1768
  800MPD2     H11788   3.127   2.247  13.931  0.3592  1.8035  1.1928
  800MPD2    H111789   2.725   2.113  13.857 -2.0602  1.8715 -0.9512
  800MPD2    H211790   2.772   2.484  13.995  0.3858 -0.5552  1.2485
  800MPD2    H311791   2.645   2.329  13.898  1.0231  2.5098 -2.3683
  800MPD2     N11792   2.979   2.050  13.803  0.7176 -0.1541  0.2159
  800MPD2    H511793   3.078   2.052  13.783  0.6469  0.2314 -0.1151
  800MPD2    N111794   3.046   2.458  14.053  0.0156 -0.4363 -0.6863
  800MPD2    H711795   2.995   2.535  14.095  0.5261 -1.1686  1.2840
  801MPD2     C11796   3.267   3.139  14.262  0.4529 -0.4170 -0.0000
  801MPD2    C111797   3.173   3.043  14.222 -0.0137 -0.1055 -1.4049
  801MPD2    C211798   3.039   3.072  14.223 -0.7355 -0.2649 -0.5837
  801MPD2    C311799   2.984   3.192  14.261  0.1533  0.3961 -0.5872
  801MPD2    C411800   3.073   3.283  14.318 -0.6930  0.0068  0.1650
  801MPD2    C511801   3.211   3.253  14.311 -0.3737 -0.2148 -0.8777
  801MPD2     H11802   2.974   2.993  14.187 -1.0426 -0.3544  0.1790
  801MPD2    H111803   3.039   3.378  14.359  2.1654  1.3280 -0.5649
  801MPD2    H211804   3.374   3.125  14.275  0.1734 -1.4157  1.3070
  801MPD2    H311805   3.277   3.331  14.347  0.5071 -1.3832  0.0697
  801MPD2     N11806   2.847   3.217  14.262  0.7882  0.4425 -0.1848
  801MPD2    H511807   2.809   3.300  14.306 -0.6759 -0.5772  0.4725
  801MPD2    N111808   3.217   2.910  14.188  0.2294 -0.3962  0.0036
  801MPD2    H711809   3.137   2.848  14.179 -0.7489  0.9604 -0.6732
  802MPD2     C11810   1.870   4.057   0.656 -0.4125  1.0946 -0.4643
  802MPD2    C111811   1.883   3.922   0.663 -0.4104  0.3315  1.0769
  802MPD2    C211812   1.960   3.866   0.569 -0.5127 -0.0341 -0.0528
  802MPD2    C311813   2.017   3.932   0.464 -0.1532  0.5613  0.4488
  802MPD2    C411814   1.984   4.066   0.442 -0.4367  0.4787 -0.2729
  802MPD2    C511815   1.908   4.127   0.543  0.1234  0.4347 -0.1581
  802MPD2     H11816   1.972   3.759   0.573 -0.1888  0.0116  0.1631
  802MPD2    H111817   2.029   4.126   0.363  0.6696 -0.8706 -0.6721
  802MPD2    H211818   1.813   4.116   0.727  0.4955  0.7164  0.5804
  802MPD2    H311819   1.893   4.235   0.538  0.3143  0.3914 -1.5845
  802MPD2     N11820   2.088   3.851   0.378 -0.0730  0.0933 -0.4123
  802MPD2    H511821   2.081   3.753   0.405 -0.7122 -0.8694 -4.0976
  802MPD2    N111822   1.825   3.836   0.757  0.8356  0.3701  0.6306
  802MPD2    H711823   1.831   3.738   0.732  0.4336  1.1731 -2.7580
  803MPD2     C11824   4.061   1.162  10.985  0.2176  0.1529 -0.1612
  803MPD2    C111825   4.040   1.211  11.112 -0.3456 -0.5904 -0.6739
  803MPD2    C211826   3.976   1.128  11.208 -0.2744  0.4280  0.1410
  803MPD2    C311827   3.938   0.999  11.179  0.5780 -0.5711  0.1550
  803MPD2    C411828   3.959   0.952  11.046  0.3454 -0.3346  0.9017
  803MPD2    C511829   4.020   1.036  10.951 -0.8718  0.8447  0.4188
  803MPD2     H11830   3.943   1.167  11.303 -1.0126  0.5451 -0.1582
  803MPD2    H111831   3.911   0.860  11.016  0.6991 -0.1598 -0.1870
  803MPD2    H211832   4.101   1.227  10.908  0.2911 -0.5312 -0.6986
  803MPD2    H311833   4.043   0.997  10.852 -0.9814 -1.0632  1.1509
  803MPD2     N11834   3.873   0.911  11.268  0.5480  0.0088  0.9593
  803MPD2    H511835   3.855   0.812  11.256 -4.3739  1.2564 -1.9389
  803MPD2    N111836   4.084   1.341  11.156 -0.1614 -0.1255 -0.1652
  803MPD2    H711837   4.079   1.369  11.254 -2.4230 -0.3357 -0.2140
  804MPD2     C11838   2.781   2.663  16.648  0.3641 -0.4118 -0.2122
  804MPD2    C111839   2.744   2.655  16.785 -0.0487  0.3799  0.1785
  804MPD2    C211840   2.743   2.778  16.858  0.1278 -0.0155  0.2787
  804MPD2    C311841   2.783   2.897  16.796  0.6914  0.0952  0.3193
  804MPD2    C411842   2.808   2.895  16.660  0.5367  0.4244  0.1595
  804MPD2    C511843   2.810   2.780  16.590 -0.2257  0.2295 -0.7898
  804MPD2     H11844   2.704   2.774  16.959 -1.7970  1.7078 -0.4007
  804MPD2    H111845   2.824   2.982  16.597 -0.2077  0.0297 -0.5736
  804MPD2    H211846   2.790   2.573  16.588  0.5857 -0.4617 -0.1053
  804MPD2    H311847   2.835   2.779  16.484  0.1525  1.3530 -0.7045
  804MPD2     N11848   2.795   3.014  16.876 -0.0735 -0.2940  0.0419
  804MPD2    H511849   2.762   3.010  16.972  1.0064  0.8555  0.4594
  804MPD2    N111850   2.707   2.537  16.860 -1.1632  0.3531  0.3981
  804MPD2    H711851   2.718   2.541  16.961  0.5914 -3.0848  0.3594
  805MPD2     C11852   2.461   1.576  15.704  0.2494  0.1509  0.5587
  805MPD2    C111853   2.505   1.447  15.663 -0.6858  0.9997  0.4611
  805MPD2    C211854   2.632   1.408  15.709  0.6191 -0.9407  0.8205
  805MPD2    C311855   2.712   1.485  15.795 -0.0723 -0.5070 -0.1286
  805MPD2    C411856   2.659   1.608  15.827 -0.4418 -0.3270  0.6076
  805MPD2    C511857   2.541   1.649  15.780  1.1152  0.7178 -0.3294
  805MPD2     H11858   2.664   1.310  15.677  1.5117 -0.0731 -0.9333
  805MPD2    H111859   2.719   1.684  15.878 -2.4339  1.9058 -0.3949
  805MPD2    H211860   2.368   1.623  15.672  0.8750  2.5587  2.2865
  805MPD2    H311861   2.502   1.748  15.803 -1.3304 -0.2648 -0.1673
  805MPD2     N11862   2.832   1.437  15.854  0.1954  1.1264  0.6711
  805MPD2    H511863   2.868   1.351  15.812 -0.6515  1.0659  0.0857
  805MPD2    N111864   2.429   1.370  15.577  0.3894 -0.1111 -0.7692
  805MPD2    H711865   2.478   1.289  15.540 -0.2467 -1.2613  0.8511
  806MPD2     C11866   2.282   0.480   0.274 -0.2259 -0.5405 -0.0405
  806MPD2    C111867   2.237   0.603   0.330 -0.0768  0.4230 -0.3335
  806MPD2    C211868   2.263   0.721   0.269  0.9540 -0.2030 -0.6960
  806MPD2    C311869   2.348   0.731   0.163  1.0234  0.1460 -0.8057
  806MPD2    C411870   2.388   0.614   0.104 -0.0698 -0.0344 -0.0469
  806MPD2    C511871   2.359   0.488   0.158  0.1201 -0.8634 -0.3245
  806MPD2     H11872   2.222   0.813   0.308  0.4409 -1.0122  0.6858
  806MPD2    H111873   2.446   0.614   0.012  0.4419 -0.5166  0.2701
  806MPD2    H211874   2.256   0.380   0.306 -0.1647 -0.4607  0.2560
  806MPD2    H311875   2.383   0.396   0.106 -1.8566 -2.2169  1.1491
  806MPD2     N11876   2.373   0.861   0.113  0.1898  0.2657 -0.1254
  806MPD2    H511877   2.319   0.936   0.155  1.7028  0.9083  0.6432
  806MPD2    N111878   2.175   0.595   0.454  0.3120 -0.0339  0.4357
  806MPD2    H711879   2.176   0.504   0.497 -2.1820 -0.6914 -0.9219
  807MPD2     C11880   1.706   0.852   1.163 -0.3876 -1.1684  0.1478
  807MPD2    C111881   1.834   0.812   1.187  0.4856 -0.0866  0.2403
  807MPD2    C211882   1.873   0.805   1.316 -0.1502  0.3673  0.4880
  807MPD2    C311883   1.781   0.813   1.422  0.1374 -0.3842 -0.2114
  807MPD2    C411884   1.658   0.855   1.400 -0.2246 -0.0017  0.1882
  807MPD2    C511885   1.622   0.875   1.273 -0.6609  0.4016 -1.0300
  807MPD2     H11886   1.969   0.763   1.342 -0.5394 -1.2773 -0.7813
  807MPD2    H111887   1.591   0.879   1.482  0.1881 -1.2261  0.8869
  807MPD2    H211888   1.659   0.868   1.067  0.2276  1.8318  0.3422
  807MPD2    H311889   1.529   0.929   1.259  0.0363  1.4808 -1.4799
  807MPD2     N11890   1.830   0.803   1.554 -0.4161 -0.5186 -0.5881
  807MPD2    H511891   1.930   0.784   1.565 -0.1780 -0.4832 -2.7709
  807MPD2    N111892   1.941   0.799   1.090 -0.3211 -0.1832  0.3682
  807MPD2    H711893   2.034   0.800   1.131  0.2439  0.3181 -0.9367
  808MPD2     C11894   3.555   2.499  10.330 -0.1894 -0.4235  0.3404
  808MPD2    C111895   3.591   2.374  10.295  0.0904  0.4513 -0.8317
  808MPD2    C211896   3.719   2.339  10.300  0.3411 -0.1420  0.5158
  808MPD2    C311897   3.820   2.419  10.346 -0.2283 -0.0905  0.1971
  808MPD2    C411898   3.782   2.542  10.389  0.3685 -0.5057 -0.1715
  808MPD2    C511899   3.652   2.586  10.375  0.3720  0.4645  0.6061
  808MPD2     H11900   3.742   2.238  10.266 -1.1335 -0.1122 -0.5670
  808MPD2    H111901   3.857   2.610  10.429 -1.9440  1.0435  1.5615
  808MPD2    H211902   3.457   2.538  10.305 -0.2950 -1.7085 -1.2652
  808MPD2    H311903   3.628   2.686  10.409  1.1575  0.7025  0.4737
  808MPD2     N11904   3.956   2.388  10.337 -0.2714  0.3068  0.0005
  808MPD2    H511905   4.020   2.430  10.404  1.4321 -0.6833 -0.9983
  808MPD2    N111906   3.499   2.286  10.227 -0.3685  0.1731  0.2303
  808MPD2    H711907   3.536   2.192  10.212  0.4078  0.4600  0.3369
  809MPD2     C11908   4.195   1.585   9.868  0.6010 -0.8721 -0.0206
  809MPD2    C111909   4.304   1.578   9.952  0.2945 -0.2677 -0.4836
  809MPD2    C211910   4.331   1.691  10.035  0.0870  0.2050 -0.0672
  809MPD2    C311911   4.253   1.809  10.033 -0.0413 -0.4432  0.5289
  809MPD2    C411912   4.148   1.810   9.941 -0.0747  0.1229 -0.1934
  809MPD2    C511913   4.126   1.702   9.862  0.4127 -0.4920 -0.0753
  809MPD2     H11914   4.416   1.691  10.102  0.0041 -0.9562  0.0442
  809MPD2    H111915   4.075   1.889   9.929 -2.5802 -2.3322 -1.0422
  809MPD2    H211916   4.159   1.503   9.806 -1.2365  0.0769 -0.2111
  809MPD2    H311917   4.043   1.703   9.792  0.4475  0.6153 -0.0996
  809MPD2     N11918   4.269   1.927  10.105 -0.3069 -0.4091 -0.2134
  809MPD2    H511919   4.200   1.999  10.085 -1.1868 -0.9868  0.7086
  809MPD2    N111920   4.390   1.469   9.966 -0.3248 -0.2079 -0.2138
  809MPD2    H711921   4.465   1.474  10.034  0.1102 -1.9480 -0.5405
  810MPD2     C11922   3.267   0.887  10.675 -0.5432  0.2005  0.2868
  810MPD2    C111923   3.229   0.945  10.561  0.0620  0.2502  0.4335
  810MPD2    C211924   3.177   1.072  10.575  0.4266 -0.0669  0.2083
  810MPD2    C311925   3.164   1.141  10.692  0.1963  0.2162 -0.1178
  810MPD2    C411926   3.206   1.080  10.809  0.6431 -0.6422  0.7936
  810MPD2    C511927   3.256   0.956  10.796 -0.4451 -0.0243  0.4167
  810MPD2     H11928   3.144   1.126  10.487  0.5414 -0.4324 -0.0624
  810MPD2    H111929   3.210   1.133  10.904  0.1626  1.0038 -0.1114
  810MPD2    H211930   3.302   0.785  10.674  0.8974  0.6873  0.7700
  810MPD2    H311931   3.293   0.911  10.887 -1.6583  0.6342  1.2429
  810MPD2     N11932   3.115   1.274  10.690  0.4244 -0.4288  0.2311
  810MPD2    H511933   3.136   1.330  10.771 -0.0642 -0.5938  0.4726
  810MPD2    N111934   3.252   0.890  10.439 -0.3181 -0.0053  0.9608
  810MPD2    H711935   3.213   0.941  10.360 -0.3407 -0.7636  0.4788
  811MPD2     C11936   3.031   0.912   9.650 -0.1035 -0.2946  0.1048
  811MPD2    C111937   3.089   0.973   9.760 -0.0771  0.9917 -0.0091
  811MPD2    C211938   3.084   1.116   9.778  0.4393  0.0499  1.3515
  811MPD2    C311939   3.017   1.196   9.691 -0.8254 -0.2289  0.5555
  811MPD2    C411940   2.947   1.129   9.581 -0.1616 -0.6749 -0.0312
  811MPD2    C511941   2.962   0.994   9.560 -0.3758  1.0596  0.5001
  811MPD2     H11942   3.133   1.160   9.865 -0.7818  0.9754  1.5693
  811MPD2    H111943   2.890   1.167   9.497  1.5616 -1.8512 -1.7365
  811MPD2    H211944   3.029   0.805   9.637 -0.4514 -0.1808 -0.7543
  811MPD2    H311945   2.910   0.953   9.474  1.8179  2.7856 -1.6341
  811MPD2     N11946   2.999   1.337   9.714  0.3992 -0.1043 -0.1472
  811MPD2    H511947   3.042   1.376   9.797 -0.4910 -1.8098  1.1192
  811MPD2    N111948   3.137   0.880   9.851  0.4561  0.4350  0.2780
  811MPD2    H711949   3.138   0.785   9.816  1.2124  0.5953 -0.1522
  812MPD2     C11950   1.829   1.264  12.266 -0.9657  0.8879 -0.6328
  812MPD2    C111951   1.800   1.329  12.381  0.2544 -0.4151 -0.1331
  812MPD2    C211952   1.766   1.262  12.493  1.1323  0.3569  0.1064
  812MPD2    C311953   1.730   1.127  12.488  0.3012  0.3260 -0.4995
  812MPD2    C411954   1.753   1.063  12.365 -0.2355  0.1417 -0.2438
  812MPD2    C511955   1.800   1.133  12.263 -0.7106 -0.7661 -0.0994
  812MPD2     H11956   1.749   1.321  12.582  0.2888  0.2836 -0.0093
  812MPD2    H111957   1.733   0.958  12.346 -0.9339  0.6843 -2.5317
  812MPD2    H211958   1.856   1.325  12.180 -1.1250 -1.5770 -2.4383
  812MPD2    H311959   1.828   1.070  12.179 -0.2469 -0.6103 -0.0626
  812MPD2     N11960   1.673   1.077  12.610 -0.9982  0.1695  0.9520
  812MPD2    H511961   1.652   1.145  12.683 -0.3238  2.1598 -0.6885
  812MPD2    N111962   1.828   1.465  12.381  0.5146 -0.7771 -0.6459
  812MPD2    H711963   1.864   1.512  12.299  1.3156 -0.3491 -0.0413
  813MPD2     C11964   1.177   3.078  13.349 -0.5951 -0.1097 -0.5316
  813MPD2    C111965   1.088   3.175  13.290 -0.6221 -0.2580 -0.2816
  813MPD2    C211966   0.952   3.167  13.317 -0.3418  0.6410  0.3180
  813MPD2    C311967   0.914   3.073  13.410 -0.0385  0.0533  0.2966
  813MPD2    C411968   0.993   2.986  13.482 -0.3479  0.3196 -0.2129
  813MPD2    C511969   1.127   2.993  13.451  0.1651  0.1989  0.3523
  813MPD2     H11970   0.887   3.244  13.277  0.4976  1.1947  0.0236
  813MPD2    H111971   0.954   2.923  13.561  1.8435 -1.0288 -0.2018
  813MPD2    H211972   1.283   3.080  13.325 -0.8991 -0.4763 -1.9031
  813MPD2    H311973   1.197   2.927  13.500 -0.9098  1.1243  3.1288
  813MPD2     N11974   0.777   3.091  13.444 -0.1676  0.7282 -0.8514
  813MPD2    H511975   0.737   3.175  13.404  0.1104  0.3752 -1.8569
  813MPD2    N111976   1.154   3.284  13.220 -0.1189  0.2264  0.7482
  813MPD2    H711977   1.255   3.283  13.218 -0.1260 -0.0325  0.5171
  814MPD2     C11978   0.935   4.403  12.004 -0.4230 -0.0347 -0.4483
  814MPD2    C111979   1.058   4.352  11.960  0.6768 -0.0111  0.7839
  814MPD2    C211980   1.173   4.430  11.960 -0.1458 -0.4781 -0.0806
  814MPD2    C311981   1.171   4.552  12.018 -0.2221 -0.5338  0.0428
  814MPD2    C411982   1.055   4.602  12.066  0.1708 -0.2915 -0.4418
  814MPD2    C511983   0.937   4.528  12.058  0.1022 -0.3398  1.1399
  814MPD2     H11984   1.263   4.383  11.922  1.4932  1.9534  0.7707
  814MPD2    H111985   1.051   4.700  12.112 -1.0843 -0.7468  0.4161
  814MPD2    H211986   0.836   4.359  11.992 -0.8167  0.6194  0.3646
  814MPD2    H311987   0.841   4.572  12.081  0.5593  1.1412  0.1905
  814MPD2     N11988   1.282   4.631  12.031 -0.3869 -0.4005 -0.3647
  814MPD2    H511989   1.262   4.719  12.078 -2.8979  0.5396 -3.1387
  814MPD2    N111990   1.062   4.223  11.891 -0.0175  0.6448 -0.2544
  814MPD2    H711991   1.150   4.216  11.842 -0.0609  1.1115 -0.4024
  815MPD2     C11992   2.474   2.263  11.902  0.2879  0.0081 -0.5329
  815MPD2    C111993   2.364   2.260  11.821 -0.1975 -0.4228  0.0582
  815MPD2    C211994   2.254   2.334  11.864 -1.0688  0.1690  0.3939
  815MPD2    C311995   2.251   2.388  11.993  0.8873  0.8822  0.4245
  815MPD2    C411996   2.363   2.382  12.073  0.3979 -0.3247  0.0294
  815MPD2    C511997   2.470   2.322  12.024 -0.0556 -0.4674 -0.7604
  815MPD2     H11998   2.164   2.342  11.804  0.9129  4.1979 -2.0191
  815MPD2    H111999   2.370   2.442  12.163  0.5148 -0.8873  0.3956
  815MPD2    H212000   2.569   2.222  11.872 -0.6499 -1.0870 -1.9954
  815MPD2    H312001   2.566   2.330  12.075 -1.9369  1.2924  2.5202
  815MPD2     N12002   2.126   2.440  12.041 -0.0586 -0.5570  0.3261
  815MPD2    H512003   2.041   2.447  11.985 -1.4628  0.0487  2.5216
  815MPD2    N112004   2.375   2.190  11.694 -0.4054  0.6094  0.0138
  815MPD2    H712005   2.451   2.128  11.667 -1.7034 -0.3605 -1.4566
  816MPD2     C12006   1.241   2.241  16.930 -0.4762  0.4431 -0.6705
  816MPD2    C112007   1.307   2.354  16.969  0.1633  0.4152 -0.2833
  816MPD2    C212008   1.443   2.349  16.958  0.1866 -0.1207 -0.0268
  816MPD2    C312009   1.517   2.239  16.909 -0.1790  0.0353 -0.5212
  816MPD2    C412010   1.447   2.135  16.864 -0.8249  0.3001 -0.0129
  816MPD2    C512011   1.314   2.136  16.889  0.2679  0.5045 -0.7866
  816MPD2     H12012   1.502   2.435  16.987 -1.2924  0.8852  0.0203
  816MPD2    H112013   1.491   2.042  16.832 -2.4196 -0.3824 -0.2191
  816MPD2    H212014   1.133   2.229  16.935 -0.3245 -0.7419 -0.4154
  816MPD2    H312015   1.266   2.045  16.854 -3.0879  1.1414  2.1829
  816MPD2     N12016   1.654   2.251  16.886 -0.1091  0.7459  0.0109
  816MPD2    H512017   1.698   2.338  16.917 -0.5117  0.1470  2.2272
  816MPD2    N112018   1.238   2.465  17.027 -0.8517  0.0889  0.1037
  816MPD2    H712019   1.138   2.455  17.014 -0.4700 -1.7956 -1.4096
  817MPD2     C12020   2.341   3.129   9.998 -0.6589 -1.2419  0.8722
  817MPD2    C112021   2.343   3.078   9.870 -0.1027  0.8293  0.0018
  817MPD2    C212022   2.408   3.156   9.772  0.3259  1.4448 -0.3339
  817MPD2    C312023   2.479   3.269   9.806 -0.3359 -0.1811 -0.4101
  817MPD2    C412024   2.475   3.317   9.932  0.5865 -0.0254  0.5727
  817MPD2    C512025   2.410   3.240  10.026  0.5304 -0.1667  0.3038
  817MPD2     H12026   2.401   3.122   9.669 -1.7445  2.4826 -0.5200
  817MPD2    H112027   2.531   3.402   9.968 -1.1693  1.3176  0.1257
  817MPD2    H212028   2.302   3.074  10.083 -3.1228  0.6855  0.9950
  817MPD2    H312029   2.408   3.270  10.131 -1.4423 -1.7296  0.7292
  817MPD2     N12030   2.553   3.330   9.700  0.1114 -0.3867 -0.2216
  817MPD2    H512031   2.567   3.282   9.612 -1.2417  0.2200 -0.7757
  817MPD2    N112032   2.284   2.957   9.830  0.1754  0.7018 -0.0070
  817MPD2    H712033   2.286   2.942   9.729  1.6525  2.9820 -0.3169
  818MPD2     C12034   1.002   3.421   9.811 -0.2895  0.0572 -0.1723
  818MPD2    C112035   0.990   3.366   9.938  0.8428 -0.0151  1.0898
  818MPD2    C212036   1.047   3.239   9.960 -0.1596 -0.0439 -0.1451
  818MPD2    C312037   1.132   3.174   9.867  0.2121 -0.5910 -0.5691
  818MPD2    C412038   1.137   3.233   9.743  0.0137  0.5928  0.0750
  818MPD2    C512039   1.074   3.350   9.719  0.0468 -0.5171  0.5790
  818MPD2     H12040   1.009   3.184  10.045 -0.8287 -0.7301 -0.8862
  818MPD2    H112041   1.186   3.182   9.661  0.2926  0.1345  0.5284
  818MPD2    H212042   0.950   3.513   9.788  2.2989  1.1186 -1.8915
  818MPD2    H312043   1.074   3.398   9.621  1.1003 -1.5463  0.0800
  818MPD2     N12044   1.183   3.049   9.880  0.1865  0.1988 -0.5679
  818MPD2    H512045   1.241   3.013   9.804  1.9537 -1.6431  1.6719
  818MPD2    N112046   0.900   3.420  10.037 -0.3353  0.1318 -0.0356
  818MPD2    H712047   0.873   3.358  10.113 -1.2249 -0.1866 -0.6245
  819MPD2     C12048   3.122   0.839  15.917 -0.3411  0.5851 -1.1263
  819MPD2    C112049   3.181   0.737  15.845  0.1414  0.6185  0.1042
  819MPD2    C212050   3.301   0.693  15.886  0.1884 -0.4535 -0.5470
  819MPD2    C312051   3.363   0.744  15.998  0.6269  0.0711 -0.3232
  819MPD2    C412052   3.301   0.844  16.072  0.0633 -0.5286 -1.2403
  819MPD2    C512053   3.179   0.891  16.030 -0.0890  0.1643  0.3642
  819MPD2     H12054   3.352   0.620  15.824  1.6896  2.5540 -2.8579
  819MPD2    H112055   3.355   0.886  16.156 -1.8985 -0.9924  0.2702
  819MPD2    H212056   3.020   0.865  15.889 -0.6696 -0.2825 -0.7383
  819MPD2    H312057   3.123   0.963  16.089  0.4538 -0.7900  2.0371
  819MPD2     N12058   3.489   0.693  16.027  0.1387 -0.7956 -0.2114
  819MPD2    H512059   3.535   0.650  15.947  2.2313  0.4229  0.3532
  819MPD2    N112060   3.121   0.693  15.726  0.7197  0.3894 -0.4597
  819MPD2    H712061   3.043   0.746  15.688  0.5114 -0.2947 -1.0002
  820MPD2     C12062   2.290   0.646  15.175  0.3270  0.0807  0.5487
  820MPD2    C112063   2.351   0.731  15.258  0.6031  0.1074 -0.1686
  820MPD2    C212064   2.485   0.712  15.299 -1.1729  0.2322 -0.5018
  820MPD2    C312065   2.548   0.595  15.269 -0.2700  0.3457 -0.4330
  820MPD2    C412066   2.479   0.508  15.181 -0.9002 -0.1102  0.0408
  820MPD2    C512067   2.354   0.525  15.141 -0.4101  0.5246 -0.1210
  820MPD2     H12068   2.534   0.791  15.354  3.3156 -1.1399 -2.4554
  820MPD2    H112069   2.513   0.407  15.160  0.0566  0.1254  0.4201
  820MPD2    H212070   2.190   0.663  15.139  0.9538 -0.2145 -1.3478
  820MPD2    H312071   2.306   0.444  15.087 -0.3442  0.3838  0.0315
  820MPD2     N12072   2.682   0.563  15.297 -0.4341 -0.4488 -0.5008
  820MPD2    H512073   2.723   0.491  15.239  0.0041  1.2935 -2.3293
  820MPD2    N112074   2.288   0.854  15.285 -0.2796  0.1161  0.7649
  820MPD2    H712075   2.202   0.880  15.238  0.4127  1.8654  0.4808
  821MPD2     C12076   3.141   1.862  13.050  0.2197  0.0846  0.3082
  821MPD2    C112077   3.236   1.826  13.144  0.1908 -0.7148 -0.4267
  821MPD2    C212078   3.368   1.827  13.100 -0.1717  0.4312  0.2110
  821MPD2    C312079   3.404   1.869  12.971 -0.5837 -0.1025  0.7695
  821MPD2    C412080   3.300   1.921  12.890 -0.3504  0.3415  0.8748
  821MPD2    C512081   3.172   1.918  12.928 -0.8196  0.5212  0.7631
  821MPD2     H12082   3.446   1.830  13.175 -0.6878  1.5784  0.7041
  821MPD2    H112083   3.330   1.955  12.791  1.7944 -0.6609  1.1866
  821MPD2    H212084   3.036   1.853  13.073 -0.1016  1.7067 -0.4849
  821MPD2    H312085   3.096   1.945  12.856  0.8529 -1.8623 -1.9387
  821MPD2     N12086   3.538   1.903  12.930 -0.3077  0.0803 -0.3951
  821MPD2    H512087   3.553   1.957  12.845 -2.3334 -0.6829 -1.2312
  821MPD2    N112088   3.205   1.803  13.284 -0.1668 -0.1601 -0.1491
  821MPD2    H712089   3.284   1.791  13.346 -1.1304  0.3586  1.1751
  822MPD2     C12090   3.518   2.232  15.642 -0.1745  1.0109 -0.4242
  822MPD2    C112091   3.547   2.206  15.771  0.4907 -0.1316 -0.8445
  822MPD2    C212092   3.476   2.276  15.866 -0.0313  0.6528 -0.4538
  822MPD2    C312093   3.401   2.384  15.838 -0.6096  0.4902  0.6028
  822MPD2    C412094   3.366   2.401  15.707 -0.2561 -0.1433  0.2413
  822MPD2    C512095   3.423   2.325  15.609  0.3511  0.2184  0.1399
  822MPD2     H12096   3.507   2.258  15.968 -1.7355 -1.0819 -0.2404
  822MPD2    H112097   3.299   2.479  15.675  0.8537  0.6471 -0.1734
  822MPD2    H212098   3.559   2.170  15.564 -3.0205 -0.8902 -0.4104
  822MPD2    H312099   3.400   2.351  15.507 -1.2008  1.7569  0.8653
  822MPD2     N12100   3.343   2.456  15.944 -0.3828 -1.0057 -0.3110
  822MPD2    H512101   3.350   2.423  16.040 -1.4686 -1.6922 -0.4719
  822MPD2    N112102   3.651   2.124  15.810  0.2670 -0.2701  0.5606
  822MPD2    H712103   3.663   2.112  15.911 -0.2806 -3.2596  0.2743
  823MPD2     C12104   3.071   2.439  16.728  0.0019 -0.0120  0.9153
  823MPD2    C112105   3.127   2.388  16.604  1.1020 -0.2311  0.7343
  823MPD2    C212106   3.189   2.263  16.606 -0.6215 -0.0200  0.3319
  823MPD2    C312107   3.220   2.200  16.728 -0.1128  0.5516 -0.1755
  823MPD2    C412108   3.159   2.245  16.842  0.4330  0.4119  0.0291
  823MPD2    C512109   3.092   2.366  16.840  0.1707  0.5223  0.2605
  823MPD2     H12110   3.218   2.209  16.517 -2.0328 -2.6940  1.5106
  823MPD2    H112111   3.163   2.190  16.935 -1.4193  4.1505  2.3141
  823MPD2    H212112   3.021   2.535  16.736  1.4706  0.7383  0.8915
  823MPD2    H312113   3.042   2.391  16.932  2.0147  1.2326  1.0740
  823MPD2     N12114   3.301   2.079  16.728 -0.0600 -0.2661  0.1021
  823MPD2    H512115   3.291   2.022  16.812 -0.8661  0.0504  0.2166
  823MPD2    N112116   3.115   2.460  16.484  0.4451  0.5219 -1.0578
  823MPD2    H712117   3.106   2.560  16.496 -0.6052  0.3175 -0.1789
  824MPD2     C12118   3.897   1.452  15.585 -0.3165 -0.1099 -0.4586
  824MPD2    C112119   4.008   1.520  15.631 -0.3824 -0.2613  0.6569
  824MPD2    C212120   4.132   1.488  15.588  0.6129 -0.1518  0.1752
  824MPD2    C312121   4.152   1.378  15.497 -0.5011  0.1769  0.5233
  824MPD2    C412122   4.039   1.299  15.465  0.6804 -0.3701  0.3459
  824MPD2    C512123   3.915   1.343  15.503 -0.7170  0.0344  0.4278
  824MPD2     H12124   4.213   1.550  15.625  0.3560  0.5544 -0.4339
  824MPD2    H112125   4.037   1.210  15.402 -2.8089 -1.1074  1.5050
  824MPD2    H212126   3.797   1.486  15.609  0.6410  0.4094  2.8108
  824MPD2    H312127   3.832   1.280  15.472  0.1564 -1.0217  0.2160
  824MPD2     N12128   4.283   1.348  15.445 -0.9080  0.6394  0.4216
  824MPD2    H512129   4.357   1.416  15.460 -1.3213  0.9196  1.1907
  824MPD2    N112130   3.981   1.626  15.716 -0.0697  0.0891 -0.3644
  824MPD2    H712131   3.888   1.666  15.725 -0.2751 -1.0409  2.6169
  825MPD2     C12132   4.647   1.363  14.723  0.4858 -0.0886 -0.8835
  825MPD2    C112133   4.681   1.434  14.838  0.4524  0.0718  0.0385
  825MPD2    C212134   0.026   1.556  14.831 -0.6472  0.0970  0.2365
  825MPD2    C312135   0.068   1.610  14.710  0.3380 -0.8822  0.0344
  825MPD2    C412136   0.036   1.536  14.593 -0.0512  0.9954  0.2306
  825MPD2    C512137   4.682   1.419  14.603 -0.8246 -1.0037 -0.2320
  825MPD2     H12138   0.056   1.608  14.921  0.3951  0.0265 -0.0616
  825MPD2    H112139   0.068   1.580  14.499  0.8741  0.3918  0.2567
  825MPD2    H212140   4.615   1.260  14.728 -1.9003  0.5835 -2.3644
  825MPD2    H312141   4.669   1.359  14.513  1.3362  1.5376 -2.2142
  825MPD2     N12142   0.147   1.730  14.692  0.4745 -0.0865 -0.0301
  825MPD2    H512143   0.147   1.763  14.596 -0.8239  2.8788  0.9686
  825MPD2    N112144   4.659   1.366  14.962  0.1220 -0.2135 -0.4814
  825MPD2    H712145   4.636   1.267  14.965 -1.3926  0.1162 -1.2046
  826MPD2     C12146   3.962   0.962  12.940  0.1136  0.3472  0.4442
  826MPD2    C112147   3.994   1.091  12.941 -0.3848 -0.1947 -0.2023
  826MPD2    C212148   3.948   1.168  13.050  0.2846  0.8886 -0.5586
  826MPD2    C312149   3.858   1.118  13.144  0.2751 -0.3346  0.0148
  826MPD2    C412150   3.826   0.986  13.135 -0.2558 -0.5649 -0.1690
  826MPD2    C512151   3.877   0.910  13.037  0.3522  0.3424 -0.1140
  826MPD2     H12152   3.971   1.274  13.045  1.6177  0.6074 -0.5835
  826MPD2    H112153   3.749   0.945  13.199 -0.1792  0.5299  0.6214
  826MPD2    H212154   4.000   0.894  12.864  0.6703 -0.3171  1.3253
  826MPD2    H312155   3.836   0.811  13.029  1.7328 -0.2758  0.3416
  826MPD2     N12156   3.797   1.205  13.238 -0.1644 -0.2079  0.1188
  826MPD2    H512157   3.742   1.162  13.311 -1.7646  0.2996 -0.7868
  826MPD2    N112158   4.093   1.127  12.856 -0.1392  0.9708  0.1857
  826MPD2    H712159   4.132   1.055  12.796 -1.1511 -0.1146  0.8441
  827MPD2     C12160   1.379   2.051   9.996  1.4126  0.1287 -0.1901
  827MPD2    C112161   1.326   1.930  10.006 -0.2970 -0.1351  0.3983
  827MPD2    C212162   1.301   1.872   9.878  0.0309 -0.4002  0.7170
  827MPD2    C312163   1.327   1.939   9.756 -0.1733 -0.2880 -0.2421
  827MPD2    C412164   1.397   2.054   9.760  0.8588 -0.2394  0.8166
  827MPD2    C512165   1.413   2.113   9.880 -0.6384 -0.4590  0.6680
  827MPD2     H12166   1.259   1.773   9.876 -1.6065  0.2611  1.9905
  827MPD2    H112167   1.419   2.118   9.675  1.0929 -1.4915 -0.0563
  827MPD2    H212168   1.411   2.096  10.089  1.0304  1.6502 -0.8073
  827MPD2    H312169   1.456   2.213   9.882  0.3148 -0.8746  1.2031
  827MPD2     N12170   1.311   1.869   9.635 -0.2910  0.0320 -0.1565
  827MPD2    H512171   1.252   1.787   9.632  0.8113 -0.7136 -1.1178
  827MPD2    N112172   1.313   1.856  10.125 -0.3415  0.2928  0.2808
  827MPD2    H712173   1.342   1.896  10.214 -1.4286  0.2103  0.6794
  828MPD2     C12174   4.133   2.043  12.027  0.0713 -0.0867 -0.1102
  828MPD2    C112175   4.081   2.125  11.927  0.4391  0.6337 -0.1238
  828MPD2    C212176   4.148   2.136  11.805 -1.1324 -0.8419 -0.7077
  828MPD2    C312177   4.274   2.080  11.787 -0.2401  0.3528  0.2841
  828MPD2    C412178   4.317   1.992  11.887  0.1383 -0.1436 -0.1520
  828MPD2    C512179   4.253   1.983  12.008  0.5269  0.7759 -0.0748
  828MPD2     H12180   4.088   2.192  11.734  1.1266  0.1284 -1.8372
  828MPD2    H112181   4.408   1.932  11.877 -0.6927 -1.6763  1.5780
  828MPD2    H212182   4.083   2.033  12.123 -0.2190  1.9306 -0.0459
  828MPD2    H312183   4.292   1.920  12.087 -2.0081  1.1811  1.4984
  828MPD2     N12184   4.354   2.083  11.670  0.5694  0.2326  0.1746
  828MPD2    H512185   4.435   2.022  11.675  0.5307  0.0202 -1.4581
  828MPD2    N112186   3.956   2.187  11.938  0.8465  0.1738  0.2908
  828MPD2    H712187   3.928   2.240  11.857 -1.0025 -1.0652  0.1313
  829MPD2     C12188   3.126   2.134  11.393  0.7876 -0.1602 -0.8744
  829MPD2    C112189   3.089   2.066  11.508  0.2350 -0.3932  0.1472
  829MPD2    C212190   3.178   2.077  11.615 -0.4635  0.2777 -0.6442
  829MPD2    C312191   3.300   2.136  11.603  0.3018 -0.2806  0.3858
  829MPD2    C412192   3.347   2.169  11.477  0.7081 -0.1639 -0.0031
  829MPD2    C512193   3.257   2.171  11.374  0.3526  0.2074  0.2102
  829MPD2     H12194   3.152   2.022  11.704 -0.2308  1.7585  0.3381
  829MPD2    H112195   3.440   2.223  11.466  0.2419  0.6832  0.2619
  829MPD2    H212196   3.057   2.137  11.310 -2.2921  0.9397  1.7170
  829MPD2    H312197   3.284   2.208  11.275 -1.0584 -0.6507 -0.4868
  829MPD2     N12198   3.381   2.134  11.718  0.1416 -0.2506  0.4027
  829MPD2    H512199   3.342   2.131  11.812 -0.3067  0.8020  0.2480
  829MPD2    N112200   2.962   2.008  11.512 -0.1061  0.2188  0.7197
  829MPD2    H712201   2.907   2.012  11.427  0.4053 -0.5900  0.3545
  830MPD2     C12202   4.106   0.516  15.556 -0.2210  0.4090 -0.2235
  830MPD2    C112203   4.008   0.604  15.601 -0.5446  0.2736  0.8437
  830MPD2    C212204   3.953   0.694  15.508  0.0641 -0.3810  0.0468
  830MPD2    C312205   4.001   0.701  15.375  0.0856 -0.8995 -0.1231
  830MPD2    C412206   4.104   0.621  15.341 -0.9426  0.0728 -0.6766
  830MPD2    C512207   4.160   0.527  15.428 -0.4413  0.1996  0.1585
  830MPD2     H12208   3.877   0.761  15.546 -0.1142  0.2278 -1.3892
  830MPD2    H112209   4.137   0.625  15.238  0.9209 -3.0272 -0.2219
  830MPD2    H212210   4.139   0.431  15.614 -1.6401 -0.7881 -1.1824
  830MPD2    H312211   4.245   0.466  15.401  2.1360  4.3539 -1.1890
  830MPD2     N12212   3.951   0.793  15.279 -0.0349 -0.2696  0.1497
  830MPD2    H512213   3.969   0.778  15.180  0.3705 -0.1954  0.2140
  830MPD2    N112214   3.964   0.595  15.736  0.2573 -0.7082  0.0242
  830MPD2    H712215   3.990   0.511  15.787 -0.2576 -1.3964 -0.8490
  831MPD2     C12216   3.519   2.563  16.270 -0.6405  0.0822  0.2087
  831MPD2    C112217   3.590   2.493  16.180  0.5402  0.1213  0.5927
  831MPD2    C212218   3.612   2.359  16.193  0.4320  0.3392  0.0147
  831MPD2    C312219   3.548   2.292  16.291  0.2906  0.4745  0.3440
  831MPD2    C412220   3.482   2.366  16.391  0.0291  0.0685  0.0596
  831MPD2    C512221   3.485   2.504  16.392 -0.0968  0.0828  0.0219
  831MPD2     H12222   3.668   2.308  16.116  0.2327  0.8962 -0.4985
  831MPD2    H112223   3.430   2.317  16.473 -0.8323  4.6078  2.2293
  831MPD2    H212224   3.508   2.670  16.256 -1.5867 -0.4116 -2.6656
  831MPD2    H312225   3.430   2.558  16.469 -0.1475  0.0832 -0.0152
  831MPD2     N12226   3.542   2.149  16.296 -0.0330  0.4268 -0.6303
  831MPD2    H512227   3.480   2.108  16.365 -1.9158  1.4708 -1.6928
  831MPD2    N112228   3.648   2.541  16.058  0.2001 -0.3316  0.3385
  831MPD2    H712229   3.688   2.473  15.995  0.9040 -1.4827  2.0164
  832MPD2     C12230   1.629   3.393  17.291  0.4336 -0.5031  0.3665
  832MPD2    C112231   1.643   3.531  17.278  0.3465  0.1842  0.3286
  832MPD2    C212232   1.546   3.603  17.209  0.3396  0.2352 -0.4847
  832MPD2    C312233   1.441   3.538  17.153 -0.1013 -0.3883  0.4386
  832MPD2    C412234   1.434   3.397  17.157  0.1061 -0.0888 -0.3824
  832MPD2    C512235   1.527   3.326  17.231  1.1974  0.1723 -0.3663
  832MPD2     H12236   1.542   3.710  17.227 -0.3324  0.1725 -0.2881
  832MPD2    H112237   1.351   3.343  17.112  0.5725 -0.5583 -0.6769
  832MPD2    H212238   1.700   3.335  17.350  1.7306  0.5141 -0.1859
  832MPD2    H312239   1.530   3.218  17.244 -0.9742  0.3323  1.3927
  832MPD2     N12240   1.339   3.602  17.082  0.0972 -0.2064  0.6855
  832MPD2    H512241   1.263   3.539  17.057 -1.9603  2.3506  0.5060
  832MPD2    N112242   1.743   3.593  17.358 -0.2209 -1.0415 -0.1439
  832MPD2    H712243   1.778   3.535  17.433  1.7355  1.2902  0.7471
  833MPD2     C12244   0.045   0.189  12.380  1.2184 -0.8539 -0.7737
  833MPD2    C112245   4.693   0.079  12.344 -0.1544 -0.1157 -0.0351
  833MPD2    C212246   0.016   4.690  12.274 -0.2040  0.9779 -0.4994
  833MPD2    C312247   0.151   4.682  12.247  0.5024  0.0876  0.4655
  833MPD2    C412248   0.233   0.070  12.280  0.1433 -0.4105 -0.1659
  833MPD2    C512249   0.178   0.176  12.351  0.0150  0.8606  0.0311
  833MPD2     H12250   4.671   4.613  12.236  1.5639 -1.5351  1.4924
  833MPD2    H112251   0.340   0.076  12.268  0.6084 -1.3653  3.5321
  833MPD2    H212252   4.720   0.277  12.422 -0.3272 -2.2931  0.4606
  833MPD2    H312253   0.250   0.252  12.378  0.5957  1.8805 -4.4801
  833MPD2     N12254   0.220   4.578  12.179  0.5929 -0.0007 -0.1185
  833MPD2    H512255   0.320   4.586  12.166  0.5956  1.5521  0.9210
  833MPD2    N112256   4.557   0.090  12.365  0.0708 -0.0530 -0.2782
  833MPD2    H712257   4.528   0.184  12.389 -0.8892 -0.3475 -0.2729
  834MPD2     C12258   0.175   3.611  11.648  0.5159 -0.0616 -0.1611
  834MPD2    C112259   0.197   3.711  11.554 -1.1382  0.3829  0.4418
  834MPD2    C212260   0.206   3.845  11.598 -0.0874 -0.2768  0.2038
  834MPD2    C312261   0.226   3.867  11.733  0.4243  0.3011 -0.1259
  834MPD2    C412262   0.206   3.764  11.825  0.1094  0.1424 -0.6447
  834MPD2    C512263   0.171   3.638  11.785  0.1067  0.1461  0.1478
  834MPD2     H12264   0.208   3.925  11.525  2.6970 -0.6818 -0.1424
  834MPD2    H112265   0.219   3.781  11.931 -1.4650 -1.6298 -0.1606
  834MPD2    H212266   0.155   3.507  11.625 -0.6300  0.0776  0.2425
  834MPD2    H312267   0.137   3.560  11.852 -0.6330  1.2722  1.0900
  834MPD2     N12268   0.234   4.004  11.770  0.0482  0.5073 -0.0801
  834MPD2    H512269   0.252   4.071  11.696 -0.9173 -0.1951 -0.9542
  834MPD2    N112270   0.175   3.673  11.420 -0.1763  0.0825 -0.2827
  834MPD2    H712271   0.149   3.579  11.395  0.4881 -0.0890 -0.3228
  835MPD2     C12272   4.702   2.166  10.833 -0.1396 -0.3617  0.0356
  835MPD2    C112273   4.577   2.189  10.881 -0.3907 -0.0047 -0.3818
  835MPD2    C212274   4.559   2.257  11.000 -0.4956 -0.0216  0.5335
  835MPD2    C312275   4.670   2.297  11.081  0.2692 -0.4172  0.3957
  835MPD2    C412276   0.066   2.256  11.036 -0.8666  0.2445 -0.5781
  835MPD2    C512277   0.080   2.196  10.912 -0.2247  0.3206  0.0857
  835MPD2     H12278   4.459   2.273  11.040 -0.0848 -0.1747  1.6140
  835MPD2    H112279   0.154   2.273  11.097 -1.5253 -0.3071  0.5228
  835MPD2    H212280   0.005   2.115  10.741  3.0644  0.8446  0.2522
  835MPD2    H312281   0.178   2.170  10.873  0.4059 -1.2207  2.7103
  835MPD2     N12282   4.652   2.350  11.217  0.2006 -0.2230 -0.1727
  835MPD2    H512283   0.015   2.375  11.267  0.2696  2.0711 -1.4366
  835MPD2    N112284   4.461   2.137  10.826 -0.1220  0.7811  0.4568
  835MPD2    H712285   4.375   2.165  10.874 -0.7746  0.2272 -0.3898
  836MPD2     C12286   4.042   2.714  11.566 -0.9499  0.2281  0.5190
  836MPD2    C112287   4.133   2.671  11.659 -0.4495 -0.7300 -0.6548
  836MPD2    C212288   4.112   2.715  11.786 -0.5926 -0.0800 -0.0470
  836MPD2    C312289   4.000   2.787  11.823 -0.2914 -0.1596 -0.3958
  836MPD2    C412290   3.911   2.826  11.725 -0.1730  0.7148 -0.2465
  836MPD2    C512291   3.936   2.790  11.598  0.4080  1.2545 -0.1491
  836MPD2     H12292   4.180   2.681  11.862 -1.0315 -1.3964 -0.2293
  836MPD2    H112293   3.821   2.884  11.744 -1.2231 -1.4859  1.4679
  836MPD2    H212294   4.058   2.681  11.464  1.7401  0.9040  0.7076
  836MPD2    H312295   3.866   2.818  11.521 -2.4678 -2.6544  1.0358
  836MPD2     N12296   3.966   2.823  11.954  0.0188 -0.5165 -0.6735
  836MPD2    H512297   3.879   2.870  11.977 -0.5968 -0.9262 -2.1123
  836MPD2    N112298   4.233   2.577  11.618  0.2668  0.4100  0.1741
  836MPD2    H712299   4.229   2.562  11.517  1.0509 -0.9433  0.3542
  837MPD2     C12300   3.080   1.973  10.194  0.5890  0.0995 -0.1237
  837MPD2    C112301   3.043   2.006  10.064 -0.8165  0.1113  0.2109
  837MPD2    C212302   3.037   2.137  10.030 -0.6231 -0.0780  0.0997
  837MPD2    C312303   3.053   2.232  10.131 -0.5781  0.1481  0.5755
  837MPD2    C412304   3.073   2.199  10.260  0.4747  1.0462 -0.3552
  837MPD2    C512305   3.079   2.066  10.293 -0.0261  0.3317  0.0231
  837MPD2     H12306   3.026   2.162   9.925 -1.2549 -1.2418 -0.1087
  837MPD2    H112307   3.062   2.270  10.341  1.0992 -0.6695  1.2017
  837MPD2    H212308   3.101   1.871  10.224  1.0930  0.2007 -0.1245
  837MPD2    H312309   3.104   2.039  10.395  1.2761 -1.6919 -0.8131
  837MPD2     N12310   3.018   2.362  10.088 -0.2643  0.3233 -0.1024
  837MPD2    H512311   3.001   2.364   9.988 -0.4232 -1.1569 -0.1015
  837MPD2    N112312   3.039   1.917   9.957 -0.1722  0.1151  0.2077
  837MPD2    H712313   3.015   1.960   9.869 -1.0546  1.5522  1.1583
  838MPD2     C12314   1.303   0.245  11.733 -0.1951 -0.2896  0.4948
  838MPD2    C112315   1.303   0.178  11.615  0.0539 -0.1900 -0.2142
  838MPD2    C212316   1.187   0.117  11.571  0.6632  0.8271 -0.1590
  838MPD2    C312317   1.069   0.116  11.647 -1.0601  0.4071  0.1642
  838MPD2    C412318   1.071   0.189  11.766  0.2184  0.0774 -0.4177
  838MPD2    C512319   1.184   0.256  11.803  0.1409  1.3601 -0.2846
  838MPD2     H12320   1.187   0.064  11.476  0.6272  3.1729 -1.4625
  838MPD2    H112321   0.987   0.190  11.834 -0.7192  0.7470 -1.5822
  838MPD2    H212322   1.393   0.294  11.769 -0.2681 -0.9889  1.5969
  838MPD2    H312323   1.194   0.300  11.902 -3.9532  0.1954  0.6626
  838MPD2     N12324   0.947   0.045  11.610 -0.0050  0.5939  0.1336
  838MPD2    H512325   0.888   0.025  11.689  0.8506 -0.7030  0.4361
  838MPD2    N112326   1.418   0.163  11.536 -0.0687  1.0106  0.3269
  838MPD2    H712327   1.407   0.104  11.455  1.6983 -1.6640  2.0541
  839MPD2     C12328   1.045   4.352  11.541 -0.7562  0.0645  0.1566
  839MPD2    C112329   1.129   4.316  11.426 -0.2624 -0.0142  0.5463
  839MPD2    C212330   1.251   4.376  11.407 -0.3441  0.4343  0.1985
  839MPD2    C312331   1.293   4.482  11.491 -0.9641  0.4945 -0.7751
  839MPD2    C412332   1.218   4.510  11.603 -0.1571 -0.2634 -0.2435
  839MPD2    C512333   1.101   4.444  11.628 -0.6256  0.4587  0.0080
  839MPD2     H12334   1.319   4.348  11.327 -0.1434  2.4263 -0.3315
  839MPD2    H112335   1.252   4.576  11.683 -2.5573 -1.3038  1.6448
  839MPD2    H212336   0.949   4.318  11.579 -1.0777  1.6561  0.7979
  839MPD2    H312337   1.051   4.477  11.718 -0.1813 -1.6633  1.0280
  839MPD2     N12338   1.408   4.559  11.483  0.5898  0.2677 -0.4601
  839MPD2    H512339   1.409   4.638  11.546  0.9227  2.2567 -2.9822
  839MPD2    N112340   1.083   4.221  11.334  0.1208  0.0442  0.2076
  839MPD2    H712341   1.146   4.196  11.259 -0.1500  2.4421 -0.8335
  840MPD2     C12342   1.893   1.790  10.259  0.4334  0.0791 -0.0367
  840MPD2    C112343   1.816   1.809  10.376  0.4062  0.1039  0.4883
  840MPD2    C212344   1.859   1.895  10.471 -0.0298 -0.3919  0.8433
  840MPD2    C312345   1.957   1.987  10.440 -0.0138  0.7113 -0.2547
  840MPD2    C412346   2.032   1.972  10.330  0.1096  0.0111  0.5221
  840MPD2    C512347   2.001   1.873  10.243 -0.2232 -0.0309 -0.8238
  840MPD2     H12348   1.808   1.904  10.566 -1.8751  0.0817 -0.1817
  840MPD2    H112349   2.111   2.034  10.289 -2.0946  1.0175 -2.2173
  840MPD2    H212350   1.867   1.717  10.183 -2.2207 -0.4677  1.3673
  840MPD2    H312351   2.063   1.865  10.154 -0.0863 -0.3291 -0.7024
  840MPD2     N12352   1.980   2.089  10.536  0.1216  0.4346 -0.4178
  840MPD2    H512353   2.065   2.142  10.517  0.7493 -0.2340  0.5580
  840MPD2    N112354   1.696   1.725  10.390  0.3097 -0.5219 -0.2416
  840MPD2    H712355   1.665   1.662  10.317 -3.4611  0.4951  0.5184
  841MPD2     C12356   1.215   2.698  14.123  0.6643  0.6092 -0.7539
  841MPD2    C112357   1.092   2.725  14.175  0.1376  0.4926  0.3117
  841MPD2    C212358   1.070   2.855  14.230  0.0936 -0.1735 -0.1421
  841MPD2    C312359   1.181   2.937  14.251  0.0024 -0.2358  0.4772
  841MPD2    C412360   1.304   2.901  14.201 -0.3265  0.4303  0.6697
  841MPD2    C512361   1.319   2.783  14.138 -0.0998  0.3708 -0.5379
  841MPD2     H12362   0.973   2.879  14.272 -0.3189 -1.8504 -0.1233
  841MPD2    H112363   1.390   2.968  14.206  0.4558 -0.4851 -0.5217
  841MPD2    H212364   1.245   2.607  14.071 -0.3472 -0.4128  0.4624
  841MPD2    H312365   1.415   2.746  14.101 -0.2525 -0.5960  0.0294
  841MPD2     N12366   1.158   3.057  14.322 -0.1996 -0.4716 -0.0635
  841MPD2    H512367   1.062   3.074  14.350 -0.6043 -0.7026 -1.2844
  841MPD2    N112368   0.977   2.645  14.163  0.1229 -0.1930 -0.2486
  841MPD2    H712369   0.884   2.685  14.174  0.2589  0.1492 -0.3585
  842MPD2     C12370   1.042   4.135  16.916 -0.3915  0.1455 -0.0997
  842MPD2    C112371   0.934   4.065  16.962 -0.4631  0.0147  0.0823
  842MPD2    C212372   0.941   4.004  17.086 -0.9019 -0.1126  0.3127
  842MPD2    C312373   1.057   4.015  17.164 -0.2328 -0.2066  0.2495
  842MPD2    C412374   1.156   4.094  17.123 -0.6679 -0.0780  0.1618
  842MPD2    C512375   1.154   4.149  16.993  0.1773  0.2695  0.2903
  842MPD2     H12376   0.855   3.961  17.136 -1.8164 -0.0808 -1.2125
  842MPD2    H112377   1.245   4.117  17.180  0.2237  1.7788 -1.9999
  842MPD2    H212378   1.036   4.176  16.816 -0.7556  0.9482  0.2494
  842MPD2    H312379   1.231   4.216  16.956  0.1183  1.1966  1.8233
  842MPD2     N12380   1.067   3.958  17.291 -0.3165  0.3884  0.8090
  842MPD2    H512381   1.135   3.995  17.356 -0.2777  0.1095  0.9262
  842MPD2    N112382   0.824   4.041  16.874  0.1551 -0.2192 -0.0255
  842MPD2    H712383   0.829   4.095  16.788 -2.0620 -1.2584 -0.8013
  843MPD2     C12384   2.568   4.531   0.155  0.5037 -0.0372 -0.2809
  843MPD2    C112385   2.647   4.436   0.213 -0.9830  0.5865 -0.1004
  843MPD2    C212386   2.784   4.454   0.204  0.4879 -0.3593 -0.1015
  843MPD2    C312387   2.839   4.568   0.153  0.1702  0.2799 -0.1998
  843MPD2    C412388   2.758   4.668   0.099 -0.9159  0.2368 -0.1461
  843MPD2    C512389   2.623   4.640   0.093 -0.4019 -0.3881  0.2802
  843MPD2     H12390   2.853   4.381   0.245 -0.3580 -1.4842 -0.6713
  843MPD2    H112391   2.795   0.037   0.053  1.0844 -0.4410  0.1200
  843MPD2    H212392   2.460   4.529   0.158  0.6105 -1.0512  2.1084
  843MPD2    H312393   2.550   4.712   0.057  0.7344  1.1310  1.0421
  843MPD2     N12394   2.974   4.605   0.159 -0.3225 -0.6817  0.0570
  843MPD2    H512395   3.001   4.694   0.120 -0.1616 -1.5308 -1.7700
  843MPD2    N112396   2.587   4.323   0.269  0.0617  0.5963  0.6681
  843MPD2    H712397   2.486   4.324   0.275 -0.1804 -1.3262 -2.9093
  844MPD2     C12398   1.522   3.472  16.676 -0.5306 -0.4300  0.1371
  844MPD2    C112399   1.647   3.434  16.627  1.0637  0.2450 -0.3888
  844MPD2    C212400   1.755   3.507  16.663 -1.7452 -0.6693 -0.4290
  844MPD2    C312401   1.740   3.626  16.727 -0.2191 -0.2467  0.3679
  844MPD2    C412402   1.617   3.668  16.768  0.2902 -0.0532  0.2861
  844MPD2    C512403   1.508   3.587  16.745  0.0612 -0.3412 -0.3193
  844MPD2     H12404   1.854   3.489  16.622 -1.6993 -2.1556  0.3272
  844MPD2    H112405   1.604   3.764  16.817  3.9144  0.9097 -0.5872
  844MPD2    H212406   1.433   3.413  16.656 -1.2175  0.7184 -0.1861
  844MPD2    H312407   1.416   3.627  16.785 -0.4801 -0.8704 -1.0613
  844MPD2     N12408   1.858   3.702  16.745 -0.2213  0.4853 -0.2717
  844MPD2    H512409   1.944   3.649  16.738 -1.1265 -1.2299  1.6621
  844MPD2    N112410   1.657   3.320  16.539  0.3678  0.3938 -0.5183
  844MPD2    H712411   1.751   3.284  16.524 -0.2514 -1.1784 -0.6525
  845MPD2     C12412   2.028   4.473  17.259 -0.3797  0.0629  0.4197
  845MPD2    C112413   1.951   4.360  17.269 -0.1796 -0.5406  0.2917
  845MPD2    C212414   1.976   4.255  17.180 -0.4295 -0.3805  0.1818
  845MPD2    C312415   2.066   4.274  17.075  0.5834  0.4330  0.5907
  845MPD2    C412416   2.140   4.394  17.064 -0.1569  0.2410 -0.3468
  845MPD2    C512417   2.122   4.491  17.164 -0.4016  0.0644  0.3175
  845MPD2     H12418   1.915   4.165  17.180 -1.4610  0.3247  0.2744
  845MPD2    H112419   2.226   4.401  16.999 -0.0617 -0.9613 -0.3492
  845MPD2    H212420   2.020   4.552  17.333  1.5479 -0.0171  0.7325
  845MPD2    H312421   2.190   4.575  17.169  1.0911 -1.1777  0.9321
  845MPD2     N12422   2.073   4.176  16.977  0.6363 -0.2233  0.0302
  845MPD2    H512423   2.012   4.095  16.983 -0.0425  0.3042  0.2829
  845MPD2    N112424   1.856   4.360  17.372 -0.1498  0.5742  0.8605
  845MPD2    H712425   1.862   4.443  17.430 -0.3276  1.1303  0.0884
  846MPD2     C12426   3.874   4.135  13.739  0.3055  0.3532 -0.5947
  846MPD2    C112427   3.869   4.275  13.740  0.2792 -0.2972  0.2822
  846MPD2    C212428   3.870   4.337  13.869 -0.9096  0.2526  0.1108
  846MPD2    C312429   3.873   4.267  13.986  0.2414  0.0264 -0.0972
  846MPD2    C412430   3.882   4.127  13.982 -0.2940 -0.6869 -0.4865
  846MPD2    C512431   3.874   4.063  13.857 -0.5019  0.1017  0.2749
  846MPD2     H12432   3.857   4.443  13.883  0.0285  0.1202  1.9723
  846MPD2    H112433   3.880   4.071  14.075  1.1504 -0.3221 -0.2393
  846MPD2    H212434   3.884   4.077  13.648 -0.3660  0.2357 -0.5945
  846MPD2    H312435   3.871   3.955  13.867 -0.3298  0.0508 -0.2202
  846MPD2     N12436   3.860   4.343  14.109  0.3819 -0.0607  0.3956
  846MPD2    H512437   3.819   4.436  14.102 -0.3808 -0.4146  0.1991
  846MPD2    N112438   3.877   4.363  13.628  0.0043 -0.6032  0.2747
  846MPD2    H712439   3.902   4.458  13.653 -0.6216  0.4379 -2.9963
  847MPD2     C12440   3.239   0.400  14.427  0.0027 -0.2994  0.1374
  847MPD2    C112441   3.362   0.349  14.390  0.0274 -0.0577  0.6706
  847MPD2    C212442   3.404   0.238  14.460  0.3393 -0.6263 -0.9469
  847MPD2    C312443   3.349   0.195  14.576 -0.4892  0.0299 -0.6307
  847MPD2    C412444   3.233   0.258  14.623  0.1477 -0.7392 -0.2051
  847MPD2    C512445   3.178   0.353  14.541  0.4719 -0.1338 -0.3184
  847MPD2     H12446   3.493   0.191  14.422  0.8727 -0.5249  0.1697
  847MPD2    H112447   3.174   0.221  14.706 -1.8846  1.7428 -0.5525
  847MPD2    H212448   3.190   0.485  14.382  0.0878 -1.2231 -1.6763
  847MPD2    H312449   3.076   0.379  14.570  0.6699  1.3719 -0.9621
  847MPD2     N12450   3.411   0.079  14.636  0.4477 -0.3385 -0.0568
  847MPD2    H512451   3.495   0.041  14.595 -0.0502 -0.5093 -0.9339
  847MPD2    N112452   3.446   0.401  14.295 -0.0208 -0.0236  0.1689
  847MPD2    H712453   3.538   0.357  14.293 -0.2538 -0.5143  0.2055
  848MPD2     C12454   1.087   3.970  16.408  1.0697 -0.1084  0.8241
  848MPD2    C112455   1.166   3.993  16.514 -0.1711  1.1046  0.6240
  848MPD2    C212456   1.264   4.092  16.515  0.1496 -0.3168 -0.3619
  848MPD2    C312457   1.263   4.178  16.406 -0.2963 -0.2852 -0.1394
  848MPD2    C412458   1.181   4.156  16.297  0.1756  0.0961  0.7229
  848MPD2    C512459   1.097   4.048  16.299 -0.0551 -0.0956  0.2840
  848MPD2     H12460   1.320   4.113  16.605  0.4452 -0.1843 -0.5779
  848MPD2    H112461   1.166   4.215  16.208  3.8869 -0.0993 -0.0173
  848MPD2    H212462   1.009   3.895  16.411  2.1504 -1.1835  1.6246
  848MPD2    H312463   1.036   4.038  16.210 -1.2606 -0.6906  1.1791
  848MPD2     N12464   1.356   4.288  16.394  0.3337  0.1083  0.0862
  848MPD2    H512465   1.354   4.355  16.318 -0.7417  0.6350  0.5818
  848MPD2    N112466   1.156   3.920  16.638 -0.2131  0.3291  0.1112
  848MPD2    H712467   1.215   3.957  16.712  1.6440  0.6297 -1.5339
  849MPD2     C12468   1.001   3.647  14.826 -0.4411  0.3703 -0.8191
  849MPD2    C112469   1.016   3.699  14.699 -0.4373 -0.5009 -0.5014
  849MPD2    C212470   1.120   3.787  14.679 -0.7893  0.4165 -0.5036
  849MPD2    C312471   1.208   3.834  14.772 -0.0738  0.8811  0.3666
  849MPD2    C412472   1.202   3.771  14.895  0.4760  0.0435  0.3813
  849MPD2    C512473   1.101   3.674  14.919  0.1645  0.3117 -0.2117
  849MPD2     H12474   1.146   3.833  14.584  3.1574 -4.1490 -1.6381
  849MPD2    H112475   1.260   3.797  14.983  1.4547 -0.0329 -0.2409
  849MPD2    H212476   0.933   3.570  14.858 -0.8159 -0.3244 -3.2627
  849MPD2    H312477   1.101   3.627  15.018 -0.0786  0.8802  0.0575
  849MPD2     N12478   1.298   3.931  14.733  0.7504  0.4305 -0.8313
  849MPD2    H512479   1.269   3.984  14.652 -0.6021  0.9954  0.0207
  849MPD2    N112480   0.933   3.654  14.592 -0.2914  0.8426 -0.5488
  849MPD2    H712481   0.852   3.598  14.617  0.3404 -1.1838 -3.0105
  850MPD2     C12482   3.115   1.432  14.909  0.5525  0.2224 -0.4617
  850MPD2    C112483   3.114   1.563  14.957 -0.2961  0.3693  0.2355
  850MPD2    C212484   3.230   1.638  14.945  0.3697  0.3979 -0.0859
  850MPD2    C312485   3.351   1.577  14.914 -0.4538  0.0087  0.2694
  850MPD2    C412486   3.349   1.447  14.874 -0.3995 -0.7179 -0.5146
  850MPD2    C512487   3.230   1.370  14.878 -0.3308  0.6546 -0.1609
  850MPD2     H12488   3.222   1.745  14.960 -0.2476  0.4918 -1.0982
  850MPD2    H112489   3.440   1.401  14.837 -0.1131 -1.6193  1.3302
  850MPD2    H212490   3.021   1.380  14.906 -0.3118  1.7780 -0.5433
  850MPD2    H312491   3.238   1.267  14.843  1.6387  0.6227  0.3759
  850MPD2     N12492   3.470   1.652  14.908  0.1845  0.4553 -0.8348
  850MPD2    H512493   3.556   1.613  14.869 -1.1404 -2.2079 -1.1181
  850MPD2    N112494   2.987   1.600  15.010  0.6585 -0.3806  0.0979
  850MPD2    H712495   2.911   1.542  14.975 -1.2096  0.0454  3.4957
  851MPD2     C12496   3.700   1.719  15.372  0.5215 -0.2797  0.1843
  851MPD2    C112497   3.594   1.647  15.327 -0.1765  0.2338 -0.0144
  851MPD2    C212498   3.615   1.526  15.268  0.2699 -0.1538 -0.0762
  851MPD2    C312499   3.741   1.480  15.231 -0.0668 -0.3084 -0.0163
  851MPD2    C412500   3.848   1.563  15.253 -0.2704 -0.1174  0.6914
  851MPD2    C512501   3.824   1.676  15.325  0.8423  0.7348  0.1770
  851MPD2     H12502   3.536   1.459  15.235  1.0896 -1.7353  1.1515
  851MPD2    H112503   3.949   1.531  15.231  0.9614  3.2070  1.4485
  851MPD2    H212504   3.696   1.796  15.449  0.2448  0.6133 -0.7295
  851MPD2    H312505   3.911   1.727  15.365  0.1166  1.4826  0.8340
  851MPD2     N12506   3.746   1.363  15.152 -0.1583  0.2397  0.5063
  851MPD2    H512507   3.661   1.307  15.147 -1.3595  2.0006  1.2245
  851MPD2    N112508   3.464   1.693  15.369  0.3593 -0.2528  0.1699
  851MPD2    H712509   3.456   1.790  15.398  2.1957  0.0027 -0.1447
  852MPD2     C12510   3.909   3.531   9.890  0.3509  0.0453  0.2498
  852MPD2    C112511   3.962   3.583  10.002  0.7539 -0.5945 -0.1810
  852MPD2    C212512   4.086   3.644   9.994 -0.4404 -0.9094 -0.0333
  852MPD2    C312513   4.159   3.657   9.876 -0.0633  0.3598 -0.7008
  852MPD2    C412514   4.096   3.615   9.759 -0.5712  0.2364 -0.1432
  852MPD2    C512515   3.971   3.552   9.767 -0.5150 -0.4401 -0.1534
  852MPD2     H12516   4.140   3.672  10.084  0.8689  0.6647 -1.3247
  852MPD2    H112517   4.137   3.615   9.659 -0.4262 -2.5464 -0.0700
  852MPD2    H212518   3.811   3.484   9.886  0.6910 -0.7544  1.4349
  852MPD2    H312519   3.917   3.519   9.679 -0.7713 -0.5165  0.0330
  852MPD2     N12520   4.285   3.722   9.871  0.2551 -0.3646  0.0201
  852MPD2    H512521   4.329   3.756   9.956  0.1040 -0.7773  0.2644
  852MPD2    N112522   3.896   3.584  10.127  0.1690  0.6727 -0.6630
  852MPD2    H712523   3.938   3.639  10.201  1.4986 -2.1226  0.6445
  853MPD2     C12524   1.068   3.210  12.564  0.2370 -0.8651 -0.3191
  853MPD2    C112525   0.994   3.298  12.490  1.0491 -0.2638 -0.0834
  853MPD2    C212526   0.984   3.280  12.350  0.7253  0.0113 -0.1991
  853MPD2    C312527   1.054   3.171  12.290  0.0095  0.3429  0.1675
  853MPD2    C412528   1.122   3.079  12.373 -0.1451  0.1321  0.3044
  853MPD2    C512529   1.136   3.112  12.502 -0.2114 -1.0212 -0.2398
  853MPD2     H12530   0.932   3.352  12.288  1.2403  1.9786  1.6509
  853MPD2    H112531   1.171   2.988  12.342 -0.2647  0.7936 -1.7992
  853MPD2    H212532   1.083   3.230  12.670  1.7665  0.4314 -0.7734
  853MPD2    H312533   1.208   3.053  12.557  0.9622  0.3206 -0.3708
  853MPD2     N12534   1.056   3.154  12.154  0.0613  0.4815  0.5478
  853MPD2    H512535   1.131   3.090  12.127 -0.7721 -0.2892  0.0789
  853MPD2    N112536   0.947   3.404  12.565  0.5621  0.9123 -0.2352
  853MPD2    H712537   0.977   3.399  12.662  0.8744  2.3943 -0.2455
  854MPD2     C12538   2.201   4.260  12.707  0.3207  0.0073  0.5299
  854MPD2    C112539   2.283   4.181  12.625 -0.4042 -0.2492  0.9146
  854MPD2    C212540   2.340   4.068  12.678  0.2993 -0.5223  0.5625
  854MPD2    C312541   2.319   4.035  12.810 -0.4374 -0.2645 -0.5482
  854MPD2    C412542   2.248   4.121  12.894 -0.2019 -0.2231 -0.1623
  854MPD2    C512543   2.191   4.236  12.839 -0.3818 -0.2707  0.4284
  854MPD2     H12544   2.404   4.008  12.615  0.5582  1.1808 -0.8014
  854MPD2    H112545   2.226   4.099  12.998 -0.8870  0.1819 -0.2173
  854MPD2    H212546   2.159   4.347  12.657 -0.8166 -0.7629  0.1410
  854MPD2    H312547   2.139   4.302  12.908 -1.0560 -0.2323 -0.1211
  854MPD2     N12548   2.384   3.931  12.886  0.4305  0.0616  0.5802
  854MPD2    H512549   2.359   3.926  12.984 -0.1298 -2.8988  0.2945
  854MPD2    N112550   2.313   4.224  12.498 -0.5795  0.4426  0.5660
  854MPD2    H712551   2.290   4.321  12.479 -0.2063  0.4501  0.1503
  855MPD2     C12552   2.487   3.835  13.733 -0.1134 -1.1707  0.0791
  855MPD2    C112553   2.542   3.714  13.689  0.0817 -0.9914  0.3310
  855MPD2    C212554   2.517   3.674  13.558  0.2825 -0.6871 -0.0343
  855MPD2    C312555   2.459   3.756  13.467 -0.2600  0.2654 -0.4212
  855MPD2    C412556   2.424   3.881  13.511  0.3427 -0.0749  0.2070
  855MPD2    C512557   2.432   3.914  13.641  0.3975  0.5602 -0.4048
  855MPD2     H12558   2.546   3.574  13.529  1.4500 -0.0642 -1.0196
  855MPD2    H112559   2.383   3.956  13.445 -0.6620  0.0162  0.9462
  855MPD2    H212560   2.484   3.870  13.836 -1.5884 -0.4301 -0.2173
  855MPD2    H312561   2.385   4.007  13.670 -1.1297 -0.5440  0.6649
  855MPD2     N12562   2.446   3.730  13.323  0.0062 -0.3411 -0.1368
  855MPD2    H512563   2.402   3.805  13.271 -2.2701 -1.4242  0.2094
  855MPD2    N112564   2.619   3.629  13.770 -0.1458  0.2816 -0.2172
  855MPD2    H712565   2.665   3.549  13.728 -1.1417  0.8294 -2.3230
  856MPD2     C12566   4.662   0.210  13.967 -0.3303 -0.5386  0.3623
  856MPD2    C112567   0.010   0.326  13.936 -0.4099  0.0927  0.0436
  856MPD2    C212568   4.676   0.418  13.849  0.2409  0.4745  0.0777
  856MPD2    C312569   4.543   0.397  13.809  0.0273 -0.3914 -0.0810
  856MPD2    C412570   4.483   0.278  13.837 -0.0546  0.6625  0.3523
  856MPD2    C512571   4.542   0.180  13.911 -0.0220 -0.3605 -0.0610
  856MPD2     H12572   0.021   0.502  13.831  1.3285 -0.6663 -1.1724
  856MPD2    H112573   4.381   0.253  13.809  0.5309  0.5318 -1.6670
  856MPD2    H212574   4.717   0.142  14.031  1.5951 -0.7985 -1.5833
  856MPD2    H312575   4.477   0.094  13.927 -1.4986  0.1800 -3.3111
  856MPD2     N12576   4.470   0.492  13.724  0.0177 -0.0165 -0.1662
  856MPD2    H512577   4.380   0.455  13.697  0.9860 -1.5287 -1.3471
  856MPD2    N112578   0.131   0.368  13.993 -0.3295 -0.0102 -0.2410
  856MPD2    H712579   0.176   0.449  13.952  0.2141 -0.5225 -0.6541
  857MPD2     C12580   1.421   2.005  13.119 -0.5056  0.5252 -0.1120
  857MPD2    C112581   1.535   1.938  13.155  1.2173 -0.0583 -0.2284
  857MPD2    C212582   1.642   2.010  13.223 -0.0041 -0.0339  0.1480
  857MPD2    C312583   1.623   2.140  13.254  0.4229  0.3190  0.0298
  857MPD2    C412584   1.510   2.207  13.201  0.3372 -0.1892  0.0612
  857MPD2    C512585   1.414   2.139  13.132  0.7109  1.0952 -0.6002
  857MPD2     H12586   1.732   1.958  13.254 -1.2551 -1.9345  0.5895
  857MPD2    H112587   1.489   2.311  13.219 -1.6918 -0.4306 -0.9500
  857MPD2    H212588   1.339   1.953  13.069  0.2705 -0.5139 -0.3048
  857MPD2    H312589   1.318   2.184  13.111 -0.5812 -1.7521 -0.7764
  857MPD2     N12590   1.720   2.206  13.329 -0.1005 -0.0849  0.1439
  857MPD2    H512591   1.803   2.156  13.359 -0.5218  0.8615  2.8645
  857MPD2    N112592   1.541   1.803  13.125 -1.3010  0.1588 -0.1379
  857MPD2    H712593   1.479   1.761  13.057 -1.5041 -1.6464  1.1555
  858MPD2     C12594   2.271   1.074  16.615 -0.0334  0.7759 -0.1225
  858MPD2    C112595   2.339   1.025  16.724 -0.3530  0.0966  0.4180
  858MPD2    C212596   2.380   1.116  16.822 -0.2968 -0.2658  0.0245
  858MPD2    C312597   2.338   1.253  16.816 -0.3468  0.3453  0.5470
  858MPD2    C412598   2.278   1.300  16.702 -0.0778  0.4322  1.5468
  858MPD2    C512599   2.250   1.212  16.604  0.5159  0.6420 -0.3189
  858MPD2     H12600   2.430   1.082  16.911  1.7004 -0.7458 -1.2661
  858MPD2    H112601   2.242   1.401  16.685 -1.1060 -0.1883  0.0948
  858MPD2    H212602   2.230   1.010  16.538 -0.5602  1.7118 -0.6282
  858MPD2    H312603   2.204   1.256  16.516  1.4073 -0.1333 -1.1746
  858MPD2     N12604   2.348   1.348  16.916 -0.2450  0.5843  0.3763
  858MPD2    H512605   2.300   1.435  16.897 -2.0402 -0.5933 -0.4955
  858MPD2    N112606   2.366   0.886  16.729  0.3960  0.1608  0.8267
  858MPD2    H712607   2.342   0.833  16.646 -0.2430  0.6459  0.7075
  859MPD2     C12608   0.819   3.875  15.407 -0.1614 -0.6265 -0.5041
  859MPD2    C112609   0.945   3.826  15.403 -0.4054 -0.0348  0.3223
  859MPD2    C212610   0.968   3.701  15.454  0.3182 -0.1747 -0.5812
  859MPD2    C312611   0.859   3.624  15.503  0.3519  0.1506 -0.1109
  859MPD2    C412612   0.740   3.680  15.518  0.2528 -0.6253  1.1024
  859MPD2    C512613   0.725   3.803  15.466 -0.1736  0.6289  0.0992
  859MPD2     H12614   1.071   3.667  15.460  0.1838 -0.3350  0.9228
  859MPD2    H112615   0.658   3.630  15.567 -1.3903  1.8932  0.9194
  859MPD2    H212616   0.800   3.974  15.366 -0.6760 -1.1646 -1.5504
  859MPD2    H312617   0.627   3.849  15.476 -0.5569 -0.6012  2.0691
  859MPD2     N12618   0.869   3.493  15.553  0.6470 -0.2044 -0.1326
  859MPD2    H512619   0.785   3.451  15.592  1.2913 -1.3237  0.0289
  859MPD2    N112620   1.054   3.892  15.351 -0.6070 -0.4811 -0.1005
  859MPD2    H712621   1.144   3.848  15.369 -1.2032 -2.0914 -1.0041
  860MPD2     C12622   3.387   2.919  11.726  0.1732 -0.2884 -0.2181
  860MPD2    C112623   3.467   3.018  11.784 -0.4248 -0.0386  0.0063
  860MPD2    C212624   3.453   3.047  11.917  0.2354  0.2792 -0.0272
  860MPD2    C312625   3.361   2.969  11.990 -0.4374 -0.7933 -0.8507
  860MPD2    C412626   3.282   2.879  11.937  0.2014 -0.1574  0.0987
  860MPD2    C512627   3.293   2.855  11.800  0.2514  0.0728  0.2745
  860MPD2     H12628   3.513   3.117  11.974  1.2174 -1.3483  0.9219
  860MPD2    H112629   3.205   2.825  11.991  0.4538  0.7012  1.3138
  860MPD2    H212630   3.405   2.888  11.623 -0.2039  1.1050 -0.6947
  860MPD2    H312631   3.220   2.785  11.761 -1.5374  2.4043 -0.6022
  860MPD2     N12632   3.369   2.988  12.130  0.4003  0.4036  0.9280
  860MPD2    H512633   3.434   3.051  12.174 -1.2084  2.0805  0.9110
  860MPD2    N112634   3.571   3.093  11.714  0.5348  0.1960  0.4427
  860MPD2    H712635   3.629   3.154  11.770 -0.8183 -0.6673  2.7557
  861MPD2     C12636   2.581   0.954  10.856 -0.0945  0.2695 -0.2348
  861MPD2    C112637   2.528   1.056  10.934 -0.8561  0.0943  0.0962
  861MPD2    C212638   2.426   1.121  10.876  0.0924  0.4629 -0.3058
  861MPD2    C312639   2.377   1.090  10.743  0.0194 -0.1418 -0.4735
  861MPD2    C412640   2.430   0.983  10.678  0.4392  0.3140  0.2716
  861MPD2    C512641   2.530   0.911  10.738  0.0970 -0.2227 -0.4551
  861MPD2     H12642   2.391   1.214  10.919 -2.4541 -0.0495 -1.2479
  861MPD2    H112643   2.403   0.955  10.577 -3.2527  1.7440  0.8560
  861MPD2    H212644   2.672   0.902  10.886 -0.7542 -0.1114  1.1411
  861MPD2    H312645   2.570   0.834  10.673  0.1603 -1.5096  1.1327
  861MPD2     N12646   2.285   1.167  10.674  0.3266  0.1202  0.2553
  861MPD2    H512647   2.269   1.145  10.576  2.2100 -0.9629  0.1891
  861MPD2    N112648   2.574   1.086  11.066  0.5569  0.2481 -0.0780
  861MPD2    H712649   2.518   1.140  11.132  0.8789 -1.4789  1.5911
  862MPD2     C12650   2.011   1.333  10.016  0.2403 -0.3729 -0.3527
  862MPD2    C112651   2.062   1.251  10.111  0.1739  0.1979 -0.3876
  862MPD2    C212652   2.067   1.118  10.089  0.9578 -0.1684 -0.0390
  862MPD2    C312653   1.997   1.064   9.984  0.7754  0.1405  0.3750
  862MPD2    C412654   1.945   1.143   9.880 -0.1354 -0.1940 -0.5383
  862MPD2    C512655   1.953   1.281   9.903 -0.0774  0.5794 -0.1217
  862MPD2     H12656   2.104   1.054  10.168 -0.9397 -1.3561 -0.1086
  862MPD2    H112657   1.898   1.105   9.790 -1.9044  0.1565  0.2385
  862MPD2    H212658   1.980   1.434  10.040  2.0851 -0.0482  0.6710
  862MPD2    H312659   1.903   1.347   9.832  0.9741 -1.7521 -2.9922
  862MPD2     N12660   1.984   0.923   9.964  0.2425  0.5514  0.5496
  862MPD2    H512661   1.899   0.897   9.914  0.3714 -0.1788  0.7175
  862MPD2    N112662   2.115   1.304  10.235  0.0662  0.2292 -0.6729
  862MPD2    H712663   2.127   1.233  10.307  0.9797  0.7572 -0.3064
  863MPD2     C12664   0.011   0.845  17.213  0.5100  0.0182 -0.1587
  863MPD2    C112665   0.093   0.787  17.122 -0.2431  0.0538  0.2114
  863MPD2    C212666   0.197   0.714  17.164 -0.2876 -0.4699  0.3811
  863MPD2    C312667   0.213   0.699  17.305 -0.1400 -0.0058  0.0462
  863MPD2    C412668   0.124   0.752  17.402 -0.0278 -0.3125  0.2893
  863MPD2    C512669   0.018   0.825  17.351 -0.1773 -0.4119  0.4513
  863MPD2     H12670   0.265   0.676  17.089 -0.3202  1.3600 -0.5512
  863MPD2    H112671   0.139   0.730  17.507  0.0475 -1.1853  0.0983
  863MPD2    H212672   4.650   0.908  17.182  1.1891  1.2553  0.5035
  863MPD2    H312673   4.680   0.886  17.417 -1.2994 -2.2180  1.1140
  863MPD2     N12674   0.319   0.624  17.357  0.1191 -0.5752  0.3630
  863MPD2    H512675   0.304   0.603  17.455  0.9894 -1.0550  0.3996
  863MPD2    N112676   0.054   0.797  16.985  0.2105 -0.0603  0.0179
  863MPD2    H712677   4.690   0.847  16.961 -0.6347 -0.0890  3.0360
  864MPD2     C12678   1.482   0.822  17.076  0.8623 -0.0001 -1.0139
  864MPD2    C112679   1.387   0.920  17.061  0.2053  0.8700 -0.5540
  864MPD2    C212680   1.426   1.053  17.059  0.0340  0.6114 -0.0074
  864MPD2    C312681   1.561   1.095  17.073 -0.9763 -0.3057  1.0171
  864MPD2    C412682   1.655   0.990  17.094  0.2922  0.2835 -0.5143
  864MPD2    C512683   1.610   0.857  17.085  0.9783  0.8994  0.2262
  864MPD2     H12684   1.349   1.128  17.047 -2.6491 -2.0614  0.3768
  864MPD2    H112685   1.759   1.009  17.119 -0.1692 -0.5766  2.1205
  864MPD2    H212686   1.456   0.716  17.073  0.0244  0.1138  2.0909
  864MPD2    H312687   1.685   0.780  17.095 -1.5886 -1.2866  2.9435
  864MPD2     N12688   1.605   1.236  17.050 -0.1962 -0.4698 -0.4940
  864MPD2    H512689   1.704   1.255  17.042  0.2175 -0.8991  3.8236
  864MPD2    N112690   1.250   0.892  17.051  0.2577 -0.2878  0.5062
  864MPD2    H712691   1.232   0.797  17.019  0.5352 -0.2847  0.3435
  865MPD2     C12692   1.059   1.841  16.453 -0.4364 -0.2727  0.2770
  865MPD2    C112693   1.156   1.752  16.402 -0.0967  0.1761 -0.0519
  865MPD2    C212694   1.264   1.711  16.472  0.4530  0.1281  0.7434
  865MPD2    C312695   1.282   1.754  16.601 -0.0992  0.5005  0.1129
  865MPD2    C412696   1.187   1.846  16.652  0.5784 -0.0220  0.4473
  865MPD2    C512697   1.080   1.882  16.584  0.0246 -0.9128  0.4562
  865MPD2     H12698   1.338   1.644  16.430  0.0843  0.1395  0.0876
  865MPD2    H112699   1.190   1.886  16.753 -0.9963  0.8126  0.1652
  865MPD2    H212700   0.968   1.865  16.400  0.2522  1.6471 -0.0093
  865MPD2    H312701   1.012   1.951  16.632  1.0485 -0.3151  1.0328
  865MPD2     N12702   1.391   1.704  16.675 -0.2841 -0.0138 -0.7212
  865MPD2    H512703   1.459   1.645  16.629  0.1512 -0.4715  0.4910
  865MPD2    N112704   1.147   1.696  16.273  0.1122 -0.7120 -0.2675
  865MPD2    H712705   1.216   1.623  16.258 -0.4855 -0.8951 -2.0457
  866MPD2     C12706   3.276   1.293  11.308 -0.3707  0.0041  0.2118
  866MPD2    C112707   3.258   1.307  11.174  0.8288 -0.6502  0.3042
  866MPD2    C212708   3.129   1.351  11.124  0.1914  0.4770  0.5249
  866MPD2    C312709   3.025   1.356  11.209 -0.7339  0.3968 -0.1159
  866MPD2    C412710   3.048   1.333  11.345  0.4157 -0.1665  0.4480
  866MPD2    C512711   3.168   1.306  11.393 -0.3016 -0.4794 -0.8185
  866MPD2     H12712   3.116   1.371  11.019  1.0490 -1.7849  0.0063
  866MPD2    H112713   2.966   1.343  11.415 -1.4253  0.1553 -1.7594
  866MPD2    H212714   3.369   1.265  11.356 -0.1328 -3.4581 -2.2975
  866MPD2    H312715   3.180   1.308  11.500  0.9926  2.3635 -1.0338
  866MPD2     N12716   2.891   1.375  11.166  0.1931 -0.3921 -0.5849
  866MPD2    H512717   2.829   1.400  11.242 -0.4958  1.3004 -1.6916
  866MPD2    N112718   3.371   1.288  11.090 -0.5583 -0.0377 -0.4228
  866MPD2    H712719   3.452   1.247  11.135 -0.0904  3.0597  1.4717
  867MPD2     C12720   4.688   1.623  16.537 -0.4989  0.6349 -0.5235
  867MPD2    C112721   0.043   1.582  16.637  0.1976 -0.0959 -0.6065
  867MPD2    C212722   0.120   1.674  16.707  0.2134 -0.5196 -0.2663
  867MPD2    C312723   0.128   1.805  16.672  0.1435 -0.1203 -0.6922
  867MPD2    C412724   0.054   1.844  16.560  0.2468 -0.2478 -0.4289
  867MPD2    C512725   4.693   1.757  16.499 -0.1525 -0.1961 -0.4371
  867MPD2     H12726   0.177   1.638  16.791  0.4023  0.0410 -0.1563
  867MPD2    H112727   0.053   1.946  16.523 -2.2522 -0.1369 -0.0607
  867MPD2    H212728   4.627   1.552  16.483 -0.4358  0.3793 -0.2552
  867MPD2    H312729   4.630   1.794  16.419  0.4620  0.6972 -0.5145
  867MPD2     N12730   0.208   1.902  16.745  0.4439 -0.0261  0.9957
  867MPD2    H512731   0.214   1.998  16.712 -0.1213  0.6987  2.9533
  867MPD2    N112732   0.051   1.444  16.672 -0.0930 -0.1155 -0.2701
  867MPD2    H712733   0.012   1.386  16.599 -1.6117 -0.1555  0.5806
  868MPD2     C12734   2.089   0.744  12.874  0.2127 -0.0369  0.2396
  868MPD2    C112735   2.157   0.720  12.993  0.4792  0.2259 -0.0499
  868MPD2    C212736   2.085   0.740  13.111  0.6765 -0.3060 -0.7373
  868MPD2    C312737   1.948   0.751  13.107  0.4002  0.0709  0.4215
  868MPD2    C412738   1.886   0.783  12.988 -0.2056  0.0219 -0.2253
  868MPD2    C512739   1.956   0.776  12.874  0.5815 -0.1365 -0.0956
  868MPD2     H12740   2.129   0.737  13.210  1.5036  0.3525 -1.0903
  868MPD2    H112741   1.782   0.811  12.985  0.3639  2.0246 -0.8424
  868MPD2    H212742   2.141   0.733  12.780  1.0132  1.0113  0.5577
  868MPD2    H312743   1.916   0.804  12.777 -0.5262  1.3522  0.7836
  868MPD2     N12744   1.876   0.755  13.230  0.0952  0.4531  0.0834
  868MPD2    H512745   1.935   0.749  13.313  0.9774 -1.1242 -0.6560
  868MPD2    N112746   2.290   0.672  12.998 -0.1365 -0.6357  0.6910
  868MPD2    H712747   2.344   0.662  12.913 -0.3801 -1.8597  0.6844
  869MPD2     C12748   1.754   3.430   1.250 -0.3140  0.4241  0.2716
  869MPD2    C112749   1.665   3.504   1.321 -0.5414  0.5122  0.1476
  869MPD2    C212750   1.694   3.637   1.325  0.6342 -0.5811  0.3081
  869MPD2    C312751   1.806   3.697   1.268 -0.9005 -0.1549  0.7143
  869MPD2    C412752   1.891   3.615   1.193 -0.6768  0.2298 -0.7497
  869MPD2    C512753   1.869   3.479   1.188 -0.4579 -0.2599 -0.4508
  869MPD2     H12754   1.614   3.693   1.372  0.2947 -1.4757  0.7897
  869MPD2    H112755   1.975   3.652   1.135 -0.3630 -1.3161 -1.2679
  869MPD2    H212756   1.739   3.323   1.241  0.0644  0.2459  1.7738
  869MPD2    H312757   1.934   3.416   1.128  0.2507 -1.2056  1.3333
  869MPD2     N12758   1.846   3.828   1.272  0.5798 -0.0645 -0.3720
  869MPD2    H512759   1.939   3.861   1.248  0.5340  0.6281  0.3946
  869MPD2    N112760   1.549   3.439   1.374 -0.4608 -0.2976  0.1498
  869MPD2    H712761   1.543   3.340   1.354 -1.0697 -1.0237  3.9204
  870MPD2     C12762   2.241   1.361   1.302 -0.0499 -0.1328  0.9908
  870MPD2    C112763   2.145   1.413   1.378 -0.4947 -0.2305  0.4624
  870MPD2    C212764   2.046   1.496   1.327 -1.1035 -0.1455  0.0440
  870MPD2    C312765   2.069   1.553   1.200 -0.3918 -0.2258 -0.0419
  870MPD2    C412766   2.176   1.515   1.131 -0.5217  0.1035 -0.3695
  870MPD2    C512767   2.250   1.407   1.173  0.3239 -0.0492 -0.2337
  870MPD2     H12768   1.975   1.538   1.398 -0.3499 -0.3358  0.9212
  870MPD2    H112769   2.193   1.567   1.038  1.7221 -0.6246 -0.3534
  870MPD2    H212770   2.318   1.296   1.341 -0.2011 -0.0216  1.4663
  870MPD2    H312771   2.323   1.374   1.100  0.7362 -3.8245  1.8727
  870MPD2     N12772   1.992   1.660   1.148 -0.9588 -1.0440  0.1662
  870MPD2    H512773   2.020   1.683   1.054 -2.0866 -1.6900 -0.3238
  870MPD2    N112774   2.149   1.379   1.514  0.1125 -0.5717 -0.2072
  870MPD2    H712775   2.240   1.348   1.547  0.4136 -1.1108 -1.5583
  871MPD2     C12776   3.878   1.628  16.304  0.0299 -0.4304 -0.6523
  871MPD2    C112777   3.805   1.565  16.399  0.4223  0.1907 -0.4007
  871MPD2    C212778   3.822   1.429  16.413 -0.7542  0.3568  1.0695
  871MPD2    C312779   3.907   1.363  16.333 -0.0840  0.0189 -0.5542
  871MPD2    C412780   3.985   1.434  16.246  0.2776  0.3319  0.2395
  871MPD2    C512781   3.965   1.560  16.227 -0.5554 -0.6491  0.0423
  871MPD2     H12782   3.767   1.371  16.486 -1.1531 -2.6891 -1.6787
  871MPD2    H112783   4.060   1.383  16.186  0.1820 -1.1383  1.3621
  871MPD2    H212784   3.866   1.734  16.287 -0.7224 -0.7541 -2.1103
  871MPD2    H312785   4.020   1.608  16.146 -0.7366 -0.7844 -0.1617
  871MPD2     N12786   3.902   1.221  16.350  0.4633  0.0208  0.3429
  871MPD2    H512787   3.838   1.181  16.418 -1.5559  0.9581 -1.0125
  871MPD2    N112788   3.722   1.651  16.477  0.8671 -0.0432  0.4051
  871MPD2    H712789   3.738   1.752  16.476  0.0001  0.0801 -0.6917
  872MPD2     C12790   4.313   4.378  13.780  0.0068 -0.5546  0.2963
  872MPD2    C112791   4.444   4.386  13.824  0.2424  0.2358  0.2026
  872MPD2    C212792   4.487   4.293  13.923 -0.1062  0.0354 -0.1007
  872MPD2    C312793   4.399   4.188  13.961 -0.0341 -0.2354 -0.2463
  872MPD2    C412794   4.270   4.182  13.905 -0.5468 -0.1881 -0.4668
  872MPD2    C512795   4.233   4.278  13.818 -0.1315  0.1221 -0.0726
  872MPD2     H12796   4.586   4.293  13.966 -0.2898 -0.5262  0.3211
  872MPD2    H112797   4.201   4.105  13.935 -3.5784  1.7402 -2.4556
  872MPD2    H212798   4.276   4.460  13.719 -0.8349 -0.0381  1.5168
  872MPD2    H312799   4.132   4.269  13.779 -0.5398 -1.1054  1.2712
  872MPD2     N12800   4.432   4.094  14.055 -0.6468 -0.4295 -0.3107
  872MPD2    H512801   4.385   4.004  14.056  0.7463 -1.1779 -0.6292
  872MPD2    N112802   4.540   4.476  13.779  0.0757 -0.0025 -0.1553
  872MPD2    H712803   4.632   4.469  13.822  0.2035  0.9822 -0.2696
  873MPD2     C12804   0.555   0.247   1.120  0.2200 -0.2557 -0.1678
  873MPD2    C112805   0.617   0.204   1.240  0.0152 -0.1249  0.4225
  873MPD2    C212806   0.714   0.105   1.224 -0.9053 -0.5110 -0.4823
  873MPD2    C312807   0.731   0.043   1.096 -0.4248 -0.4473  0.2528
  873MPD2    C412808   0.647   0.068   0.993  0.0839 -0.1257  0.2465
  873MPD2    C512809   0.570   0.178   0.999 -0.5267 -0.4033 -0.3783
  873MPD2     H12810   0.769   0.069   1.309  1.0545  0.8311 -1.1931
  873MPD2    H112811   0.655   0.013   0.900  0.1743  0.6136 -0.1861
  873MPD2    H212812   0.489   0.333   1.121  1.3816  0.6118  1.3579
  873MPD2    H312813   0.514   0.205   0.910  3.0131  1.1713 -2.1692
  873MPD2     N12814   0.816   4.657   1.082 -0.2912  0.1530 -0.2158
  873MPD2    H512815   0.804   4.596   1.002  0.9539 -0.0131 -0.2715
  873MPD2    N112816   0.592   0.271   1.362  0.0740 -0.1517  0.4654
  873MPD2    H712817   0.523   0.346   1.354 -2.7346 -2.9593 -1.7881
  874MPD2     C12818   0.819   4.277  16.166 -0.2155 -0.3546 -0.4163
  874MPD2    C112819   0.845   4.282  16.300 -0.5125 -0.1521 -0.6566
  874MPD2    C212820   0.937   4.368  16.360 -0.2849  0.0758 -0.4415
  874MPD2    C312821   1.008   4.449  16.276 -1.1613  0.5888  0.8114
  874MPD2    C412822   0.982   4.450  16.138 -0.8590  0.8099  0.3566
  874MPD2    C512823   0.878   4.367  16.082  0.0106 -0.7180  0.0615
  874MPD2     H12824   0.968   4.362  16.463  0.6317 -1.1004 -0.7811
  874MPD2    H112825   1.038   4.510  16.067 -0.9041  0.3637 -0.0597
  874MPD2    H212826   0.735   4.217  16.131  0.2467 -1.2325 -0.0344
  874MPD2    H312827   0.852   4.370  15.977  0.0848 -0.3380  0.0550
  874MPD2     N12828   1.103   4.526  16.342  0.2048  0.0329  0.1573
  874MPD2    H512829   1.090   4.541  16.442  0.1334 -1.1524  0.3150
  874MPD2    N112830   0.769   4.195  16.382 -0.2198  0.1404 -0.4170
  874MPD2    H712831   0.694   4.146  16.333  1.7950 -3.8369  0.4296
  875MPD2     C12832   2.484   2.876  14.404 -0.4568  0.1669  0.4875
  875MPD2    C112833   2.349   2.880  14.438  0.3906 -0.2707  0.2838
  875MPD2    C212834   2.318   2.934  14.559  0.9738 -0.1347  0.3142
  875MPD2    C312835   2.407   2.980  14.648 -0.1294  0.3126  0.7754
  875MPD2    C412836   2.540   2.973  14.608  0.9332 -0.4149 -0.3861
  875MPD2    C512837   2.580   2.907  14.497  0.2022  0.0236 -0.0780
  875MPD2     H12838   2.217   2.970  14.577  1.0556  0.6773 -0.8831
  875MPD2    H112839   2.621   2.999  14.675 -2.7580  1.8435  3.2304
  875MPD2    H212840   2.519   2.820  14.318 -1.8138 -1.6617  1.1457
  875MPD2    H312841   2.679   2.912  14.454  0.1583 -2.4046 -0.4665
  875MPD2     N12842   2.374   3.023  14.775  0.0012 -0.4520  0.2920
  875MPD2    H512843   2.446   3.069  14.829  1.1948 -0.7386 -1.0806
  875MPD2    N112844   2.245   2.828  14.364  0.5408  0.1187  0.4601
  875MPD2    H712845   2.149   2.842  14.394  0.9810  0.1196  1.8542
  876MPD2     C12846   0.791   3.911  15.872  0.1522  0.1449 -0.2607
  876MPD2    C112847   0.928   3.908  15.884 -0.0830  0.3210  0.2541
  876MPD2    C212848   0.993   3.786  15.915  0.1928  0.7550  0.2498
  876MPD2    C312849   0.917   3.672  15.926  0.3265  0.2945  0.1439
  876MPD2    C412850   0.784   3.677  15.909 -0.1215  0.1453  0.2426
  876MPD2    C512851   0.717   3.796  15.888  0.1250  0.0086  0.2513
  876MPD2     H12852   1.101   3.784  15.924 -0.0103 -0.6838  2.1625
  876MPD2    H112853   0.720   3.590  15.922  1.8868 -1.2516  0.8732
  876MPD2    H212854   0.745   4.004  15.841 -0.8936 -0.7892 -1.5314
  876MPD2    H312855   0.609   3.804  15.883  0.2379  1.1392 -0.5835
  876MPD2     N12856   0.984   3.552  15.957 -0.0320  0.4775 -0.4162
  876MPD2    H512857   1.083   3.540  15.938 -0.5617 -3.1398 -0.7810
  876MPD2    N112858   1.000   4.037  15.867  0.1192 -0.3252  0.9328
  876MPD2    H712859   0.941   4.118  15.851  2.0014  1.1338  1.4250
  877MPD2     C12860   1.048   4.579  15.433 -0.0324 -0.7595  0.0751
  877MPD2    C112861   1.161   4.608  15.509  0.1916  0.2043 -0.0410
  877MPD2    C212862   1.257   4.685  15.445  0.9519 -0.1550  0.1249
  877MPD2    C312863   1.239   0.012  15.323  0.1901  0.5272 -0.1886
  877MPD2    C412864   1.121   4.713  15.254 -0.2550  0.6391 -0.3882
  877MPD2    C512865   1.028   4.634  15.306 -0.3982 -0.2410 -0.2067
  877MPD2     H12866   1.351   4.701  15.498 -0.1256  0.4050  1.8702
  877MPD2    H112867   1.102   0.036  15.158  1.6505  0.9152 -0.6388
  877MPD2    H212868   0.980   4.507  15.478 -1.4657 -0.9162 -2.3566
  877MPD2    H312869   0.939   4.608  15.250 -0.7775 -0.7108  0.6120
  877MPD2     N12870   1.332   0.089  15.260 -0.1901 -0.2474  0.2533
  877MPD2    H512871   1.313   0.106  15.162  0.1770 -0.0935  0.2108
  877MPD2    N112872   1.190   4.557  15.637 -0.1085 -0.1278 -0.2373
  877MPD2    H712873   1.288   4.546  15.661 -0.2804 -0.8228  0.1596
  878MPD2     C12874   1.058   3.326  13.626  0.4069 -0.1546  0.1423
  878MPD2    C112875   1.077   3.461  13.619 -0.4984 -0.1173 -0.5514
  878MPD2    C212876   1.022   3.531  13.728  0.0706  0.0271 -0.4762
  878MPD2    C312877   0.953   3.477  13.835  0.1024  0.8269 -0.3705
  878MPD2    C412878   0.928   3.348  13.827 -0.4847  0.3136 -0.3561
  878MPD2    C512879   0.980   3.272  13.724  1.2539 -0.0142  0.5424
  878MPD2     H12880   1.045   3.637  13.734  1.2658 -0.1040 -2.6369
  878MPD2    H112881   0.889   3.287  13.907 -0.4518 -0.4676 -0.9382
  878MPD2    H212882   1.112   3.266  13.554 -2.6112 -2.1279 -0.4989
  878MPD2    H312883   0.968   3.164  13.726 -1.4570  0.2656 -0.0924
  878MPD2     N12884   0.909   3.560  13.941  0.1742  0.2701  0.2070
  878MPD2    H512885   0.912   3.661  13.927 -4.7448  0.0866 -1.9810
  878MPD2    N112886   1.146   3.513  13.504  0.2009  0.0750  0.2042
  878MPD2    H712887   1.176   3.446  13.434 -1.3074  0.8647 -1.1990
  879MPD2     C12888   1.859   4.689  17.476  0.8237  0.2318  0.5809
  879MPD2    C112889   1.752   4.660  17.558  0.7680 -0.4394 -0.2957
  879MPD2    C212890   1.631   0.001  17.541  0.0561 -0.8217 -0.5650
  879MPD2    C312891   1.612   0.062  17.418  0.1817  0.4596  0.2444
  879MPD2    C412892   1.708   0.070  17.323 -0.1246 -0.6405  0.5415
  879MPD2    C512893   1.830   0.017  17.353  0.4189  0.6374 -0.0674
  879MPD2     H12894   1.552   4.708  17.613 -2.1355 -0.5782 -2.9196
  879MPD2    H112895   1.698   0.118  17.226 -2.1296 -2.1133  0.0289
  879MPD2    H212896   1.961   4.663  17.501  1.1169  1.5601  0.7445
  879MPD2    H312897   1.909   0.023  17.280 -0.0833  0.8387 -0.5906
  879MPD2     N12898   1.489   0.105  17.373 -0.3799  0.5645  0.3295
  879MPD2    H512899   1.471   0.104  17.273 -1.8487 -2.2112  0.6174
  879MPD2    N112900   1.767   4.583  17.677  0.1153 -0.2120 -0.8382
  879MPD2    H712901   1.686   4.578   0.046  1.6737 -0.8620  1.2263
  880MPD2     C12902   2.487   1.428   0.455  0.2605  0.0148 -0.1868
  880MPD2    C112903   2.557   1.500   0.355  0.1494 -1.1044  0.5862
  880MPD2    C212904   2.657   1.436   0.283 -0.9349 -0.3077 -0.2827
  880MPD2    C312905   2.675   1.300   0.300  0.2126 -0.0145  0.5399
  880MPD2    C412906   2.611   1.239   0.404 -0.1056  0.4362 -0.0144
  880MPD2    C512907   2.515   1.301   0.472 -0.4736 -0.4371 -0.3712
  880MPD2     H12908   2.716   1.492   0.210 -0.5396 -0.3749 -0.0147
  880MPD2    H112909   2.631   1.134   0.423 -3.0919  0.1294  1.3592
  880MPD2    H212910   2.410   1.474   0.516  0.2775 -0.3490  0.1065
  880MPD2    H312911   2.452   1.236   0.532 -0.0316  2.3575  3.0829
  880MPD2     N12912   2.778   1.237   0.232 -0.0296 -0.5567 -0.4188
  880MPD2    H512913   2.848   1.289   0.179 -1.2474  2.0339  0.5691
  880MPD2    N112914   2.536   1.640   0.366  0.3481 -0.2656  0.0751
  880MPD2    H712915   2.473   1.672   0.439 -2.1552 -0.4966 -1.9978
  881MPD2     C12916   2.528   2.537  17.419 -0.0500 -0.2689  0.1018
  881MPD2    C112917   2.611   2.420  17.417 -0.5740  0.1031 -0.5383
  881MPD2    C212918   2.606   2.333  17.529  0.2657  0.1833 -0.1243
  881MPD2    C312919   2.541   2.371  17.647 -0.6418  0.2007  0.9547
  881MPD2    C412920   2.479   2.495  17.650  0.5226  0.4159  0.1001
  881MPD2    C512921   2.462   2.569  17.538 -0.4240 -0.2295 -0.2379
  881MPD2     H12922   2.644   2.233  17.510  0.6186  0.3260 -0.1644
  881MPD2    H112923   2.430   2.542   0.044 -0.5569 -0.4115 -0.0597
  881MPD2    H212924   2.499   2.586  17.327 -0.7642 -0.5851  0.1559
  881MPD2    H312925   2.414   2.666  17.542  0.8259  0.3187  1.8004
  881MPD2     N12926   2.529   2.281   0.064  0.7755 -0.2059  0.1263
  881MPD2    H512927   2.470   2.311   0.141  0.6279 -2.1995  0.7951
  881MPD2    N112928   2.655   2.384  17.285  1.2433  0.3611 -0.0502
  881MPD2    H712929   2.641   2.452  17.212  2.5799 -0.5108 -1.1231
  882MPD2     C12930   1.742   0.109  14.605 -0.5821  0.4969  0.3884
  882MPD2    C112931   1.621   0.132  14.674 -0.2012  0.0083 -0.4242
  882MPD2    C212932   1.494   0.069  14.643  0.4014  0.3856 -0.2027
  882MPD2    C312933   1.493   4.694  14.545 -0.4782 -0.1039 -0.6339
  882MPD2    C412934   1.614   4.665  14.492  0.0794 -0.5378  0.9942
  882MPD2    C512935   1.730   0.006  14.514  1.0745  0.5359 -0.3098
  882MPD2     H12936   1.406   0.102  14.698  0.0268 -1.8497  0.5610
  882MPD2    H112937   1.612   4.592  14.412 -0.3740 -0.0006  0.5172
  882MPD2    H212938   1.830   0.168  14.629 -0.1077  0.7387 -1.9236
  882MPD2    H312939   1.819   4.702  14.458  1.4141  1.5860 -0.2703
  882MPD2     N12940   1.389   4.610  14.503 -0.4158  0.0373  0.3022
  882MPD2    H512941   1.399   4.533  14.438  3.2340  1.9323 -1.4360
  882MPD2    N112942   1.640   0.195  14.795  0.3352 -0.2691 -0.3211
  882MPD2    H712943   1.737   0.216  14.817 -0.0562  0.7167  0.4436
  883MPD2     C12944   2.954   4.026  16.270  0.2473 -0.3726 -0.1031
  883MPD2    C112945   3.085   4.023  16.222 -0.6056 -0.0753  0.0477
  883MPD2    C212946   3.185   4.034  16.312  0.2249 -0.2737 -0.3693
  883MPD2    C312947   3.157   4.058  16.444 -0.0685 -0.6577 -0.1795
  883MPD2    C412948   3.029   4.070  16.489 -0.1175 -0.2143 -0.0553
  883MPD2    C512949   2.925   4.055  16.396 -0.6315 -0.2758  0.1240
  883MPD2     H12950   3.286   4.030  16.273 -0.5048 -1.3350 -2.1436
  883MPD2    H112951   3.006   4.090  16.593  0.3183  1.4499 -0.2848
  883MPD2    H212952   2.874   4.000  16.202 -1.3488  1.3888  1.0733
  883MPD2    H312953   2.824   4.052  16.436 -0.5159 -3.4889  0.1933
  883MPD2     N12954   3.270   4.079  16.533  0.8603 -0.3387  0.3848
  883MPD2    H512955   3.362   4.075  16.491  0.5574  2.2183 -0.5517
  883MPD2    N112956   3.110   4.020  16.084 -0.4919 -0.8424 -0.0294
  883MPD2    H712957   3.206   3.999  16.059 -0.0571 -0.1381  1.0550
  884MPD2     C12958   0.455   0.339  15.432 -1.0437  0.0457 -0.4477
  884MPD2    C112959   0.466   0.425  15.327  0.2533  0.1338 -0.6779
  884MPD2    C212960   0.352   0.429  15.244 -0.5593 -0.6463 -0.0630
  884MPD2    C312961   0.247   0.345  15.255  0.1660  0.3708 -0.5212
  884MPD2    C412962   0.239   0.253  15.360  0.5190  0.2605  0.4731
  884MPD2    C512963   0.343   0.256  15.449  0.2120 -0.5423  0.2587
  884MPD2     H12964   0.346   0.511  15.173 -0.7894 -0.7539 -0.1675
  884MPD2    H112965   0.144   0.202  15.375  0.1866  0.3256 -1.3803
  884MPD2    H212966   0.533   0.338  15.508 -0.5244 -1.9239 -1.0050
  884MPD2    H312967   0.340   0.191  15.536  0.7017  0.0827  0.7419
  884MPD2     N12968   0.131   0.367  15.171 -0.2985 -0.2717  0.3441
  884MPD2    H512969   0.130   0.433  15.093  0.6682 -1.8517 -1.0032
  884MPD2    N112970   0.569   0.524  15.305  0.7874  0.4976  0.1722
  884MPD2    H712971   0.559   0.572  15.216  3.5701  0.1218 -0.3518
  885MPD2     C12972   2.788   0.516   0.206 -0.3068  0.6206  0.6477
  885MPD2    C112973   2.859   0.404   0.160  0.1736 -0.0685 -0.4620
  885MPD2    C212974   2.909   0.406   0.026  0.7192 -0.2031  0.2652
  885MPD2    C312975   2.887   0.509  17.628  1.1016  0.1543 -0.3276
  885MPD2    C412976   2.817   0.621  17.679  0.1275  0.3035  0.6357
  885MPD2    C512977   2.775   0.623   0.116 -0.2210  0.4560  0.3935
  885MPD2     H12978   2.973   0.324  17.688 -0.9599 -0.9612 -1.2481
  885MPD2    H112979   2.781   0.695  17.609  0.5783  1.3495  1.5274
  885MPD2    H212980   2.754   0.530   0.308 -2.4759  1.3236 -0.1767
  885MPD2    H312981   2.717   0.713   0.135 -0.5428  0.5979 -1.2624
  885MPD2     N12982   2.928   0.495  17.494  0.8175  0.0913  0.5393
  885MPD2    H512983   2.963   0.404  17.466  0.0600 -0.7056  2.1474
  885MPD2    N112984   2.881   0.299   0.258  0.4883 -0.3972  0.3056
  885MPD2    H712985   2.847   0.314   0.353 -1.4466 -1.0537 -0.2718
  886MPD2     C12986   4.561   3.869  15.332  0.3459  0.3722 -0.9022
  886MPD2    C112987   4.680   3.813  15.326  0.2688  0.0171  0.4725
  886MPD2    C212988   0.050   3.852  15.224  0.1386  0.4301  0.1926
  886MPD2    C312989   0.017   3.961  15.139  1.1534  0.2981  0.9797
  886MPD2    C412990   4.622   4.020  15.163  0.4196  0.4650  0.9345
  886MPD2    C512991   4.526   3.974  15.253  0.9237 -0.2081  0.2951
  886MPD2     H12992   0.143   3.797  15.207 -0.9770 -1.0338 -1.1980
  886MPD2    H112993   4.583   4.100  15.102 -0.2956  0.0208  0.8054
  886MPD2    H212994   4.488   3.825  15.399  0.5053 -0.2585 -1.1511
  886MPD2    H312995   4.433   4.029  15.265  1.2368  0.2063  0.8180
  886MPD2     N12996   0.088   4.008  15.031  0.8203  0.1554  0.1799
  886MPD2    H512997   0.043   4.090  14.993  0.2091 -0.3515 -0.1890
  886MPD2    N112998   0.003   3.705  15.410  0.6119  0.0624 -0.1024
  886MPD2    H712999   0.098   3.672  15.396  0.3836 -0.6430  0.0029
  887MPD2     C13000   0.451   3.658  16.035  0.0874 -0.8445 -0.2165
  887MPD2    C113001   0.343   3.721  15.965  0.1792  0.0443  0.4335
  887MPD2    C213002   0.305   3.851  16.006 -0.0905 -0.4608  0.9986
  887MPD2    C313003   0.381   3.915  16.101  0.3699  0.5733  0.4502
  887MPD2    C413004   0.481   3.845  16.166  0.6711 -0.0944 -0.1669
  887MPD2    C513005   0.514   3.717  16.131  0.2516 -0.2189  0.3437
  887MPD2     H13006   0.228   3.907  15.956  0.3193  0.6268  1.5966
  887MPD2    H113007   0.535   3.887  16.250  0.0724  0.8708 -0.2526
  887MPD2    H213008   0.486   3.558  16.014  0.6278 -0.3411 -1.6677
  887MPD2    H313009   0.594   3.662  16.178  0.0073 -1.5620 -0.8230
  887MPD2     N13010   0.338   4.046  16.146  0.1759 -0.0044 -0.6476
  887MPD2    H513011   0.253   4.068  16.095 -0.5155 -0.1640  0.4397
  887MPD2    N113012   0.255   3.657  15.872 -0.2984  0.7224  0.0411
  887MPD2    H713013   0.179   3.716  15.837  0.7928  1.1245 -1.6378
  888MPD2     C13014   2.147   3.982  15.175 -0.0579 -0.6786  0.1832
  888MPD2    C113015   2.173   4.096  15.241 -0.4244  0.2100  0.2457
  888MPD2    C213016   2.282   4.175  15.201 -0.1575 -0.5071 -0.0094
  888MPD2    C313017   2.357   4.142  15.091  0.5013 -0.3850 -0.8752
  888MPD2    C413018   2.318   4.035  15.021 -0.3212  0.0309 -0.1351
  888MPD2    C513019   2.211   3.958  15.056  0.6265  0.4567  0.2892
  888MPD2     H13020   2.302   4.268  15.252 -0.3287 -0.7616  0.5238
  888MPD2    H113021   2.366   4.005  14.928  0.6848  1.3547 -0.0309
  888MPD2    H213022   2.060   3.920  15.198 -1.2638  1.8578  2.4191
  888MPD2    H313023   2.188   3.875  14.990  0.4747  0.5796  0.1902
  888MPD2     N13024   2.463   4.234  15.054  0.2391  0.5628 -0.0705
  888MPD2    H513025   2.471   4.322  15.103  1.6473  0.2444  0.2861
  888MPD2    N113026   2.107   4.146  15.362 -0.2786 -0.1143 -0.0663
  888MPD2    H713027   2.145   4.237  15.387 -0.0786 -0.4665  0.9078
  889MPD2     C13028   1.692   2.886  13.764 -0.3198 -0.6757  0.3882
  889MPD2    C113029   1.802   2.869  13.681 -0.2505 -0.1347 -0.4109
  889MPD2    C213030   1.901   2.965  13.677  0.3170 -0.2143  0.0362
  889MPD2    C313031   1.880   3.084  13.747  0.3539  0.1293 -0.1342
  889MPD2    C413032   1.759   3.111  13.812 -0.1688 -0.4227 -0.5623
  889MPD2    C513033   1.666   3.007  13.821 -0.7487  0.2989 -0.2020
  889MPD2     H13034   1.998   2.962  13.629 -1.2310 -1.1508 -3.0401
  889MPD2    H113035   1.730   3.204  13.859 -1.6171 -0.9271 -0.4567
  889MPD2    H213036   1.609   2.817  13.760 -1.4857  0.7704 -0.4189
  889MPD2    H313037   1.567   3.021  13.864  0.3920  1.2487  2.1533
  889MPD2     N13038   1.989   3.177  13.737 -0.1973  0.0023  1.1474
  889MPD2    H513039   2.066   3.144  13.680 -0.6925 -0.9991  1.0584
  889MPD2    N113040   1.829   2.736  13.649 -0.1565 -0.6149 -0.4829
  889MPD2    H713041   1.755   2.672  13.675 -0.5802  0.8013  1.8167
  890MPD2     C13042   1.060   0.370  15.119 -0.6027  0.4301 -0.0267
  890MPD2    C113043   1.170   0.432  15.170  0.2990 -0.1885 -0.2133
  890MPD2    C213044   1.204   0.409  15.307 -0.0879 -0.9874 -0.7689
  890MPD2    C313045   1.124   0.330  15.388  0.6030 -1.0391 -0.6405
  890MPD2    C413046   1.009   0.269  15.327 -0.1540 -0.2996  0.2385
  890MPD2    C513047   0.975   0.301  15.201 -0.4240 -0.3829  0.6346
  890MPD2     H13048   1.296   0.450  15.346 -1.4900 -1.0120  2.5353
  890MPD2    H113049   0.935   0.209  15.379  0.5314 -0.6402  0.8372
  890MPD2    H213050   1.042   0.385  15.013 -1.2174  0.9831  0.1579
  890MPD2    H313051   0.881   0.268  15.156 -0.4138 -0.2164  0.4896
  890MPD2     N13052   1.159   0.305  15.525  0.2719 -0.5455 -0.3113
  890MPD2    H513053   1.247   0.340  15.562  0.8967 -1.5039 -0.8733
  890MPD2    N113054   1.246   0.504  15.079 -0.5242 -0.6800 -0.2234
  890MPD2    H713055   1.216   0.531  14.985  0.7019  1.3586 -0.0428
  891MPD2     C13056   3.758   3.813  16.586 -0.1078  0.0910  0.2516
  891MPD2    C113057   3.650   3.754  16.657 -0.2322  1.0037  0.2264
  891MPD2    C213058   3.681   3.680  16.767 -0.4964  0.6688 -0.0905
  891MPD2    C313059   3.809   3.658  16.810 -0.0504  0.9954  0.1173
  891MPD2    C413060   3.911   3.726  16.743 -0.2781 -0.5086 -0.5772
  891MPD2    C513061   3.886   3.811  16.632  0.2252 -0.1677  0.7666
  891MPD2     H13062   3.600   3.639  16.826 -0.9357 -1.5984 -2.2455
  891MPD2    H113063   4.015   3.730  16.773 -0.5420  0.0945  0.2508
  891MPD2    H213064   3.724   3.883  16.511  1.4541  1.3964  0.7600
  891MPD2    H313065   3.977   3.844  16.582 -1.6379  0.6527 -2.0829
  891MPD2     N13066   3.838   3.579  16.916 -0.2552  0.5228  0.0320
  891MPD2    H513067   3.755   3.541  16.961  1.8921 -3.0129  1.0010
  891MPD2    N113068   3.514   3.777  16.612  0.2925  0.3945 -0.4331
  891MPD2    H713069   3.510   3.825  16.523  1.3688 -2.1267 -1.8545
  892MPD2     C13070   0.511   0.311  14.468  0.1763  0.5714 -0.0613
  892MPD2    C113071   0.497   0.177  14.516  0.5516  0.3872  0.0264
  892MPD2    C213072   0.603   0.085  14.510 -0.2903  0.1990  0.7286
  892MPD2    C313073   0.719   0.122  14.443 -0.7545  0.3334  0.4239
  892MPD2    C413074   0.725   0.252  14.395 -0.2368  0.1222 -0.5393
  892MPD2    C513075   0.622   0.342  14.407 -0.1053 -0.2686  0.2774
  892MPD2     H13076   0.595   4.713  14.564 -3.1728 -1.1328 -2.0351
  892MPD2    H113077   0.813   0.284  14.340 -1.1103 -1.7374 -3.0098
  892MPD2    H213078   0.436   0.388  14.481 -1.0012 -0.7097  0.6947
  892MPD2    H313079   0.642   0.442  14.369 -1.4320 -0.1009  0.0124
  892MPD2     N13080   0.822   0.035  14.421  0.2261 -0.7743  0.1614
  892MPD2    H513081   0.909   0.073  14.384 -0.4408 -0.3750 -1.0086
  892MPD2    N113082   0.368   0.131  14.561  0.3123  0.4414 -0.2106
  892MPD2    H713083   0.358   0.034  14.590  1.0176  0.3808 -0.1722
  893MPD2     C13084   1.175   2.295   1.559  0.1105 -0.6041 -0.2982
  893MPD2    C113085   1.208   2.261   1.686  0.1912 -0.4436 -0.1109
  893MPD2    C213086   1.112   2.203   1.763  0.6590 -0.0890 -0.4815
  893MPD2    C313087   0.983   2.181   1.715  0.2597  0.1073 -0.0400
  893MPD2    C413088   0.950   2.233   1.591 -0.8228  0.0941  0.4280
  893MPD2    C513089   1.045   2.288   1.516  0.5201 -0.4602  0.0546
  893MPD2     H13090   1.143   2.155   1.855  0.2138 -0.1214 -0.3487
  893MPD2    H113091   0.853   2.209   1.548 -0.6567 -0.6647  0.4711
  893MPD2    H213092   1.248   2.326   1.486  0.2982  2.1069  1.0382
  893MPD2    H313093   1.025   2.309   1.411  0.7372  1.9513  0.4859
  893MPD2     N13094   0.882   2.112   1.780  0.5683  0.2232 -0.6742
  893MPD2    H513095   0.799   2.096   1.724  0.7969  1.1256 -1.2597
  893MPD2    N113096   1.343   2.271   1.718 -0.3514  0.4542 -0.3854
  893MPD2    H713097   1.401   2.317   1.648 -0.4050  1.6950  0.3858
  894MPD2     C13098   4.024   0.894   1.102 -0.4418  0.9406  0.0298
  894MPD2    C113099   4.117   0.830   1.176  0.8923  0.3321  0.1765
  894MPD2    C213100   4.247   0.872   1.160 -0.5452  0.1900 -0.1265
  894MPD2    C313101   4.291   0.958   1.058 -0.2769 -0.0969  0.4715
  894MPD2    C413102   4.200   0.997   0.972  0.3308  0.1407  0.8604
  894MPD2    C513103   4.072   0.968   0.997  0.1111 -0.0017  0.1543
  894MPD2     H13104   4.322   0.853   1.236 -0.3586  0.3824 -0.2624
  894MPD2    H113105   4.213   1.060   0.885  2.8127 -1.9714 -0.3106
  894MPD2    H213106   3.916   0.885   1.108 -0.2882 -1.6372 -1.0205
  894MPD2    H313107   4.000   1.029   0.943 -0.6196  0.2956  1.4538
  894MPD2     N13108   4.419   1.005   1.061  0.7658  1.1431  0.0952
  894MPD2    H513109   4.474   0.976   1.141  0.2078 -2.2688 -0.7518
  894MPD2    N113110   4.086   0.743   1.280  0.2837 -0.0687 -0.6916
  894MPD2    H713111   4.166   0.707   1.331  0.1846 -0.6457 -0.9512
  895MPD2     C13112   0.216   3.288  13.465  0.9673 -0.7610  0.2457
  895MPD2    C113113   0.217   3.232  13.341  0.4181 -0.2037  0.9445
  895MPD2    C213114   0.239   3.098  13.323 -0.1823  0.6082 -0.2383
  895MPD2    C313115   0.267   3.024  13.434 -0.4245 -0.2839 -0.1175
  895MPD2    C413116   0.271   3.080  13.560  0.1691 -0.3652  0.1618
  895MPD2    C513117   0.236   3.211  13.578  0.7020  0.0881  0.0361
  895MPD2     H13118   0.204   3.053  13.231  0.9429 -1.0098  0.1225
  895MPD2    H113119   0.294   3.017  13.645  0.0163 -2.5691 -1.4002
  895MPD2    H213120   0.206   3.392  13.492 -0.1498 -0.8929  0.3353
  895MPD2    H313121   0.223   3.252  13.678  0.4418  1.9113 -0.7463
  895MPD2     N13122   0.276   2.880  13.430 -0.6747  0.6063  0.2013
  895MPD2    H513123   0.292   2.830  13.517  0.1941  0.0372 -0.2899
  895MPD2    N113124   0.198   3.299  13.214 -0.1346  0.2055  0.1602
  895MPD2    H713125   0.211   3.249  13.127 -2.1493  0.3331 -0.2121
  896MPD2     C13126   1.022   1.543   1.940 -0.0267  0.7870 -0.1582
  896MPD2    C113127   0.960   1.602   1.834 -0.1033  0.1436 -0.1137
  896MPD2    C213128   0.878   1.522   1.757 -0.8435  0.2596  0.7650
  896MPD2    C313129   0.862   1.387   1.772 -0.0510  0.4426 -0.0758
  896MPD2    C413130   0.920   1.336   1.888  0.8507  0.4672  0.1925
  896MPD2    C513131   0.997   1.409   1.970 -0.4384  0.2746  0.1839
  896MPD2     H13132   0.833   1.565   1.668 -2.0336 -1.3214  0.5871
  896MPD2    H113133   0.897   1.234   1.918  1.7600  0.6483  1.4851
  896MPD2    H213134   1.088   1.608   1.997 -1.4244  1.9396  0.1584
  896MPD2    H313135   1.040   1.377   2.065 -2.8565 -1.9901  0.4983
  896MPD2     N13136   0.791   1.318   1.672 -0.0426 -0.4370  0.0322
  896MPD2    H513137   0.762   1.370   1.590 -1.3900 -0.2237  0.6453
  896MPD2    N113138   0.992   1.732   1.794 -0.3933 -0.1477 -0.7511
  896MPD2    H713139   1.072   1.766   1.848  1.2248 -1.1371 -2.5162
  897MPD2     C13140   3.433   2.757  10.607  0.0073 -0.6989  0.3984
  897MPD2    C113141   3.353   2.747  10.494 -0.1206 -0.1852  0.3699
  897MPD2    C213142   3.261   2.649  10.491 -0.0111  0.1136 -0.0866
  897MPD2    C313143   3.256   2.552  10.588 -0.3210  0.4386 -0.0728
  897MPD2    C413144   3.333   2.556  10.699 -0.0119  0.0473  0.0014
  897MPD2    C513145   3.416   2.667  10.703 -0.5165 -0.2235 -0.6174
  897MPD2     H13146   3.198   2.635  10.403 -0.7154 -1.1610  0.6172
  897MPD2    H113147   3.329   2.491  10.786  3.5651 -0.6526 -0.3485
  897MPD2    H213148   3.508   2.834  10.617  0.2204 -1.0304  1.3816
  897MPD2    H313149   3.486   2.673  10.786 -0.3998  0.7744 -0.7968
  897MPD2     N13150   3.151   2.466  10.569 -0.2150 -0.0915 -0.0918
  897MPD2    H513151   3.089   2.487  10.492 -0.7602  1.4271  0.7601
  897MPD2    N113152   3.358   2.849  10.401 -0.0076 -0.2172 -0.0878
  897MPD2    H713153   3.431   2.919  10.401  1.2262 -1.4905  0.0026
  898MPD2     C13154   4.555   3.706  17.689 -0.1047 -0.3150 -0.5167
  898MPD2    C113155   4.630   3.821  17.684  0.1976 -1.1834  0.7917
  898MPD2    C213156   4.581   3.930  17.624  0.4561 -0.1578  0.0583
  898MPD2    C313157   4.458   3.931  17.570 -0.2796 -0.5071  1.1294
  898MPD2    C413158   4.377   3.819  17.578  0.0282 -0.3133 -0.2118
  898MPD2    C513159   4.429   3.708  17.638  0.8970 -0.0436 -0.1285
  898MPD2     H13160   4.645   4.017  17.612  0.0748  0.2646  1.0986
  898MPD2    H113161   4.281   3.811  17.528  0.1088 -0.1302 -0.3973
  898MPD2    H213162   4.586   3.614   0.046  3.1789  0.2785 -1.4590
  898MPD2    H313163   4.375   3.614  17.638  0.3358  0.2778 -0.7193
  898MPD2     N13164   4.414   4.050  17.504  0.1311 -0.1794  0.3901
  898MPD2    H513165   4.468   4.135  17.515  1.7921 -1.4914  2.3520
  898MPD2    N113166   0.040   3.831   0.042  0.6030  0.2822 -0.6984
  898MPD2    H713167   0.096   3.910   0.012 -1.1336  1.1447 -1.7289
  899MPD2     C13168   0.163   4.703  17.516  0.5138 -1.1230  0.3210
  899MPD2    C113169   0.254   0.049  17.591 -0.3090  0.0330 -0.2033
  899MPD2    C213170   0.258   0.024   0.035 -1.1671  0.2966  0.0079
  899MPD2    C313171   0.177   4.650   0.096 -0.5987 -0.5883 -0.3462
  899MPD2    C413172   0.086   4.591   0.013 -0.0789 -0.8616 -0.0810
  899MPD2    C513173   0.076   4.609  17.569 -0.3196  0.4280  0.8197
  899MPD2     H13174   0.315   0.091   0.099 -1.0090 -0.3576  0.5535
  899MPD2    H113175   0.013   4.519   0.048 -0.0869 -0.0925  1.5037
  899MPD2    H213176   0.142   4.722  17.411  0.3013 -1.4632  0.3031
  899MPD2    H313177   0.006   4.563  17.501  0.3115  2.3091 -1.1205
  899MPD2     N13178   0.164   4.621   0.232  0.4386  0.0960  0.5055
  899MPD2    H513179   0.088   4.560   0.262 -2.2032  2.3633 -1.5395
  899MPD2    N113180   0.326   0.150  17.525 -0.3304  0.4826  0.2717
  899MPD2    H713181   0.310   0.151  17.425 -0.3380  0.3475  0.2719
  900MPD2     C13182   0.773   1.277  12.069  0.0982  0.1107 -0.6774
  900MPD2    C113183   0.683   1.181  12.023 -0.4813 -0.0173 -0.0702
  900MPD2    C213184   0.587   1.225  11.931  0.4496 -0.3463  0.4251
  900MPD2    C313185   0.578   1.357  11.896  0.2062 -0.5614 -0.2081
  900MPD2    C413186   0.675   1.444  11.944  0.0496 -0.1554  0.3738
  900MPD2    C513187   0.769   1.403  12.028 -0.1145 -0.0457  0.2605
  900MPD2     H13188   0.517   1.154  11.887 -2.1877  0.6049  3.1282
  900MPD2    H113189   0.663   1.550  11.924 -4.4568 -0.7417 -0.0267
  900MPD2    H213190   0.851   1.248  12.139 -0.2374 -1.2468 -0.8553
  900MPD2    H313191   0.844   1.474  12.062  0.1715 -0.3161  0.1937
  900MPD2     N13192   0.472   1.401  11.807 -0.1178  0.2993 -0.2114
  900MPD2    H513193   0.423   1.331  11.753 -0.8910 -0.8508  1.9896
  900MPD2    N113194   0.692   1.046  12.062 -0.9253  0.5970  0.0244
  900MPD2    H713195   0.768   1.022  12.125 -0.2477 -1.6796 -1.6374
  901MPD2     C13196   0.699   0.305  12.708  0.0633  0.4751 -0.2269
  901MPD2    C113197   0.665   0.220  12.606 -0.4208 -0.1966 -0.6625
  901MPD2    C213198   0.602   0.278  12.496 -0.0735  0.2283  0.3861
  901MPD2    C313199   0.578   0.410  12.491 -0.3144  0.2882  0.3681
  901MPD2    C413200   0.620   0.494  12.600  0.8680 -0.1100  0.0679
  901MPD2    C513201   0.685   0.438  12.707  0.8244 -0.4010  0.0877
  901MPD2     H13202   0.569   0.220  12.410 -1.1351  0.8455  0.3770
  901MPD2    H113203   0.612   0.602  12.602  4.1073  0.1049  1.8086
  901MPD2    H213204   0.734   0.260  12.800  2.8042  1.9041 -0.5777
  901MPD2    H313205   0.715   0.492  12.796  0.2049  1.3867 -0.7938
  901MPD2     N13206   0.538   0.457  12.366  0.3573 -0.9369 -0.0833
  901MPD2    H513207   0.527   0.385  12.296 -0.0995  0.7824 -1.7946
  901MPD2    N113208   0.672   0.077  12.622 -0.9628 -1.0190  0.6875
  901MPD2    H713209   0.708   0.045  12.711 -1.0084  1.2536  1.5204
  902MPD2     C13210   0.198   3.371  12.421  0.6723  0.2143  0.2780
  902MPD2    C113211   0.124   3.372  12.304 -0.9064  0.0907  0.4991
  902MPD2    C213212   0.089   3.256  12.242 -0.1914 -0.1439  0.1399
  902MPD2    C313213   0.142   3.133  12.281  0.3017 -0.6742 -0.2755
  902MPD2    C413214   0.223   3.131  12.391 -0.7042  0.1709  0.3871
  902MPD2    C513215   0.249   3.249  12.463 -0.5364  0.3031  0.0943
  902MPD2     H13216   0.037   3.255  12.148  1.1388  3.1835 -0.6358
  902MPD2    H113217   0.270   3.039  12.422  0.4214  0.1543 -1.3433
  902MPD2    H213218   0.229   3.456  12.480  4.3612 -0.9781  0.0392
  902MPD2    H313219   0.309   3.244  12.553 -1.3106 -0.0477  0.5923
  902MPD2     N13220   0.127   3.024  12.194  0.0528 -0.1203 -0.1632
  902MPD2    H513221   0.191   2.946  12.205 -0.6636 -0.6450  0.2376
  902MPD2    N113222   0.077   3.497  12.264 -0.6536 -0.1018  0.6858
  902MPD2    H713223   0.114   3.580  12.310 -0.2718  1.2538 -2.0281
  903MPD2     C13224   4.457   2.776  11.421 -0.2253  0.1845 -0.2554
  903MPD2    C113225   4.447   2.851  11.531  0.4355  0.1663 -0.5968
  903MPD2    C213226   4.342   2.945  11.539 -0.8338  0.2301  0.4847
  903MPD2    C313227   4.251   2.970  11.439 -0.3857  0.4454  0.1533
  903MPD2    C413228   4.267   2.888  11.331  0.0290 -0.1361  0.2191
  903MPD2    C513229   4.368   2.796  11.318  0.4591 -0.7230 -0.6847
  903MPD2     H13230   4.342   3.006  11.629 -1.2353  2.4029 -0.9854
  903MPD2    H113231   4.197   2.897  11.249  0.3903 -0.6310 -0.1441
  903MPD2    H213232   4.533   2.701  11.406 -1.6990 -1.0368 -1.6499
  903MPD2    H313233   4.373   2.730  11.233  1.2992 -0.7934 -0.5741
  903MPD2     N13234   4.151   3.065  11.458 -0.4127  0.1817  0.0297
  903MPD2    H513235   4.146   3.112  11.548  0.5789 -0.9524  0.6702
  903MPD2    N113236   4.535   2.830  11.638  0.4319 -0.2270 -0.2923
  903MPD2    H713237   4.608   2.759  11.632 -2.2325 -2.8949 -1.0781
  904MPD2     C13238   4.514   2.952  14.079  0.8357  0.1919  0.2736
  904MPD2    C113239   4.609   3.044  14.053  0.4157  0.0436 -0.2403
  904MPD2    C213240   4.719   3.054  14.134 -0.1468 -0.0239  0.2350
  904MPD2    C313241   0.007   2.989  14.253  0.5895  0.5238 -0.6711
  904MPD2    C413242   4.631   2.902  14.292 -0.0594 -0.4996  0.5371
  904MPD2    C513243   4.524   2.883  14.205  0.6725  0.8447  0.0192
  904MPD2     H13244   0.073   3.127  14.108 -2.1722  1.4169 -1.6280
  904MPD2    H113245   4.639   2.844  14.383 -2.7604 -0.5879  0.7113
  904MPD2    H213246   4.425   2.929  14.020 -0.1250 -0.4723  1.9742
  904MPD2    H313247   4.446   2.816  14.239  0.8068  0.5878 -0.1817
  904MPD2     N13248   0.113   3.020  14.341  0.1882  0.2544  0.0894
  904MPD2    H513249   0.177   3.093  14.309 -0.4226  0.5526 -0.4619
  904MPD2    N113250   4.621   3.103  13.924  0.4137  0.7602  0.0585
  904MPD2    H713251   4.697   3.166  13.902  0.6793  0.2529 -0.4595
  905MPD2     C13252   4.594   3.074  13.071  0.0972 -0.2580  0.3131
  905MPD2    C113253   4.595   3.004  13.189  0.0181  0.2263 -0.2838
  905MPD2    C213254   4.612   2.865  13.191 -0.6700 -0.0363 -0.2247
  905MPD2    C313255   4.642   2.799  13.073  0.2993  0.3349  0.6518
  905MPD2    C413256   4.652   2.870  12.956 -0.7933  0.3337  0.6568
  905MPD2    C513257   4.627   3.003  12.960 -0.0324 -0.1760  0.1164
  905MPD2     H13258   4.608   2.810  13.284 -1.1416  0.0036 -0.2228
  905MPD2    H113259   4.678   2.817  12.865 -1.7123  0.8237  0.1129
  905MPD2    H213260   4.555   3.174  13.059  1.8684  0.3910 -0.0921
  905MPD2    H313261   4.634   3.045  12.860 -1.8168  1.8453  0.8480
  905MPD2     N13262   4.687   2.662  13.071 -0.3023  0.0045  0.7843
  905MPD2    H513263   0.021   2.635  12.991  0.3519 -0.7690  1.5098
  905MPD2    N113264   4.574   3.071  13.315 -0.2068 -0.1049 -0.3228
  905MPD2    H713265   4.589   3.010  13.395 -5.3867 -1.2539 -0.1987
  906MPD2     C13266   1.971   2.399  11.342 -0.3532  0.1382 -0.1516
  906MPD2    C113267   1.931   2.298  11.248  0.1228  0.5653  0.1026
  906MPD2    C213268   1.837   2.205  11.285 -0.2178 -0.5198  0.1753
  906MPD2    C313269   1.782   2.206  11.414  0.3747  1.1333 -0.3516
  906MPD2    C413270   1.825   2.305  11.503 -0.0938 -0.1234 -0.2173
  906MPD2    C513271   1.901   2.410  11.460  0.9382  0.0023 -0.0678
  906MPD2     H13272   1.797   2.140  11.209 -2.2526 -0.9192  1.5753
  906MPD2    H113273   1.797   2.301  11.608  0.9797  0.5501  0.1092
  906MPD2    H213274   2.027   2.480  11.297 -0.6291  0.3087 -0.1846
  906MPD2    H313275   1.933   2.499  11.513  0.2587  1.0685 -1.4538
  906MPD2     N13276   1.688   2.108  11.451  0.9683 -0.2348  0.3344
  906MPD2    H513277   1.640   2.125  11.539 -1.7566 -3.9695 -0.3945
  906MPD2    N113278   1.964   2.298  11.112  0.1829 -0.4363  0.0669
  906MPD2    H713279   1.941   2.215  11.058  2.7412  0.7126 -2.8136
  907MPD2     C13280   0.730   2.275  15.026  0.1719  0.5929 -0.1754
  907MPD2    C113281   0.657   2.161  15.062  0.2995  0.4312  0.1120
  907MPD2    C213282   0.663   2.115  15.190  0.2886 -0.1024 -0.2909
  907MPD2    C313283   0.734   2.172  15.293 -0.1752  0.4382 -0.6601
  907MPD2    C413284   0.811   2.279  15.260 -0.4732  0.2094  0.1274
  907MPD2    C513285   0.804   2.332  15.132 -0.1382 -0.1053  0.3603
  907MPD2     H13286   0.603   2.029  15.218 -1.4529  0.6879 -1.6315
  907MPD2    H113287   0.862   2.336  15.337 -0.5296  0.2639  0.1240
  907MPD2    H213288   0.720   2.328  14.932 -2.0057  1.6732  0.6839
  907MPD2    H313289   0.839   2.433  15.111 -0.3171 -0.4628 -1.6007
  907MPD2     N13290   0.709   2.126  15.429 -0.0714  0.3993  0.4284
  907MPD2    H513291   0.659   2.039  15.440  3.0209 -1.4199  0.2174
  907MPD2    N113292   0.571   2.094  14.960  0.2582 -0.4760 -0.0145
  907MPD2    H713293   0.501   2.031  14.998  0.7388 -0.8669  0.2312
  908MPD2     C13294   2.726   2.812   9.614 -0.2181  0.4501 -0.8036
  908MPD2    C113295   2.817   2.720   9.677  0.0264  0.1021  0.2154
  908MPD2    C213296   2.895   2.763   9.783  0.5272  0.1757 -0.4097
  908MPD2    C313297   2.887   2.894   9.830  0.0812  0.1383  0.0642
  908MPD2    C413298   2.797   2.979   9.767  0.0060 -0.3669 -0.2902
  908MPD2    C513299   2.718   2.936   9.664  0.6992 -0.0527  0.0002
  908MPD2     H13300   2.978   2.697   9.804  0.2755  0.1019  0.3473
  908MPD2    H113301   2.786   3.084   9.788 -1.7970 -0.4353 -0.9247
  908MPD2    H213302   2.655   2.786   9.536 -0.3751 -0.7565 -0.2540
  908MPD2    H313303   2.660   3.007   9.606  1.1508 -1.3645 -2.0874
  908MPD2     N13304   2.972   2.939   9.940 -0.1030  0.0736 -0.0917
  908MPD2    H513305   3.033   2.867   9.977  0.2049 -0.1795 -1.0742
  908MPD2    N113306   2.832   2.598   9.614  0.2316 -0.5639 -0.4731
  908MPD2    H713307   2.780   2.587   9.528 -0.8015 -0.0376  0.0892
  909MPD2     C13308   3.989   4.553  11.501  0.0752  1.1867 -0.4435
  909MPD2    C113309   4.000   4.680  11.446 -0.1017  0.2310  0.5723
  909MPD2    C213310   3.904   0.048  11.473  0.0169  0.0800 -0.9746
  909MPD2    C313311   3.796   0.013  11.554  0.8231  0.0247  0.1986
  909MPD2    C413312   3.790   4.604  11.607 -0.1872  0.4819  0.6376
  909MPD2    C513313   3.894   4.514  11.588  0.3040  0.4744 -0.0534
  909MPD2     H13314   3.913   0.152  11.442  3.0230 -0.2952 -1.3590
  909MPD2    H113315   3.720   4.564  11.679 -1.7315 -3.5526 -3.1014
  909MPD2    H213316   4.062   4.478  11.473 -1.0989 -0.1074 -0.0381
  909MPD2    H313317   3.895   4.416  11.636  0.6743  0.8283  0.6643
  909MPD2     N13318   3.708   0.116  11.593  0.1233  0.1253  0.3217
  909MPD2    H513319   3.717   0.209  11.554 -1.4948 -0.7415 -2.1433
  909MPD2    N113320   4.095   4.721  11.349 -0.5364  0.8405  0.1132
  909MPD2    H713321   4.070   0.083  11.299  0.7222  1.5413  0.6799
  910MPD2     C13322   3.894   2.895  15.642  0.7750 -0.0138  0.7808
  910MPD2    C113323   4.026   2.863  15.614 -0.0097  1.0556  0.1954
  910MPD2    C213324   4.084   2.924  15.501 -0.0372  0.9931 -0.1930
  910MPD2    C313325   4.017   3.014  15.420 -0.0613 -0.0744 -0.1716
  910MPD2    C413326   3.888   3.042  15.452  0.4966 -0.0772 -0.2094
  910MPD2    C513327   3.828   2.988  15.557  0.5965  0.1596 -0.4633
  910MPD2     H13328   4.182   2.890  15.470 -1.3611 -3.4283  0.5228
  910MPD2    H113329   3.840   3.119  15.393 -0.3308 -1.8205 -1.7787
  910MPD2    H213330   3.842   2.857  15.730  0.9124 -1.0058  0.4285
  910MPD2    H313331   3.728   3.026  15.572  0.7049  0.2572  0.0056
  910MPD2     N13332   4.078   3.067  15.300 -0.1792 -0.6809 -0.1144
  910MPD2    H513333   4.025   3.133  15.243  0.7701 -0.2929 -0.5403
  910MPD2    N113334   4.100   2.766  15.687 -0.1363 -0.8793  0.4638
  910MPD2    H713335   4.193   2.744  15.654 -0.2830 -0.7040 -0.0731
  911MPD2     C13336   1.963   3.430  16.189 -0.3493  0.3311  0.0341
  911MPD2    C113337   1.965   3.481  16.312 -0.1481  0.7208 -0.9027
  911MPD2    C213338   1.879   3.582  16.352  0.3420  0.7216  0.4684
  911MPD2    C313339   1.772   3.622  16.276  0.6224  0.1322  0.2107
  911MPD2    C413340   1.762   3.563  16.151  0.2466  0.1759  0.1952
  911MPD2    C513341   1.862   3.475  16.109  0.6877 -0.2431  0.0200
  911MPD2     H13342   1.891   3.624  16.451  0.2965  1.1525  0.2911
  911MPD2    H113343   1.685   3.595  16.081  0.3468  0.4678  0.2204
  911MPD2    H213344   2.017   3.345  16.148  1.0284  1.6223 -0.8192
  911MPD2    H313345   1.851   3.433  16.010  0.4609 -0.2932  0.0674
  911MPD2     N13346   1.681   3.716  16.315 -0.7476 -0.2786 -0.2542
  911MPD2    H513347   1.593   3.720  16.264 -1.3957 -0.4841  0.8223
  911MPD2    N113348   2.071   3.426  16.392 -0.1690  0.3872  0.3387
  911MPD2    H713349   2.121   3.352  16.344  1.4585  0.5377  1.7943
  912MPD2     C13350   1.404   3.664  15.929 -1.0707 -0.2871  0.0375
  912MPD2    C113351   1.389   3.639  16.057  0.1625 -0.0963 -0.2234
  912MPD2    C213352   1.415   3.516  16.112 -0.0542  0.6592 -0.0706
  912MPD2    C313353   1.467   3.419  16.028  0.3789 -0.2509 -0.2697
  912MPD2    C413354   1.483   3.439  15.893 -0.4190  0.4508  0.4477
  912MPD2    C513355   1.440   3.559  15.846  0.1580 -0.3668 -0.0811
  912MPD2     H13356   1.397   3.494  16.217  1.5325  1.2315  0.3226
  912MPD2    H113357   1.521   3.366  15.823  0.5531 -0.8988  2.3879
  912MPD2    H213358   1.373   3.760  15.888  0.3220  0.4595  0.7181
  912MPD2    H313359   1.460   3.576  15.741  1.8225 -1.1380  0.1129
  912MPD2     N13360   1.483   3.296  16.090  0.5809 -0.5881  0.0197
  912MPD2    H513361   1.449   3.299  16.185 -1.3720 -1.9324 -0.6336
  912MPD2    N113362   1.338   3.755  16.130 -0.6315 -0.0873  0.4601
  912MPD2    H713363   1.325   3.840  16.075 -1.5704 -0.7684 -0.3925
  913MPD2     C13364   2.921   3.676  10.364  0.5475 -0.3480  0.1233
  913MPD2    C113365   2.996   3.772  10.419  0.0501 -0.3243  0.3462
  913MPD2    C213366   3.061   3.861  10.337  0.2230  0.7159 -0.3637
  913MPD2    C313367   3.040   3.864  10.198  0.8573  0.1653  0.5665
  913MPD2    C413368   2.951   3.775  10.148  0.1158 -0.0140 -0.2233
  913MPD2    C513369   2.893   3.681  10.231  0.4052  0.3549 -0.5496
  913MPD2     H13370   3.125   3.939  10.375  1.4109 -1.1272  1.4103
  913MPD2    H113371   2.930   3.766  10.042 -1.6603 -2.6836  0.3643
  913MPD2    H213372   2.880   3.588  10.414  2.2203 -0.8524  0.6194
  913MPD2    H313373   2.834   3.603  10.184  0.9468  0.0429 -0.7055
  913MPD2     N13374   3.110   3.944  10.100  0.1915 -0.1417 -0.4263
  913MPD2    H513375   3.083   3.932  10.003  1.7044  2.9822 -1.2506
  913MPD2    N113376   3.024   3.761  10.558 -1.0343  0.0036 -0.9258
  913MPD2    H713377   2.992   3.675  10.602  1.7957 -0.7542 -0.3766
  914MPD2     C13378   0.568   4.156  11.863 -0.2097 -0.2011  1.6866
  914MPD2    C113379   0.576   4.296  11.883  0.3930  0.3829 -0.1338
  914MPD2    C213380   0.597   4.342  12.008  0.1388  0.0573 -0.3864
  914MPD2    C313381   0.595   4.263  12.118  0.2003  0.4759  0.5834
  914MPD2    C413382   0.581   4.125  12.100 -0.0694  0.1251 -0.3513
  914MPD2    C513383   0.573   4.074  11.971  0.0999  0.1639  0.1810
  914MPD2     H13384   0.603   4.449  12.023 -1.2696 -0.0639  1.1132
  914MPD2    H113385   0.592   4.065  12.189  3.6111  2.6873  0.9218
  914MPD2    H213386   0.570   4.105  11.767  3.0718 -0.3210  1.8217
  914MPD2    H313387   0.550   3.970  11.952  0.7057 -0.1314  1.0896
  914MPD2     N13388   0.601   4.330  12.243 -0.0547  0.7455  0.2524
  914MPD2    H513389   0.582   4.429  12.248 -2.7641  0.2158  0.3946
  914MPD2    N113390   0.590   4.377  11.763 -0.2625 -0.7778  0.1555
  914MPD2    H713391   0.607   4.329  11.675 -1.5370  2.6401 -1.9474
  915MPD2     C13392   3.763   0.200  15.934  0.1002  0.0371 -0.2790
  915MPD2    C113393   3.679   0.305  15.905 -0.8468 -0.4329 -0.4167
  915MPD2    C213394   3.590   0.350  15.996  0.6383  0.2100  0.0231
  915MPD2    C313395   3.576   0.295  16.123 -0.5932 -0.0492 -1.0584
  915MPD2    C413396   3.662   0.187  16.159 -0.8165 -0.1774  0.1279
  915MPD2    C513397   3.752   0.146  16.064 -0.2760  0.2806  0.9927
  915MPD2     H13398   3.514   0.422  15.967 -0.0540 -0.3707  0.4063
  915MPD2    H113399   3.653   0.129  16.250 -0.4633  0.9277  0.8696
  915MPD2    H213400   3.847   0.171  15.873  1.0401  2.8782 -0.3416
  915MPD2    H313401   3.808   0.057  16.091  0.1023  0.0724 -0.4425
  915MPD2     N13402   3.492   0.358  16.213  0.3328  0.2267 -0.0762
  915MPD2    H513403   3.454   0.446  16.180 -2.6640 -0.5659  1.2728
  915MPD2    N113404   3.688   0.364  15.776  0.2188 -0.0140  0.2988
  915MPD2    H713405   3.753   0.314  15.716 -0.5639 -0.4804 -0.1508
  916MPD2     C13406   1.356   3.340  15.533  0.1891  0.3418 -0.3517
  916MPD2    C113407   1.328   3.226  15.605  0.4517 -0.1682  0.3867
  916MPD2    C213408   1.333   3.106  15.534 -0.0570 -0.0554 -0.3717
  916MPD2    C313409   1.377   3.088  15.402  0.1879  0.3353 -0.6764
  916MPD2    C413410   1.405   3.208  15.336  0.2240  0.1470  0.0160
  916MPD2    C513411   1.398   3.328  15.398  0.0518 -0.5131 -0.1085
  916MPD2     H13412   1.290   3.015  15.574  0.8455  0.6808  2.2344
  916MPD2    H113413   1.414   3.213  15.228 -2.0387  0.4389 -0.1700
  916MPD2    H213414   1.355   3.436  15.582  2.7188 -0.1558  0.6880
  916MPD2    H313415   1.413   3.421  15.343  0.5183  0.0880  1.0549
  916MPD2     N13416   1.381   2.959  15.344 -1.5513 -0.2703  0.4882
  916MPD2    H513417   1.355   2.882  15.405  2.0874 -1.4667  0.5207
  916MPD2    N113418   1.286   3.245  15.738 -0.2703 -0.0463 -0.1636
  916MPD2    H713419   1.288   3.343  15.763  0.5799 -0.3870  1.1645
  917MPD2     C13420   2.109   4.445  11.044  0.1471  0.4660  0.1046
  917MPD2    C113421   2.147   4.535  11.143 -0.0311 -0.4683  0.9404
  917MPD2    C213422   2.242   4.624  11.109 -0.6803 -0.0117  0.5795
  917MPD2    C313423   2.306   4.620  10.987 -0.5799 -0.1660  0.3434
  917MPD2    C413424   2.262   4.540  10.887 -0.3358  0.2342 -0.0751
  917MPD2    C513425   2.164   4.449  10.914  0.5197 -0.2538  0.0980
  917MPD2     H13426   2.264   4.694  11.189  2.3657 -2.4303  1.8440
  917MPD2    H113427   2.278   4.549  10.780 -0.6035 -1.6306 -0.2746
  917MPD2    H213428   2.031   4.374  11.068  0.1585 -0.0824 -1.5109
  917MPD2    H313429   2.119   4.388  10.837  1.0228 -1.6432  0.8996
  917MPD2     N13430   2.408   4.711  10.950 -0.7164 -0.5419 -0.5165
  917MPD2    H513431   2.431   4.716  10.852 -2.1892 -1.1041 -0.8904
  917MPD2    N113432   2.086   4.524  11.270 -0.3504  0.5911 -0.7180
  917MPD2    H713433   2.008   4.460  11.280  1.2604 -1.0933  0.8370
  918MPD2     C13434   1.937   0.558  11.903  0.0068  0.7767 -0.3378
  918MPD2    C113435   2.057   0.509  11.857  0.3483 -0.0198  0.2431
  918MPD2    C213436   2.048   0.389  11.799  0.6485  0.6407 -0.2507
  918MPD2    C313437   1.939   0.304  11.791  0.3327 -0.5239  0.2402
  918MPD2    C413438   1.823   0.353  11.850 -0.3616 -0.6214  0.2431
  918MPD2    C513439   1.825   0.482  11.899  0.1895  0.0250  0.4590
  918MPD2     H13440   2.140   0.336  11.775  1.4837  1.9948  0.0097
  918MPD2    H113441   1.726   0.305  11.852 -0.5606 -0.3174 -3.4762
  918MPD2    H213442   1.922   0.654  11.953 -0.8977  0.7199 -0.4888
  918MPD2    H313443   1.739   0.532  11.941 -1.2368 -1.5747 -0.5465
  918MPD2     N13444   1.964   0.172  11.741 -0.1323 -0.2514 -0.1904
  918MPD2    H513445   2.056   0.155  11.704 -0.4165  0.8025 -1.3701
  918MPD2    N113446   2.179   0.575  11.881 -1.0798 -0.3342 -0.4673
  918MPD2    H713447   2.256   0.529  11.835  0.0354  0.0973  0.9552
  919MPD2     C13448   2.834   4.129  11.370  0.0028  0.8056  0.1850
  919MPD2    C113449   2.805   3.994  11.365 -0.4968 -0.4012  0.0546
  919MPD2    C213450   2.780   3.937  11.245  0.0441 -0.7481  0.5679
  919MPD2    C313451   2.779   4.013  11.131  0.4137  0.2229  0.1768
  919MPD2    C413452   2.807   4.148  11.131 -0.1733 -0.0550  0.5911
  919MPD2    C513453   2.850   4.201  11.255  0.9634 -0.2856 -0.2257
  919MPD2     H13454   2.747   3.833  11.247 -4.2091  0.6247  1.2284
  919MPD2    H113455   2.802   4.208  11.041 -0.5781 -0.7986  0.1187
  919MPD2    H213456   2.852   4.181  11.463 -3.8714  0.1884  1.2715
  919MPD2    H313457   2.867   4.307  11.267 -0.4169 -0.3221  2.0333
  919MPD2     N13458   2.750   3.965  10.999 -0.0115  0.3545 -0.4026
  919MPD2    H513459   2.752   4.028  10.919 -1.6873 -0.2735 -0.9463
  919MPD2    N113460   2.799   3.922  11.489  0.0424 -0.6718  0.0730
  919MPD2    H713461   2.790   3.821  11.481 -0.7214 -0.6173  0.2135
  920MPD2     C13462   2.728   4.085   9.994  0.1550  0.3846  0.1904
  920MPD2    C113463   2.632   3.990  10.018  0.5299 -0.3573 -0.1221
  920MPD2    C213464   2.610   3.947  10.139  0.4432 -0.4287  0.4625
  920MPD2    C313465   2.691   3.984  10.249 -0.2714 -0.2142  0.1024
  920MPD2    C413466   2.789   4.078  10.230 -0.4158  0.2666 -0.1826
  920MPD2    C513467   2.804   4.127  10.100 -0.6052 -0.3778  0.2246
  920MPD2     H13468   2.518   3.895  10.161 -0.4432  1.0325  0.1969
  920MPD2    H113469   2.857   4.116  10.306  0.7485 -1.7060 -0.2502
  920MPD2    H213470   2.749   4.126   9.896 -4.4050 -1.2351 -1.4474
  920MPD2    H313471   2.885   4.198  10.083 -1.3894 -0.1574 -2.5794
  920MPD2     N13472   2.658   3.922  10.374  0.2335 -0.2061  0.6313
  920MPD2    H513473   2.603   3.837  10.363 -2.6262  1.6771  0.5953
  920MPD2    N113474   2.548   3.931   9.923 -0.4003  0.0113  0.4956
  920MPD2    H713475   2.493   3.855   9.962 -1.3056  0.4980  0.1775
  921MPD2     C13476   2.814   3.666  17.030  0.3508  0.0360  0.9171
  921MPD2    C113477   2.826   3.628  16.899  0.0348  0.0051  0.2103
  921MPD2    C213478   2.726   3.547  16.844 -0.8257  0.6615  0.8941
  921MPD2    C313479   2.619   3.516  16.921 -0.3860  0.0621  0.0400
  921MPD2    C413480   2.610   3.565  17.048 -0.5149 -0.1801  0.2507
  921MPD2    C513481   2.708   3.621  17.112 -0.2026  0.6541 -0.0833
  921MPD2     H13482   2.730   3.528  16.738 -2.3127  1.4679  0.7005
  921MPD2    H113483   2.521   3.559  17.110 -0.8140 -2.4579 -0.3960
  921MPD2    H213484   2.892   3.724  17.078 -0.6851  1.0411  1.3809
  921MPD2    H313485   2.684   3.647  17.214  0.6383 -0.9034  0.5105
  921MPD2     N13486   2.511   3.445  16.872  0.2655  0.3169  0.2388
  921MPD2    H513487   2.432   3.449  16.936 -0.4982  1.9335 -0.8254
  921MPD2    N113488   2.935   3.671  16.825 -0.1582  0.5787 -0.0171
  921MPD2    H713489   2.984   3.742  16.878 -1.4052  1.3067  0.1487
  922MPD2     C13490   3.991   0.927  16.755  0.1431  0.2014  0.3941
  922MPD2    C113491   3.951   1.025  16.833  0.2832  0.1458 -0.0774
  922MPD2    C213492   3.863   1.010  16.936 -0.0744  0.4183 -0.8839
  922MPD2    C313493   3.816   0.885  16.964  0.4142 -0.0052 -0.1865
  922MPD2    C413494   3.853   0.778  16.883 -0.2117 -0.5930 -0.2722
  922MPD2    C513495   3.945   0.798  16.793 -0.1683  0.0030  0.3518
  922MPD2     H13496   3.817   1.091  16.991  0.7554 -0.1334  0.6164
  922MPD2    H113497   3.808   0.680  16.888  0.2778 -0.7587  0.9142
  922MPD2    H213498   4.080   0.938  16.694 -0.3813  2.8110  0.1015
  922MPD2    H313499   3.982   0.713  16.736  2.7969  0.3543  1.7175
  922MPD2     N13500   3.716   0.865  17.063 -0.1691 -0.5554 -0.1250
  922MPD2    H513501   3.662   0.942  17.102  0.0038 -0.5130  0.0284
  922MPD2    N113502   3.999   1.157  16.819 -0.7012 -0.2105  0.2423
  922MPD2    H713503   3.969   1.215  16.897  1.1633  1.6715 -0.4448
  923MPD2     C13504   1.579   2.096   9.006  0.2662  0.1772  0.1495
  923MPD2    C113505   1.472   2.134   9.083  0.4480  0.9151  0.2240
  923MPD2    C213506   1.506   2.172   9.215  0.1665  0.0584  0.2223
  923MPD2    C313507   1.633   2.171   9.262  0.4608 -0.6152  0.1705
  923MPD2    C413508   1.731   2.114   9.187 -0.1624 -0.3369 -0.8991
  923MPD2    C513509   1.702   2.082   9.058 -0.3563  0.1537  0.1824
  923MPD2     H13510   1.425   2.186   9.286 -0.1448  1.8794 -0.4780
  923MPD2    H113511   1.832   2.105   9.223 -0.7898  1.5465  1.3090
  923MPD2    H213512   1.571   2.069   8.902  1.5616 -1.2492  0.4299
  923MPD2    H313513   1.779   2.025   9.006 -2.1217 -0.9026 -1.2519
  923MPD2     N13514   1.664   2.202   9.396 -0.4524  0.0489 -0.0952
  923MPD2    H513515   1.754   2.174   9.434  0.6882  1.8793 -1.4201
  923MPD2    N113516   1.334   2.131   9.040 -0.6466  0.9873 -0.3971
  923MPD2    H713517   1.261   2.162   9.103 -1.7403  1.1824 -1.7612
  924MPD2     C13518   0.405   1.453  15.707 -0.0284 -0.4651 -0.2498
  924MPD2    C113519   0.435   1.508  15.827 -0.0599  0.5592 -0.3169
  924MPD2    C213520   0.547   1.597  15.828 -0.3131 -0.4909 -0.5050
  924MPD2    C313521   0.616   1.626  15.712 -0.1138  0.2709 -0.4209
  924MPD2    C413522   0.583   1.568  15.588 -0.7445 -0.2632 -0.0900
  924MPD2    C513523   0.469   1.484  15.595 -0.9861  0.1553 -0.0721
  924MPD2     H13524   0.568   1.647  15.922 -0.1677  0.0208 -0.8078
  924MPD2    H113525   0.637   1.585  15.496 -0.9994 -0.6159 -0.3113
  924MPD2    H213526   0.330   1.376  15.703 -0.3600 -0.1287 -0.4435
  924MPD2    H313527   0.438   1.449  15.497  0.8627 -2.9342  0.4299
  924MPD2     N13528   0.711   1.724  15.700  0.6091 -0.0684 -0.4207
  924MPD2    H513529   0.746   1.749  15.608 -1.3515 -2.2176 -1.7914
  924MPD2    N113530   0.346   1.486  15.933 -0.4580 -0.0910  0.1606
  924MPD2    H713531   0.253   1.452  15.910 -0.2777 -1.1845  1.0728
  925MPD2     C13532   4.559   3.754  14.834 -0.4462 -0.3921 -0.3736
  925MPD2    C113533   4.449   3.759  14.752  0.0716 -0.3219 -0.2034
  925MPD2    C213534   4.321   3.719  14.794  0.1134 -0.3049 -0.0625
  925MPD2    C313535   4.305   3.665  14.925  0.3406 -0.6500  0.2518
  925MPD2    C413536   4.418   3.662  15.008 -0.2676  0.0665  0.0062
  925MPD2    C513537   4.537   3.713  14.962  0.0474 -0.8968 -0.5473
  925MPD2     H13538   4.236   3.734  14.728 -0.1839  0.2863  0.4535
  925MPD2    H113539   4.414   3.611  15.104 -1.9005  0.1783 -0.0024
  925MPD2    H213540   4.658   3.778  14.798 -0.1943 -0.8797 -0.0067
  925MPD2    H313541   4.625   3.702  15.023  0.2081  1.2986 -0.3682
  925MPD2     N13542   4.174   3.633  14.971  0.0857 -0.6573 -1.0629
  925MPD2    H513543   4.172   3.586  15.061  2.3330 -0.5058 -0.9398
  925MPD2    N113544   4.461   3.809  14.619 -0.3879 -0.0573  0.1935
  925MPD2    H713545   4.379   3.807  14.559 -0.7562 -1.8878  0.7326
  926MPD2     C13546   3.200   2.207  13.261  0.1486  0.0189  0.2583
  926MPD2    C113547   3.108   2.309  13.243 -0.4488  0.6406 -0.6285
  926MPD2    C213548   3.106   2.383  13.127 -0.2724 -0.1432  0.1526
  926MPD2    C313549   3.188   2.345  13.024 -0.4157  0.3303 -0.1433
  926MPD2    C413550   3.279   2.241  13.041  0.5186 -0.1924 -0.2136
  926MPD2    C513551   3.281   2.170  13.159 -0.8269  0.4649  0.3454
  926MPD2     H13552   3.045   2.472  13.126 -1.3613 -0.8690  2.4835
  926MPD2    H113553   3.348   2.210  12.964  1.6472  2.1578 -0.1520
  926MPD2    H213554   3.202   2.145  13.350  0.8140 -0.8456 -0.3620
  926MPD2    H313555   3.352   2.091  13.180  0.3884  1.6145  0.5326
  926MPD2     N13556   3.188   2.428  12.905 -0.2018 -0.0076  0.1768
  926MPD2    H513557   3.252   2.380  12.843  0.9175 -0.7088  1.8550
  926MPD2    N113558   3.018   2.346  13.346  0.2953  0.0020  0.3582
  926MPD2    H713559   2.949   2.415  13.320 -0.4033 -1.4304 -1.5876
  927MPD2     C13560   2.218   0.159   0.742  0.8990 -0.6012  0.1173
  927MPD2    C113561   2.117   0.229   0.681 -0.3799 -0.4132 -0.1165
  927MPD2    C213562   2.090   0.222   0.545 -0.5585  0.2578 -0.2585
  927MPD2    C313563   2.179   0.144   0.465  0.6721 -0.1407 -0.5161
  927MPD2    C413564   2.290   0.082   0.522 -0.0075  0.1585 -0.8336
  927MPD2    C513565   2.303   0.090   0.655 -0.6200  0.6891 -0.5911
  927MPD2     H13566   2.001   0.270   0.506  0.1193  1.0693 -0.8134
  927MPD2    H113567   2.370   0.038   0.462 -0.9701  0.4394 -2.3339
  927MPD2    H213568   2.230   0.157   0.849 -1.3472  0.4591  0.3896
  927MPD2    H313569   2.394   0.058   0.705  0.7126  3.1070 -1.4208
  927MPD2     N13570   2.157   0.149   0.330  0.2154 -0.0105 -0.4719
  927MPD2    H513571   2.077   0.204   0.300  1.2321  1.0852 -1.2045
  927MPD2    N113572   2.027   0.294   0.774 -0.2520  0.5936 -0.3450
  927MPD2    H713573   2.048   0.280   0.872 -3.5072 -2.4996 -0.1062
  928MPD2     C13574   0.246   3.440   1.370  0.2977  0.6625 -0.9300
  928MPD2    C113575   0.305   3.554   1.413  0.5152  0.0220  0.8589
  928MPD2    C213576   0.416   3.607   1.351 -0.1858 -1.6021  0.4190
  928MPD2    C313577   0.474   3.540   1.243 -0.5491  0.5113  0.1180
  928MPD2    C413578   0.425   3.417   1.209 -0.5854 -0.0706  0.5294
  928MPD2    C513579   0.310   3.368   1.267  0.5562  0.4081  0.0313
  928MPD2     H13580   0.466   3.697   1.385 -0.9925 -0.4475 -1.4634
  928MPD2    H113581   0.467   3.357   1.128 -1.2583 -2.3288  1.8541
  928MPD2    H213582   0.147   3.412   1.403  0.0415  2.0952 -0.4470
  928MPD2    H313583   0.265   3.279   1.226  1.7730  0.5518 -1.5946
  928MPD2     N13584   0.581   3.595   1.165 -0.2478  0.2534 -0.7897
  928MPD2    H513585   0.606   3.547   1.079  0.6047 -1.0812  0.2082
  928MPD2    N113586   0.240   3.631   1.516 -0.1178 -0.2465  0.2084
  928MPD2    H713587   0.143   3.606   1.529 -0.0100 -1.1800 -0.7696
  929MPD2     C13588   1.595   2.211  10.458 -0.3283  0.2818  0.2279
  929MPD2    C113589   1.473   2.275  10.483  0.5216 -0.6622 -0.3196
  929MPD2    C213590   1.437   2.381  10.405  0.3019 -0.0521  0.1302
  929MPD2    C313591   1.517   2.417  10.303  0.3024  0.5360 -0.0925
  929MPD2    C413592   1.632   2.342  10.273 -0.0784 -0.1329  0.0438
  929MPD2    C513593   1.674   2.245  10.349 -0.0352  0.1188 -0.2482
  929MPD2     H13594   1.344   2.432  10.427  0.7680  0.9017 -0.1454
  929MPD2    H113595   1.702   2.361  10.192 -1.5265  0.1538 -1.1412
  929MPD2    H213596   1.632   2.136  10.528 -0.2213 -1.7795 -2.0298
  929MPD2    H313597   1.768   2.195  10.331  0.6063  0.9482  0.8030
  929MPD2     N13598   1.473   2.515  10.203  0.4520  0.4850  0.0218
  929MPD2    H513599   1.539   2.513  10.126 -0.9662  0.6099 -1.1834
  929MPD2    N113600   1.396   2.227  10.590  0.5701  0.3303  0.2921
  929MPD2    H713601   1.440   2.160  10.652  1.7475  0.1735 -0.7109
  930MPD2     C13602   2.565   0.484  14.377 -0.2594  0.0881 -0.6756
  930MPD2    C113603   2.500   0.593  14.326  0.9911 -0.2395  0.0431
  930MPD2    C213604   2.410   0.573  14.222 -0.1205 -0.0066  0.6074
  930MPD2    C313605   2.395   0.447  14.166  0.6316 -0.8077  0.0783
  930MPD2    C413606   2.465   0.339  14.221  0.2566  0.0965 -0.4081
  930MPD2    C513607   2.547   0.360  14.328 -0.2890 -0.7666  0.7628
  930MPD2     H13608   2.349   0.657  14.194 -1.7693 -1.1980  0.6384
  930MPD2    H113609   2.442   0.239  14.187 -1.3972  1.2065 -2.5616
  930MPD2    H213610   2.639   0.496  14.456  0.4283  3.0064 -1.7254
  930MPD2    H313611   2.584   0.272  14.380 -2.0870 -2.7231 -1.2281
  930MPD2     N13612   2.312   0.421  14.055 -0.1534 -0.5862 -0.4186
  930MPD2    H513613   2.328   0.334  14.006  2.2250 -0.2331 -0.2477
  930MPD2    N113614   2.535   0.721  14.374 -0.0841 -0.1526  0.7677
  930MPD2    H713615   2.616   0.738  14.433 -0.4354 -0.6810  1.4003
  931MPD2     C13616   2.144   0.249   1.327 -0.7887  0.6350  0.0792
  931MPD2    C113617   2.038   0.338   1.337 -0.4854  0.4294  0.1578
  931MPD2    C213618   2.003   0.364   1.466 -0.1480 -0.1700  0.6076
  931MPD2    C313619   2.049   0.295   1.580  0.8317  0.0039 -0.0878
  931MPD2    C413620   2.154   0.214   1.562 -0.1961 -0.0222 -0.4472
  931MPD2    C513621   2.200   0.193   1.434 -0.0654  0.3645  0.4293
  931MPD2     H13622   1.922   0.435   1.483 -0.7718 -0.6001 -0.5237
  931MPD2    H113623   2.205   0.157   1.639 -1.0782 -0.8130 -0.4516
  931MPD2    H213624   2.190   0.213   1.235 -0.4060 -0.8746  0.8624
  931MPD2    H313625   2.285   0.126   1.422 -1.2183 -1.1187  0.4525
  931MPD2     N13626   1.999   0.314   1.709  0.0909 -0.0614  0.1274
  931MPD2    H513627   2.033   0.246   1.776  1.3701  1.5450  1.1061
  931MPD2    N113628   1.975   0.393   1.222 -0.3886  0.0332  0.2617
  931MPD2    H713629   2.012   0.353   1.137  0.6676  3.0685 -0.7281
  932MPD2     C13630   4.549   3.129  11.032  0.7580  0.1166  0.5220
  932MPD2    C113631   4.683   3.135  11.004 -0.6925 -0.2405  0.2594
  932MPD2    C213632   0.029   3.021  10.968 -0.0119 -0.4585 -0.0908
  932MPD2    C313633   4.691   2.899  10.968  0.2439 -0.2807  0.4145
  932MPD2    C413634   4.560   2.891  10.998 -0.7312 -0.1862 -0.4774
  932MPD2    C513635   4.485   3.004  11.023  0.1460  0.9070  0.0950
  932MPD2     H13636   0.137   3.030  10.971 -0.0365 -0.3308  0.4484
  932MPD2    H113637   4.502   2.800  10.993  0.3279 -0.9658  1.2645
  932MPD2    H213638   4.489   3.217  11.051  1.9317  0.4912  2.5418
  932MPD2    H313639   4.379   2.991  11.043 -0.1634  0.4821 -1.7948
  932MPD2     N13640   0.039   2.775  10.947  0.0365  0.5856 -0.2582
  932MPD2    H513641   4.711   2.689  10.965 -0.0890  0.4732 -1.1852
  932MPD2    N113642   0.039   3.252  11.031 -0.0471 -0.7200  0.5473
  932MPD2    H713643   0.132   3.245  10.989 -0.2263 -3.3860  0.6332
  933MPD2     C13644   4.356   3.648   1.570 -0.2398 -0.5378 -0.3178
  933MPD2    C113645   4.396   3.779   1.581 -0.2541  0.1046 -0.3787
  933MPD2    C213646   4.314   3.887   1.548  0.1880 -0.3764  1.5392
  933MPD2    C313647   4.186   3.864   1.499  0.0139 -0.3231  0.3105
  933MPD2    C413648   4.142   3.734   1.509 -0.2508  0.4137 -0.4628
  933MPD2    C513649   4.230   3.629   1.540  0.0083  0.3723 -1.1184
  933MPD2     H13650   4.348   3.989   1.560 -0.1447 -0.1092  0.2261
  933MPD2    H113651   4.039   3.709   1.487  0.3439 -2.0059 -0.4908
  933MPD2    H213652   4.416   3.562   1.592  0.5341  1.1433  4.0954
  933MPD2    H313653   4.185   3.531   1.528  0.6377 -0.0734  0.0709
  933MPD2     N13654   4.109   3.969   1.439 -0.2711  0.0242 -0.2720
  933MPD2    H513655   4.144   4.064   1.437  0.5740 -0.2928 -0.2553
  933MPD2    N113656   4.530   3.799   1.626  1.3460 -0.1650  0.3741
  933MPD2    H713657   4.596   3.723   1.643 -0.9334 -1.8788  1.4364
  934MPD2     C13658   0.964   0.924   2.398  0.6113  0.4733 -0.1283
  934MPD2    C113659   1.042   0.979   2.299  0.0368  1.0630 -0.0888
  934MPD2    C213660   1.022   0.947   2.166  0.0420  0.5426  0.0179
  934MPD2    C313661   0.905   0.885   2.129  0.6510  0.7731  0.0903
  934MPD2    C413662   0.823   0.834   2.227  0.8851  0.3203 -0.3691
  934MPD2    C513663   0.864   0.839   2.361 -0.0776  0.1231  0.1463
  934MPD2     H13664   1.089   0.983   2.089  2.7876 -3.4049  0.5448
  934MPD2    H113665   0.738   0.770   2.205  0.1608  1.1610 -0.0070
  934MPD2    H213666   0.989   0.923   2.503  1.7236  0.9359 -0.3787
  934MPD2    H313667   0.801   0.787   2.433  0.7659 -0.4632  0.4596
  934MPD2     N13668   0.874   0.846   1.999 -0.0536 -0.5570  0.3587
  934MPD2    H513669   0.780   0.808   1.985 -0.1913  0.0756 -0.4370
  934MPD2    N113670   1.158   1.063   2.322 -0.3095 -0.2240  0.0984
  934MPD2    H713671   1.215   1.087   2.242 -0.4860 -0.3853 -0.0748
  935MPD2     C13672   1.417   0.439   1.269 -1.1725 -0.2140  0.5193
  935MPD2    C113673   1.287   0.406   1.241 -0.2610  0.1664 -0.2745
  935MPD2    C213674   1.181   0.468   1.309  0.0291  0.1052  0.2425
  935MPD2    C313675   1.210   0.567   1.398 -0.8791  1.0172  0.3247
  935MPD2    C413676   1.336   0.606   1.418  0.5639  0.1811  0.4940
  935MPD2    C513677   1.435   0.546   1.348  0.5687  0.7630  0.0469
  935MPD2     H13678   1.081   0.439   1.277 -0.3184  0.8638  0.6373
  935MPD2    H113679   1.364   0.687   1.483 -1.3892 -0.3060  1.9418
  935MPD2    H213680   1.503   0.406   1.210 -0.9719 -0.0773  0.7363
  935MPD2    H313681   1.536   0.584   1.357  0.1840  1.3502  1.7933
  935MPD2     N13682   1.115   0.629   1.479 -0.2840 -0.1319 -0.1596
  935MPD2    H513683   1.151   0.708   1.532 -0.4190  0.4347 -0.9064
  935MPD2    N113684   1.254   0.308   1.141  0.1534 -0.3206 -0.0596
  935MPD2    H713685   1.154   0.292   1.130  0.2966  0.6958 -2.6306
  936MPD2     C13686   0.542   2.021  12.543  0.4954  0.0512 -0.0948
  936MPD2    C113687   0.562   2.024  12.682 -0.1667  0.0537 -0.2443
  936MPD2    C213688   0.690   2.026  12.726  0.3720 -0.3457  0.8515
  936MPD2    C313689   0.802   2.048  12.650  0.0745 -0.0805 -0.1757
  936MPD2    C413690   0.784   2.064  12.515 -0.6281 -0.4115  0.1093
  936MPD2    C513691   0.654   2.040  12.470  0.0200  0.4522 -0.6142
  936MPD2     H13692   0.704   1.997  12.830 -0.8016 -2.4036  0.4288
  936MPD2    H113693   0.864   2.070  12.443  1.3269  1.2758  2.4285
  936MPD2    H213694   0.446   2.020  12.494  1.5835 -0.9302 -2.2293
  936MPD2    H313695   0.643   2.038  12.362  0.7305 -0.8689 -0.6637
  936MPD2     N13696   0.930   2.064  12.709  0.7725 -0.0359  0.4871
  936MPD2    H513697   0.999   2.098  12.644 -0.6361  2.1205  0.1310
  936MPD2    N113698   0.470   2.001  12.787 -0.9616  0.3987  0.7078
  936MPD2    H713699   0.510   2.001  12.880  0.5483 -0.7128  0.0530
  937MPD2     C13700   3.156   3.340  11.691  0.2177 -0.6362 -0.2933
  937MPD2    C113701   3.155   3.476  11.650  0.0924 -0.2368 -0.0760
  937MPD2    C213702   3.224   3.505  11.536 -0.0145 -0.2656  0.4884
  937MPD2    C313703   3.309   3.412  11.469 -0.3054  0.2006  0.6565
  937MPD2    C413704   3.318   3.281  11.514  1.1688  0.0300  0.5848
  937MPD2    C513705   3.233   3.250  11.622 -0.8980  0.3414 -0.3379
  937MPD2     H13706   3.215   3.609  11.508 -2.0232 -0.8871 -1.1934
  937MPD2    H113707   3.385   3.205  11.475  0.1448 -1.2159  1.2482
  937MPD2    H213708   3.102   3.297  11.775 -1.1547  1.3104 -0.1690
  937MPD2    H313709   3.231   3.145  11.649 -0.7351  0.3838 -0.1604
  937MPD2     N13710   3.382   3.460  11.360 -0.2723 -0.0383 -0.1995
  937MPD2    H513711   3.376   3.556  11.328 -2.2911  0.1397  0.7557
  937MPD2    N113712   3.051   3.553  11.687 -0.6523  0.0471 -0.2120
  937MPD2    H713713   3.040   3.636  11.630 -0.6742  0.4689  0.4096
  938MPD2     C13714   4.427   0.323   0.620 -0.2459 -0.2059 -0.5972
  938MPD2    C113715   4.512   0.338   0.731 -0.1807  0.2638 -0.2297
  938MPD2    C213716   4.470   0.287   0.853 -0.4281 -0.6167  0.2709
  938MPD2    C313717   4.356   0.208   0.865 -0.1520  0.5730  0.2570
  938MPD2    C413718   4.268   0.200   0.752  0.5835 -0.2507 -0.8053
  938MPD2    C513719   4.302   0.261   0.636  0.3370  0.1734 -0.1805
  938MPD2     H13720   4.524   0.313   0.944 -0.9553  1.7815 -0.1123
  938MPD2    H113721   4.167   0.163   0.767  0.1208  0.7616 -1.3761
  938MPD2    H213722   4.448   0.351   0.518 -0.3018 -0.3788 -0.6569
  938MPD2    H313723   4.221   0.264   0.565 -0.1979  1.1980  0.4757
  938MPD2     N13724   4.307   0.150   0.986  0.5202  0.1906  0.3358
  938MPD2    H513725   4.216   0.104   0.987  0.5946  0.0438  0.4023
  938MPD2    N113726   4.632   0.406   0.722  0.0027  0.1574  0.1975
  938MPD2    H713727   4.702   0.392   0.794 -0.6912 -1.4281  0.5839
  939MPD2     C13728   1.035   1.571   1.000 -0.8318 -0.7075  0.6744
  939MPD2    C113729   0.989   1.680   0.923 -0.3356 -0.1697  0.2535
  939MPD2    C213730   1.055   1.708   0.803 -0.5433  0.2044  0.8886
  939MPD2    C313731   1.173   1.635   0.771  0.4003 -0.1685  0.5217
  939MPD2    C413732   1.215   1.532   0.846  0.6120 -0.5434  0.3686
  939MPD2    C513733   1.138   1.493   0.957 -0.3091 -0.4154 -0.8700
  939MPD2     H13734   1.015   1.787   0.740  0.5398 -0.3622 -0.5259
  939MPD2    H113735   1.305   1.477   0.822 -0.1003 -0.8485 -1.6007
  939MPD2    H213736   0.982   1.547   1.091  0.4237 -0.4194  1.4792
  939MPD2    H313737   1.158   1.401   1.012 -1.6849 -0.3380 -0.2276
  939MPD2     N13738   1.242   1.665   0.648  0.4310 -0.1054 -0.3710
  939MPD2    H513739   1.193   1.731   0.588 -0.4319 -0.0694  0.3816
  939MPD2    N113740   0.878   1.743   0.975 -0.0059 -0.2525  0.1783
  939MPD2    H713741   0.845   1.723   1.069 -0.8868 -0.0694 -0.0956
  940MPD2     C13742   0.319   1.654  12.720 -0.2771  0.1920  0.4315
  940MPD2    C113743   0.424   1.653  12.813 -0.1468 -0.6902  0.2624
  940MPD2    C213744   0.548   1.653  12.757 -0.3478 -0.7260 -0.2711
  940MPD2    C313745   0.574   1.665  12.621 -0.1844  0.4480 -0.6819
  940MPD2    C413746   0.471   1.656  12.531  0.1490  0.6394  0.3561
  940MPD2    C513747   0.344   1.654  12.582  0.3097  0.0438  0.1405
  940MPD2     H13748   0.638   1.677  12.814  0.9336 -1.0597 -2.1497
  940MPD2    H113749   0.487   1.644  12.425 -0.9525 -2.4780  0.5621
  940MPD2    H213750   0.216   1.650  12.753 -0.8276 -0.5409 -1.3926
  940MPD2    H313751   0.268   1.631  12.508  2.6769  0.6984 -2.4851
  940MPD2     N13752   0.701   1.690  12.563  0.0296 -0.3356 -0.1984
  940MPD2    H513753   0.701   1.683  12.462 -0.0821  0.9806 -0.2885
  940MPD2    N113754   0.403   1.658  12.957  0.4351  0.6306  0.1152
  940MPD2    H713755   0.480   1.686  13.016  0.3361  2.3828 -0.5782
  941MPD2     C13756   0.059   1.159   9.359 -0.1870 -0.2815 -0.5232
  941MPD2    C113757   0.180   1.093   9.328 -0.3016 -0.3343 -0.3687
  941MPD2    C213758   0.198   0.975   9.402 -0.0591  0.4385 -0.1668
  941MPD2    C313759   0.103   0.935   9.492 -0.3660  0.9532  0.2798
  941MPD2    C413760   4.704   0.997   9.511 -0.3244  0.1666  0.0653
  941MPD2    C513761   4.686   1.108   9.438 -0.1876 -0.5738 -0.5803
  941MPD2     H13762   0.285   0.916   9.379  0.0503  0.1491  1.0303
  941MPD2    H113763   4.632   0.953   9.579  0.0836 -1.1713 -0.3628
  941MPD2    H213764   0.031   1.245   9.298  0.2264 -0.2079 -0.6107
  941MPD2    H313765   4.588   1.153   9.432  1.9660  4.1203 -0.1684
  941MPD2     N13766   0.130   0.817   9.573  0.3934  0.1984 -0.0921
  941MPD2    H513767   0.066   0.798   9.649  0.6776  1.5697  0.4965
  941MPD2    N113768   0.285   1.150   9.247 -0.3761  0.4215  0.4623
  941MPD2    H713769   0.366   1.090   9.233 -0.6601 -0.2079  1.5137
  942MPD2     C13770   4.046   2.768  10.286 -0.3834  0.2944 -0.2718
  942MPD2    C113771   4.069   2.669  10.193 -0.0245  0.0592  0.2726
  942MPD2    C213772   4.200   2.624  10.164 -0.6916  0.3395  0.5656
  942MPD2    C313773   4.305   2.669  10.245 -0.1610  0.4548 -0.2827
  942MPD2    C413774   4.280   2.771  10.336  0.1283 -0.6039  0.4331
  942MPD2    C513775   4.153   2.822  10.356  0.1397 -0.1567  0.7668
  942MPD2     H13776   4.221   2.555  10.083  3.2272  2.2429 -0.0505
  942MPD2    H113777   4.357   2.824  10.391  0.9852 -2.5538  1.1038
  942MPD2    H213778   3.950   2.809  10.313 -0.9547 -1.1707 -0.0748
  942MPD2    H313779   4.140   2.905  10.424  1.7367  0.4424  0.3358
  942MPD2     N13780   4.438   2.634  10.220  0.2428 -0.6781 -0.0681
  942MPD2    H513781   4.511   2.691  10.262 -1.4277  0.3306  1.4710
  942MPD2    N113782   3.970   2.620  10.102 -0.5942  0.7484 -0.9618
  942MPD2    H713783   3.992   2.553  10.029  1.0106 -0.1547  0.3863
  943MPD2     C13784   3.684   0.730  10.056 -0.0664  0.0938 -0.5126
  943MPD2    C113785   3.746   0.724   9.937 -1.0730 -0.3444  0.8130
  943MPD2    C213786   3.739   0.829   9.849  0.1240 -0.3379  0.8541
  943MPD2    C313787   3.676   0.947   9.885 -0.0295 -0.5867  0.4080
  943MPD2    C413788   3.628   0.959  10.013  0.1028 -0.3092 -0.8215
  943MPD2    C513789   3.634   0.855  10.099  0.6319  0.3398  0.2048
  943MPD2     H13790   3.788   0.823   9.753 -1.6591 -0.3208 -0.0695
  943MPD2    H113791   3.577   1.047  10.050 -1.1124 -1.9187  1.3252
  943MPD2    H213792   3.678   0.644  10.121 -0.1179  0.0584 -0.5634
  943MPD2    H313793   3.583   0.865  10.193 -0.9678 -2.9565 -0.2938
  943MPD2     N13794   3.661   1.060   9.810 -0.0054 -0.0761  0.5962
  943MPD2    H513795   3.612   1.141   9.846 -2.5472 -1.9302  1.2841
  943MPD2    N113796   3.811   0.603   9.906 -0.2584 -0.1276 -0.4702
  943MPD2    H713797   3.807   0.529   9.975 -0.4015  1.8854  1.6502
  944MPD2     C13798   3.693   4.582  11.255  0.6082  0.7507  0.3681
  944MPD2    C113799   3.713   4.664  11.144  0.5119  0.0602 -0.1146
  944MPD2    C213800   3.631   0.057  11.132 -0.1866  0.3462  0.1261
  944MPD2    C313801   3.535   0.092  11.229  0.6529  0.3483 -0.1149
  944MPD2    C413802   3.521   0.006  11.341  0.4334  0.4268 -0.2195
  944MPD2    C513803   3.596   4.615  11.348 -0.2152 -0.4795  0.3166
  944MPD2     H13804   3.634   0.125  11.048  1.4387  0.6546  0.4372
  944MPD2    H113805   3.441   0.015  11.414  0.1147 -1.2496 -0.3680
  944MPD2    H213806   3.750   4.490  11.264 -1.5708 -0.5696  0.8470
  944MPD2    H313807   3.572   4.541  11.424 -2.2257 -0.0575  0.0914
  944MPD2     N13808   3.459   0.214  11.219 -0.1730  0.4735 -0.0060
  944MPD2    H513809   3.471   0.258  11.129  0.7353 -1.5726 -0.8950
  944MPD2    N113810   3.798   4.619  11.039  0.0901  0.2164  0.4356
  944MPD2    H713811   3.856   4.541  11.065  1.1357  0.9207  0.1948
    1TCq1    O113812   1.531   1.694  14.658 -0.3298  0.3818  0.9103
    1TCq1    C113813   1.602   1.723  14.552 -0.2737 -0.0965 -0.1327
    1TCq1    O213814   1.667   1.643  14.490  0.4108  0.0001 -0.1155
    1TCq1    C213815   1.521   1.828  14.485 -0.1208 -0.0422  0.1055
    1TCq1    C313816   1.522   1.945  14.558 -0.5099 -0.9903  0.2543
    1TCq1    C413817   1.466   2.050  14.500 -0.2881  0.0280 -0.6341
    1TCq1    C513818   1.433   2.066  14.364 -0.3006 -0.4056  0.3012
    1TCq1    C613819   1.446   1.946  14.298 -0.3090  0.0082  0.1451
    1TCq1    C713820   1.490   1.824  14.355  0.5498 -0.8104  0.2974
    1TCq1    C813821   1.395   1.926  14.169  0.1318  0.3260 -0.0243
    1TCq1    O413822   1.405   1.814  14.117  0.4504 -0.5872  0.5083
    1TCq1    C913823   1.444   2.170  14.579 -0.0431 -0.9026 -1.1730
    1TCq1    O513824   1.387   2.268  14.535 -0.3137 -0.2247 -0.0376
    1TCq1    O613825   1.486   2.167  14.697  0.0881  0.1145 -0.5687
    1TCq1    H113826   1.467   1.765  14.681  1.2998  1.8376  0.9764
    1TCq1    H213827   1.562   1.949  14.659  1.1420 -2.3567 -0.3575
    1TCq1    H313828   1.398   2.156  14.316  0.8929  1.3311  2.6679
    1TCq1    H413829   1.498   1.730  14.302 -0.3928  1.0098 -3.0664
    2MPD2     C13830   1.140   2.077  13.759 -0.1323 -0.5808  0.2357
    2MPD2    C113831   1.155   2.191  13.833 -0.1960  0.0792 -0.6151
    2MPD2    C213832   1.224   2.174  13.954 -0.5324 -0.2009  0.0453
    2MPD2    C313833   1.270   2.054  13.998 -0.4311  0.2138 -0.0888
    2MPD2    C413834   1.236   1.942  13.927  0.4441 -0.2393 -0.4445
    2MPD2    C513835   1.172   1.952  13.808  0.0073 -0.3613  0.4494
    2MPD2     H13836   1.244   2.263  14.012 -0.2860 -0.3101  0.1307
    2MPD2    H113837   1.261   1.841  13.957 -1.6612 -0.9161 -1.0069
    2MPD2    H213838   1.088   2.074  13.664  0.8100 -2.2722 -0.2190
    2MPD2    H313839   1.152   1.860  13.756 -0.3461 -0.9410  1.6130
    2MPD2     N13840   1.342   2.041  14.122 -0.2149  0.3776 -0.3706
    2MPD2    H513841   1.352   2.130  14.170 -2.6493  0.9677 -0.9357
    2MPD2    N113842   1.110   2.309  13.775  0.0984 -0.3636 -0.6573
    2MPD2    H713843   1.055   2.293  13.691 -0.1780  0.6881 -0.6674
    3TMC2    C113844   1.047   2.533  13.769 -0.5815 -0.2163  0.2093
    3TMC2    C213845   0.922   2.486  13.734 -1.0428 -1.1353  0.4469
    3TMC2    C313846   0.823   2.581  13.753 -0.2307 -0.9377  0.3274
    3TMC2    C413847   1.086   2.660  13.807 -0.1642 -0.4018  0.1510
    3TMC2    C513848   0.985   2.749  13.802  0.3914 -0.0130 -0.2897
    3TMC2    C613849   0.854   2.710  13.779  0.4192  0.0189  0.0196
    3TMC2     C13850   1.139   2.430  13.817  0.2205  0.3522 -0.4249
    3TMC2     O13851   1.230   2.459  13.888 -0.4692  0.0578 -0.7269
    3TMC2     H13852   0.892   2.383  13.720  0.1214 -1.4178  0.0141
    3TMC2    H113853   1.188   2.687  13.829  0.1485 -1.4837  0.0271
    3TMC2    H213854   0.782   2.791  13.782  0.3689 -0.0025 -0.6350
    3TMC2    C713855   1.014   2.888  13.847  0.2786  1.5786  0.1440
    3TMC2    C813856   0.701   2.552  13.684  0.1671  0.6885 -0.2205
    3TMC2    O113857   0.921   2.940  13.914 -0.2125 -0.0357 -0.1489
    3TMC2    O213858   0.652   2.440  13.673 -0.2883  0.3493  0.3842
    3TMC2    O513859   0.674   2.653  13.597 -0.2612 -0.0461 -0.6152
    3TMC2    H513860   0.721   2.736  13.616  0.2150 -0.0970 -1.5799
    4MPD2     C13861   1.805   2.962  12.809 -0.5738  0.0716 -1.0083
    4MPD2    C113862   1.672   2.981  12.861 -0.9751 -0.5862 -0.1813
    4MPD2    C213863   1.646   3.055  12.980  0.9347  0.0682 -0.2363
    4MPD2    C313864   1.752   3.114  13.052 -0.0881 -0.3595 -0.1041
    4MPD2    C413865   1.879   3.110  12.989  1.0345  0.1663 -0.9657
    4MPD2    C513866   1.905   3.031  12.880  0.4510  0.0154  0.6538
    4MPD2     H13867   1.546   3.059  13.024  1.1259 -0.1535  0.2245
    4MPD2    H113868   1.966   3.151  13.039  0.2536 -0.0803  0.6161
    4MPD2    H213869   1.835   2.899  12.726  0.6096  0.7957 -1.1214
    4MPD2    H313870   2.009   3.014  12.857  0.3195 -0.2976  0.2923
    4MPD2     N13871   1.729   3.172  13.178 -0.0154 -0.2670 -0.4525
    4MPD2    H513872   1.636   3.172  13.217 -1.4760 -0.9621 -3.9081
    4MPD2    N113873   1.558   2.919  12.789  0.4597  0.7529  0.6682
    4MPD2    H713874   1.583   2.883  12.697 -0.4035 -0.7007  1.0024
    5TCq2    C113875   1.835   3.216  13.258  0.2395  0.5059 -0.4911
    5TCq2    O213876   1.957   3.215  13.239 -0.3028 -0.1217 -0.2624
    5TCq2    C213877   1.787   3.277  13.382 -0.2130  0.9468  0.2554
    5TCq2    C313878   1.839   3.394  13.426 -0.5015 -0.8767 -1.0544
    5TCq2    C413879   1.769   3.454  13.526  0.1618 -0.0373 -0.8280
    5TCq2    C513880   1.650   3.407  13.576 -0.3643  0.2621  0.0074
    5TCq2    C613881   1.606   3.290  13.526 -0.2936 -0.0239  0.2968
    5TCq2    C713882   1.673   3.221  13.431 -0.2831  0.0453 -0.0636
    5TCq2    C813883   1.488   3.234  13.580  0.7276 -0.5947  0.3620
    5TCq2    O413884   1.462   3.123  13.535  0.3250  0.1790  0.2256
    5TCq2    C913885   1.819   3.583  13.581  0.9004  0.6608 -0.1281
    5TCq2    O513886   1.730   3.662  13.622 -0.1823  0.2876  0.5650
    5TCq2    O613887   1.932   3.625  13.551 -0.3244 -0.6397  0.0030
    5TCq2    H213888   1.926   3.433  13.375 -0.3452  0.7166  0.4410
    5TCq2    H313889   1.596   3.471  13.644 -0.6345 -1.3488  1.3009
    5TCq2    H413890   1.642   3.120  13.408 -0.7140 -0.1770  1.5075
    6MPD1     C13891   4.650   3.206  11.708  0.0295 -0.8341  0.0576
    6MPD1    C113892   0.026   3.150  11.628 -0.9209 -0.1075 -0.3028
    6MPD1    C213893   0.162   3.130  11.665  0.3754 -0.3911 -0.8946
    6MPD1    C313894   0.194   3.178  11.791  0.3975 -0.4942  0.3721
    6MPD1    C413895   0.094   3.236  11.871 -0.0328 -0.1534 -0.6886
    6MPD1    C513896   4.687   3.251  11.834  0.0157  0.2403 -0.2393
    6MPD1     H13897   0.240   3.090  11.601  1.1491  0.5576 -0.5444
    6MPD1    H113898   0.118   3.264  11.973  0.8010 -3.3329  0.0047
    6MPD1    H213899   4.547   3.211  11.673  0.3744 -4.6028 -1.4786
    6MPD1    H313900   4.615   3.280  11.909 -0.2762 -2.5827  0.6023
    6MPD1     N13901   0.318   3.151  11.859 -0.3570 -0.1092  0.6020
    6MPD1    H513902   0.321   3.190  11.953 -2.9484 -0.2094  0.7147
    6MPD1    N113903   4.710   3.115  11.498  0.1205  0.0784  0.4534
    6MPD1    H613904   4.614   3.138  11.476 -0.4625 -2.4296  0.4440
    6MPD1    H713905   4.722   3.015  11.482 -1.3614  0.2956 -1.9219
    7MPD2     C13906   0.684   3.169  12.543 -0.3315  0.6681  0.0386
    7MPD2    C113907   0.709   3.055  12.475 -0.5622 -0.1543 -0.1277
    7MPD2    C213908   0.791   2.959  12.533  0.3485 -0.0575  0.7837
    7MPD2    C313909   0.849   2.978  12.656 -0.1578 -0.4270 -0.4564
    7MPD2    C413910   0.810   3.087  12.733 -0.1337  0.3524  0.2290
    7MPD2    C513911   0.734   3.189  12.673  0.3183  0.3165  0.3661
    7MPD2     H13912   0.816   2.876  12.468 -1.0276 -0.6303  0.9925
    7MPD2    H113913   0.841   3.118  12.833  2.0591 -1.5970  0.1437
    7MPD2    H213914   0.629   3.253  12.502  0.8386  0.7949 -1.2949
    7MPD2    H313915   0.709   3.279  12.729  1.1500 -1.1786  3.1438
    7MPD2     N13916   0.943   2.889  12.713 -0.4085  0.6192  0.4179
    7MPD2    H513917   0.984   2.918  12.801  1.2563  0.4652 -0.3160
    7MPD2    N113918   0.672   3.034  12.340 -0.6098 -0.8777 -0.3660
    7MPD2    H713919   0.696   2.942  12.305  1.0139 -0.6700  0.2022
    8TMC3    C113920   1.137   2.759  12.667 -0.2841  0.2255 -0.8760
    8TMC3    C213921   1.216   2.851  12.734 -0.6011  1.0775 -0.0802
    8TMC3    C313922   1.347   2.850  12.711  0.3404  0.4131  0.8463
    8TMC3    C413923   1.189   2.663  12.583  0.1849 -0.0357  0.3078
    8TMC3    C513924   1.322   2.668  12.551  0.1751  0.6145  0.1552
    8TMC3    C613925   1.400   2.764  12.617  0.2710 -0.7863  0.0674
    8TMC3     C13926   0.996   2.781  12.640  0.3213 -0.5279  0.0732
    8TMC3     O13927   0.938   2.709  12.555 -0.4589  0.0030 -0.0567
    8TMC3     H13928   1.173   2.911  12.813  1.0221  0.0234  1.6031
    8TMC3    H113929   1.119   2.590  12.544  0.6384 -0.0214 -0.5297
    8TMC3    H213930   1.507   2.760  12.597  0.1268  1.6252 -1.2656
    8TMC3    C713931   1.341   2.656  12.408 -0.1302  0.0410 -0.1443
    8TMC3    C813932   1.421   2.919  12.816 -0.1211 -0.0927 -0.1810
    8TMC3    O113933   1.454   2.660  12.361  0.7798 -0.0422 -0.2758
    8TMC3    O213934   1.362   2.966  12.908 -0.2228  0.0083 -0.3835
    9TMC3    C113935   0.519   3.045  11.908 -0.2719  0.3594  0.3208
    9TMC3    C213936   0.629   2.978  11.870  0.2784 -0.1780  0.5265
    9TMC3    C313937   0.724   2.946  11.961  0.3565 -0.4235 -0.4481
    9TMC3    C413938   0.505   3.095  12.036 -0.2398 -0.1203  0.2055
    9TMC3    C513939   0.612   3.072  12.118 -1.0350  0.7416  0.3550
    9TMC3    C613940   0.714   2.997  12.088 -0.3643  0.1468  0.5750
    9TMC3     C13941   0.420   3.072  11.813 -0.4206  0.1021  0.5122
    9TMC3     O13942   0.434   3.022  11.701 -0.5281  0.3148 -0.1885
    9TMC3     H13943   0.648   2.933  11.772 -2.2612 -0.5237  0.1870
    9TMC3    H113944   0.428   3.164  12.069  0.2935  0.2383  0.6883
    9TMC3    H213945   0.804   3.000  12.147  0.4743  1.1962 -0.7387
    9TMC3    C713946   0.601   3.117  12.255  0.1566  0.0469 -0.2275
    9TMC3    C813947   0.839   2.860  11.920 -0.7612 -0.4270  0.9499
    9TMC3    O113948   0.540   3.217  12.287 -0.8670  0.2266 -0.1671
    9TMC3    O213949   0.865   2.864  11.798 -0.3602 -0.2835  0.2616
   10MPD2     C13950   1.300   2.705  12.114 -0.0535 -0.3087 -0.1869
   10MPD2    C113951   1.201   2.713  12.213 -0.0064  0.0044  0.0769
   10MPD2    C213952   1.076   2.767  12.180 -0.8075  0.7864  0.0022
   10MPD2    C313953   1.037   2.795  12.053 -0.4237  0.4851 -0.0048
   10MPD2    C413954   1.131   2.786  11.955  0.7147  0.5167 -0.7289
   10MPD2    C513955   1.259   2.741  11.987  0.6609  0.3236  0.0746
   10MPD2     H13956   0.999   2.777  12.256  0.8718 -0.5143  1.8610
   10MPD2    H113957   1.109   2.811  11.852 -0.2947  0.1769 -0.5969
   10MPD2    H213958   1.402   2.682  12.143 -0.1665  0.6498  0.9556
   10MPD2    H313959   1.332   2.743  11.908  0.1083 -0.2131 -0.4429
   10MPD2     N13960   0.904   2.824  12.031 -0.3336 -0.2235  0.4638
   10MPD2    H513961   0.848   2.826  12.115 -4.4227  0.4511 -2.2422
   10MPD2    N113962   1.223   2.684  12.350  0.5337  0.1093 -0.0806
   10MPD2    H713963   1.139   2.698  12.405  0.6447  1.3240 -0.2199
   11MPD2     C13964   1.152   3.137  13.952 -0.0590 -0.2064 -0.3414
   11MPD2    C113965   1.187   3.066  13.839 -0.3787  0.5299 -0.7523
   11MPD2    C213966   1.297   3.104  13.767  0.0803  0.8266  0.1818
   11MPD2    C313967   1.352   3.234  13.786  0.0395  0.1097  0.5289
   11MPD2    C413968   1.311   3.310  13.893 -0.0109 -0.5446 -0.3205
   11MPD2    C513969   1.214   3.260  13.976  0.2925  0.1881  0.3455
   11MPD2     H13970   1.330   3.033  13.693 -0.7323  0.7393 -0.1044
   11MPD2    H113971   1.342   3.413  13.905 -2.3227 -0.2884  3.7690
   11MPD2    H213972   1.075   3.096  14.016  2.6638 -0.7069  2.6034
   11MPD2    H313973   1.186   3.323  14.059 -1.6582 -0.7037  0.3538
   11MPD2     N13974   1.446   3.297  13.696 -0.2567  0.0909 -0.5875
   11MPD2    H513975   1.474   3.390  13.724  0.3950  0.4163 -2.2980
   11MPD2    N113976   1.139   2.936  13.808  0.1821  0.0322 -0.0286
   11MPD2    H713977   1.201   2.881  13.749 -0.7921 -1.5720  0.4552
    1MPD1     C13978   1.068   3.446  17.487 -0.0314  0.6117  0.7192
    1MPD1    C113979   1.072   3.316  17.522  0.4000  0.4400  0.5891
    1MPD1    C213980   0.968   3.241  17.475 -0.6267  0.5983  0.1969
    1MPD1    C313981   0.878   3.286  17.375  0.0786 -0.1641  0.2551
    1MPD1    C413982   0.898   3.412  17.328 -0.4880 -0.4604 -0.0418
    1MPD1    C513983   0.997   3.484  17.386 -0.7069  0.0841  0.6498
    1MPD1     H13984   0.952   3.140  17.510  0.0649  0.5564  0.3951
    1MPD1    H113985   0.838   3.456  17.249 -1.3582 -1.0590  0.2956
    1MPD1    H213986   1.121   3.524  17.540  2.4083  0.9192 -2.1853
    1MPD1    H313987   1.018   3.580  17.341  0.6527  0.0752  1.2622
    1MPD1     N13988   0.766   3.220  17.334 -0.5155 -0.3346 -0.7814
    1MPD1    H513989   0.701   3.258  17.266  1.2291  1.7164 -1.2973
    1MPD1    N113990   1.154   3.265  17.622 -0.8086  0.2291  0.8136
    1MPD1    H613991   1.233   3.324  17.645 -2.3097  2.3115  0.6095
    1MPD1    H713992   1.186   3.169  17.609  0.0578  0.6126  0.1748
    2MPD1     C13993   0.359   3.522  16.717  0.4961  0.1797  0.3176
    2MPD1    C113994   0.403   3.572  16.838  0.6602  0.0109 -0.5207
    2MPD1    C213995   0.429   3.473  16.935  0.7694 -0.2678  0.2579
    2MPD1    C313996   0.397   3.340  16.910 -0.6328 -0.0907 -0.2750
    2MPD1    C413997   0.354   3.293  16.796 -0.4783 -0.2465 -0.2294
    2MPD1    C513998   0.326   3.389  16.699 -0.6168  0.5897 -0.0600
    2MPD1     H13999   0.478   3.496  17.029  0.2126  1.6474  0.0981
    2MPD1    H114000   0.343   3.188  16.771  2.0897 -0.6695  0.4109
    2MPD1    H214001   0.337   3.584  16.631 -0.0084  0.9132  0.9675
    2MPD1    H314002   0.278   3.376  16.603  0.1835  0.1092 -0.3960
    2MPD1     N14003   0.419   3.257  17.017  0.0040 -0.1877 -0.0944
    2MPD1    H514004   0.469   3.300  17.094 -0.9488 -1.6094  1.3171
    2MPD1    N114005   0.435   3.706  16.858 -0.9011  0.4886  0.0529
    2MPD1    H614006   0.382   3.767  16.796  0.0048  1.7377  0.4871
    2MPD1    H714007   0.415   3.740  16.952  0.3412 -3.1141  1.6062
    3TMC3    C114008   0.453   3.059  17.147  0.5952  0.2414 -0.0423
    3TMC3    C214009   0.394   2.942  17.188 -0.0805  0.5314 -0.1200
    3TMC3    C314010   0.460   2.874  17.288 -0.0454 -0.7426 -0.1358
    3TMC3    C414011   0.562   3.113  17.202 -0.2023  0.0473  0.0207
    3TMC3    C514012   0.623   3.039  17.304 -0.2139 -0.1703  0.5325
    3TMC3    C614013   0.574   2.919  17.350  0.3995  0.4294  0.4687
    3TMC3     C14014   0.394   3.120  17.027 -0.5271  0.1421  1.1027
    3TMC3     O14015   0.313   3.053  16.965 -0.0389  0.3090  0.1681
    3TMC3     H14016   0.305   2.900  17.141 -0.0994  1.9920 -1.3985
    3TMC3    H114017   0.606   3.199  17.153 -1.2991 -0.7556 -2.3529
    3TMC3    H214018   0.630   2.859  17.419 -1.2541 -0.0668  1.3863
    3TMC3    C714019   0.742   3.089  17.366 -0.1357 -0.3384  1.0148
    3TMC3    C814020   0.412   2.745  17.331 -0.3275  0.4742  0.6345
    3TMC3    O114021   0.810   3.011  17.437  0.2615 -0.1346  0.4029
    3TMC3    O214022   0.348   2.682  17.249 -0.0319 -0.2346  0.0075
    4MPD1     C14023   0.435   2.329  17.628 -0.6719  0.0941 -0.5674
    4MPD1    C114024   0.473   2.439   0.013  0.0911  0.2946  0.2125
    4MPD1    C214025   0.472   2.564  17.641  0.3407 -0.5684  0.4662
    4MPD1    C314026   0.423   2.587  17.515  0.0743 -0.8665  0.4772
    4MPD1    C414027   0.370   2.482  17.452 -0.2786  0.3208  0.3684
    4MPD1    C514028   0.380   2.358  17.510 -0.1500 -0.1637  0.2318
    4MPD1     H14029   0.511   2.650   0.002  1.3734 -0.3610 -0.6460
    4MPD1    H114030   0.333   2.495  17.351 -0.4029 -0.0092  0.3732
    4MPD1    H214031   0.446   2.227  17.664 -0.1574  0.7682  1.1800
    4MPD1    H314032   0.352   2.276  17.444  0.3095 -1.7530  2.0007
    4MPD1     N14033   0.448   2.712  17.454 -0.0469  0.1203 -0.1423
    4MPD1    H514034   0.496   2.781  17.510  0.1647 -0.3241  0.2284
    4MPD1    N114035   0.551   2.413   0.127 -0.1366  0.0744 -0.1264
    4MPD1    H614036   0.551   2.491   0.193  0.7093  1.0139 -1.2371
    4MPD1    H714037   0.512   2.330   0.172  1.1516 -0.2226  0.4581
    1TCq1    O114038   0.422   3.318  10.888 -0.5197 -0.2040  0.4265
    1TCq1    C114039   0.534   3.253  10.923  0.2844  0.2509 -0.2758
    1TCq1    O214040   0.545   3.158  10.999 -0.4142  0.8083  0.3667
    1TCq1    C214041   0.619   3.263  10.806 -0.4488 -0.0010  0.8095
    1TCq1    C314042   0.714   3.168  10.801 -0.1692  0.5611 -0.0825
    1TCq1    C414043   0.791   3.161  10.688 -0.1864  0.2264  0.0226
    1TCq1    C514044   0.766   3.245  10.583  0.0374 -0.6732 -0.0444
    1TCq1    C614045   0.690   3.362  10.604  0.2655 -0.1640  0.0988
    1TCq1    C714046   0.613   3.368  10.714  0.2971  0.2319  0.3551
    1TCq1    C814047   0.728   3.488  10.548 -0.4183 -0.5963  0.0851
    1TCq1    O414048   0.654   3.582  10.574  0.3661  0.1650 -0.2040
    1TCq1    C914049   0.855   3.037  10.660 -0.1088  0.6342 -0.2789
    1TCq1    O514050   0.895   3.011  10.543  0.1481 -0.1009  0.0136
    1TCq1    O614051   0.898   2.976  10.761  0.9713 -0.1337 -0.2253
    1TCq1    H114052   0.434   3.382  10.815  0.3105 -1.3989 -0.4858
    1TCq1    H214053   0.709   3.073  10.853  0.5958  0.5008 -0.1135
    1TCq1    H314054   0.826   3.228  10.495  1.5939  2.0752  0.4891
    1TCq1    H414055   0.561   3.458  10.745 -0.8642  0.2290 -1.6004
    2MPD1     C14056   1.082   3.768  10.305 -0.6814  0.0806 -0.1477
    2MPD1    C114057   1.113   3.640  10.290  0.5981 -0.6257 -0.1992
    2MPD1    C214058   1.030   3.542  10.348  0.2659 -0.7075 -0.1143
    2MPD1    C314059   0.917   3.581  10.412  0.2049  1.0380  0.5315
    2MPD1    C414060   0.885   3.715  10.414  0.4439 -0.2610 -0.0174
    2MPD1    C514061   0.960   3.809  10.357  0.3307 -0.6704 -0.0788
    2MPD1     H14062   1.053   3.436  10.348  0.7783 -0.5906  1.0753
    2MPD1    H114063   0.797   3.746  10.470  1.2130 -1.4722  1.8503
    2MPD1    H214064   1.142   3.840  10.251  0.8526 -0.5397  0.7460
    2MPD1    H314065   0.941   3.916  10.364  2.6587 -0.3554  1.5149
    2MPD1     N14066   0.843   3.472  10.473  0.1201 -0.0225 -0.2668
    2MPD1    H514067   0.877   3.377  10.463 -1.1922 -0.3293 -1.8240
    2MPD1    N114068   1.222   3.599  10.209 -0.0643 -0.4031 -0.6147
    2MPD1    H614069   1.223   3.498  10.201 -1.9319 -0.6592  2.4008
    2MPD1    H714070   1.208   3.638  10.116 -0.3843  0.9119 -0.0142
    1TCq1    O114071   4.222   4.217   9.272  0.0536 -0.3873  0.0548
    1TCq1    C114072   4.086   4.215   9.248  0.7302 -0.1363 -0.3901
    1TCq1    O214073   4.035   4.214   9.138 -0.0758  0.0951  0.2809
    1TCq1    C214074   4.039   4.124   9.351  0.2448  0.4251  0.3970
    1TCq1    C314075   3.961   4.016   9.306  0.4748 -0.3570 -0.1587
    1TCq1    C414076   3.936   3.918   9.404  0.0741 -0.5182 -0.1215
    1TCq1    C514077   3.978   3.935   9.537 -0.5549 -0.4456 -0.1212
    1TCq1    C614078   4.055   4.043   9.568 -0.3820  0.5304 -0.6909
    1TCq1    C714079   4.093   4.139   9.475  0.0875  0.4421  0.2722
    1TCq1    C814080   4.135   4.058   9.684  0.0886  0.0775  0.3819
    1TCq1    O414081   4.238   4.124   9.688 -0.3692  0.6915 -0.0460
    1TCq1    C914082   3.927   3.782   9.358 -0.9866 -0.4212  0.8918
    1TCq1    O514083   3.926   3.695   9.449  0.2836 -0.1266 -0.3961
    1TCq1    O614084   3.951   3.757   9.233 -0.3141  0.6310  0.3378
    1TCq1    H114085   4.248   4.201   9.365 -3.7841  3.8282  1.9037
    1TCq1    H214086   3.961   3.997   9.200  1.5739  2.5103 -0.6714
    1TCq1    H314087   3.975   3.853   9.607  1.1764 -0.1089  0.3446
    1TCq1    H414088   4.149   4.222   9.517 -2.5189  0.9117  2.8164
    2MPD1     C14089   4.161   4.031  10.203 -0.2656  0.0250 -0.1127
    2MPD1    C114090   4.038   3.974  10.161  0.5209 -0.6104 -0.2877
    2MPD1    C214091   4.015   3.966  10.027  0.8279  0.2223 -0.0466
    2MPD1    C314092   4.101   4.015   9.933  0.5601  0.6380 -0.1677
    2MPD1    C414093   4.223   4.064   9.976  0.4834  0.6919  0.1658
    2MPD1    C514094   4.248   4.084  10.106  0.6342 -0.2356 -0.1935
    2MPD1     H14095   3.922   3.915  10.004  0.6114 -0.1780  1.7540
    2MPD1    H114096   4.302   4.106   9.914  1.2975  3.4310  3.0671
    2MPD1    H214097   4.182   4.045  10.308 -0.9100  1.2982 -0.1536
    2MPD1    H314098   4.341   4.132  10.136 -0.6244  1.2613  1.2956
    2MPD1     N14099   4.064   4.003   9.794 -0.1255 -0.1304  0.0237
    2MPD1    H514100   3.971   3.966   9.778 -0.0558 -0.1872 -0.2379
    2MPD1    N114101   3.943   3.913  10.251  0.4579  0.0096 -0.0676
    2MPD1    H614102   3.846   3.934  10.227  0.4788  1.7172  1.3651
    2MPD1    H714103   3.964   3.952  10.342 -3.0822 -1.6615  1.4568
    1MPD1     C14104   1.780   2.589  11.905 -0.8992 -0.0469 -0.6462
    1MPD1    C114105   1.895   2.548  11.842 -0.0601  0.1506 -0.1409
    1MPD1    C214106   1.991   2.650  11.822 -0.2188  0.9866 -0.1040
    1MPD1    C314107   1.966   2.779  11.851  0.5410  0.5466 -0.2986
    1MPD1    C414108   1.851   2.818  11.909 -0.1340 -0.0564 -0.0681
    1MPD1    C514109   1.758   2.721  11.927 -0.1223  0.2939 -1.1774
    1MPD1     H14110   2.082   2.616  11.774 -0.5167  1.9284 -1.3619
    1MPD1    H114111   1.814   2.920  11.914 -0.9840 -0.2944 -1.3931
    1MPD1    H214112   1.703   2.521  11.939 -0.4076  0.7857  2.1480
    1MPD1    H314113   1.659   2.749  11.960  1.3500  1.3639  2.2908
    1MPD1     N14114   2.067   2.875  11.822  0.2890  0.7837 -0.2486
    1MPD1    H514115   2.155   2.834  11.790 -0.8422 -2.1757  0.4051
    1MPD1    N114116   1.930   2.411  11.827 -0.4635  0.0051  0.0176
    1MPD1    H614117   1.852   2.346  11.835  0.5211 -1.3574 -1.7336
    1MPD1    H714118   1.975   2.396  11.737  0.6251 -0.6358  0.6785
    2MPD1     C14119   1.872   3.702  10.814 -0.6326 -0.6682 -0.0420
    2MPD1    C114120   1.777   3.607  10.817 -0.2265 -0.0182 -0.0238
    2MPD1    C214121   1.811   3.480  10.860  0.4470  0.5192  0.2092
    2MPD1    C314122   1.946   3.455  10.902  0.0635 -0.2695  0.2118
    2MPD1    C414123   2.034   3.560  10.915 -0.1772 -0.0476 -0.1743
    2MPD1    C514124   1.995   3.685  10.868 -0.4330 -0.1061  0.2200
    2MPD1     H14125   1.739   3.400  10.867 -1.3224  1.9977 -1.3226
    2MPD1    H114126   2.135   3.550  10.953 -1.1090  2.2211  2.9078
    2MPD1    H214127   1.848   3.804  10.785  2.0032  0.0083  0.2174
    2MPD1    H314128   2.076   3.757  10.872  0.3938 -0.9880 -0.8569
    2MPD1     N14129   1.988   3.327  10.958 -0.0430 -1.2131  0.5532
    2MPD1    H514130   2.087   3.318  10.981  0.6912  1.2461 -1.6282
    2MPD1    N114131   1.662   3.615  10.747  0.1155  0.0295  0.5888
    2MPD1    H614132   1.625   3.708  10.730  0.8776  0.6073  2.0415
    2MPD1    H714133   1.592   3.543  10.769 -0.7050  0.3014 -1.1334
    3MPD1     C14134   1.647   2.360  10.835 -0.6467  0.3342  0.4496
    3MPD1    C114135   1.667   2.385  10.972 -0.0273  0.1280  0.2776
    3MPD1    C214136   1.730   2.502  10.998  0.5094  0.1252  0.2773
    3MPD1    C314137   1.790   2.578  10.901 -0.1501  0.6602 -0.0960
    3MPD1    C414138   1.763   2.559  10.769 -0.0323 -1.0101 -1.1075
    3MPD1    C514139   1.709   2.439  10.737 -0.5223 -1.3560 -0.7814
    3MPD1     H14140   1.748   2.521  11.104 -3.0996 -1.0641  1.1190
    3MPD1    H114141   1.795   2.621  10.686 -2.0042 -0.8782 -1.7696
    3MPD1    H214142   1.592   2.273  10.801  0.0508  0.8443 -1.9463
    3MPD1    H314143   1.674   2.425  10.636 -2.0458 -1.3692 -0.2568
    3MPD1     N14144   1.862   2.695  10.941 -0.2494 -0.1414 -0.4083
    3MPD1    H514145   1.869   2.713  11.040  3.6765 -3.6080 -0.0440
    3MPD1    N114146   1.593   2.309  11.067 -0.1257 -0.2347 -0.0139
    3MPD1    H614147   1.650   2.308  11.151  0.3232  0.6555 -0.2966
    3MPD1    H714148   1.567   2.214  11.042 -3.8415  0.0655  2.8108
    4MPD2     C14149   2.508   3.567  11.614  0.3679 -0.4616 -0.0684
    4MPD2    C114150   2.556   3.443  11.655  0.7855  0.5323 -0.0120
    4MPD2    C214151   2.670   3.399  11.597 -0.0136 -0.6048 -0.7064
    4MPD2    C314152   2.734   3.454  11.489  0.0994 -0.3616  1.0710
    4MPD2    C414153   2.684   3.577  11.446 -0.5158 -0.0889 -0.2196
    4MPD2    C514154   2.578   3.633  11.512  0.0650 -0.5359  0.1525
    4MPD2     H14155   2.698   3.299  11.627 -0.7312 -0.9948 -1.3370
    4MPD2    H114156   2.725   3.638  11.367 -0.9373 -0.7844 -0.9667
    4MPD2    H214157   2.416   3.610  11.653  0.4260 -0.4809  0.0885
    4MPD2    H314158   2.529   3.721  11.475  1.6976  0.0684 -0.5548
    4MPD2     N14159   2.849   3.387  11.432  0.3850 -0.0823 -0.1616
    4MPD2    H514160   2.888   3.310  11.487 -0.6801 -0.1041  0.5860
    4MPD2    N114161   2.484   3.351  11.738  0.1181  0.6727  0.9686
    4MPD2    H714162   2.537   3.265  11.750 -0.3862  0.2448  0.1024
    5TMC3    C114163   2.323   3.251  11.874 -0.0671 -0.1005 -0.2406
    5TMC3    C214164   2.206   3.189  11.853  0.4555 -0.3199 -0.5525
    5TMC3    C314165   2.194   3.054  11.836  0.7774  0.1052 -0.2436
    5TMC3    C414166   2.430   3.171  11.900  0.4681 -0.2511 -0.2206
    5TMC3    C514167   2.421   3.042  11.857 -0.8514 -0.7750  0.2934
    5TMC3    C614168   2.305   2.978  11.824 -0.0021  0.2137 -0.6965
    5TMC3     C14169   2.357   3.367  11.791  0.2719 -0.4117 -0.0682
    5TMC3     O14170   2.257   3.425  11.755 -0.1608  0.0491  0.1301
    5TMC3     H14171   2.119   3.252  11.843  1.3163  0.8956 -0.3438
    5TMC3    H114172   2.525   3.214  11.929 -0.1727 -0.1991  1.8322
    5TMC3    H214173   2.306   2.884  11.771 -2.3002  0.8901 -1.9298
    5TMC3    C714174   2.542   3.001  11.793 -1.6773 -0.1657  0.4672
    5TMC3    C814175   2.061   3.000  11.854  0.4600  0.9095  0.0190
    5TMC3    O114176   2.615   3.097  11.759  0.1287  0.2777 -0.3004
    5TMC3    O214177   1.981   3.080  11.904  0.2747 -0.5823 -0.8607
    6TMC3    C114178   1.994   3.099  11.017  0.2141 -0.4205  0.2609
    6TMC3    C214179   1.935   2.979  10.987  0.0908 -0.5934 -0.3733
    6TMC3    C314180   2.004   2.890  10.911 -0.6199 -0.0098  0.0511
    6TMC3    C414181   2.132   3.103  11.004  0.1252  0.4533 -0.8106
    6TMC3    C514182   2.199   2.994  10.948  0.4675 -0.8601 -0.7480
    6TMC3    C614183   2.137   2.889  10.889  0.5738  0.5110 -0.6179
    6TMC3     C14184   1.915   3.212  10.974 -0.8596  0.2176 -0.1926
    6TMC3     O14185   1.797   3.213  11.012  0.4171 -0.4367  0.0014
    6TMC3     H14186   1.828   2.975  10.973 -0.0774  1.4190  0.3970
    6TMC3    H114187   2.183   3.188  11.047 -0.2835  0.6582 -0.7318
    6TMC3    H214188   2.192   2.816  10.831  1.8485  0.4311  0.6946
    6TMC3    C714189   2.344   2.980  10.966 -0.0204 -0.2995 -0.2726
    6TMC3    C814190   1.940   2.774  10.853 -0.3379 -0.4340  0.2133
    6TMC3    O114191   2.413   3.081  10.988  0.2789  0.2100 -0.1708
    6TMC3    O214192   1.991   2.738  10.748  0.0047  0.3725  0.7798
    7MPD2     C14193   2.887   2.686  11.599  0.0145  1.1829  0.6677
    7MPD2    C114194   2.869   2.822  11.576 -0.4030  0.0722  0.0754
    7MPD2    C214195   2.759   2.875  11.642 -0.2231 -0.3575  0.6559
    7MPD2    C314196   2.673   2.807  11.728  0.0202  0.4325 -0.0188
    7MPD2    C414197   2.693   2.676  11.742  0.7746 -0.3701 -0.5767
    7MPD2    C514198   2.801   2.617  11.679 -0.7698  0.6123  0.1166
    7MPD2     H14199   2.740   2.979  11.616  1.7834  0.0892  1.0223
    7MPD2    H114200   2.636   2.616  11.812  1.6690  0.6240  1.0009
    7MPD2    H214201   2.971   2.633  11.556 -1.8910 -0.7749 -0.5604
    7MPD2    H314202   2.827   2.513  11.694  1.3866  1.0073 -0.8227
    7MPD2     N14203   2.558   2.866  11.787 -0.3351  1.1563 -0.1368
    7MPD2    H514204   2.488   2.797  11.813  1.2644 -0.4342 -0.0937
    7MPD2    N114205   2.946   2.895  11.484 -0.7081 -0.0189 -0.0966
    7MPD2    H714206   3.009   2.846  11.422 -3.1345 -2.0935 -0.9130
    8TMC3    C114207   3.017   3.083  11.365 -0.1212  0.9792 -0.7239
    8TMC3    C214208   2.989   3.015  11.242 -0.4269 -0.5595 -0.1790
    8TMC3    C314209   2.957   3.093  11.130  0.0383 -0.6317 -0.0584
    8TMC3    C414210   3.007   3.217  11.374 -0.6405  0.0172 -0.8003
    8TMC3    C514211   2.983   3.295  11.267 -0.3083 -0.3615  0.3962
    8TMC3    C614212   2.952   3.237  11.147  0.0541  0.7324 -0.2513
    8TMC3     C14213   2.963   3.031  11.489  0.1520  0.2006  0.4294
    8TMC3     O14214   2.932   3.108  11.579  0.5742  0.0534 -0.4608
    8TMC3     H14215   2.993   2.908  11.223  0.3747 -0.8266  1.5347
    8TMC3    H114216   3.049   3.266  11.460 -1.9052  0.2781 -0.3331
    8TMC3    H214217   2.898   3.306  11.084 -0.9021 -0.3105 -0.5750
    8TMC3    C714218   2.899   3.409  11.302 -0.5072  0.1733  0.3130
    8TMC3    C814219   2.857   3.041  11.034  0.2276 -0.1965  0.5913
    8TMC3    O114220   2.874   3.500  11.218  0.1115  0.0050 -0.3309
    8TMC3    O214221   2.787   3.133  10.990  0.0878  0.4610 -0.7771
    9MPD2     C14222   2.770   2.687  10.966  0.4459 -0.3773  0.3646
    9MPD2    C114223   2.754   2.827  10.976 -0.1432  0.4320 -0.0386
    9MPD2    C214224   2.626   2.879  10.967 -0.6955 -0.5375  0.1808
    9MPD2    C314225   2.509   2.796  10.959 -0.3312  0.2506 -0.7391
    9MPD2    C414226   2.533   2.660  10.945  0.0402 -0.2593  0.4390
    9MPD2    C514227   2.662   2.610  10.936  0.1701  0.0698  0.5106
    9MPD2     H14228   2.604   2.985  10.958 -2.0368 -1.0505 -2.5403
    9MPD2    H114229   2.458   2.582  10.954 -0.6986  0.4091  0.0258
    9MPD2    H214230   2.864   2.635  10.975  0.7020 -0.0992 -0.7224
    9MPD2    H314231   2.672   2.502  10.929 -0.6114  0.0124  0.2133
    9MPD2     N14232   2.380   2.848  10.954  0.1707 -0.0660  0.0746
    9MPD2    H514233   2.315   2.770  10.952  1.1452 -0.8421 -0.9223
    9MPD2    N114234   2.866   2.903  11.009  0.0121 -0.1693 -0.0209
    9MPD2    H714235   2.952   2.852  11.026 -0.1012 -0.2755  0.2253
    1MPD1     C14236   1.342   1.192  16.776 -0.0851  0.3052 -0.2398
    1MPD1    C114237   1.323   1.323  16.738 -0.0386  0.2661 -0.4909
    1MPD1    C214238   1.402   1.357  16.624 -0.0901  0.2891 -0.2329
    1MPD1    C314239   1.519   1.284  16.586 -0.2289 -0.3123 -0.4444
    1MPD1    C414240   1.532   1.162  16.645 -0.5182 -0.0545  0.1621
    1MPD1    C514241   1.443   1.114  16.735 -0.3047  1.0732 -0.0677
    1MPD1     H14242   1.364   1.446  16.575  0.1762  0.4032 -0.2340
    1MPD1    H114243   1.615   1.093  16.633 -0.0534  0.6829 -0.8768
    1MPD1    H214244   1.273   1.151  16.849 -0.7891  1.3881 -0.2952
    1MPD1    H314245   1.433   1.009  16.761 -1.6933  1.3808  0.6688
    1MPD1     N14246   1.609   1.312  16.481 -0.0500  0.2845 -0.6328
    1MPD1    H514247   1.671   1.244  16.437  0.1125  0.7678 -1.1530
    1MPD1    N114248   1.215   1.402  16.784  0.1686  0.2727  1.0491
    1MPD1    H614249   1.188   1.388  16.881  0.3836 -0.9630  0.9409
    1MPD1    H714250   1.226   1.500  16.761 -0.2709  0.2273  0.6488
    2MPD1     C14251   1.891   2.213  16.135 -0.2979 -0.3180 -0.4213
    2MPD1    C114252   1.810   2.175  16.233 -0.3831 -0.1953 -0.3054
    2MPD1    C214253   1.778   2.041  16.238 -0.8661 -0.2172  0.4196
    2MPD1    C314254   1.826   1.945  16.155 -0.5308  0.4691 -0.5151
    2MPD1    C414255   1.916   1.987  16.055  0.4201  0.0873 -0.7037
    2MPD1    C514256   1.956   2.124  16.052  0.0325 -0.4957 -0.5967
    2MPD1     H14257   1.711   2.002  16.314  0.7555 -4.6695 -0.4079
    2MPD1    H114258   1.968   1.928  15.981  0.2189  0.7610 -1.3853
    2MPD1    H214259   1.911   2.317  16.111  3.4232 -0.8403  0.3698
    2MPD1    H314260   2.024   2.154  15.974  0.1201  0.0130 -0.3252
    2MPD1     N14261   1.781   1.812  16.170  0.0961  0.7822 -0.1067
    2MPD1    H514262   1.706   1.795  16.236  0.6790 -0.4582  0.2405
    2MPD1    N114263   1.726   2.261  16.296 -0.6347  0.5018 -0.4654
    2MPD1    H614264   1.683   2.230  16.383 -0.6995  1.9669  0.0381
    2MPD1    H714265   1.784   2.341  16.319 -2.6818  1.3755  1.6665
    3TCq2    C114266   1.820   1.710  16.086 -0.5215  0.2685 -0.1459
    3TCq2    O214267   1.871   1.718  15.971 -0.3227  0.6134 -0.8998
    3TCq2    C214268   1.777   1.574  16.128 -0.7215 -0.2097 -0.4211
    3TCq2    C314269   1.785   1.466  16.047  0.0175 -0.0596 -0.1162
    3TCq2    C414270   1.743   1.347  16.092 -0.1070 -0.2291  0.3257
    3TCq2    C514271   1.700   1.328  16.220  0.0140 -0.6109  0.4328
    3TCq2    C614272   1.705   1.431  16.304 -0.5332 -0.5386 -0.4646
    3TCq2    C714273   1.744   1.558  16.262 -0.1115 -0.4843  0.0768
    3TCq2    C814274   1.621   1.437  16.424  0.8972 -0.5370  0.1119
    3TCq2    O414275   1.589   1.534  16.491  0.1337  0.3182  0.2918
    3TCq2    C914276   1.745   1.227  16.005  0.1672  0.4936  0.4392
    3TCq2    O514277   1.765   1.247  15.883  0.0596 -0.0208 -0.4497
    3TCq2    O614278   1.722   1.108  16.050 -0.0295  0.0632  0.0151
    3TCq2    H214279   1.808   1.487  15.944 -1.6346 -1.2321 -0.7343
    3TCq2    H314280   1.673   1.229  16.253 -2.2260 -0.0672  0.2342
    3TCq2    H414281   1.731   1.633  16.339  0.3205  0.3022 -0.6107
    1TCq1    O114282   2.925   1.505  12.585 -0.8402  0.0030 -0.2468
    1TCq1    C114283   3.020   1.599  12.600  0.1262 -0.6254 -0.0863
    1TCq1    O214284   3.017   1.705  12.542 -0.0634 -0.0481 -0.1894
    1TCq1    C214285   3.143   1.539  12.642  0.0571  0.0262 -0.3130
    1TCq1    C314286   3.167   1.406  12.630  0.1565  0.2425 -0.8557
    1TCq1    C414287   3.292   1.362  12.652  0.1870 -0.0107  0.0709
    1TCq1    C514288   3.395   1.450  12.655 -0.5785 -0.4702  0.6024
    1TCq1    C614289   3.374   1.587  12.644  0.4841  0.0085  1.1089
    1TCq1    C714290   3.247   1.635  12.637  0.3391  0.5929  0.0614
    1TCq1    C814291   3.476   1.679  12.617 -0.8415 -0.4678 -0.0585
    1TCq1    O414292   3.442   1.793  12.582  0.7918 -0.2033  0.2705
    1TCq1    C914293   3.312   1.222  12.675 -0.5294  0.0210 -1.5504
    1TCq1    O514294   3.216   1.152  12.695 -0.3368  0.7206  0.7704
    1TCq1    O614295   3.429   1.170  12.670 -0.2764  0.3171 -0.1047
    1TCq1    H114296   2.921   1.433  12.651  1.7980 -1.0737 -1.2557
    1TCq1    H214297   3.087   1.338  12.604  1.2140 -1.5992  0.6376
    1TCq1    H314298   3.489   1.401  12.678  0.9994  1.0764 -2.4607
    1TCq1    H414299   3.233   1.743  12.637  0.3145  0.6087  3.8417
    2MPD2     C14300   3.735   1.833  12.608  0.1926  0.8248 -0.4549
    2MPD2    C114301   3.718   1.710  12.671 -0.9715 -0.0442  0.5384
    2MPD2    C214302   3.829   1.653  12.737 -0.2212  0.1055 -0.3814
    2MPD2    C314303   3.955   1.712  12.750 -0.0907  0.1380  0.1297
    2MPD2    C414304   3.968   1.830  12.676 -0.3499  0.0296 -0.1537
    2MPD2    C514305   3.861   1.884  12.610 -0.6830 -0.1150 -0.2015
    2MPD2     H14306   3.811   1.555  12.780  0.2285  0.6934  1.1617
    2MPD2    H114307   4.066   1.876  12.667  0.9487 -2.4878  1.0821
    2MPD2    H214308   3.665   1.882  12.541  0.1042  0.2446 -0.7911
    2MPD2    H314309   3.873   1.974  12.550 -0.2074  0.6248  1.0096
    2MPD2     N14310   4.050   1.646  12.833 -0.0535  0.2310 -0.1470
    2MPD2    H514311   4.024   1.558  12.876  0.4947 -0.1951 -0.6929
    2MPD2    N114312   3.598   1.635  12.669  0.4616 -0.3576 -0.2393
    2MPD2    H714313   3.591   1.546  12.717 -0.6691 -1.0079 -1.6278
    3TCq1    O114314   4.167   1.397  13.258  0.0490  0.2101 -0.0318
    3TCq1    C114315   4.258   1.346  13.175  0.6009 -0.1517 -0.6781
    3TCq1    O214316   4.311   1.239  13.190 -0.2219 -0.2128  0.1026
    3TCq1    C214317   4.304   1.441  13.081 -0.6663 -0.0309 -0.2460
    3TCq1    C314318   4.431   1.428  13.031  0.3861  0.6993  0.0169
    3TCq1    C414319   4.478   1.528  12.943  0.0585  0.2290 -0.3314
    3TCq1    C514320   4.396   1.626  12.894  0.4731  0.8433  0.2381
    3TCq1    C614321   4.266   1.611  12.926 -1.1705 -0.4920  0.0911
    3TCq1    C714322   4.219   1.536  13.030 -0.0600 -0.4790 -0.2679
    3TCq1    C814323   4.178   1.690  12.845 -0.2804 -0.7117  0.3172
    3TCq1    O414324   4.217   1.796  12.808 -0.4270  0.4712  0.2065
    3TCq1    C914325   4.598   1.501  12.867 -0.3677  0.4615  0.4650
    3TCq1    O514326   4.595   1.522  12.741  0.0945  0.1127 -0.2706
    3TCq1    O614327   4.680   1.427  12.926  0.6262  0.1458 -0.2232
    3TCq1    H114328   4.172   1.494  13.244 -1.9041  0.3159  0.0733
    3TCq1    H214329   4.495   1.342  13.047  0.2116  0.5496 -0.0937
    3TCq1    H314330   4.426   1.682  12.806 -0.6133 -2.6447 -2.3362
    3TCq1    H414331   4.112   1.518  13.038  0.0138 -0.1806  1.4423
    1MPD2     C14332   0.096   2.110  14.997  0.2079  0.1611  0.1903
    1MPD2    C114333   0.040   2.142  14.874  0.0242  0.8213 -0.1294
    1MPD2    C214334   0.094   2.257  14.807  0.0348  0.1753  0.5023
    1MPD2    C314335   0.206   2.322  14.853 -0.3220  0.6767 -0.2517
    1MPD2    C414336   0.258   2.284  14.969  0.1388  0.1919  1.2010
    1MPD2    C514337   0.206   2.177  15.043  0.0069 -0.6542 -0.2655
    1MPD2     H14338   0.056   2.292  14.712 -3.1734  2.2164  2.5561
    1MPD2    H114339   0.348   2.329  15.008 -0.0263  0.2064  1.5736
    1MPD2    H214340   0.055   2.031  15.060  1.2131  0.7288  1.5469
    1MPD2    H314341   0.267   2.149  15.128  0.0779 -1.6254 -0.6364
    1MPD2     N14342   0.270   2.415  14.763 -0.2673  0.1549  0.1513
    1MPD2    H514343   0.222   2.433  14.676 -4.1387 -0.9556  2.0815
    1MPD2    N114344   4.650   2.068  14.826 -0.3178 -0.3877 -0.5019
    1MPD2    H714345   4.613   2.000  14.891 -0.3106 -1.5273 -1.6764
    2TMC3    C114346   4.477   2.035  14.672  0.0471  0.3894  0.6141
    2TMC3    C214347   4.447   2.050  14.543  0.1499 -0.2176 -0.0270
    2TMC3    C314348   4.329   2.098  14.491 -0.5158  0.2893 -0.1592
    2TMC3    C414349   4.382   2.077  14.766  0.2466 -0.0793 -0.0086
    2TMC3    C514350   4.266   2.131  14.717 -0.1802 -0.2775  0.0449
    2TMC3    C614351   4.237   2.139  14.581 -0.0677  1.1350  0.4003
    2TMC3     C14352   4.611   2.081  14.691 -0.2293 -0.0721  0.0955
    2TMC3     O14353   4.673   2.133  14.598 -0.8419  0.1346 -0.3942
    2TMC3     H14354   4.525   2.021  14.472 -0.1284  2.3558 -1.4062
    2TMC3    H114355   4.389   2.071  14.874 -0.5661  2.0429  0.1540
    2TMC3    H214356   4.140   2.166  14.540  0.3195  1.4458 -0.3156
    2TMC3    C714357   4.160   2.162  14.811 -1.1693  0.0322 -0.7595
    2TMC3    C814358   4.344   2.199  14.387 -0.5412  0.9293  0.2060
    2TMC3    O114359   4.172   2.130  14.930  0.6689 -0.1643 -0.0772
    2TMC3    O214360   4.243   2.243  14.330  0.2996  0.5894  0.4262
    3TCq1    O114361   3.262   2.979  14.605 -0.2388  0.5572 -0.1493
    3TCq1    C114362   3.280   2.878  14.512  0.1682  0.0044 -0.0669
    3TCq1    O214363   3.200   2.796  14.475  0.2930 -0.4455 -0.0746
    3TCq1    C214364   3.421   2.853  14.511 -0.6895  0.0774  0.3644
    3TCq1    C314365   3.516   2.950  14.486  1.1376 -0.7941 -0.2405
    3TCq1    C414366   3.647   2.919  14.514  0.3160  0.4899  1.1680
    3TCq1    C514367   3.686   2.795  14.571  0.2016  0.1255 -0.5906
    3TCq1    C614368   3.580   2.712  14.596 -0.3251 -0.1155  0.3504
    3TCq1    C714369   3.454   2.734  14.556  0.4283 -0.3686  0.3305
    3TCq1    C814370   3.598   2.594  14.683  0.0254 -0.1307  0.6103
    3TCq1    O414371   3.503   2.565  14.753 -0.1158  0.5860  0.0302
    3TCq1    C914372   3.738   3.029  14.497  0.2430  0.0484 -0.2000
    3TCq1    O514373   3.700   3.125  14.426 -0.3390 -0.3552 -0.2620
    3TCq1    O614374   3.848   3.019  14.553  0.2976  0.3161  0.4144
    3TCq1    H114375   3.342   3.026  14.635 -0.9023  2.2535 -1.0198
    3TCq1    H214376   3.487   3.046  14.445 -2.1641 -1.9439 -0.5777
    3TCq1    H314377   3.788   2.768  14.597 -0.2044 -0.9811 -0.1788
    3TCq1    H414378   3.379   2.657  14.572  1.5309 -1.4166  0.5134
    4MPD2     C14379   3.709   2.390  14.853  0.6638  0.6265  0.1483
    4MPD2    C114380   3.784   2.460  14.762 -0.0716 -0.9248  0.6030
    4MPD2    C214381   3.908   2.412  14.735  0.0804 -0.0987  0.1585
    4MPD2    C314382   3.965   2.312  14.807 -0.0354 -0.6657 -0.1885
    4MPD2    C414383   3.896   2.255  14.913  0.3855 -0.9246 -0.0645
    4MPD2    C514384   3.768   2.304  14.934 -0.0226  0.1856  0.1602
    4MPD2     H14385   3.955   2.463  14.652 -1.3656  1.3940  0.2572
    4MPD2    H114386   3.937   2.186  14.986 -3.0447 -0.3983  2.3583
    4MPD2    H214387   3.612   2.430  14.879  0.6750  1.6011 -1.2701
    4MPD2    H314388   3.707   2.259  15.012  0.9789 -1.3508  0.0733
    4MPD2     N14389   4.091   2.265  14.763 -0.4806 -0.0309  0.1855
    4MPD2    H514390   4.130   2.314  14.683  0.8091  1.0173  1.4558
    4MPD2    N114391   3.727   2.555  14.678 -0.1579 -0.0376  0.2666
    4MPD2    H714392   3.779   2.591  14.598 -1.1821 -1.0383 -0.8514
    5TMC2    C114393   0.295   2.593  14.458 -0.5740  0.1201  0.8371
    5TMC2    C214394   0.396   2.536  14.383  0.1808 -0.2936  0.1225
    5TMC2    C314395   0.512   2.515  14.453  0.0242 -0.0550 -0.4664
    5TMC2    C414396   0.319   2.609  14.592 -0.0693 -0.3396 -0.7126
    5TMC2    C514397   0.426   2.561  14.656  0.1768  0.6651  0.2774
    5TMC2    C614398   0.533   2.528  14.585 -0.4542  0.3166  0.7050
    5TMC2     C14399   0.157   2.545  14.439  0.4992 -0.4121  0.1296
    5TMC2     O14400   0.115   2.505  14.541 -0.1671 -0.5832  0.2767
    5TMC2     H14401   0.390   2.521  14.276 -0.9804  1.5012 -0.0628
    5TMC2    H114402   0.239   2.651  14.652  0.8117 -0.9406  0.8767
    5TMC2    H214403   0.615   2.473  14.629 -0.8918  1.0469  2.4300
    5TMC2    C714404   0.393   2.479  14.774 -0.1471  0.3031 -0.0306
    5TMC2    C814405   0.618   2.457  14.371  0.3519 -0.0761 -0.2775
    5TMC2    O114406   0.472   2.478  14.866 -0.2646  0.0346  0.2435
    5TMC2    O214407   0.743   2.468  14.384  0.7625 -0.1643 -0.5547
    5TMC2    O514408   0.568   2.333  14.346  0.0148  0.2951  0.0156
    5TMC2    H514409   0.479   2.328  14.386  0.3529 -0.1902  0.7039
    6MPD2     C14410   4.446   2.408  14.219 -0.6156 -0.2907  0.2263
    6MPD2    C114411   4.514   2.368  14.332 -0.7145 -0.3153 -0.4702
    6MPD2    C214412   4.641   2.419  14.362  0.5964 -0.5418  0.1185
    6MPD2    C314413   4.696   2.515  14.283 -0.3032  0.8965 -0.4740
    6MPD2    C414414   4.633   2.560  14.168 -0.2326  0.1297  0.7472
    6MPD2    C514415   4.508   2.498  14.142 -0.4697 -0.5550  0.8229
    6MPD2     H14416   4.693   2.368  14.442  0.8388  2.9918  2.2276
    6MPD2    H114417   4.676   2.635  14.103  0.8236 -1.1714 -0.0474
    6MPD2    H214418   4.346   2.377  14.195 -0.4728 -0.5656 -0.0036
    6MPD2    H314419   4.443   2.545  14.069 -0.6769 -0.9836  0.7353
    6MPD2     N14420   0.095   2.573  14.315 -0.3609  0.5645  0.5282
    6MPD2    H514421   0.134   2.635  14.245 -0.1625 -0.7500 -0.5363
    6MPD2    N114422   4.465   2.261  14.410 -0.8545 -0.1284  0.4447
    6MPD2    H714423   4.533   2.218  14.471  0.5889  0.4730 -0.7269
  945NH4     N114424   0.335   1.595   1.533  0.1626 -0.4900 -0.1170
  945NH4     H214425   0.352   1.495   1.511 -0.0150 -0.6269  0.3724
  945NH4     H314426   0.367   1.656   1.455  0.7312  1.8680  1.9490
  945NH4     H414427   0.382   1.620   1.622 -2.1809  1.9440  0.4401
  945NH4     H514428   0.233   1.609   1.549  0.2420  1.0684 -0.9742
  946SOD     NA14429   1.256   4.197   6.075  0.0848 -0.1401 -0.3185
  947SOD     NA14430   4.536   2.175   0.052 -0.1618  0.1483 -0.3584
  948SOD     NA14431   3.850   3.276  14.556 -0.1908  0.1597 -0.1153
  949SOD     NA14432   1.818   3.313  15.336 -0.1930 -0.1845  0.3614
  950SOD     NA14433   0.710   1.777   1.452 -0.1409  0.2941 -0.1358
  951SOD     NA14434   2.740   4.245  11.816 -0.0461  0.1548 -0.0907
  952SOD     NA14435   0.447   0.628  16.931 -0.1369  0.3629 -0.1232
  953SOD     NA14436   0.468   1.138  11.510 -0.1035  0.2878 -0.4646
  954SOD     NA14437   0.279   1.493  11.093  0.3419 -0.2116  0.0710
  955SOD     NA14438   1.011   3.073   0.843 -0.1500  0.3118 -0.0246
  956SOD     NA14439   1.489   2.405  14.397  0.2154  0.4073  0.2517
  957SOD     NA14440   3.508   4.177   4.093  0.3534 -0.5022 -0.3392
  958SOD     NA14441   2.759   4.167  13.786  0.0729  0.0092  0.2444
  959SOD     NA14442   3.519   1.679   6.515 -0.3037  0.4579  0.3231
  960SOD     NA14443   3.123   1.010  12.559 -0.2178 -0.1912 -0.3314
  961SOD     NA14444   2.521   1.146  12.671 -0.0680 -0.0235 -0.4722
  962SOD     NA14445   0.854   2.417   7.767  0.3893  0.3673  0.0292
  963SOD     NA14446   4.025   3.027  14.428 -0.1173 -0.0336 -0.4547
  964SOD     NA14447   1.506   2.351   3.290 -0.1104 -0.0575  0.2134
  965SOD     NA14448   1.024   2.850  10.614  0.3074  0.6764 -0.2258
  966SOD     NA14449   0.278   0.860  11.485 -0.1697 -0.3138 -0.0278
  967SOD     NA14450   1.626   3.709  13.813  0.5328  0.1066 -0.1451
  968SOD     NA14451   4.366   4.715   9.496 -0.2586  0.2104  0.0472
  969SOD     NA14452   4.551   0.659   9.757  0.9726 -0.0284 -0.1833
  970SOD     NA14453   3.555   4.441   9.361 -0.5258 -0.2943 -0.5021
  971SOD     NA14454   0.575   2.800  15.711 -0.0371  0.1275 -0.0157
  972SOD     NA14455   1.310   0.797  10.771  0.2122 -0.2593 -0.1005
  973SOD     NA14456   0.314   1.523  10.387  0.0222  0.0091  0.1469
  974SOD     NA14457   1.738   2.071   0.174 -0.0511  0.4074  0.4108
  975SOD     NA14458   4.364   2.042   8.779 -0.1966  0.0298 -0.0783
  976SOD     NA14459   0.155   1.354  12.959 -0.0272  0.2843  0.1851
  977SOD     NA14460   0.255   4.609   3.426 -0.2661 -0.3456 -0.2898
  978SOD     NA14461   0.208   1.155  11.318  0.1781  0.2395  0.0822
  979SOD     NA14462   1.491   2.147   0.023 -0.2978 -0.1343 -0.4099
  980SOD     NA14463   0.782   1.676  14.214  0.4370  0.2471 -0.0800
  981SOD     NA14464   0.890   2.269   2.371 -0.5805 -0.9092  0.1766
  982SOD     NA14465   3.638   1.793   9.756  0.1761 -0.1130  0.3539
  983SOD     NA14466   1.563   4.375   0.729 -0.0152 -0.5288 -0.1323
  984SOD     NA14467   4.433   0.287   9.804  0.7078  0.3964 -0.3258
  985SOD     NA14468   1.568   1.526   2.907 -0.1556 -0.6426  0.0754
  986SOD     NA14469   3.401   0.956  12.732 -0.7461  0.2700  0.5417
  987SOD     NA14470   4.466   4.376  12.392 -0.1316 -0.0544  0.2108
  988SOD     NA14471   0.719   1.387  14.272 -0.0602  0.4390 -0.1435
  989SOD     NA14472   0.775   1.237   0.882 -0.2680 -0.0828  0.4360
  990SOD     NA14473   0.204   0.234  10.286 -0.2942  0.3578  0.7799
  991SOD     NA14474   1.666   1.705   2.623  0.0812 -0.0220 -0.1911
  992SOD     NA14475   1.660   1.410  14.166  0.1012 -0.7017  0.3032
  993SOD     NA14476   3.800   4.576   9.212 -0.4095  0.3709 -0.1238
  994SOD     NA14477   4.320   0.494   9.591 -0.2765 -0.1185  0.1773
  995SOD     NA14478   4.497   2.312  12.156  0.2923  0.2472  0.1617
  996SOD     NA14479   0.728   3.343  13.077  0.4643  0.4553 -0.0038
  997SOD     NA14480   4.092   0.181   9.378 -0.1398 -0.2412 -0.0439
  998SOD     NA14481   0.517   1.193  11.184  0.5598  0.5206 -0.0160
  999SOD     NA14482   1.617   3.548  11.695 -0.0039 -0.1369 -0.1671
 1000SOD     NA14483   3.378   1.617  10.436 -0.2920  0.0761  0.3951
 1001SOD     NA14484   1.951   0.718  14.465  0.3906 -0.6504  0.2259
 1002SOD     NA14485   3.687   1.573  10.367 -0.1481 -0.1337  0.3588
 1003SOD     NA14486   0.427   0.881   0.258  0.9302 -0.0028  0.0156
 1004SOD     NA14487   1.271   2.382  14.659  0.0048  0.2946  0.0052
 1005SOD     NA14488   1.586   2.353  14.746  0.5277 -0.0084 -0.3161
 1006SOD     NA14489   3.627   2.552  15.233 -0.5369  0.1188 -0.0787
 1007SOD     NA14490   1.545   2.449  15.634 -0.3591 -0.1053 -0.8596
 1008SOD     NA14491   0.743   2.421   2.863  0.1821  0.1753  0.1423
 1009SOD     NA14492   1.783   1.764  10.799  0.0273  0.3515 -0.0498
 1010SOD     NA14493   0.360   0.909   8.773 -0.2050 -0.0186 -0.4245
 1011SOL     OW14494   3.957   2.851   0.260  0.1996  0.7597 -0.3865
 1011SOL    HW114495   3.941   2.940   0.228 -0.5830  0.9844  0.6550
 1011SOL    HW214496   3.866   2.830   0.282  0.2595 -0.2064 -1.0476
 1012SOL     OW14497   3.159   2.346   8.373  0.2839 -0.0084 -0.6074
 1012SOL    HW114498   3.157   2.441   8.374 -1.0272 -0.0396  0.0105
 1012SOL    HW214499   3.071   2.331   8.409 -0.5125  1.8281 -1.8055
 1013SOL     OW14500   3.456   0.526  10.669  0.2793 -0.0972  0.3184
 1013SOL    HW114501   3.433   0.559  10.756 -1.2371 -0.3501  0.0064
 1013SOL    HW214502   3.409   0.583  10.609  0.0417  0.8838  1.4300
 1014SOL     OW14503   4.081   0.526   4.357  0.1208 -0.0799 -0.5481
 1014SOL    HW114504   4.036   0.600   4.316 -0.7551 -0.4700 -0.2974
 1014SOL    HW214505   4.113   0.477   4.281  0.4418  0.5336 -0.8111
 1015SOL     OW14506   1.147   2.582   8.791  0.2247  0.4411  0.0181
 1015SOL    HW114507   1.201   2.608   8.865  2.6921 -0.1118 -1.6049
 1015SOL    HW214508   1.094   2.661   8.775 -1.5499 -0.2100  2.8053
 1016SOL     OW14509   0.310   2.591   1.483 -0.0199 -0.0619 -0.0183
 1016SOL    HW114510   0.331   2.663   1.542 -1.4430 -0.8405  1.4282
 1016SOL    HW214511   0.366   2.617   1.410  0.9820 -0.5464  0.5714
 1017SOL     OW14512   0.648   2.503   2.679 -0.0301  0.3432 -0.2770
 1017SOL    HW114513   0.670   2.524   2.588 -1.1469 -1.0272 -0.8646
 1017SOL    HW214514   0.555   2.494   2.657 -0.4794  0.5173  1.5801
 1018SOL     OW14515   1.893   2.315   2.997  0.1602  0.4787 -0.3333
 1018SOL    HW114516   1.835   2.277   2.931  1.3740 -0.7658 -0.6797
 1018SOL    HW214517   1.972   2.347   2.953  1.3501 -0.7196  0.9423
 1019SOL     OW14518   1.085   1.490   4.575  0.2459  0.5359 -0.0947
 1019SOL    HW114519   1.083   1.585   4.563 -3.2058  0.3810 -0.6431
 1019SOL    HW214520   1.093   1.448   4.490 -2.2802  0.6567 -0.3731
 1020SOL     OW14521   3.615   2.994  10.819 -1.0878 -0.0970 -0.1505
 1020SOL    HW114522   3.595   2.914  10.867  0.7408 -1.3118 -1.3952
 1020SOL    HW214523   3.689   2.973  10.762 -0.5887 -0.5192  0.6432
 1021SOL     OW14524   3.017   0.160   5.682 -0.2438  0.0696 -0.0028
 1021SOL    HW114525   3.015   0.073   5.723 -1.0896  0.0515 -0.0899
 1021SOL    HW214526   2.978   0.133   5.600  2.2741 -0.8709 -0.9105
 1022SOL     OW14527   1.758   2.679  14.500 -0.5013 -0.3177  0.0286
 1022SOL    HW114528   1.724   2.591  14.514  1.6646 -0.9961  0.9851
 1022SOL    HW214529   1.673   2.721  14.489  0.2025  0.9676 -0.5035
 1023SOL     OW14530   2.306   3.816   8.355  0.3687 -0.1127  0.6001
 1023SOL    HW114531   2.374   3.750   8.368  0.1755 -0.6647 -1.2061
 1023SOL    HW214532   2.332   3.890   8.410  0.9011  0.8077 -0.8953
 1024SOL     OW14533   1.193   3.278   6.943  0.2565  0.1887 -0.8782
 1024SOL    HW114534   1.123   3.295   6.880  0.2068  3.6134  0.0764
 1024SOL    HW214535   1.176   3.336   7.017  1.4329 -1.0984  0.4190
 1025SOL     OW14536   1.979   3.796   3.431 -0.8080 -0.0556 -0.5469
 1025SOL    HW114537   1.905   3.816   3.374 -1.1658 -2.5547 -0.9813
 1025SOL    HW214538   1.950   3.846   3.507  0.3430 -1.2241  0.6611
 1026SOL     OW14539   2.438   0.313   3.756  0.0734 -0.0020 -0.0797
 1026SOL    HW114540   2.458   0.219   3.760 -1.4189 -0.3282 -0.3462
 1026SOL    HW214541   2.359   0.310   3.701 -0.1483  1.2047  0.1872
 1027SOL     OW14542   2.878   1.911   2.145 -0.1295 -0.1952  0.3340
 1027SOL    HW114543   2.816   1.975   2.109 -0.9626 -1.5368 -0.6043
 1027SOL    HW214544   2.951   1.928   2.085 -0.3218 -0.0221  0.1459
 1028SOL     OW14545   0.244   4.651   1.280  0.2834 -0.1455  0.6194
 1028SOL    HW114546   0.194   4.718   1.234  0.2521  0.6274  1.7664
 1028SOL    HW214547   0.232   4.675   1.372  1.1940 -1.3183  1.0517
 1029SOL     OW14548   0.120   1.349   6.288 -0.2009  0.3829 -0.4913
 1029SOL    HW114549   0.063   1.424   6.302  0.3714  0.5052  1.1191
 1029SOL    HW214550   0.068   1.296   6.227 -0.9542 -0.4648  0.8832
 1030SOL     OW14551   1.294   0.183   8.677 -0.3382 -0.2198  0.0486
 1030SOL    HW114552   1.340   0.159   8.757  0.7700  1.0212 -0.2150
 1030SOL    HW214553   1.303   0.278   8.669 -0.5168 -0.2181 -0.1336
 1031SOL     OW14554   1.727   2.564  17.339  0.1293  0.3066 -0.2603
 1031SOL    HW114555   1.708   2.470  17.329 -0.0638  0.3768 -0.5484
 1031SOL    HW214556   1.649   2.582  17.391 -0.1395  1.3042 -1.0346
 1032SOL     OW14557   0.146   0.927   4.038  0.3918 -0.2476 -0.1444
 1032SOL    HW114558   0.071   0.985   4.052  0.4688 -0.6872  2.1105
 1032SOL    HW214559   0.214   0.960   4.097 -1.5073 -0.7196  2.2928
 1033SOL     OW14560   0.943   3.990   6.298 -0.2554  0.0352 -0.2597
 1033SOL    HW114561   0.928   4.011   6.389 -1.9258 -1.0131 -0.3063
 1033SOL    HW214562   0.986   3.904   6.304 -1.0818 -0.3077  0.7721
 1034SOL     OW14563   2.317   1.628   3.428 -0.1719 -0.7573 -0.1701
 1034SOL    HW114564   2.291   1.634   3.520 -3.1328 -0.2135 -1.0363
 1034SOL    HW214565   2.378   1.558   3.449 -2.0018 -1.6414  2.1307
 1035SOL     OW14566   0.283   0.694  15.821  0.0831  0.2670 -0.1034
 1035SOL    HW114567   0.276   0.662  15.911 -1.6888 -1.9727 -1.0254
 1035SOL    HW214568   0.195   0.724  15.799 -1.3024 -2.9701  1.0481
 1036SOL     OW14569   4.123   2.516   5.675  0.3267  0.0613 -0.1688
 1036SOL    HW114570   4.181   2.445   5.701 -0.3604 -0.2462  0.5203
 1036SOL    HW214571   4.063   2.477   5.612 -0.1895 -2.5446  1.9509
 1037SOL     OW14572   3.670   2.924   4.522  0.4576 -0.2469  0.0173
 1037SOL    HW114573   3.619   2.880   4.454  0.0997 -0.2080  0.2580
 1037SOL    HW214574   3.733   2.967   4.463 -0.0136 -1.4974 -1.4041
 1038SOL     OW14575   1.903   1.326   7.779 -0.8172  0.3156 -0.0608
 1038SOL    HW114576   1.859   1.329   7.864  1.7412 -2.0370  1.3387
 1038SOL    HW214577   1.970   1.389   7.805 -1.7025  1.0617  0.4396
 1039SOL     OW14578   4.305   4.544   2.847  0.6866 -0.4937  0.3361
 1039SOL    HW114579   4.241   4.517   2.781  2.0222 -1.1735 -0.6656
 1039SOL    HW214580   4.316   4.637   2.830 -2.6552 -0.3228 -0.8894
 1040SOL     OW14581   1.300   2.989   4.282 -0.4242 -0.0874 -0.3422
 1040SOL    HW114582   1.336   2.949   4.362 -1.4008  0.3238  0.2989
 1040SOL    HW214583   1.326   2.919   4.222  0.6549 -1.4798  1.7234
 1041SOL     OW14584   3.710   0.570  12.792  0.2807 -0.0945 -0.1222
 1041SOL    HW114585   3.785   0.525  12.752 -0.8671 -2.1151  0.0099
 1041SOL    HW214586   3.733   0.655  12.755  0.2466  0.2830  0.7433
 1042SOL     OW14587   2.250   4.547  12.506 -0.1646 -0.5387 -0.6614
 1042SOL    HW114588   2.183   4.610  12.479  0.5233 -0.1583 -1.4474
 1042SOL    HW214589   2.317   4.599  12.550  0.2160 -0.1034 -1.7696
 1043SOL     OW14590   2.904   3.763   4.538 -0.6594  0.6137 -0.0082
 1043SOL    HW114591   2.944   3.830   4.484  1.2039  1.0988  2.0085
 1043SOL    HW214592   2.887   3.800   4.624  1.3694  0.2590  0.5272
 1044SOL     OW14593   1.502   2.361  16.165  0.4749  0.6477  0.4196
 1044SOL    HW114594   1.578   2.319  16.205  0.8997  2.5811  1.6276
 1044SOL    HW214595   1.477   2.417  16.237 -1.4343  0.6064 -0.2208
 1045SOL     OW14596   0.559   0.492   6.056 -0.8205 -0.3697 -0.2572
 1045SOL    HW114597   0.530   0.450   6.137 -0.6433 -0.6280 -0.3286
 1045SOL    HW214598   0.638   0.440   6.045 -0.7048 -0.2659  0.0598
 1046SOL     OW14599   2.367   2.425   0.276 -0.3469  0.2792 -0.2879
 1046SOL    HW114600   2.298   2.491   0.290 -0.8656  0.2752 -2.8533
 1046SOL    HW214601   2.426   2.459   0.343 -0.9043  1.3170 -0.3273
 1047SOL     OW14602   1.490   3.122   9.247 -0.2423  0.3131 -0.3192
 1047SOL    HW114603   1.427   3.160   9.308 -1.1324 -0.1423 -0.9437
 1047SOL    HW214604   1.444   3.119   9.163 -0.4244  1.9440 -0.2595
 1048SOL     OW14605   4.262   0.945  14.509 -0.6304 -0.5375  0.0869
 1048SOL    HW114606   4.345   0.930  14.465 -0.0327  1.7004  0.4441
 1048SOL    HW214607   4.265   1.041  14.512  0.6336 -0.6076  0.9309
 1049SOL     OW14608   4.089   1.969   9.639  0.0699 -0.5970  0.3094
 1049SOL    HW114609   3.999   1.949   9.613 -0.1072  0.7678 -0.0975
 1049SOL    HW214610   4.075   1.993   9.730  0.7167  0.7299  0.0520
 1050SOL     OW14611   0.084   0.346   2.155  0.8243  0.0349  0.2187
 1050SOL    HW114612   0.096   0.377   2.065 -0.1779  0.0557  0.0984
 1050SOL    HW214613   0.129   0.413   2.207 -1.0841  2.1984 -0.9246
 1051SOL     OW14614   1.706   0.537   3.215  1.0512 -0.1469 -0.2920
 1051SOL    HW114615   1.775   0.471   3.219  0.3650 -0.8381  0.1056
 1051SOL    HW214616   1.731   0.580   3.133  0.3731 -0.3316 -0.5951
 1052SOL     OW14617   3.457   3.606   7.700  0.0527 -0.0460 -0.1786
 1052SOL    HW114618   3.496   3.524   7.669  1.3156  1.4549 -2.5987
 1052SOL    HW214619   3.398   3.572   7.767 -1.0598  0.6768 -0.7862
 1053SOL     OW14620   1.428   0.763   6.204  0.1814 -0.5723 -0.0560
 1053SOL    HW114621   1.522   0.770   6.186  0.3170 -1.3100  0.3796
 1053SOL    HW214622   1.392   0.755   6.115  0.5239 -1.0374 -0.1526
 1054SOL     OW14623   0.068   0.408   1.463  0.4272  0.0678 -0.4015
 1054SOL    HW114624   4.698   0.392   1.484  0.3752 -1.0450 -1.5171
 1054SOL    HW214625   0.120   0.378   1.538  0.8060 -0.3614 -0.8429
 1055SOL     OW14626   1.181   1.272  11.852 -0.7546 -0.0526 -0.3875
 1055SOL    HW114627   1.251   1.212  11.879 -1.3727  0.2990  1.9447
 1055SOL    HW214628   1.239   1.345  11.829 -0.4498 -0.4209 -0.8063
 1056SOL     OW14629   4.041   4.408   8.876  0.3675 -0.5637 -0.1549
 1056SOL    HW114630   4.114   4.371   8.827  0.4744 -1.3927  0.6344
 1056SOL    HW214631   3.970   4.386   8.816 -0.2482 -0.9447  0.7031
 1057SOL     OW14632   3.161   0.746   5.349 -0.1792  0.3219 -0.6881
 1057SOL    HW114633   3.220   0.810   5.310 -0.4939 -0.1327 -1.8992
 1057SOL    HW214634   3.217   0.700   5.411 -1.6543 -0.4111  0.1091
 1058SOL     OW14635   4.198   1.143   3.318 -0.0291 -0.1696 -0.2994
 1058SOL    HW114636   4.273   1.183   3.274 -0.0912  0.5507  0.2431
 1058SOL    HW214637   4.242   1.135   3.402 -1.8059 -0.9440  0.5579
 1059SOL     OW14638   3.031   4.157   0.269  0.3074 -0.0456 -0.2567
 1059SOL    HW114639   2.937   4.150   0.289  1.1184 -0.0843  3.5847
 1059SOL    HW214640   3.041   4.252   0.272 -0.9220  0.0964 -0.3427
 1060SOL     OW14641   1.637   1.973  10.179  0.3635 -0.1124 -0.0569
 1060SOL    HW114642   1.632   2.017  10.094 -1.7559  0.0928  0.1755
 1060SOL    HW214643   1.722   1.930  10.170  0.4042 -0.4314  1.8790
 1061SOL     OW14644   3.717   2.989   9.921 -0.2670 -0.1420  0.3353
 1061SOL    HW114645   3.727   3.066   9.865 -0.0874  0.2825  0.9471
 1061SOL    HW214646   3.797   2.939   9.905  0.5431  0.9511  0.9118
 1062SOL     OW14647   0.739   2.575  16.081 -0.1996 -0.8867 -0.1992
 1062SOL    HW114648   0.798   2.529  16.022  1.2822  1.0496 -0.2075
 1062SOL    HW214649   0.709   2.505  16.139 -1.4937  0.2443  0.5139
 1063SOL     OW14650   4.639   2.284   0.680 -0.0604 -0.2834 -0.1525
 1063SOL    HW114651   4.683   2.220   0.737 -2.5573  1.5957  3.8353
 1063SOL    HW214652   4.603   2.343   0.746 -1.0313 -1.5028  0.4123
 1064SOL     OW14653   0.396   0.136   6.433 -0.2831  0.3840 -0.1776
 1064SOL    HW114654   0.466   0.102   6.488 -0.7895 -1.8770 -0.9033
 1064SOL    HW214655   0.413   0.230   6.432  0.4130  0.2577 -0.0058
 1065SOL     OW14656   4.488   3.003  10.056 -0.4355  0.5407  0.0654
 1065SOL    HW114657   4.557   3.047  10.006 -0.5567 -1.4326 -1.8624
 1065SOL    HW214658   4.472   3.058  10.132  1.5930 -0.7594  1.4262
 1066SOL     OW14659   0.545   1.264   2.516  0.4360  0.0695  0.5097
 1066SOL    HW114660   0.624   1.288   2.565 -0.9956  1.2379  2.2552
 1066SOL    HW214661   0.560   1.176   2.480 -0.2404 -0.0385  0.4910
 1067SOL     OW14662   0.264   2.883   1.588  0.2858 -0.0706  0.2507
 1067SOL    HW114663   0.226   2.929   1.513 -1.0240 -1.6522 -0.0350
 1067SOL    HW214664   0.193   2.892   1.651  0.9975  0.9037  0.9196
 1068SOL     OW14665   2.253   0.143  11.658  0.2964  0.1758 -0.2620
 1068SOL    HW114666   2.270   0.141  11.564 -4.2045  1.1271 -1.0704
 1068SOL    HW214667   2.341   0.146  11.696 -0.1000  0.8606  0.5953
 1069SOL     OW14668   2.511   0.284   4.709 -0.3936  0.2320  0.1057
 1069SOL    HW114669   2.548   0.229   4.778  2.6406 -0.6110 -2.2199
 1069SOL    HW214670   2.465   0.211   4.667  1.4468  0.0356 -1.5402
 1070SOL     OW14671   0.086   2.112  17.445  0.4439  0.6159  0.1604
 1070SOL    HW114672   0.126   2.094  17.360  1.7144  1.0658  0.6762
 1070SOL    HW214673   0.018   2.045  17.447  1.5629 -0.4795  1.2065
 1071SOL     OW14674   0.715   3.704   6.905  0.6043 -0.0172  0.2180
 1071SOL    HW114675   0.623   3.729   6.900  0.4740 -0.1275  1.9546
 1071SOL    HW214676   0.765   3.779   6.873 -0.1446  0.6590  0.6246
 1072SOL     OW14677   0.048   3.814   8.669 -0.3401 -0.0278  0.4190
 1072SOL    HW114678   4.678   3.789   8.680 -0.6515  0.1633 -1.7437
 1072SOL    HW214679   0.052   3.881   8.737 -3.9638  1.8713 -1.2395
 1073SOL     OW14680   2.067   2.606   2.207  0.1756  0.3149 -0.1260
 1073SOL    HW114681   2.116   2.537   2.251 -1.0652 -1.5302 -1.6448
 1073SOL    HW214682   2.125   2.676   2.237  1.3446 -0.7664  0.1046
 1074SOL     OW14683   1.343   3.250   8.477 -0.0097  0.1745  0.0598
 1074SOL    HW114684   1.352   3.237   8.383  0.0976 -1.5225  0.3093
 1074SOL    HW214685   1.346   3.161   8.512  0.5853  0.0065 -0.4106
 1075SOL     OW14686   0.635   3.722   5.988  0.0043 -0.4940  0.4205
 1075SOL    HW114687   0.643   3.801   5.934  0.7543  0.5882  2.1433
 1075SOL    HW214688   0.564   3.681   5.938  0.5444 -2.2296  1.0779
 1076SOL     OW14689   1.414   3.269   5.760 -0.7154  0.1869 -0.1553
 1076SOL    HW114690   1.485   3.245   5.819 -0.6897 -1.2424 -0.7539
 1076SOL    HW214691   1.397   3.357   5.795 -0.5764 -0.5491  1.7366
 1077SOL     OW14692   2.953   1.085   2.202 -0.6323 -0.2787  0.1865
 1077SOL    HW114693   2.971   1.175   2.230  1.3971 -0.5924 -0.0623
 1077SOL    HW214694   2.951   1.037   2.284 -1.5865 -0.1599  0.2321
 1078SOL     OW14695   2.293   1.714   2.914  0.1335  0.4097  0.0589
 1078SOL    HW114696   2.308   1.799   2.956 -0.9680  1.1006 -0.9503
 1078SOL    HW214697   2.267   1.744   2.827 -2.0840 -0.7281  0.3327
 1079SOL     OW14698   4.410   0.735  12.296 -0.4315 -0.1405  0.0683
 1079SOL    HW114699   4.450   0.651  12.274  1.9038  0.6438  1.3935
 1079SOL    HW214700   4.322   0.710  12.326 -0.5664  1.0690  0.6491
 1080SOL     OW14701   2.045   2.781   0.080  0.1166 -0.2592  0.0334
 1080SOL    HW114702   2.128   2.809   0.042 -0.6928  0.7768 -0.9741
 1080SOL    HW214703   1.997   2.862   0.100  0.1497  0.0032 -0.9332
 1081SOL     OW14704   0.448   1.381   6.498  0.2642  0.2159 -0.2316
 1081SOL    HW114705   0.419   1.307   6.552  0.0643  0.2511 -0.2918
 1081SOL    HW214706   0.512   1.345   6.437 -0.6011  0.8560 -1.5103
 1082SOL     OW14707   2.995   0.149  11.257 -0.0749 -0.3765  0.0140
 1082SOL    HW114708   3.067   0.130  11.197  0.7538 -0.5731  1.0834
 1082SOL    HW214709   2.946   0.218  11.211 -1.2248 -2.0257 -1.2278
 1083SOL     OW14710   4.205   2.393   5.002  0.0759 -0.0279  0.0679
 1083SOL    HW114711   4.174   2.462   4.944  0.9649  2.4342  2.5461
 1083SOL    HW214712   4.185   2.315   4.949  0.4047 -1.3396  1.8669
 1084SOL     OW14713   3.200   1.158  10.240 -0.0730  0.0956 -0.1796
 1084SOL    HW114714   3.105   1.162  10.240 -0.0956 -0.5377  0.6557
 1084SOL    HW214715   3.211   1.123  10.152 -0.9426 -1.1594  0.2130
 1085SOL     OW14716   3.100   2.570   2.052  0.2187 -0.0683 -0.2942
 1085SOL    HW114717   3.188   2.534   2.050 -0.1201 -0.9692  1.0108
 1085SOL    HW214718   3.064   2.554   1.965 -0.2428  3.7811 -0.8495
 1086SOL     OW14719   2.388   1.650   5.201  0.4739 -0.0536 -0.2391
 1086SOL    HW114720   2.309   1.639   5.254 -0.2525 -0.3531 -1.3958
 1086SOL    HW214721   2.346   1.680   5.120 -1.0090 -0.8065  0.2433
 1087SOL     OW14722   4.497   3.502  13.088  0.1428 -0.6485  0.2150
 1087SOL    HW114723   4.551   3.435  13.130  0.7059 -0.4795 -0.2417
 1087SOL    HW214724   4.546   3.572  13.130 -0.6407  0.7597 -1.2162
 1088SOL     OW14725   1.808   2.629   4.957  0.7929 -0.4452  0.3154
 1088SOL    HW114726   1.742   2.569   4.992  0.5997  0.3364  1.2739
 1088SOL    HW214727   1.753   2.706   4.947 -1.4929 -2.2939 -1.3223
 1089SOL     OW14728   3.794   3.601   2.164  0.7689  0.0856  0.3504
 1089SOL    HW114729   3.868   3.657   2.141  0.6143  0.6169  1.1568
 1089SOL    HW214730   3.811   3.527   2.106 -0.3623  1.7859 -2.1508
 1090SOL     OW14731   0.928   4.203   8.169 -0.0486 -0.7296 -0.8797
 1090SOL    HW114732   0.930   4.181   8.262  1.6063  2.2801 -0.2256
 1090SOL    HW214733   0.837   4.229   8.184  0.7182 -0.1543  2.7077
 1091SOL     OW14734   1.926   2.714  17.446 -0.4029 -0.1585  0.4764
 1091SOL    HW114735   1.881   2.785  17.492 -0.9543  0.4509 -1.0045
 1091SOL    HW214736   1.861   2.668  17.392  0.0904  2.3668 -2.2356
 1092SOL     OW14737   4.540   1.894   6.787  0.2382  0.1421  0.0869
 1092SOL    HW114738   4.631   1.904   6.760  0.3166 -1.6780 -0.2892
 1092SOL    HW214739   4.508   1.962   6.728 -0.2726  0.2200  0.4517
 1093SOL     OW14740   4.038   0.391  12.439  0.0025  0.0771  0.0398
 1093SOL    HW114741   4.081   0.318  12.483  1.1539 -0.8180 -2.5985
 1093SOL    HW214742   4.010   0.352  12.356  3.1930  1.3445 -1.5926
 1094SOL     OW14743   1.242   3.152   8.815 -0.7503 -0.0991 -0.5943
 1094SOL    HW114744   1.151   3.126   8.833  0.3378 -0.6400  4.0232
 1094SOL    HW214745   1.257   3.106   8.732 -1.6050 -0.3165 -0.6340
 1095SOL     OW14746   3.982   2.008   3.350  0.0585  0.1258  0.4857
 1095SOL    HW114747   3.954   2.070   3.283  0.4649 -0.8425 -0.5797
 1095SOL    HW214748   3.901   1.977   3.391 -0.0808 -0.0608  0.0621
 1096SOL     OW14749   1.700   1.749  15.439 -0.3861 -0.5467  0.3311
 1096SOL    HW114750   1.740   1.730  15.524  1.3224  1.3672 -0.0529
 1096SOL    HW214751   1.606   1.759  15.459  0.1487  1.1720  2.0021
 1097SOL     OW14752   1.250   0.838   0.595 -0.3959 -0.3596 -0.2540
 1097SOL    HW114753   1.168   0.870   0.632 -0.0771  0.7119 -0.4730
 1097SOL    HW214754   1.267   0.915   0.541  1.6180 -0.5026  0.1726
 1098SOL     OW14755   3.157   0.451   7.025 -0.2680 -0.0958  0.7347
 1098SOL    HW114756   3.140   0.406   7.108  2.0286  1.1933  1.9158
 1098SOL    HW214757   3.067   0.477   7.005 -0.4630 -0.4454  1.1361
 1099SOL     OW14758   2.066   2.868  10.527 -0.3716 -0.0874 -0.2516
 1099SOL    HW114759   2.076   2.963  10.531 -0.1179 -0.1928  1.4284
 1099SOL    HW214760   2.000   2.851  10.594 -1.2612 -1.2067 -1.4101
 1100SOL     OW14761   3.577   3.372  14.466  0.1757  0.1816 -0.7066
 1100SOL    HW114762   3.606   3.287  14.432  0.3799  1.4565 -3.7548
 1100SOL    HW214763   3.599   3.422  14.388  0.2933 -0.1537 -0.8896
 1101SOL     OW14764   1.278   2.362   3.217 -0.7893 -0.2617 -0.6956
 1101SOL    HW114765   1.217   2.435   3.207 -2.0478 -1.0089  1.3725
 1101SOL    HW214766   1.208   2.296   3.224  0.9102 -1.9975  0.2919
 1102SOL     OW14767   0.512   3.810   4.451 -0.0780  0.3194 -0.3231
 1102SOL    HW114768   0.504   3.751   4.527  0.0027 -0.0670 -0.6137
 1102SOL    HW214769   0.535   3.891   4.497  0.2078 -0.6483  1.2810
 1103SOL     OW14770   3.545   4.242   2.856  0.3013 -0.1580  0.4709
 1103SOL    HW114771   3.510   4.230   2.767 -0.2578 -1.0894  0.8096
 1103SOL    HW214772   3.597   4.322   2.849 -0.6304  0.3247 -0.7806
 1104SOL     OW14773   0.331   0.259   2.949 -0.1896  0.2126 -0.2498
 1104SOL    HW114774   0.387   0.288   2.877  1.8276 -0.9115  0.8720
 1104SOL    HW214775   0.261   0.324   2.959  0.5663  1.1152 -0.8107
 1105SOL     OW14776   2.802   2.142   8.100  0.1741  0.5645  0.6308
 1105SOL    HW114777   2.723   2.185   8.133  0.3216  1.3430 -0.0331
 1105SOL    HW214778   2.835   2.073   8.158  0.9191 -0.4250 -0.9845
 1106SOL     OW14779   0.938   2.669   5.172  0.3464  0.2617  0.3823
 1106SOL    HW114780   0.960   2.583   5.209  0.9810  1.6119  3.1433
 1106SOL    HW214781   0.871   2.697   5.234  0.5850  0.8374  0.3854
 1107SOL     OW14782   1.607   3.449   2.876 -0.1130  0.0532 -0.1049
 1107SOL    HW114783   1.641   3.441   2.787  2.0185 -1.1108  0.8237
 1107SOL    HW214784   1.605   3.545   2.880  1.0584  0.1100 -0.8210
 1108SOL     OW14785   4.253   4.218   1.567 -0.0947  0.2316 -0.7593
 1108SOL    HW114786   4.322   4.250   1.625  0.1838 -1.7054 -0.0172
 1108SOL    HW214787   4.182   4.208   1.630  0.5826  1.3997  0.2012
 1109SOL     OW14788   1.320   2.831  16.877  0.5604 -0.4660 -0.2621
 1109SOL    HW114789   1.378   2.908  16.879 -2.0281  1.4481  1.0337
 1109SOL    HW214790   1.232   2.860  16.853  0.0086 -0.7866  1.3876
 1110SOL     OW14791   4.410   2.513   4.013 -0.0256  0.1317  0.2417
 1110SOL    HW114792   4.365   2.445   4.063  1.4692 -0.5990  0.6055
 1110SOL    HW214793   4.332   2.559   3.983 -0.0360 -0.4019 -0.5674
 1111SOL     OW14794   4.285   0.700   5.564 -0.3325  0.1501  0.1215
 1111SOL    HW114795   4.213   0.750   5.604 -0.0262  0.7111 -0.0411
 1111SOL    HW214796   4.259   0.700   5.472 -0.7968 -0.3767  0.2493
 1112SOL     OW14797   2.525   1.719  10.221  0.0697 -0.3567  0.5246
 1112SOL    HW114798   2.618   1.737  10.234  0.2248  0.5593 -1.8813
 1112SOL    HW214799   2.488   1.726  10.309  1.2950 -3.9133  1.3288
 1113SOL     OW14800   1.158   3.455   0.185  0.0604  0.4504  0.1734
 1113SOL    HW114801   1.097   3.413   0.124  0.1959 -0.6673  0.7992
 1113SOL    HW214802   1.242   3.425   0.151 -0.8716 -1.6691 -0.2632
 1114SOL     OW14803   1.798   0.165   4.680  0.0750 -0.2344  0.3055
 1114SOL    HW114804   1.705   0.152   4.698  0.0184  1.2564  1.1319
 1114SOL    HW214805   1.797   0.255   4.647  2.3124  0.2485  1.5845
 1115SOL     OW14806   2.117   1.743  15.452 -0.2054 -0.1752 -0.2472
 1115SOL    HW114807   2.208   1.761  15.475 -0.5954  1.5002 -0.0377
 1115SOL    HW214808   2.119   1.649  15.474  1.6356 -0.4139 -1.4441
 1116SOL     OW14809   0.754   1.269   4.876  0.4909  0.0560  0.0007
 1116SOL    HW114810   0.784   1.181   4.857 -1.9935 -0.3941 -1.8010
 1116SOL    HW214811   0.804   1.309   4.805  1.2252  1.8757  1.5324
 1117SOL     OW14812   3.347   2.138   4.722  0.0773  0.0647 -0.2350
 1117SOL    HW114813   3.329   2.106   4.634  0.4203  2.7721 -1.2847
 1117SOL    HW214814   3.301   2.071   4.774  2.0498  0.0293  1.4536
 1118SOL     OW14815   0.046   0.508   5.857 -0.3114 -0.2973 -0.2206
 1118SOL    HW114816   0.004   0.591   5.835 -0.3546 -0.5846 -1.2373
 1118SOL    HW214817   0.011   0.459   5.783  3.5140 -1.8588 -0.9662
 1119SOL     OW14818   0.195   1.039   7.990  0.2134  0.7094  0.2102
 1119SOL    HW114819   0.206   1.125   7.949 -0.9313  1.3880  1.3409
 1119SOL    HW214820   0.119   1.065   8.042 -1.7630  0.8288 -2.7751
 1120SOL     OW14821   3.932   3.935   4.958  0.1112  0.0625 -0.5930
 1120SOL    HW114822   3.923   4.016   5.007  1.1333 -0.5633  0.6239
 1120SOL    HW214823   4.023   3.943   4.927  0.4905  2.6779  1.1735
 1121SOL     OW14824   2.780   4.213  10.759 -0.0596  0.1287  0.2602
 1121SOL    HW114825   2.707   4.257  10.803  0.5253 -1.3067  2.7340
 1121SOL    HW214826   2.741   4.200  10.673 -1.2630  0.3285  0.7740
 1122SOL     OW14827   2.149   2.002   7.267  0.6997  0.2745  0.1060
 1122SOL    HW114828   2.162   2.051   7.186 -1.1984 -2.0408 -1.6309
 1122SOL    HW214829   2.159   1.912   7.238 -2.3707  0.8910 -2.9980
 1123SOL     OW14830   2.221   3.699   8.667 -0.0284 -0.3259  0.1741
 1123SOL    HW114831   2.199   3.784   8.628 -0.7098  0.6754  2.7384
 1123SOL    HW214832   2.316   3.693   8.655  0.0388  2.7523 -0.8791
 1124SOL     OW14833   0.469   0.668  16.714 -0.0136 -0.5312 -0.5519
 1124SOL    HW114834   0.415   0.651  16.637 -2.0786  0.1813  0.7265
 1124SOL    HW214835   0.552   0.682  16.668 -0.2463 -0.4664 -0.9523
 1125SOL     OW14836   2.557   1.933   5.577  0.4998 -0.4671  0.1076
 1125SOL    HW114837   2.462   1.936   5.586  0.2521 -1.0944 -2.5698
 1125SOL    HW214838   2.567   1.893   5.491  1.1871 -0.3722  0.1406
 1126SOL     OW14839   0.317   2.007   5.629 -0.1013 -0.1358  0.4937
 1126SOL    HW114840   0.331   1.918   5.663 -1.0400 -0.9620 -1.2584
 1126SOL    HW214841   0.376   2.060   5.681  0.4731  1.0047 -1.3385
 1127SOL     OW14842   2.002   3.109   9.268  0.3619 -0.6471 -0.4799
 1127SOL    HW114843   1.968   3.038   9.213  0.8948 -0.5232 -0.9582
 1127SOL    HW214844   1.978   3.082   9.357 -2.4930  0.5075 -0.8724
 1128SOL     OW14845   2.925   0.820   4.993  0.5901 -0.4434  0.5948
 1128SOL    HW114846   2.990   0.754   4.969 -0.0741 -0.4818 -1.0701
 1128SOL    HW214847   2.899   0.831   4.902 -0.2276 -0.3478  0.8372
 1129SOL     OW14848   2.201   0.335   7.784 -0.1483  0.1935  0.2472
 1129SOL    HW114849   2.278   0.285   7.809  0.5361  0.9233 -0.3997
 1129SOL    HW214850   2.140   0.294   7.844 -0.5388  1.8228  0.9622
 1130SOL     OW14851   4.463   0.451   7.162  0.4614  0.2273  0.4873
 1130SOL    HW114852   4.433   0.446   7.072  2.1345  1.5476 -0.1342
 1130SOL    HW214853   4.430   0.370   7.202 -1.8171  0.3069 -1.2447
 1131SOL     OW14854   0.016   3.023  10.460 -0.5306  0.0253 -0.1311
 1131SOL    HW114855   4.693   3.092  10.509  1.2878  0.8412  0.4030
 1131SOL    HW214856   0.030   3.077  10.382 -0.2475  0.4046  0.1818
 1132SOL     OW14857   4.012   1.716   2.563  0.0033  0.1183 -0.0134
 1132SOL    HW114858   3.933   1.688   2.516 -0.2188  1.7183 -0.5781
 1132SOL    HW214859   4.021   1.650   2.632 -0.3910 -0.4385 -0.4921
 1133SOL     OW14860   2.366   4.483   8.137 -0.3950  0.0649  0.4756
 1133SOL    HW114861   2.387   4.443   8.053  1.0100  1.5453  0.1279
 1133SOL    HW214862   2.281   4.527   8.132 -0.8138 -0.8852 -0.8869
 1134SOL     OW14863   1.709   3.462  14.490 -0.0186 -0.2815  0.2552
 1134SOL    HW114864   1.710   3.462  14.395  0.1461 -0.3051  0.2561
 1134SOL    HW214865   1.617   3.451  14.512  0.5901 -1.7591  2.1094
 1135SOL     OW14866   3.765   1.526   8.412  0.2468  0.1946 -0.0818
 1135SOL    HW114867   3.806   1.561   8.491 -1.5283  2.0222  0.0493
 1135SOL    HW214868   3.743   1.442   8.451  1.3993 -1.5990 -3.2209
 1136SOL     OW14869   1.667   4.143   2.689  0.2340 -0.0048  0.8838
 1136SOL    HW114870   1.624   4.225   2.663  0.8162  0.0145 -0.0245
 1136SOL    HW214871   1.624   4.083   2.629  0.7138  1.5202 -0.9718
 1137SOL     OW14872   1.211   1.744   8.311  0.2863 -0.0080  0.2958
 1137SOL    HW114873   1.245   1.727   8.223 -1.8244 -1.2440 -0.2821
 1137SOL    HW214874   1.179   1.658   8.338 -0.3605  0.0623 -0.2633
 1138SOL     OW14875   2.366   2.234   2.038  0.6672 -0.1417  0.3617
 1138SOL    HW114876   2.403   2.305   2.090 -0.9810  0.9222  0.0775
 1138SOL    HW214877   2.416   2.254   1.959 -3.8835  3.0303 -1.6781
 1139SOL     OW14878   0.559   1.035   2.399  0.5298  0.6983 -0.4559
 1139SOL    HW114879   0.595   0.947   2.394  0.4323  0.5574  1.2129
 1139SOL    HW214880   0.528   1.048   2.309  0.8355  0.4411 -0.5984
 1140SOL     OW14881   2.333   2.100   5.225 -0.0722  0.2017 -0.4509
 1140SOL    HW114882   2.391   2.065   5.293 -2.0574 -0.6317  0.8089
 1140SOL    HW214883   2.266   2.031   5.221  0.0523  0.1278 -1.2815
 1141SOL     OW14884   1.296   0.124  13.139  0.0660  0.0906 -0.0245
 1141SOL    HW114885   1.332   0.208  13.109 -1.4547  0.2493 -1.4514
 1141SOL    HW214886   1.348   0.060  13.090 -0.2870  0.0637 -0.3614
 1142SOL     OW14887   4.627   2.525  15.572 -0.1075  0.3352 -0.3732
 1142SOL    HW114888   4.614   2.605  15.623 -1.0100  0.0470 -0.1399
 1142SOL    HW214889   4.666   2.563  15.494 -2.4722  0.0398 -1.7084
 1143SOL     OW14890   4.094   0.908   1.883 -0.4745  0.1698 -0.4405
 1143SOL    HW114891   4.001   0.912   1.905 -0.7185  1.7270 -1.7410
 1143SOL    HW214892   4.113   1.000   1.901  3.2811 -0.5274 -0.8521
 1144SOL     OW14893   3.026   2.648   4.082 -0.3547  0.0568 -0.0023
 1144SOL    HW114894   3.050   2.558   4.103 -0.2938 -0.5264 -2.6358
 1144SOL    HW214895   3.055   2.660   3.992 -1.3059 -1.3445 -0.4937
 1145SOL     OW14896   0.266   1.932   6.087 -0.2557  0.0881 -0.5392
 1145SOL    HW114897   0.358   1.918   6.063 -0.4134 -0.2154 -0.9821
 1145SOL    HW214898   0.262   1.902   6.177  0.4329  0.6423 -0.3239
 1146SOL     OW14899   2.979   2.968   4.215  0.3751 -0.1605 -0.1108
 1146SOL    HW114900   2.948   2.959   4.306  0.3155  0.9188 -0.0206
 1146SOL    HW214901   3.048   2.903   4.208  1.0876  0.4939  0.7265
 1147SOL     OW14902   1.096   0.705   4.819 -0.3401 -0.0347 -0.1479
 1147SOL    HW114903   1.023   0.705   4.757 -1.2485  1.2038  0.9315
 1147SOL    HW214904   1.161   0.755   4.771 -0.9257  0.8660  0.0054
 1148SOL     OW14905   1.106   0.305   4.724  0.0398 -0.4729 -0.2385
 1148SOL    HW114906   1.042   0.254   4.673  0.2787 -0.0331 -0.9721
 1148SOL    HW214907   1.181   0.246   4.724  0.6900  0.3614 -0.6198
 1149SOL     OW14908   4.646   3.269  14.389 -0.6983  0.2846  0.2718
 1149SOL    HW114909   4.591   3.329  14.440 -1.7343 -0.2025 -0.2747
 1149SOL    HW214910   4.578   3.204  14.373 -0.6665  0.1291  0.7560
 1150SOL     OW14911   4.347   4.573   7.644 -0.1088  0.0957  0.1338
 1150SOL    HW114912   4.322   4.665   7.657  1.3212  0.2418  1.8627
 1150SOL    HW214913   4.321   4.554   7.554 -2.8434  1.9124  0.5176
 1151SOL     OW14914   0.630   3.718   7.459  0.2972  0.1071  0.6033
 1151SOL    HW114915   0.653   3.663   7.384  1.9368  0.8659  0.5627
 1151SOL    HW214916   0.540   3.686   7.472 -0.2840  1.3126 -0.4383
 1152SOL     OW14917   3.769   0.257  10.780 -0.1516  0.6911 -0.2456
 1152SOL    HW114918   3.742   0.170  10.809  2.9104 -0.7060 -1.5116
 1152SOL    HW214919   3.864   0.247  10.788 -0.0951  1.5038  0.0423
 1153SOL     OW14920   3.360   2.112   0.987 -0.0851  0.2370  0.3033
 1153SOL    HW114921   3.345   2.182   0.924 -2.1156  1.2164  1.8811
 1153SOL    HW214922   3.425   2.066   0.934  0.2535  0.2969  0.6705
 1154SOL     OW14923   1.966   0.390   3.456  0.0785 -0.0870 -0.0399
 1154SOL    HW114924   1.914   0.390   3.376  1.4549 -1.2798 -0.9513
 1154SOL    HW214925   1.953   0.482   3.478 -0.8618 -0.7673  2.3141
 1155SOL     OW14926   1.251   0.795   7.982  0.2249  0.2228 -0.0830
 1155SOL    HW114927   1.166   0.753   7.994  1.2248 -1.9621 -0.6451
 1155SOL    HW214928   1.298   0.758   8.057  0.9422  0.0067 -0.6407
 1156SOL     OW14929   2.100   4.187   2.074  0.2203 -0.1599 -0.7610
 1156SOL    HW114930   2.022   4.182   2.019  0.0678 -0.9347 -0.4696
 1156SOL    HW214931   2.064   4.233   2.149  2.1283  0.2839 -0.1172
 1157SOL     OW14932   2.105   2.261   5.206 -0.4714 -0.6405  0.5292
 1157SOL    HW114933   2.186   2.217   5.181  0.0879 -0.5141  2.0958
 1157SOL    HW214934   2.117   2.354   5.185 -0.0629 -0.4370  1.6813
 1158SOL     OW14935   2.546   2.835  17.290  0.0500 -0.1693 -0.3739
 1158SOL    HW114936   2.477   2.872  17.235 -1.1832 -0.7539  0.7799
 1158SOL    HW214937   2.516   2.839  17.380 -0.7619 -1.6124 -0.5791
 1159SOL     OW14938   3.288   3.006   7.457  0.0782  0.0053 -0.2446
 1159SOL    HW114939   3.200   2.967   7.456  0.1389 -0.1636  2.9316
 1159SOL    HW214940   3.290   3.069   7.385  1.7203  2.0271  1.6111
 1160SOL     OW14941   2.593   2.984   4.333 -0.3329  0.0209 -0.0636
 1160SOL    HW114942   2.653   3.038   4.384  0.0065 -0.4652  0.0498
 1160SOL    HW214943   2.517   2.980   4.390 -0.0157  4.6868  0.6859
 1161SOL     OW14944   4.639   3.668   7.665  0.1423 -0.0334 -0.7975
 1161SOL    HW114945   4.646   3.622   7.582  0.3331 -0.4429 -0.5525
 1161SOL    HW214946   4.661   3.755   7.630  0.7173  0.2250  0.2168
 1162SOL     OW14947   2.774   3.834   0.657  0.6284  0.0411 -0.4688
 1162SOL    HW114948   2.740   3.786   0.581  0.5312  0.1396 -0.4865
 1162SOL    HW214949   2.803   3.758   0.707 -1.2308 -0.8078 -0.6700
 1163SOL     OW14950   2.087   1.223   2.873  0.2214 -0.3984  0.1162
 1163SOL    HW114951   2.171   1.250   2.911  0.6441 -2.8446  0.9485
 1163SOL    HW214952   2.052   1.306   2.843  0.8247  0.4015  1.6192
 1164SOL     OW14953   1.889   0.638   3.535  0.4090  0.1435 -0.3366
 1164SOL    HW114954   1.854   0.615   3.621  2.6332  0.3159  0.6299
 1164SOL    HW214955   1.891   0.734   3.543 -2.1840  0.2500 -0.9697
 1165SOL     OW14956   3.427   3.537   0.887 -0.2026 -0.9473 -0.1555
 1165SOL    HW114957   3.428   3.534   0.791 -1.0426 -1.0380 -0.1687
 1165SOL    HW214958   3.509   3.580   0.909 -0.2962 -1.5424  1.3619
 1166SOL     OW14959   3.390   1.256   6.654  0.6745  0.7058  0.4189
 1166SOL    HW114960   3.355   1.205   6.581 -1.6836 -0.8991  2.6983
 1166SOL    HW214961   3.444   1.195   6.703 -0.8662 -1.8890 -1.1313
 1167SOL     OW14962   1.738   1.932   2.618  0.2083 -0.0091 -0.1592
 1167SOL    HW114963   1.781   1.960   2.699  0.0660  2.3618 -0.9055
 1167SOL    HW214964   1.725   2.018   2.580 -2.3082 -0.6565 -0.7462
 1168SOL     OW14965   2.337   1.859  12.029 -0.8543 -0.4083  0.3141
 1168SOL    HW114966   2.346   1.920  12.102  2.5771  0.7444 -1.0805
 1168SOL    HW214967   2.245   1.833  12.031 -1.2876  1.1215  0.3000
 1169SOL     OW14968   1.509   3.058   7.213  0.2306 -0.4029  0.2500
 1169SOL    HW114969   1.454   3.055   7.134  0.1901  0.0161  0.2641
 1169SOL    HW214970   1.573   2.987   7.204 -0.2755 -0.7054 -1.0095
 1170SOL     OW14971   1.450   1.062  12.248 -0.3926 -0.0437  0.0465
 1170SOL    HW114972   1.366   1.035  12.287  0.7913 -1.0895  1.8912
 1170SOL    HW214973   1.515   1.024  12.308  2.0158  1.5187 -1.5967
 1171SOL     OW14974   0.843   2.943   0.916 -0.5006 -0.4756  0.5106
 1171SOL    HW114975   0.804   2.860   0.888  1.0871 -0.6177 -1.2951
 1171SOL    HW214976   0.771   3.006   0.916  0.1311  0.2636 -2.6131
 1172SOL     OW14977   2.285   0.998   8.109 -0.0118  0.1376 -0.4672
 1172SOL    HW114978   2.295   0.913   8.151 -1.4390 -0.4148 -1.2072
 1172SOL    HW214979   2.247   1.053   8.177  0.8299  1.9740 -1.4941
 1173SOL     OW14980   2.783   0.216   8.173  0.2233  0.4849 -0.0919
 1173SOL    HW114981   2.797   0.136   8.223 -1.8028  0.3334  0.2240
 1173SOL    HW214982   2.873   0.248   8.180  0.0543  0.2669  3.3473
 1174SOL     OW14983   1.756   0.724  10.866 -0.1672  0.3470 -0.0506
 1174SOL    HW114984   1.733   0.669  10.792  2.4820  0.7982 -1.2237
 1174SOL    HW214985   1.839   0.678  10.881 -0.7505 -0.4062  0.8163
 1175SOL     OW14986   1.023   0.584   3.943  0.1130  0.4570  0.1781
 1175SOL    HW114987   1.028   0.592   3.847  0.8667  0.2585  0.2076
 1175SOL    HW214988   1.041   0.673   3.973  0.5280 -0.2699  2.0266
 1176SOL     OW14989   0.588   2.641   1.657  0.4042  0.1808  0.1686
 1176SOL    HW114990   0.617   2.715   1.604 -0.4798  0.4076  0.0065
 1176SOL    HW214991   0.643   2.660   1.733 -0.7989 -0.1240  1.1158
 1177SOL     OW14992   4.041   1.092   3.608  0.5607 -0.0922  0.5631
 1177SOL    HW114993   4.073   1.162   3.551  2.3399  0.1967  1.9246
 1177SOL    HW214994   4.085   1.086   3.693 -1.5220  2.6830  1.8438
 1178SOL     OW14995   1.380   3.508   3.085  0.4551 -0.1659  0.5558
 1178SOL    HW114996   1.424   3.524   3.002  1.2383 -2.0141  0.6106
 1178SOL    HW214997   1.339   3.591   3.109 -1.1261 -0.6204 -0.5909
 1179SOL     OW14998   1.513   4.390   5.427  0.0860  0.4062  0.2547
 1179SOL    HW114999   1.506   4.463   5.365 -2.3868 -0.0416  0.0080
 1179SOL    HW215000   1.495   4.311   5.375  0.1558  0.0346  0.7955
 1180SOL     OW15001   3.372   3.170   8.379 -0.1547  0.1578  0.1356
 1180SOL    HW115002   3.393   3.182   8.471 -2.0426  0.4637  0.5402
 1180SOL    HW215003   3.446   3.116   8.351  1.0478  1.1781  1.3598
 1181SOL     OW15004   1.889   1.068   0.841 -0.2910 -0.9029  0.2854
 1181SOL    HW115005   1.868   0.976   0.853 -0.0020 -0.9239  0.6668
 1181SOL    HW215006   1.816   1.098   0.788  0.0922 -2.0430 -0.8869
 1182SOL     OW15007   4.303   2.224  16.108 -0.4314 -0.1147 -1.0928
 1182SOL    HW115008   4.217   2.229  16.151  1.2598 -1.8466  2.5555
 1182SOL    HW215009   4.354   2.186  16.180 -3.1625 -1.0653  0.3222
 1183SOL     OW15010   1.352   0.457   8.652  0.0751 -0.0085 -0.2909
 1183SOL    HW115011   1.351   0.535   8.708  1.5351  1.7375 -2.6797
 1183SOL    HW215012   1.437   0.456   8.606 -0.1540  1.9124 -0.7733
 1184SOL     OW15013   4.666   1.965   1.202  0.4838  0.6745 -0.3247
 1184SOL    HW115014   4.579   1.928   1.186  1.5090 -0.9163 -2.3072
 1184SOL    HW215015   4.705   1.910   1.270 -0.9017 -0.2112 -0.2488
 1185SOL     OW15016   3.958   0.678   5.115  0.2727 -0.5087  0.1775
 1185SOL    HW115017   3.931   0.746   5.054 -1.6388 -0.5269  0.9989
 1185SOL    HW215018   3.949   0.600   5.059 -2.0589 -0.0843 -0.0677
 1186SOL     OW15019   2.893   2.679  14.179 -0.2423  0.1287 -0.0290
 1186SOL    HW115020   2.801   2.654  14.175 -0.2571 -0.0195  1.5731
 1186SOL    HW215021   2.906   2.698  14.272  2.8675 -1.1111 -0.2066
 1187SOL     OW15022   0.772   0.091   4.467  0.7014  0.4724  0.6514
 1187SOL    HW115023   0.714   0.129   4.401  1.4762  1.1337  0.3492
 1187SOL    HW215024   0.824   0.041   4.404  1.6177  0.9913  0.9809
 1188SOL     OW15025   3.250   0.926   6.743  0.2338  0.1995  0.5390
 1188SOL    HW115026   3.304   0.980   6.686 -0.8829  1.4243  0.6588
 1188SOL    HW215027   3.168   0.927   6.693 -0.2398 -0.1998  1.2906
 1189SOL     OW15028   2.288   4.171   3.680 -0.0724 -0.5223  0.3139
 1189SOL    HW115029   2.254   4.227   3.750 -0.6195  1.1689 -1.3194
 1189SOL    HW215030   2.318   4.232   3.613  0.1722  0.1554  1.0420
 1190SOL     OW15031   3.930   0.003   6.192 -0.1324  0.0301 -0.2969
 1190SOL    HW115032   3.926   0.008   6.097 -1.2722 -0.9058 -0.2870
 1190SOL    HW215033   4.018   4.687   6.192  0.1138  0.5954 -0.7877
 1191SOL     OW15034   4.423   1.890   4.031  0.3475 -0.0859  0.7034
 1191SOL    HW115035   4.362   1.954   3.994  1.5652 -0.4615 -1.9435
 1191SOL    HW215036   4.491   1.943   4.072  1.4371 -0.7441 -0.2689
 1192SOL     OW15037   4.153   1.253   1.978  0.0769 -0.4625 -0.0990
 1192SOL    HW115038   4.249   1.260   1.983  0.0213 -0.1120  0.5036
 1192SOL    HW215039   4.134   1.339   1.939 -0.2359 -1.4859 -2.1926
 1193SOL     OW15040   0.785   1.541   5.663 -0.2893 -0.4890  0.1231
 1193SOL    HW115041   0.782   1.559   5.569 -2.2463 -0.3392  0.2173
 1193SOL    HW215042   0.760   1.449   5.662  1.5965 -0.9953 -1.2176
 1194SOL     OW15043   0.893   0.631   4.636  0.1407 -0.0832 -0.1593
 1194SOL    HW115044   0.802   0.605   4.636 -0.0622  0.6363  1.0676
 1194SOL    HW215045   0.922   0.541   4.622  0.9341  0.0050  0.8437
 1195SOL     OW15046   2.769   2.410   4.435 -0.5649  0.4280 -0.7354
 1195SOL    HW115047   2.862   2.400   4.458 -0.4185  1.2142 -0.9810
 1195SOL    HW215048   2.742   2.487   4.485 -3.4330 -1.1546  0.1082
 1196SOL     OW15049   4.495   4.433   3.748  0.1972  0.1092  0.5072
 1196SOL    HW115050   4.531   4.450   3.835 -0.5254 -1.0001  1.0160
 1196SOL    HW215051   4.461   4.521   3.734  3.1526  1.7495  3.5193
 1197SOL     OW15052   3.246   4.232   2.682 -0.1254 -0.6305  0.3224
 1197SOL    HW115053   3.300   4.162   2.718 -0.3733 -0.9663  0.0391
 1197SOL    HW215054   3.282   4.247   2.594 -0.0175  1.6318  0.7676
 1198SOL     OW15055   0.253   3.820   1.247 -0.0006  0.1073 -0.1959
 1198SOL    HW115056   0.192   3.882   1.286  1.7464  1.2966  0.6402
 1198SOL    HW215057   0.240   3.747   1.308  1.7103 -1.1312 -1.2939
 1199SOL     OW15058   1.065   4.157   9.885 -0.6491 -0.3658  0.7040
 1199SOL    HW115059   1.037   4.111   9.964  0.6995 -1.6429  0.4217
 1199SOL    HW215060   1.135   4.214   9.918 -0.2448 -0.7800  0.5558
 1200SOL     OW15061   2.716   0.782   1.834  0.2820 -0.6318 -0.2087
 1200SOL    HW115062   2.754   0.706   1.789 -0.8802 -0.0377 -2.1854
 1200SOL    HW215063   2.630   0.746   1.856  0.7454 -2.3064 -1.1502
 1201SOL     OW15064   2.012   4.543   6.012 -0.1242  0.1696 -0.1873
 1201SOL    HW115065   2.096   4.568   6.051 -0.6447  2.3252 -0.4639
 1201SOL    HW215066   2.000   4.451   6.036 -0.8522  1.0141  2.5995
 1202SOL     OW15067   4.536   3.955   7.052  0.3686 -0.2469 -0.1949
 1202SOL    HW115068   4.514   3.917   7.137 -2.9497 -0.0508 -0.9925
 1202SOL    HW215069   4.446   3.972   7.026  0.3336  2.7748  1.9044
 1203SOL     OW15070   2.879   3.864   3.399 -0.0235  0.3903  0.8606
 1203SOL    HW115071   2.816   3.931   3.425 -2.3461 -1.4288 -0.0813
 1203SOL    HW215072   2.948   3.898   3.455  1.7789 -0.8499 -0.6128
 1204SOL     OW15073   0.433   1.102   3.323  0.4277 -0.0784 -0.1703
 1204SOL    HW115074   0.463   1.062   3.404 -0.3147 -0.9086 -0.3106
 1204SOL    HW215075   0.402   1.022   3.281 -1.7545  0.1073  1.1057
 1205SOL     OW15076   1.281   2.679   1.395 -0.8236 -0.1532 -0.1325
 1205SOL    HW115077   1.336   2.612   1.353 -1.1286 -0.0790 -0.6610
 1205SOL    HW215078   1.196   2.661   1.355  0.9609 -1.6068 -3.3068
 1206SOL     OW15079   2.384   0.430  11.715 -0.0401 -0.2296 -0.5080
 1206SOL    HW115080   2.437   0.401  11.789 -1.0158 -0.7537 -0.0187
 1206SOL    HW215081   2.441   0.403  11.643  1.0305  0.3980  0.1005
 1207SOL     OW15082   3.078   0.196   1.564  0.7300 -0.6213  0.0082
 1207SOL    HW115083   3.148   0.141   1.530  0.8556  0.1640 -0.9918
 1207SOL    HW215084   3.123   0.279   1.557 -1.6412  0.7515  0.8690
 1208SOL     OW15085   3.184   2.274   3.464  0.1817  0.2820  0.7396
 1208SOL    HW115086   3.139   2.351   3.429 -0.3048 -0.4719 -0.2939
 1208SOL    HW215087   3.158   2.280   3.556 -2.4177 -1.9102  0.1622
 1209SOL     OW15088   1.719   2.304   3.374  0.4612 -0.5737  0.2543
 1209SOL    HW115089   1.766   2.252   3.439  0.1957  1.0294  1.7196
 1209SOL    HW215090   1.787   2.359   3.334 -0.7686  0.9217  0.2551
 1210SOL     OW15091   3.155   2.740  16.642  0.9849  0.4516 -0.2594
 1210SOL    HW115092   3.237   2.769  16.682  1.6957 -1.2260 -0.5112
 1210SOL    HW215093   3.106   2.821  16.626  1.4951  0.7313 -0.4082
 1211SOL     OW15094   0.190   2.652   2.770  0.7025 -0.6822 -0.0511
 1211SOL    HW115095   0.194   2.677   2.862 -1.2389  0.3985 -0.2688
 1211SOL    HW215096   0.115   2.593   2.767 -1.6333  2.3541 -0.9128
 1212SOL     OW15097   0.685   3.380  17.617  0.1899 -0.5955  0.2828
 1212SOL    HW115098   0.694   3.474  17.632  0.7192 -0.5269 -0.5124
 1212SOL    HW215099   0.761   3.360  17.563 -0.6049 -0.6059 -0.8305
 1213SOL     OW15100   1.142   2.310   6.590  0.0290 -0.4581  0.0090
 1213SOL    HW115101   1.130   2.215   6.596 -0.0734 -0.2325  3.1416
 1213SOL    HW215102   1.176   2.326   6.502 -2.6452  0.2876 -0.8969
 1214SOL     OW15103   4.250   0.689   3.218  0.3772 -0.3789 -0.1376
 1214SOL    HW115104   4.177   0.733   3.175 -2.0815 -2.2153  2.1488
 1214SOL    HW215105   4.260   0.601   3.182  0.2721 -0.1240 -0.7875
 1215SOL     OW15106   0.716   0.953  14.593  0.6860 -0.3797  0.2533
 1215SOL    HW115107   0.782   0.966  14.661 -1.6982  2.5547  1.9999
 1215SOL    HW215108   0.644   0.999  14.637  0.7358 -0.6228  0.5957
 1216SOL     OW15109   2.934   0.734   2.652  0.2926  0.4624 -0.0345
 1216SOL    HW115110   3.009   0.736   2.592  0.9446 -2.4813  0.6644
 1216SOL    HW215111   2.970   0.665   2.707  1.2260  0.3904 -0.7213
 1217SOL     OW15112   3.857   4.422   5.414  0.2646 -0.4252  0.0513
 1217SOL    HW115113   3.794   4.463   5.473  0.5921  0.0744  0.0565
 1217SOL    HW215114   3.860   4.336   5.456 -0.6149 -0.6446 -0.3492
 1218SOL     OW15115   0.145   3.793  16.704  0.2813 -0.1960 -0.0454
 1218SOL    HW115116   0.130   3.861  16.769  0.8341 -2.0151  1.9505
 1218SOL    HW215117   0.089   3.725  16.740 -1.1739  1.3070  0.5409
 1219SOL     OW15118   1.822   0.521   0.414  0.2302  0.4714 -0.1593
 1219SOL    HW115119   1.848   0.613   0.403 -1.9635  0.9101 -1.5226
 1219SOL    HW215120   1.865   0.495   0.496 -0.5944  0.5792  0.2992
 1220SOL     OW15121   3.803   2.713  10.910 -0.0651 -0.5458  0.1776
 1220SOL    HW115122   3.786   2.744  10.999 -0.9392 -2.0065  0.5262
 1220SOL    HW215123   3.735   2.646  10.900 -1.2205  0.3530  1.9569
 1221SOL     OW15124   2.375   3.063  16.005 -0.4694  0.1020  1.2055
 1221SOL    HW115125   2.388   3.071  16.099  0.7499 -1.4761  1.1719
 1221SOL    HW215126   2.332   2.978  15.996  3.5000 -1.9211  1.0637
 1222SOL     OW15127   2.291   0.054   4.305  0.0075 -0.2839  0.0807
 1222SOL    HW115128   2.348   0.131   4.295  2.0346 -1.5107  2.2038
 1222SOL    HW215129   2.352   4.705   4.292  0.4526  0.2404 -0.6581
 1223SOL     OW15130   0.126   4.206   3.246  0.1983  0.0581 -0.3240
 1223SOL    HW115131   0.096   4.127   3.291  1.7151  0.8796  2.1050
 1223SOL    HW215132   0.044   4.241   3.210 -1.0417  0.1883  2.6289
 1224SOL     OW15133   3.938   1.439  14.853 -0.2293  0.3901 -0.6914
 1224SOL    HW115134   3.955   1.525  14.890  0.7874 -0.9146  1.8963
 1224SOL    HW215135   3.856   1.462  14.810  0.6938  1.8429 -1.6647
 1225SOL     OW15136   0.316   0.055   4.784  0.3994 -0.1615 -0.1158
 1225SOL    HW115137   0.260   0.050   4.707 -1.0664 -0.0633  0.9452
 1225SOL    HW215138   0.326   4.687   4.813 -2.4976 -0.4652 -0.0588
 1226SOL     OW15139   2.547   3.279   4.028  0.2975  0.8766  0.0403
 1226SOL    HW115140   2.587   3.351   4.077  1.0951  1.1798 -1.0810
 1226SOL    HW215141   2.578   3.302   3.941  0.8206  1.1064  0.2877
 1227SOL     OW15142   3.538   4.393   2.599 -0.2070 -0.0540 -0.4371
 1227SOL    HW115143   3.570   4.442   2.523  1.0334 -1.7908 -1.0559
 1227SOL    HW215144   3.549   4.455   2.671 -2.4418  0.9948 -1.0128
 1228SOL     OW15145   1.952   2.063   6.641  0.7027 -0.5414  0.0299
 1228SOL    HW115146   1.938   2.125   6.713 -0.0619  0.5104 -1.0107
 1228SOL    HW215147   1.980   1.982   6.683  0.4740 -0.2834  0.6945
 1229SOL     OW15148   2.526   4.099   6.075  0.1175  0.0724 -0.3587
 1229SOL    HW115149   2.581   4.117   6.152  1.0119 -0.6220 -0.8417
 1229SOL    HW215150   2.573   4.019   6.051 -0.0625 -0.1300 -0.0394
 1230SOL     OW15151   0.808   1.392   7.725 -0.1612 -0.3961  0.1420
 1230SOL    HW115152   0.779   1.448   7.653 -3.1276 -0.1997  1.4731
 1230SOL    HW215153   0.785   1.447   7.800 -2.8042 -1.3341  0.0196
 1231SOL     OW15154   1.441   3.753   7.414 -0.0568 -0.7307 -0.3518
 1231SOL    HW115155   1.495   3.687   7.370 -0.5506 -0.6865 -1.0341
 1231SOL    HW215156   1.501   3.771   7.486  0.0218 -1.6853 -0.1664
 1232SOL     OW15157   4.421   2.496  15.125 -0.1934 -0.2936 -0.1569
 1232SOL    HW115158   4.407   2.463  15.213 -0.7568  1.6911  0.5015
 1232SOL    HW215159   4.509   2.468  15.102  0.6569 -1.0702  4.0289
 1233SOL     OW15160   1.105   1.015   7.658  0.1646  0.2088  0.3367
 1233SOL    HW115161   1.114   1.108   7.641  2.0558  0.1607  1.0434
 1233SOL    HW215162   1.158   1.016   7.738 -0.3814 -3.3811  0.7572
 1234SOL     OW15163   4.694   1.733   5.217  0.3423 -0.2325 -0.1576
 1234SOL    HW115164   4.702   1.828   5.206 -1.9852 -0.0057  0.2594
 1234SOL    HW215165   4.608   1.713   5.181  0.2264  2.3510 -1.3283
 1235SOL     OW15166   3.281   1.487   4.137 -0.4268  0.0139 -0.2294
 1235SOL    HW115167   3.372   1.484   4.109 -1.3552  0.3826 -3.3021
 1235SOL    HW215168   3.236   1.438   4.068  2.2664 -1.1927 -1.1057
 1236SOL     OW15169   2.903   1.410   1.980  0.1864 -0.5740 -0.1235
 1236SOL    HW115170   2.946   1.369   1.905  0.5541 -0.4393  0.0117
 1236SOL    HW215171   2.968   1.476   2.005 -0.8381  1.1850 -2.1510
 1237SOL     OW15172   0.637   2.247   5.206  0.0556 -0.2295  0.2709
 1237SOL    HW115173   0.696   2.177   5.234 -0.9357 -1.0172  0.3529
 1237SOL    HW215174   0.567   2.229   5.269 -1.4786  1.8255 -0.8500
 1238SOL     OW15175   0.057   2.508  12.635  0.2842 -0.0857  0.9761
 1238SOL    HW115176   0.080   2.574  12.569  0.6199  0.5014  1.6804
 1238SOL    HW215177   4.684   2.505  12.638  0.3231 -2.1937  0.1877
 1239SOL     OW15178   3.486   2.478  13.340 -0.6609 -0.0144  0.4437
 1239SOL    HW115179   3.484   2.501  13.247  0.4859  1.2923  0.7461
 1239SOL    HW215180   3.417   2.413  13.353  1.3612 -1.9220  1.5504
 1240SOL     OW15181   4.505   3.511   3.313  0.1761 -0.3266 -0.0305
 1240SOL    HW115182   4.544   3.455   3.381  2.0562  0.7050 -0.2629
 1240SOL    HW215183   4.521   3.467   3.230 -0.3263  1.6582 -1.1834
 1241SOL     OW15184   2.982   2.090   6.976  0.6309 -0.0122  0.0133
 1241SOL    HW115185   2.964   2.184   6.966  0.4674 -0.0785 -0.3063
 1241SOL    HW215186   3.060   2.086   6.921  0.5312 -0.1842 -0.1158
 1242SOL     OW15187   1.501   0.713   3.406 -0.5389  0.5247  0.1509
 1242SOL    HW115188   1.525   0.781   3.469  1.9273  1.3784 -1.7270
 1242SOL    HW215189   1.587   0.688   3.375 -0.1251  0.4257  1.3849
 1243SOL     OW15190   2.785   4.685   1.743  0.5727 -0.1128  0.3451
 1243SOL    HW115191   2.755   4.643   1.662 -2.2695  0.3367  1.1538
 1243SOL    HW215192   2.825   4.620   1.801  0.9943 -0.9809 -0.9079
 1244SOL     OW15193   2.436   1.744  10.493  0.2740 -0.3535  0.2485
 1244SOL    HW115194   2.464   1.824  10.538  2.8489 -0.2303 -1.6119
 1244SOL    HW215195   2.443   1.678  10.562 -0.5787 -0.5238  0.1718
 1245SOL     OW15196   4.216   0.352   7.744 -0.2092  0.2225 -0.3458
 1245SOL    HW115197   4.243   0.436   7.782  0.1830  0.7645 -1.7924
 1245SOL    HW215198   4.124   0.355   7.771  0.1028  0.3673  0.6976
 1246SOL     OW15199   2.416   0.047   2.268  0.4583 -0.5891  0.5006
 1246SOL    HW115200   2.321   0.037   2.265  0.3103  1.4421 -1.0047
 1246SOL    HW215201   2.429   0.126   2.216 -0.7119  1.1245  2.8529
 1247SOL     OW15202   3.621   1.972   9.632  0.0299 -0.0134  0.2134
 1247SOL    HW115203   3.679   2.043   9.660 -0.2510  0.6684 -0.9456
 1247SOL    HW215204   3.540   2.012   9.603 -0.0588  0.1625  0.7052
 1248SOL     OW15205   1.602   0.579  16.529 -0.3138 -0.0912  0.2243
 1248SOL    HW115206   1.533   0.621  16.580  0.2319 -1.2184  1.8817
 1248SOL    HW215207   1.572   0.588  16.439 -0.6329  0.5104  0.3885
 1249SOL     OW15208   2.156   2.698  13.321 -0.5650 -0.0986  0.2236
 1249SOL    HW115209   2.133   2.754  13.246  0.4896 -1.5185 -1.1665
 1249SOL    HW215210   2.112   2.743  13.393 -0.5682 -0.5787  0.5177
 1250SOL     OW15211   0.662   0.895  14.269  0.0566 -0.0577  0.5500
 1250SOL    HW115212   0.679   0.847  14.350  0.3196  0.1206  0.5987
 1250SOL    HW215213   0.640   0.828  14.204  0.9115  0.9965 -0.7999
 1251SOL     OW15214   2.623   4.178   2.564 -0.1873 -0.4642 -0.3097
 1251SOL    HW115215   2.698   4.216   2.519 -0.6020  0.5055 -0.1749
 1251SOL    HW215216   2.555   4.228   2.520  1.8770  0.8687 -1.9805
 1252SOL     OW15217   3.131   1.524   4.967  0.5061 -0.3799 -0.0849
 1252SOL    HW115218   3.083   1.605   4.981 -0.0765 -1.0551  1.8585
 1252SOL    HW215219   3.070   1.463   5.009  1.2073 -0.2432  1.1500
 1253SOL     OW15220   2.284   0.281   2.016  0.2010  0.2439  0.2725
 1253SOL    HW115221   2.268   0.299   2.109 -0.1918  1.0048  0.0573
 1253SOL    HW215222   2.267   0.367   1.977 -1.7171  0.1528  0.9140
 1254SOL     OW15223   2.325   2.107   6.599  0.1949 -0.6081 -0.2004
 1254SOL    HW115224   2.332   2.012   6.608  0.3685 -0.5889 -0.1243
 1254SOL    HW215225   2.308   2.111   6.505 -0.6418 -1.4358 -0.0807
 1255SOL     OW15226   2.688   4.551   1.524  0.4407  0.2525  0.3829
 1255SOL    HW115227   2.631   4.476   1.543  1.7786 -0.8798 -0.1067
 1255SOL    HW215228   2.768   4.503   1.506 -0.8856 -1.3965 -1.1100
 1256SOL     OW15229   1.744   0.384   6.964  0.4857 -0.0883  0.6024
 1256SOL    HW115230   1.744   0.463   6.910  2.1899 -2.6697 -3.1803
 1256SOL    HW215231   1.744   0.416   7.054  0.5134  0.9886  0.2187
 1257SOL     OW15232   2.724   2.034  15.179 -0.1562  0.1844 -0.2735
 1257SOL    HW115233   2.719   1.939  15.182 -4.1581  0.3774 -1.3312
 1257SOL    HW215234   2.692   2.058  15.093  1.0840  1.2087 -0.4656
 1258SOL     OW15235   3.553   0.776   3.919  0.2031 -0.0763 -0.4201
 1258SOL    HW115236   3.577   0.684   3.909 -0.4966 -0.3831  0.7002
 1258SOL    HW215237   3.636   0.820   3.938  0.8713 -1.4375 -0.2041
 1259SOL     OW15238   4.581   0.291   3.286  0.0116 -0.3950  0.1990
 1259SOL    HW115239   4.555   0.208   3.245 -0.8307 -0.2788  0.5091
 1259SOL    HW215240   4.505   0.347   3.272 -0.5079 -1.0936  0.2079
 1260SOL     OW15241   0.253   0.476   2.385  0.2058  0.1404 -0.0189
 1260SOL    HW115242   0.273   0.545   2.448 -1.4931  0.9306 -0.3445
 1260SOL    HW215243   0.267   0.407   2.450  2.2178  0.8825  0.3288
 1261SOL     OW15244   4.247   2.841   4.147  0.4141  0.2460 -0.5191
 1261SOL    HW115245   4.320   2.794   4.187 -1.3686 -3.0231 -1.0913
 1261SOL    HW215246   4.295   2.904   4.095 -0.2955  0.6149 -0.7311
 1262SOL     OW15247   0.378   2.502   5.320 -0.1102 -0.5863  0.0414
 1262SOL    HW115248   0.310   2.560   5.284  1.3553  0.5370 -0.9320
 1262SOL    HW215249   0.376   2.432   5.255  1.3783 -1.3179  0.7739
 1263SOL     OW15250   0.012   0.026  15.530  0.0445 -0.0601 -0.2384
 1263SOL    HW115251   0.018   0.120  15.545 -3.7720  0.0931  0.3833
 1263SOL    HW215252   0.094   4.721  15.571 -0.8037  0.6938  1.9130
 1264SOL     OW15253   3.167   1.615  14.019  0.5347  0.0150  0.3462
 1264SOL    HW115254   3.197   1.630  13.929 -0.1889 -0.1567  0.0799
 1264SOL    HW215255   3.219   1.685  14.058 -0.1002  1.0162 -0.5960
 1265SOL     OW15256   0.485   1.926   3.418 -0.1751  0.5325  0.2012
 1265SOL    HW115257   0.454   1.870   3.489 -1.1008 -0.4905 -0.9995
 1265SOL    HW215258   0.564   1.878   3.394 -1.8434 -1.5890 -1.0654
 1266SOL     OW15259   3.970   3.130   5.606  0.6662 -0.2178  0.1333
 1266SOL    HW115260   3.980   3.127   5.511 -0.5708  0.7500 -0.0364
 1266SOL    HW215261   4.054   3.170   5.631  0.5555 -0.6318  1.1641
 1267SOL     OW15262   1.974   3.248  12.246  0.0066  0.1487 -0.4079
 1267SOL    HW115263   1.969   3.307  12.321 -1.6795  1.3921 -1.5038
 1267SOL    HW215264   1.907   3.273  12.183  0.3945  2.3670  0.0346
 1268SOL     OW15265   3.688   0.047  12.023  0.2272  0.1275 -0.3026
 1268SOL    HW115266   3.649   0.017  11.940 -2.9995  1.0073  0.8681
 1268SOL    HW215267   3.763   0.097  11.990 -1.0307  3.2496  1.5861
 1269SOL     OW15268   3.936   1.019  15.640  0.2377 -0.1961 -0.2505
 1269SOL    HW115269   3.909   0.949  15.699  0.5892  1.8435  2.2940
 1269SOL    HW215270   3.874   1.006  15.568  0.3165 -0.9775 -0.1775
 1270SOL     OW15271   2.123   4.678   5.437 -0.0943 -0.4180 -0.2210
 1270SOL    HW115272   2.177   4.637   5.505  2.2606  0.6421 -1.4606
 1270SOL    HW215273   2.179   0.030   5.419  0.0062 -0.0996  1.4135
 1271SOL     OW15274   0.944   1.022  13.567  0.2367 -0.3960 -0.0475
 1271SOL    HW115275   1.023   1.055  13.523  0.0490 -1.3453 -1.0803
 1271SOL    HW215276   0.890   1.018  13.488  0.2724 -0.5339 -0.0637
 1272SOL     OW15277   0.890   0.429   4.416  0.3173 -0.5409 -0.2795
 1272SOL    HW115278   0.921   0.342   4.391  3.2886  0.6625 -0.7226
 1272SOL    HW215279   0.961   0.478   4.375 -1.4642  1.0810 -1.4774
 1273SOL     OW15280   0.692   1.365   7.245 -0.2983 -0.0699  0.3670
 1273SOL    HW115281   0.710   1.272   7.257  0.0755  0.1182  1.2411
 1273SOL    HW215282   0.735   1.395   7.325  0.5591 -1.5058  0.4347
 1274SOL     OW15283   2.766   2.606   5.667  0.0453  0.0535  0.1425
 1274SOL    HW115284   2.746   2.594   5.574 -1.3151 -1.3464  0.6240
 1274SOL    HW215285   2.684   2.652   5.688  0.3693 -0.1339  1.8135
 1275SOL     OW15286   1.622   1.515  11.784  0.8057 -0.3245  0.2518
 1275SOL    HW115287   1.545   1.477  11.827  1.7562  0.3275  2.5173
 1275SOL    HW215288   1.619   1.454  11.711 -3.4953 -0.2929  0.3582
 1276SOL     OW15289   2.936   3.563   1.838  0.0953  0.1408  0.0198
 1276SOL    HW115290   3.013   3.582   1.785  0.0844  2.9477  1.0037
 1276SOL    HW215291   2.874   3.635   1.829  0.5327  0.5663  0.3907
 1277SOL     OW15292   0.036   4.031   0.716 -0.3514  0.2076  0.4768
 1277SOL    HW115293   0.123   4.054   0.748 -0.4435  0.5440  0.4898
 1277SOL    HW215294   4.711   4.021   0.799  2.1416 -0.1978  1.8416
 1278SOL     OW15295   3.863   1.179  10.456  0.1064 -0.2459 -0.2024
 1278SOL    HW115296   3.871   1.155  10.364  2.2668 -1.4395  0.2875
 1278SOL    HW215297   3.823   1.264  10.441  1.3421  0.8520  2.7679
 1279SOL     OW15298   3.858   3.639   0.704 -0.5817 -0.6224  0.2177
 1279SOL    HW115299   3.864   3.729   0.735 -0.3885 -0.0032 -1.6048
 1279SOL    HW215300   3.948   3.609   0.716  0.3918  1.3472 -2.2525
 1280SOL     OW15301   1.382   4.238  13.488  0.5713  0.3343 -0.7732
 1280SOL    HW115302   1.323   4.310  13.512 -2.2276 -2.1068 -0.4012
 1280SOL    HW215303   1.319   4.167  13.480  1.2116 -0.3228  0.0109
 1281SOL     OW15304   4.693   3.342   3.471 -1.0738 -0.8523 -0.1423
 1281SOL    HW115305   0.047   3.294   3.503 -0.1805  1.5577  1.3145
 1281SOL    HW215306   0.015   3.424   3.453 -0.6677 -1.1397 -0.4582
 1282SOL     OW15307   2.198   0.821   1.179  0.1213 -0.2378  0.0572
 1282SOL    HW115308   2.260   0.872   1.128  0.0928 -0.3802 -0.1204
 1282SOL    HW215309   2.227   0.844   1.267 -1.3508  0.1593  0.4414
 1283SOL     OW15310   4.313   1.613   6.398  0.1999 -0.4211  0.3266
 1283SOL    HW115311   4.296   1.612   6.304 -1.0522  1.0940  0.5299
 1283SOL    HW215312   4.408   1.610   6.406  0.3906  0.3097 -1.6485
 1284SOL     OW15313   1.570   2.751   5.990  0.1026 -0.0590  0.0767
 1284SOL    HW115314   1.645   2.694   6.006 -0.0801  0.0078  1.1886
 1284SOL    HW215315   1.548   2.775   6.080 -0.1229  0.8328 -0.2129
 1285SOL     OW15316   1.857   4.546  12.494  0.2887 -0.0247 -0.0256
 1285SOL    HW115317   1.905   4.619  12.534 -0.2622  0.2877  0.0625
 1285SOL    HW215318   1.897   4.560  12.408  0.8829 -1.9816 -0.0625
 1286SOL     OW15319   1.429   3.859   1.528  0.6233 -0.6983  0.4615
 1286SOL    HW115320   1.417   3.765   1.520 -2.0152 -0.5536  2.3799
 1286SOL    HW215321   1.514   3.865   1.486 -0.5497  0.1581 -1.8037
 1287SOL     OW15322   0.130   0.206   4.626  0.9074 -0.3005  0.1656
 1287SOL    HW115323   0.156   0.260   4.701  1.1269 -2.2715  1.4809
 1287SOL    HW215324   0.098   0.280   4.573  0.5943 -0.3451  0.2923
 1288SOL     OW15325   4.229   4.721   4.685 -0.4406 -0.7595  0.0204
 1288SOL    HW115326   4.266   4.670   4.758 -1.2869 -1.3462  0.0450
 1288SOL    HW215327   4.143   0.025   4.717 -0.3180  0.6882 -0.8603
 1289SOL     OW15328   2.666   1.457   6.490  0.5543 -0.0976 -0.0905
 1289SOL    HW115329   2.606   1.486   6.421  1.4737  1.1586 -0.3503
 1289SOL    HW215330   2.673   1.365   6.463  1.3280 -0.0260 -0.1308
 1290SOL     OW15331   3.949   2.483   2.342 -0.0350  0.0040  0.2601
 1290SOL    HW115332   4.028   2.481   2.288 -0.0998  3.1914  0.0442
 1290SOL    HW215333   3.929   2.576   2.338  0.2158 -0.0391 -2.4213
 1291SOL     OW15334   1.925   2.110   3.165 -0.3471  0.5559 -0.1170
 1291SOL    HW115335   1.911   2.196   3.125  0.0432  0.2645 -0.8603
 1291SOL    HW215336   2.001   2.139   3.215  0.8944 -1.0694 -1.0673
 1292SOL     OW15337   0.280   2.056   4.436 -0.3514 -0.2062  0.2174
 1292SOL    HW115338   0.320   2.009   4.363  0.1592  0.4341  0.0872
 1292SOL    HW215339   0.270   1.984   4.499 -0.4042 -0.5193 -0.1469
 1293SOL     OW15340   1.909   4.306   6.867 -0.0297  0.1817  0.7392
 1293SOL    HW115341   1.864   4.379   6.826  0.4844  0.1582  0.1337
 1293SOL    HW215342   1.845   4.236   6.862 -1.2563  1.2920  0.9027
 1294SOL     OW15343   4.404   0.539  15.789  0.0213 -0.1431  0.0609
 1294SOL    HW115344   4.442   0.602  15.728 -1.1224  0.6747  0.1735
 1294SOL    HW215345   4.348   0.604  15.833  1.8681 -0.1510  2.4129
 1295SOL     OW15346   1.617   0.196   3.156  0.3581  0.2701  0.1870
 1295SOL    HW115347   1.709   0.202   3.182 -0.1821  0.5344  2.0649
 1295SOL    HW215348   1.570   0.253   3.217 -0.8506  0.4964 -0.9472
 1296SOL     OW15349   2.755   1.619   5.438  0.7013  0.1346 -0.2000
 1296SOL    HW115350   2.661   1.608   5.450  0.8464  1.8723  2.5825
 1296SOL    HW215351   2.748   1.714   5.434  0.7265  0.0276 -2.7157
 1297SOL     OW15352   2.120   4.357  14.424  0.2397  0.0596 -0.2432
 1297SOL    HW115353   2.197   4.407  14.399  1.1695 -1.0495  0.4249
 1297SOL    HW215354   2.150   4.267  14.435  1.2151  0.4070 -0.1028
 1298SOL     OW15355   2.143   2.366  16.290 -0.2400 -0.4625  0.4969
 1298SOL    HW115356   2.073   2.431  16.293 -0.7913 -1.0161 -0.0682
 1298SOL    HW215357   2.174   2.376  16.200 -1.6594 -1.9615 -0.1601
 1299SOL     OW15358   0.124   3.793   5.422 -0.4092 -0.0820  0.9348
 1299SOL    HW115359   0.095   3.874   5.465  0.3298  1.4174 -1.4073
 1299SOL    HW215360   0.042   3.751   5.398 -0.7063  0.4111  1.0786
 1300SOL     OW15361   3.088   3.827  13.465  0.7451 -0.1154  0.0666
 1300SOL    HW115362   3.065   3.920  13.463  2.2293  0.2509  0.0200
 1300SOL    HW215363   3.021   3.787  13.520 -1.1592  1.1691 -1.3098
 1301SOL     OW15364   3.599   3.301   6.379 -0.1050  0.1702 -0.0612
 1301SOL    HW115365   3.612   3.365   6.308  2.7188 -0.3730 -0.0230
 1301SOL    HW215366   3.685   3.261   6.370 -0.9007 -0.9765 -2.5724
 1302SOL     OW15367   0.467   2.791  14.220 -0.2321 -0.0908 -0.4397
 1302SOL    HW115368   0.490   2.735  14.146 -2.7557 -1.5790 -0.1152
 1302SOL    HW215369   0.373   2.793  14.204 -0.2748  0.8846 -0.0927
 1303SOL     OW15370   2.118   3.583   2.448  0.2397  0.1207 -0.6927
 1303SOL    HW115371   2.097   3.522   2.518 -1.4524  0.3777 -0.9670
 1303SOL    HW215372   2.197   3.631   2.473  0.4768  0.3090 -1.8068
 1304SOL     OW15373   4.685   3.119   2.899  0.0191  0.4039  0.4338
 1304SOL    HW115374   4.702   3.115   2.994  0.9245  0.5805  0.2813
 1304SOL    HW215375   0.038   3.071   2.864 -0.2080  1.9736 -2.1351
 1305SOL     OW15376   3.282   2.269   8.012 -0.3626  0.0663  0.1663
 1305SOL    HW115377   3.284   2.198   7.948 -1.1088 -0.2559  0.4932
 1305SOL    HW215378   3.189   2.270   8.036 -0.8521 -1.0259 -1.6729
 1306SOL     OW15379   3.776   3.398   1.984  0.0878  0.2304 -0.0053
 1306SOL    HW115380   3.692   3.394   1.939  0.2801  0.5407 -0.3953
 1306SOL    HW215381   3.833   3.437   1.917  1.9231  1.0459  2.0516
 1307SOL     OW15382   1.515   2.790   6.253  0.1510  0.0211 -0.3850
 1307SOL    HW115383   1.545   2.853   6.318 -1.9355  0.7514 -0.1557
 1307SOL    HW215384   1.548   2.706   6.284  0.0415  0.4968  1.0014
 1308SOL     OW15385   4.190   0.590   8.587  0.4460  0.4506 -0.2839
 1308SOL    HW115386   4.223   0.537   8.659 -0.1009  1.8262  0.9937
 1308SOL    HW215387   4.252   0.573   8.516  3.8280  0.3642  2.7353
 1309SOL     OW15388   1.207   1.274   9.779  0.2055  0.1921 -0.0477
 1309SOL    HW115389   1.165   1.308   9.700 -0.0258 -4.3713 -1.8672
 1309SOL    HW215390   1.130   1.250   9.832  0.3781 -2.6817 -1.0925
 1310SOL     OW15391   3.361   2.844   2.216 -0.3762  0.7670  0.0255
 1310SOL    HW115392   3.362   2.918   2.276 -1.0405  2.3695 -1.9238
 1310SOL    HW215393   3.311   2.867   2.138  0.3177 -0.5201 -0.7993
 1311SOL     OW15394   0.956   3.573   1.715  0.3970 -0.1858 -0.2437
 1311SOL    HW115395   1.009   3.649   1.740  0.0447  0.2440 -0.8156
 1311SOL    HW215396   0.867   3.594   1.743  0.6707  0.2388  0.2994
 1312SOL     OW15397   3.115   2.524   6.569  0.4536  0.0577 -0.3907
 1312SOL    HW115398   3.180   2.454   6.581  0.4545  0.3933  1.6107
 1312SOL    HW215399   3.043   2.469   6.537  1.1857 -2.0655  1.6128
 1313SOL     OW15400   4.680   0.160   4.327  0.1455  0.2456 -0.4844
 1313SOL    HW115401   4.673   0.247   4.288 -0.2806  0.9454  1.1230
 1313SOL    HW215402   0.051   0.145   4.312 -0.0243 -0.1172 -1.1640
 1314SOL     OW15403   0.604   0.817   8.819  0.1184  0.0938  0.7729
 1314SOL    HW115404   0.669   0.813   8.749  0.6033 -1.8973  1.3141
 1314SOL    HW215405   0.571   0.906   8.824  1.5136  0.5630  1.6309
 1315SOL     OW15406   2.369   2.675  11.930  0.1768 -0.0654 -0.0355
 1315SOL    HW115407   2.367   2.590  11.975  1.2419 -0.2222 -0.2750
 1315SOL    HW215408   2.326   2.735  11.991 -0.2752  0.4793 -0.8875
 1316SOL     OW15409   3.468   1.417   3.955  0.2777 -0.1396  0.4605
 1316SOL    HW115410   3.474   1.460   3.871  0.8004  1.6289  1.4104
 1316SOL    HW215411   3.559   1.415   3.985  0.7110 -1.8928 -1.0078
 1317SOL     OW15412   1.362   4.122   7.959  0.2868  0.5821 -0.2300
 1317SOL    HW115413   1.427   4.188   7.983  1.4492  0.7078 -3.5994
 1317SOL    HW215414   1.306   4.177   7.903 -1.1508  0.7586  1.3970
 1318SOL     OW15415   3.140   3.028  16.889  0.1740 -0.0096  0.8349
 1318SOL    HW115416   3.158   3.036  16.796 -1.6765  1.3950  0.6137
 1318SOL    HW215417   3.051   2.993  16.886  0.5293 -0.7540 -0.8324
 1319SOL     OW15418   3.449   3.794   2.656 -0.1451  0.1788  0.0094
 1319SOL    HW115419   3.488   3.867   2.608 -2.0390  0.3590 -1.2622
 1319SOL    HW215420   3.461   3.722   2.594  3.8626  0.6720  0.2406
 1320SOL     OW15421   0.113   1.527  10.945  0.0534 -0.0403 -0.2852
 1320SOL    HW115422   0.095   1.549  10.853  0.8859  0.8233 -0.2440
 1320SOL    HW215423   0.034   1.555  10.991 -1.5125 -3.4987 -0.8678
 1321SOL     OW15424   4.262   3.054  12.010 -0.4994 -0.6425 -0.4005
 1321SOL    HW115425   4.325   3.030  11.942  0.1510  2.8635 -1.0508
 1321SOL    HW215426   4.302   3.131  12.050  0.3295 -1.3452  0.1008
 1322SOL     OW15427   0.374   2.450  16.106 -0.0095 -0.1361 -0.3859
 1322SOL    HW115428   0.341   2.376  16.157 -0.0425  1.5248  2.0161
 1322SOL    HW215429   0.459   2.445  16.151 -0.3060 -0.6393  0.1223
 1323SOL     OW15430   2.697   4.557   4.525  0.1761  0.4409  0.1366
 1323SOL    HW115431   2.685   4.531   4.616  0.7497  1.3617  0.4816
 1323SOL    HW215432   2.791   4.564   4.509  0.3238 -1.6256  0.0324
 1324SOL     OW15433   1.704   2.172  12.610  0.7550 -0.2189  0.3151
 1324SOL    HW115434   1.719   2.161  12.704  1.8500 -0.7082  0.0809
 1324SOL    HW215435   1.619   2.137  12.585  0.9706  0.5020 -1.4565
 1325SOL     OW15436   2.145   1.167   8.687  0.4995  0.3105 -0.5128
 1325SOL    HW115437   2.061   1.194   8.648  0.5869  1.7495  0.2664
 1325SOL    HW215438   2.189   1.244   8.722 -0.2417  0.1117  0.8730
 1326SOL     OW15439   3.010   3.403   0.802  0.4689  0.0718 -0.2300
 1326SOL    HW115440   3.035   3.322   0.758  1.1639  0.9412 -1.4577
 1326SOL    HW215441   2.970   3.373   0.883 -1.6467 -0.5298 -1.4960
 1327SOL     OW15442   1.474   3.615   3.850 -0.1583 -0.1214  0.3596
 1327SOL    HW115443   1.433   3.530   3.834 -0.2480  0.3344 -1.8593
 1327SOL    HW215444   1.410   3.665   3.901  0.9598 -1.1294  2.7706
 1328SOL     OW15445   3.715   1.269   8.791  0.3050  0.1582  0.4018
 1328SOL    HW115446   3.757   1.306   8.869  2.8727 -0.0279 -0.8952
 1328SOL    HW215447   3.704   1.176   8.812 -2.1895  0.7007  1.4712
 1329SOL     OW15448   2.725   3.747  16.336  0.2619 -0.2343  0.3454
 1329SOL    HW115449   2.637   3.765  16.371  0.3083  0.0118  0.3363
 1329SOL    HW215450   2.739   3.655  16.357  0.4758  0.1405  1.8900
 1330SOL     OW15451   1.113   1.968  10.445 -0.2059  0.5695  0.7755
 1330SOL    HW115452   1.193   2.000  10.404 -1.7651  0.9243 -1.9224
 1330SOL    HW215453   1.047   2.033  10.422 -0.1454 -0.4475 -2.1808
 1331SOL     OW15454   2.594   3.396   7.868  0.5357  0.7302  0.5737
 1331SOL    HW115455   2.591   3.303   7.894 -1.2167  0.0845 -1.9491
 1331SOL    HW215456   2.683   3.417   7.894  0.6195  1.5467 -0.3933
 1332SOL     OW15457   0.724   0.013  15.310  0.7045 -0.3177 -0.0835
 1332SOL    HW115458   0.667   0.082  15.278 -0.2453  0.0882  2.5272
 1332SOL    HW215459   0.741   4.694  15.225 -0.1863  0.2668 -0.5360
 1333SOL     OW15460   0.084   3.998   8.885  0.0979  0.0366  0.3685
 1333SOL    HW115461   0.005   3.971   8.932 -1.2886  1.5102 -1.1284
 1333SOL    HW215462   0.141   3.934   8.929 -0.3714 -0.4208  0.3072
 1334SOL     OW15463   0.968   1.126   5.246  0.1050 -0.4486  0.0671
 1334SOL    HW115464   1.024   1.145   5.321  0.1722 -0.1989 -0.0464
 1334SOL    HW215465   0.943   1.214   5.216 -1.2207 -0.9669 -0.3690
 1335SOL     OW15466   1.199   1.888   2.003 -0.0842 -0.4539 -0.2759
 1335SOL    HW115467   1.161   1.970   2.035  0.3677 -1.1291  2.0215
 1335SOL    HW215468   1.234   1.842   2.079  1.0057  2.2111  0.8649
 1336SOL     OW15469   1.983   1.053   3.874 -0.1555 -0.0237 -0.7043
 1336SOL    HW115470   1.976   1.140   3.835 -1.8504  0.2954  0.2861
 1336SOL    HW215471   1.999   1.072   3.967 -0.3432 -0.1770 -0.6392
 1337SOL     OW15472   2.820   3.087  10.669 -0.2544 -0.5443 -0.2893
 1337SOL    HW115473   2.803   3.169  10.716 -0.0440  0.9931 -2.8978
 1337SOL    HW215474   2.805   3.024  10.740 -2.8830 -0.7075 -0.9911
 1338SOL     OW15475   4.623   1.754  15.330  0.0075  0.0098  0.4252
 1338SOL    HW115476   4.637   1.671  15.284 -1.8241  0.9861 -1.9038
 1338SOL    HW215477   4.688   1.752  15.400 -0.1928  1.1002  0.6466
 1339SOL     OW15478   0.417   2.972   6.689  0.3394  0.3060 -0.0256
 1339SOL    HW115479   0.428   2.879   6.710 -2.4524 -0.1488 -0.5357
 1339SOL    HW215480   0.383   2.999   6.774 -1.6533 -1.4659 -0.2450
 1340SOL     OW15481   3.086   0.030   7.527  0.1243  0.4412 -0.0115
 1340SOL    HW115482   3.065   4.711   7.611 -1.3014 -1.8631 -1.5213
 1340SOL    HW215483   3.074   4.670   7.480 -1.0251  0.9489 -0.5870
 1341SOL     OW15484   3.147   3.770   5.977 -0.0822 -0.0910  0.0888
 1341SOL    HW115485   3.199   3.818   5.912 -1.2676  1.6971  0.4410
 1341SOL    HW215486   3.082   3.841   5.979  0.2474  0.1868  0.9284
 1342SOL     OW15487   0.326   0.176  15.807 -0.7626 -0.0939 -0.6611
 1342SOL    HW115488   0.410   0.142  15.775  0.8716  1.1533  2.2477
 1342SOL    HW215489   0.335   0.140  15.895  2.8091 -0.7588 -1.2859
 1343SOL     OW15490   2.089   4.541  12.976  0.3120  0.4632 -0.0579
 1343SOL    HW115491   2.155   4.535  12.907 -0.4794  0.5633 -0.8185
 1343SOL    HW215492   2.126   4.610  13.031  1.4730 -0.5342  0.4010
 1344SOL     OW15493   4.708   3.760   5.039  0.0048 -0.3778  0.1684
 1344SOL    HW115494   0.031   3.844   5.037  0.1731 -0.3870  3.2260
 1344SOL    HW215495   4.678   3.758   5.130  0.3254 -2.2598  0.2335
 1345SOL     OW15496   1.979   4.115   3.878 -0.0555 -0.8176  0.1613
 1345SOL    HW115497   2.022   4.180   3.934 -0.3362 -1.2406  0.8666
 1345SOL    HW215498   2.052   4.083   3.825  0.2199  0.3371 -0.1517
 1346SOL     OW15499   2.130   0.099   4.834  0.0093  0.1593 -0.0865
 1346SOL    HW115500   2.057   0.048   4.801  0.1513 -0.7491  1.0130
 1346SOL    HW215501   2.207   0.043   4.835 -1.3824 -1.7313 -0.2634
 1347SOL     OW15502   1.136   0.874   4.470  0.2440 -0.6686 -0.1055
 1347SOL    HW115503   1.104   0.819   4.399  0.6104 -0.3260 -0.5390
 1347SOL    HW215504   1.132   0.960   4.429  1.9478  0.3094  1.7705
 1348SOL     OW15505   0.424   0.211  16.449  0.2628  0.1624  0.5459
 1348SOL    HW115506   0.399   0.120  16.438  0.3920  0.3761 -1.5859
 1348SOL    HW215507   0.358   0.247  16.389  2.6455  2.3154 -0.7961
 1349SOL     OW15508   1.850   2.627   8.585 -0.2919  0.3678 -0.2767
 1349SOL    HW115509   1.932   2.661   8.621 -1.1309  3.1429 -0.9688
 1349SOL    HW215510   1.844   2.543   8.629 -1.8038 -0.2710 -1.7172
 1350SOL     OW15511   2.291   0.987   4.915 -0.3032 -0.1303 -0.2698
 1350SOL    HW115512   2.374   0.960   4.955  0.4090  1.3362 -0.7444
 1350SOL    HW215513   2.297   0.953   4.826  0.6173  0.0131 -0.2665
 1351SOL     OW15514   2.129   2.196   7.038  0.1176  0.0604 -0.3417
 1351SOL    HW115515   2.148   2.284   7.068 -0.7165 -0.5087  1.8871
 1351SOL    HW215516   2.111   2.220   6.947 -2.0437  0.5993  0.2158
 1352SOL     OW15517   1.310   3.295   1.051  0.3095 -0.3544 -0.4009
 1352SOL    HW115518   1.260   3.258   1.123  1.0103 -3.9078 -1.7376
 1352SOL    HW215519   1.362   3.221   1.019  2.8085  0.8369  0.9104
 1353SOL     OW15520   3.613   0.424   7.430 -0.4468 -0.0411  0.3884
 1353SOL    HW115521   3.613   0.344   7.377  3.9516  0.2645 -0.0469
 1353SOL    HW215522   3.534   0.408   7.481 -0.4306  1.7939  0.9979
 1354SOL     OW15523   0.063   1.653   9.823  0.0697  0.4234  0.2925
 1354SOL    HW115524   0.143   1.671   9.773 -0.2069  2.8742  0.7213
 1354SOL    HW215525   0.097   1.604   9.898 -0.3633 -0.6897 -0.2520
 1355SOL     OW15526   1.323   3.026  10.381  0.1452 -0.3149 -0.4787
 1355SOL    HW115527   1.247   3.080  10.400  0.7838 -0.2993  2.1397
 1355SOL    HW215528   1.388   3.084  10.421  1.7769  0.3075 -4.0354
 1356SOL     OW15529   3.840   2.962   7.942 -0.3361 -0.2193  0.1731
 1356SOL    HW115530   3.814   2.923   8.025  1.1602  0.4515  0.9564
 1356SOL    HW215531   3.790   2.910   7.879  0.4921  1.9535 -2.2834
 1357SOL     OW15532   0.719   4.073   2.840  0.5492 -0.1468 -0.1784
 1357SOL    HW115533   0.645   4.012   2.841  0.9278 -0.5879  1.2760
 1357SOL    HW215534   0.787   4.027   2.791 -0.2273 -1.7714  0.2522
 1358SOL     OW15535   3.249   1.143   2.479  0.0994 -0.4922  0.0766
 1358SOL    HW115536   3.285   1.091   2.407 -1.1620 -0.4932 -0.5544
 1358SOL    HW215537   3.229   1.226   2.436  0.0606 -1.6134 -2.0257
 1359SOL     OW15538   4.368   2.056   6.271  0.3452 -0.1457  0.0782
 1359SOL    HW115539   4.390   1.983   6.212 -1.4003 -1.6386  1.2537
 1359SOL    HW215540   4.288   2.017   6.307 -0.2562  1.7192  0.7205
 1360SOL     OW15541   0.575   1.435  14.542  0.2803  0.5322 -0.5295
 1360SOL    HW115542   0.488   1.395  14.543  0.5642 -0.0821 -0.5997
 1360SOL    HW215543   0.566   1.488  14.463 -0.4202  3.5692  1.5951
 1361SOL     OW15544   3.386   0.619   2.954 -0.3755 -0.4577 -0.0623
 1361SOL    HW115545   3.392   0.533   2.995 -0.3173 -0.2156  0.4320
 1361SOL    HW215546   3.307   0.642   3.002 -0.9191 -0.1387 -1.0989
 1362SOL     OW15547   4.680   0.871  11.288 -1.2856 -0.2691  0.0807
 1362SOL    HW115548   0.053   0.875  11.287 -1.2109 -1.9891 -0.0078
 1362SOL    HW215549   4.661   0.964  11.291 -2.3449 -0.4633 -0.4607
 1363SOL     OW15550   3.144   1.061   8.835 -0.3427  0.4031 -0.0931
 1363SOL    HW115551   3.130   0.996   8.766  0.3486  0.4965 -0.3179
 1363SOL    HW215552   3.121   1.148   8.802  1.1294  0.6012 -0.6189
 1364SOL     OW15553   3.139   4.058   4.878 -0.2351  0.3497 -0.4951
 1364SOL    HW115554   3.186   3.985   4.919 -0.4410  2.3797  3.3616
 1364SOL    HW215555   3.173   4.059   4.789  2.0041 -1.4920  0.3436
 1365SOL     OW15556   3.257   0.132  14.065  0.3039  0.0477 -0.3333
 1365SOL    HW115557   3.268   0.175  14.150  0.5622 -1.1997  0.2598
 1365SOL    HW215558   3.162   0.119  14.058  0.1607  0.4380  0.8488
 1366SOL     OW15559   3.293   2.476   3.030 -0.1459 -0.2172 -0.1066
 1366SOL    HW115560   3.352   2.401   3.027  0.1404  0.0028  0.1735
 1366SOL    HW215561   3.305   2.492   2.936 -1.7351 -0.7214 -0.4054
 1367SOL     OW15562   4.489   0.728   3.335  0.2634 -0.1710 -0.6054
 1367SOL    HW115563   4.546   0.656   3.309  0.6980  0.6454 -1.9157
 1367SOL    HW215564   4.404   0.691   3.308 -0.0014  0.0941 -0.1275
 1368SOL     OW15565   1.068   4.332   3.218 -0.0568  0.0178 -0.1111
 1368SOL    HW115566   0.993   4.383   3.189  1.8011  2.7320 -0.1300
 1368SOL    HW215567   1.064   4.328   3.314  0.1531 -1.3186 -0.1497
 1369SOL     OW15568   3.656   1.483   6.536 -0.3401  0.9062  0.7604
 1369SOL    HW115569   3.721   1.414   6.534 -1.0441  0.2731 -0.2321
 1369SOL    HW215570   3.654   1.493   6.632  0.0848  1.9432  0.6666
 1370SOL     OW15571   1.902   2.550   4.030 -0.3448 -0.1673 -0.4448
 1370SOL    HW115572   1.833   2.530   4.093  0.9452 -0.3519  0.9043
 1370SOL    HW215573   1.971   2.593   4.081 -0.5606 -1.8086  1.2150
 1371SOL     OW15574   0.458   0.929   7.979  0.2050  0.6271  0.3652
 1371SOL    HW115575   0.383   0.973   7.939  0.5994  2.5638  1.7410
 1371SOL    HW215576   0.442   0.934   8.073 -0.1633 -1.2766  0.4076
 1372SOL     OW15577   2.902   0.788   9.279  0.0927  0.1001  0.4251
 1372SOL    HW115578   2.924   0.698   9.303 -0.2397 -0.0728  0.0843
 1372SOL    HW215579   2.988   0.808   9.242 -0.7300 -1.1968 -2.1527
 1373SOL     OW15580   3.822   1.033   5.778 -0.0036 -0.6689  0.6116
 1373SOL    HW115581   3.757   0.964   5.765  0.4088 -0.9963  0.2837
 1373SOL    HW215582   3.819   1.035   5.874 -1.3605 -0.4822  0.5618
 1374SOL     OW15583   3.349   4.683  16.684 -0.4083 -0.0776  0.0533
 1374SOL    HW115584   3.297   0.041  16.688 -2.4442 -1.4803  1.3892
 1374SOL    HW215585   3.318   4.650  16.768 -1.9047  1.0084 -0.0787
 1375SOL     OW15586   0.308   0.452   4.454  0.1784  0.2379 -1.1407
 1375SOL    HW115587   0.305   0.455   4.358  1.2736 -1.1922 -1.2328
 1375SOL    HW215588   0.318   0.539   4.491 -1.8795 -0.6431  1.4815
 1376SOL     OW15589   2.109   4.651   9.113  0.1737 -0.1045  0.4464
 1376SOL    HW115590   2.196   4.645   9.074 -0.4829 -1.7401 -0.7612
 1376SOL    HW215591   2.063   4.694   9.041  2.1002 -0.9629 -1.3021
 1377SOL     OW15592   0.774   4.594   4.091 -0.3152  0.3074  0.2039
 1377SOL    HW115593   0.828   4.627   4.163  1.0893 -1.3823 -0.0604
 1377SOL    HW215594   0.845   4.565   4.033 -0.0434  0.7364  0.3234
 1378SOL     OW15595   0.781   3.396   8.892 -0.2551  0.1878  0.2945
 1378SOL    HW115596   0.869   3.427   8.914 -0.8053  1.1566  1.1641
 1378SOL    HW215597   0.788   3.322   8.952  0.6624  1.3120  1.5942
 1379SOL     OW15598   2.217   3.605   0.533 -0.1794  0.4900  0.2439
 1379SOL    HW115599   2.217   3.584   0.627  0.0152  2.7805  0.7527
 1379SOL    HW215600   2.295   3.660   0.528  0.4549 -0.3841  0.5143
 1380SOL     OW15601   1.392   3.232   3.543  0.4076 -0.0249 -0.2999
 1380SOL    HW115602   1.450   3.156   3.535  1.6781  1.0326 -1.2623
 1380SOL    HW215603   1.349   3.224   3.459  1.2646 -0.9213 -0.6507
 1381SOL     OW15604   3.220   4.711   4.431 -0.1421 -0.1136  0.0737
 1381SOL    HW115605   3.129   4.713   4.463 -1.4274 -2.9031 -3.4704
 1381SOL    HW215606   3.268   4.692   4.512 -3.0201  0.5253  1.9289
 1382SOL     OW15607   1.663   0.780  15.323  0.3864  0.1578  0.0311
 1382SOL    HW115608   1.673   0.808  15.233 -0.5642  1.1270  0.2334
 1382SOL    HW215609   1.577   0.810  15.352  0.6899  1.3536 -0.3353
 1383SOL     OW15610   4.016   4.207   8.138  0.0094  0.4535  0.0146
 1383SOL    HW115611   3.941   4.265   8.149 -2.0516 -2.7220  2.6642
 1383SOL    HW215612   4.031   4.211   8.044  0.2741 -0.4621  0.0135
 1384SOL     OW15613   4.582   0.963  15.687  0.0007  0.2716 -0.4018
 1384SOL    HW115614   4.648   1.032  15.683  0.4558  0.0366  2.6321
 1384SOL    HW215615   4.512   1.027  15.670  0.4177  1.0331  0.7101
 1385SOL     OW15616   2.094   3.820   1.626 -0.4739  0.1673 -0.2768
 1385SOL    HW115617   2.023   3.803   1.688 -1.0485  1.8385 -0.4753
 1385SOL    HW215618   2.094   3.915   1.616  0.8814 -0.1295 -3.0590
 1386SOL     OW15619   1.815   1.351  10.490  0.1867 -0.2780  0.1323
 1386SOL    HW115620   1.824   1.427  10.548 -2.0629 -0.4396  0.6995
 1386SOL    HW215621   1.778   1.396  10.415 -0.5575 -0.3364  0.4615
 1387SOL     OW15622   0.401   2.639   9.590 -0.0950  0.4813 -0.6528
 1387SOL    HW115623   0.469   2.681   9.537 -0.2351  0.5085 -0.8117
 1387SOL    HW215624   0.336   2.709   9.599  0.7405  1.0284  1.1503
 1388SOL     OW15625   0.350   4.581   3.645  0.4185  0.1060 -0.6440
 1388SOL    HW115626   0.321   4.496   3.679  1.2882  0.3907  0.8067
 1388SOL    HW215627   0.444   4.578   3.661 -0.0303 -1.6061  1.7103
 1389SOL     OW15628   0.290   4.418   5.088 -0.1619 -0.0265  0.8562
 1389SOL    HW115629   0.324   4.471   5.016 -0.3921 -0.2650  0.5713
 1389SOL    HW215630   0.289   4.335   5.040  3.2097  0.4047  0.0476
 1390SOL     OW15631   3.602   3.925   1.540 -0.4915  0.1495  0.4453
 1390SOL    HW115632   3.541   3.901   1.609 -0.2346 -0.4841  0.4547
 1390SOL    HW215633   3.538   3.926   1.470 -0.7193  2.9308  0.6940
 1391SOL     OW15634   1.079   4.666  12.557 -0.8030  0.5424  0.8165
 1391SOL    HW115635   1.080   4.597  12.624  0.4359  1.3671  1.6497
 1391SOL    HW215636   1.041   0.019  12.603 -2.4128  2.0440 -3.0405
 1392SOL     OW15637   3.225   3.802   4.993 -0.1329  0.5255 -0.1138
 1392SOL    HW115638   3.237   3.755   5.075 -0.6615  1.2562  0.3765
 1392SOL    HW215639   3.310   3.784   4.952 -1.1066  1.7919 -2.7502
 1393SOL     OW15640   4.074   3.423   5.997 -0.9627  0.3596  0.1757
 1393SOL    HW115641   3.994   3.378   6.025  0.3276 -1.5511  0.8303
 1393SOL    HW215642   4.059   3.500   6.050 -1.8324  0.5292 -0.3108
 1394SOL     OW15643   3.352   4.187   3.932  0.1655  0.2600  0.0268
 1394SOL    HW115644   3.344   4.190   3.837  0.7863  0.9522 -0.0057
 1394SOL    HW215645   3.264   4.217   3.954  0.4897  1.3142 -0.0858
 1395SOL     OW15646   0.630   1.069   2.820 -0.3207 -0.2830 -0.2145
 1395SOL    HW115647   0.639   0.981   2.784  0.2976 -1.1121  1.9637
 1395SOL    HW215648   0.579   1.057   2.900  0.0887 -1.2493 -0.1018
 1396SOL     OW15649   2.049   2.936  10.216 -0.1230 -0.0187  0.1575
 1396SOL    HW115650   2.123   2.923  10.157  1.3616  0.3531  1.9189
 1396SOL    HW215651   2.037   2.850  10.256  2.9668  0.5738  2.3717
 1397SOL     OW15652   4.484   3.215  11.371  0.1219  0.1856  0.2597
 1397SOL    HW115653   4.422   3.192  11.301  0.3885  1.8317 -0.5221
 1397SOL    HW215654   4.556   3.252  11.320  1.6327 -0.9902  1.5458
 1398SOL     OW15655   0.286   0.622  11.432  0.2112 -0.3893 -0.2617
 1398SOL    HW115656   0.347   0.570  11.380  0.6135 -0.3366  0.1559
 1398SOL    HW215657   0.209   0.572  11.406  0.3278 -1.0667  0.7175
 1399SOL     OW15658   1.157   0.492  17.184  0.0418  0.3471  0.1823
 1399SOL    HW115659   1.182   0.562  17.245 -0.4674 -0.5134  1.3818
 1399SOL    HW215660   1.064   0.494  17.210  0.6084 -2.7914  2.4316
 1400SOL     OW15661   4.113   4.152   2.826 -0.7736  0.9923 -0.5717
 1400SOL    HW115662   4.115   4.113   2.739  0.5751  0.0961 -0.1411
 1400SOL    HW215663   4.121   4.076   2.884  1.4410  2.2909  0.8491
 1401SOL     OW15664   2.247   4.170  13.326  0.2336  0.3156  0.1512
 1401SOL    HW115665   2.286   4.253  13.351  1.5535  0.1195 -1.1961
 1401SOL    HW215666   2.155   4.192  13.316 -0.3625 -2.5527 -0.7892
 1402SOL     OW15667   1.985   3.494  11.788 -0.5405 -0.7238 -0.0812
 1402SOL    HW115668   2.080   3.505  11.795 -0.4513 -0.2828 -2.1630
 1402SOL    HW215669   1.972   3.537  11.704 -2.0425 -1.5336 -0.2597
 1403SOL     OW15670   0.817   4.520  10.770 -0.3235  0.3970 -0.0584
 1403SOL    HW115671   0.866   4.438  10.766 -0.0297  0.4817  1.7685
 1403SOL    HW215672   0.870   4.572  10.830 -0.6176 -0.1413  0.6644
 1404SOL     OW15673   1.979   1.192   7.563  0.3764 -0.0662  0.1007
 1404SOL    HW115674   1.972   1.251   7.638 -0.4804 -0.9888  0.7372
 1404SOL    HW215675   1.902   1.221   7.515 -0.7017 -1.3576  1.0726
 1405SOL     OW15676   2.976   0.181  14.062  0.1133 -0.5708 -0.4241
 1405SOL    HW115677   2.881   0.192  14.058  0.0278 -0.6172  1.5243
 1405SOL    HW215678   2.999   0.270  14.037 -0.0097 -0.3390  0.2954
 1406SOL     OW15679   0.524   3.030   7.747 -0.2203  0.0903  0.1878
 1406SOL    HW115680   0.473   3.076   7.814  0.9519  3.3238 -1.1393
 1406SOL    HW215681   0.570   2.970   7.806 -0.0674  1.2843  1.2821
 1407SOL     OW15682   2.044   2.880   1.189  0.6087 -0.1310 -0.3865
 1407SOL    HW115683   2.037   2.819   1.263 -0.7978  0.6196  0.0823
 1407SOL    HW215684   1.973   2.938   1.216 -0.0658 -0.3293 -1.7206
 1408SOL     OW15685   0.319   2.444   8.835  0.4237  0.4645 -0.3316
 1408SOL    HW115686   0.385   2.513   8.835  0.8516  0.0505 -1.3183
 1408SOL    HW215687   0.261   2.464   8.908  0.3316  0.6605 -0.4583
 1409SOL     OW15688   2.632   4.237   4.667 -0.1493  0.1410 -0.4319
 1409SOL    HW115689   2.719   4.220   4.630 -1.4725 -1.6805 -2.6684
 1409SOL    HW215690   2.585   4.281   4.597  0.3362  3.0828  1.0866
 1410SOL     OW15691   1.997   0.116   7.872 -0.7095 -0.1579 -0.1762
 1410SOL    HW115692   1.959   0.031   7.854  0.1067 -0.6530  0.4123
 1410SOL    HW215693   2.053   0.101   7.949  0.1442 -1.1355 -0.9900
 1411SOL     OW15694   4.358   0.453  17.451 -0.5929 -0.1486 -0.2311
 1411SOL    HW115695   4.447   0.445  17.417 -0.4956  0.4663 -0.1263
 1411SOL    HW215696   4.323   0.507  17.380 -0.5306  0.0488 -0.1125
 1412SOL     OW15697   3.769   4.369   8.254  0.8824 -0.2009 -0.0984
 1412SOL    HW115698   3.767   4.430   8.180 -0.3732  0.4972  0.5194
 1412SOL    HW215699   3.718   4.422   8.314  0.1844  0.3337 -1.1612
 1413SOL     OW15700   2.299   1.666  16.651 -0.3733  0.4257  0.3593
 1413SOL    HW115701   2.216   1.689  16.693 -1.0198  2.4803 -2.1087
 1413SOL    HW215702   2.320   1.747  16.605  1.4222 -0.7601 -0.8904
 1414SOL     OW15703   3.799   1.096   6.089 -0.1889  0.4161 -0.0664
 1414SOL    HW115704   3.738   1.117   6.160 -0.5348  0.2802 -0.3195
 1414SOL    HW215705   3.736   1.114   6.019  0.1727 -0.0889 -0.5239
 1415SOL     OW15706   2.906   1.789   4.347  0.1462  0.1112 -0.4254
 1415SOL    HW115707   2.829   1.749   4.386  0.3284 -0.5115 -0.7021
 1415SOL    HW215708   2.923   1.733   4.271  0.5816 -0.3362  0.0040
 1416SOL     OW15709   1.931   2.180  15.298 -0.5781  0.3600  0.1155
 1416SOL    HW115710   1.977   2.103  15.265  0.4144  1.7452 -1.7036
 1416SOL    HW215711   1.863   2.150  15.358 -1.4020 -0.9401 -1.4617
 1417SOL     OW15712   2.482   2.300   6.670 -0.0556  0.0452  0.2304
 1417SOL    HW115713   2.575   2.281   6.656  0.3237 -0.5551  3.6129
 1417SOL    HW215714   2.438   2.223   6.633  0.1134 -0.3166  0.7765
 1418SOL     OW15715   3.185   3.012   2.855  0.0317 -0.1393 -0.4927
 1418SOL    HW115716   3.095   2.992   2.830 -0.2105  1.0674 -0.5889
 1418SOL    HW215717   3.176   3.105   2.836 -0.5670 -0.2999 -1.0284
 1419SOL     OW15718   3.617   3.128  14.171 -0.0024  0.0775  0.2999
 1419SOL    HW115719   3.560   3.053  14.189  1.9098 -1.7387 -1.3179
 1419SOL    HW215720   3.658   3.133  14.258  1.3761  0.5398 -0.3775
 1420SOL     OW15721   1.288   3.562   6.233 -0.5176 -0.1325  0.2617
 1420SOL    HW115722   1.260   3.473   6.255 -1.8600  0.7309  2.0252
 1420SOL    HW215723   1.376   3.536   6.205  0.0514 -1.4513  3.2745
 1421SOL     OW15724   2.095   2.351   0.165  0.1718  0.2226 -0.2917
 1421SOL    HW115725   2.047   2.427   0.196 -3.4425 -1.5456 -1.5139
 1421SOL    HW215726   2.147   2.386   0.092 -0.3639 -0.3596 -0.9578
 1422SOL     OW15727   0.412   2.186   5.389  0.1132  0.7615  0.2385
 1422SOL    HW115728   0.331   2.234   5.372  0.8993  1.4752 -1.4857
 1422SOL    HW215729   0.381   2.108   5.435  0.1582  0.2419 -0.6065
 1423SOL     OW15730   3.913   2.001   6.892  0.7154  0.5184  0.3650
 1423SOL    HW115731   3.982   2.052   6.850  1.1726 -0.2797  0.1465
 1423SOL    HW215732   3.949   1.916   6.918 -2.1076 -0.9085 -0.3655
 1424SOL     OW15733   4.000   2.280   6.671  0.5368 -0.2172 -0.3408
 1424SOL    HW115734   3.909   2.262   6.647  0.6168 -1.7116  0.5145
 1424SOL    HW215735   4.024   2.319   6.587 -2.2078  0.5199 -0.7926
 1425SOL     OW15736   4.323   4.248   2.634 -0.1189  0.3524 -0.5751
 1425SOL    HW115737   4.300   4.205   2.552 -4.4745  0.8395  0.3503
 1425SOL    HW215738   4.250   4.307   2.654  0.0583  1.2318 -2.5054
 1426SOL     OW15739   0.285   1.803   5.319 -0.7865  0.0670  0.1108
 1426SOL    HW115740   0.214   1.849   5.364 -1.9834 -0.4314 -1.2706
 1426SOL    HW215741   0.253   1.824   5.231  0.5499  1.1083 -0.1297
 1427SOL     OW15742   0.059   1.779   2.726 -0.3733 -0.1347 -0.4116
 1427SOL    HW115743   0.076   1.684   2.731  0.4863  0.1387  1.8137
 1427SOL    HW215744   4.715   1.785   2.795  0.6739  2.3928  0.3649
 1428SOL     OW15745   0.121   3.735   2.025  0.2407 -0.7790 -0.2477
 1428SOL    HW115746   0.083   3.647   2.019  0.4759 -0.9431  0.6448
 1428SOL    HW215747   0.210   3.723   1.995  1.1644 -0.3419  2.2853
 1429SOL     OW15748   4.636   2.142   3.753  0.0873 -0.4052  0.6737
 1429SOL    HW115749   4.595   2.116   3.671  0.2976  2.1103 -0.1974
 1429SOL    HW215750   4.555   2.163   3.800  0.8389  0.9050  1.3598
 1430SOL     OW15751   1.282   1.078   0.476  0.3667  0.6554  0.7401
 1430SOL    HW115752   1.265   1.141   0.546  1.2084 -0.0559  1.5797
 1430SOL    HW215753   1.368   1.106   0.444  0.2500 -1.6838 -1.5506
 1431SOL     OW15754   4.072   1.618   2.279  0.0101 -1.1933 -0.1101
 1431SOL    HW115755   4.151   1.565   2.272  1.6275  1.2155 -0.3304
 1431SOL    HW215756   4.067   1.614   2.374 -0.5772 -1.1001 -0.1365
 1432SOL     OW15757   3.788   0.082   1.925  0.0016  0.1588  0.4014
 1432SOL    HW115758   3.876   0.114   1.944 -1.9439  4.3061  2.3167
 1432SOL    HW215759   3.792   0.032   1.844 -0.4890  0.5952  0.1038
 1433SOL     OW15760   1.719   2.384   5.075  0.0767 -0.4926 -0.1701
 1433SOL    HW115761   1.635   2.362   5.114  0.4980 -0.5684  0.6759
 1433SOL    HW215762   1.753   2.431   5.151 -0.6490 -1.1760  0.5706
 1434SOL     OW15763   0.180   4.576   6.634 -0.2185 -0.7367  0.4986
 1434SOL    HW115764   0.215   4.663   6.652  2.0045 -1.7647  1.2010
 1434SOL    HW215765   0.146   4.562   6.722  0.2028  0.4897  0.8494
 1435SOL     OW15766   3.686   3.175   6.742  0.2665  0.5415  0.0235
 1435SOL    HW115767   3.767   3.183   6.792  0.5306  2.4317 -0.6867
 1435SOL    HW215768   3.657   3.264   6.719  2.2854  1.2949  0.4224
 1436SOL     OW15769   0.218   2.075   7.223 -0.2421 -0.1887  0.2063
 1436SOL    HW115770   0.187   2.037   7.141 -2.0343 -1.6121  1.5646
 1436SOL    HW215771   0.208   2.007   7.289 -1.0063  0.6299  0.9272
 1437SOL     OW15772   1.983   2.734   1.396 -0.1410 -0.3786  0.7086
 1437SOL    HW115773   1.892   2.709   1.412  0.0230  0.5000  3.0699
 1437SOL    HW215774   2.027   2.691   1.470 -1.0170  0.7041  1.8605
 1438SOL     OW15775   3.799   2.153   5.706  0.1283  0.0389 -0.4348
 1438SOL    HW115776   3.843   2.069   5.718 -0.8388 -0.4354 -0.2697
 1438SOL    HW215777   3.786   2.181   5.796 -2.7879 -1.3289 -0.4539
 1439SOL     OW15778   0.655   2.799   1.098  0.3124 -0.2481 -0.1290
 1439SOL    HW115779   0.664   2.716   1.051  1.7350 -0.5464  0.6849
 1439SOL    HW215780   0.634   2.752   1.178 -0.3132  0.0788 -0.0985
 1440SOL     OW15781   1.485   0.892   9.673 -0.3272 -0.7512 -0.1378
 1440SOL    HW115782   1.411   0.949   9.692 -0.5578 -1.6089  1.5073
 1440SOL    HW215783   1.448   0.819   9.721  2.1660 -1.7603  0.2632
 1441SOL     OW15784   2.969   3.625   3.383  0.3123  0.2089 -0.5155
 1441SOL    HW115785   2.954   3.719   3.379 -0.6970  0.0902  0.5932
 1441SOL    HW215786   2.915   3.593   3.310 -1.7160  2.2211  0.1127
 1442SOL     OW15787   3.845   4.190   5.552 -0.7071 -0.0799  0.5017
 1442SOL    HW115788   3.774   4.226   5.604 -1.4669  0.3840 -0.8861
 1442SOL    HW215789   3.904   4.174   5.627 -0.3393 -0.6063  0.1040
 1443SOL     OW15790   2.761   4.338   6.785  0.2269 -0.0478  0.4939
 1443SOL    HW115791   2.772   4.358   6.878 -2.6067 -0.5915  0.9347
 1443SOL    HW215792   2.836   4.380   6.743  1.0471  0.6107  2.6043
 1444SOL     OW15793   1.644   4.154   9.573  0.5304 -0.0842 -0.6477
 1444SOL    HW115794   1.676   4.143   9.484  0.6953  0.0614 -0.6075
 1444SOL    HW215795   1.571   4.094   9.588  1.1602 -1.4482 -2.9630
 1445SOL     OW15796   2.800   0.946   8.892 -0.3668 -0.3191  0.3088
 1445SOL    HW115797   2.787   0.981   8.980 -1.0733 -1.0345  0.4864
 1445SOL    HW215798   2.878   0.891   8.904  2.2586  3.5322  0.9067
 1446SOL     OW15799   2.992   0.317   2.654  0.0531  0.3014  0.1670
 1446SOL    HW115800   2.952   0.294   2.570 -0.8987 -2.4236  1.3640
 1446SOL    HW215801   2.992   0.234   2.702  2.6581 -0.0519 -0.4052
 1447SOL     OW15802   1.290   1.666   1.349  0.3517 -0.5505 -0.0421
 1447SOL    HW115803   1.274   1.616   1.429 -2.8629 -0.5251 -0.6697
 1447SOL    HW215804   1.353   1.609   1.305  0.5102  0.2446 -0.8556
 1448SOL     OW15805   2.273   4.703   3.322 -0.2757 -0.0960  0.1665
 1448SOL    HW115806   2.299   4.670   3.236 -0.2999 -0.2712  0.2250
 1448SOL    HW215807   2.230   4.633   3.372  2.9531 -0.6207  2.1836
 1449SOL     OW15808   2.998   2.611  14.924 -0.1426 -0.0178 -0.3892
 1449SOL    HW115809   2.990   2.675  14.995 -0.0567  0.3454 -0.7059
 1449SOL    HW215810   3.076   2.645  14.881  0.1329 -0.1007  0.0378
 1450SOL     OW15811   2.903   0.412  13.914  0.4127 -0.7018 -0.5147
 1450SOL    HW115812   2.850   0.443  13.987  1.4313  1.1727 -0.5806
 1450SOL    HW215813   2.967   0.482  13.923 -1.3372  0.8001  0.3849
 1451SOL     OW15814   2.368   2.076  12.199 -0.0980 -0.1459  0.0729
 1451SOL    HW115815   2.392   2.145  12.137 -0.1659 -0.7719 -0.6508
 1451SOL    HW215816   2.325   2.123  12.271  0.2384  0.9427 -0.4351
 1452SOL     OW15817   0.187   2.092  17.199 -0.2331 -0.2462 -0.4320
 1452SOL    HW115818   0.226   2.165  17.151 -1.2595 -1.0546 -2.4936
 1452SOL    HW215819   0.108   2.078  17.146  1.5583 -0.0675 -3.1019
 1453SOL     OW15820   2.132   3.671   1.401  0.1117  0.4513 -0.0649
 1453SOL    HW115821   2.130   3.724   1.322  0.9312 -1.9260 -1.6914
 1453SOL    HW215822   2.116   3.729   1.475  1.6520  0.4050  0.2968
 1454SOL     OW15823   1.263   3.026   7.320  0.5368  0.3335 -0.8134
 1454SOL    HW115824   1.210   3.007   7.242  1.3159 -1.2383 -0.9473
 1454SOL    HW215825   1.345   3.047   7.274  1.2383 -0.5366  0.0368
 1455SOL     OW15826   3.436   4.646   1.891 -0.4105  0.6774 -0.4006
 1455SOL    HW115827   3.354   4.687   1.863 -1.0883 -1.7909 -2.0199
 1455SOL    HW215828   3.457   4.682   1.977  0.1047 -2.3471  0.7510
 1456SOL     OW15829   3.646   2.696   5.656  0.3103  0.3480 -0.1800
 1456SOL    HW115830   3.635   2.611   5.698 -1.0216  2.2046  3.1666
 1456SOL    HW215831   3.693   2.664   5.578 -1.3561 -0.7434 -0.7286
 1457SOL     OW15832   3.790   0.361   0.276  0.2316  0.1352 -0.0930
 1457SOL    HW115833   3.820   0.383   0.188  0.1523  0.9230  0.0817
 1457SOL    HW215834   3.795   0.265   0.272 -4.3297 -0.1058 -0.3168
 1458SOL     OW15835   0.674   1.894  13.068 -0.2367 -0.3545  0.0061
 1458SOL    HW115836   0.695   1.939  13.149  0.8336  2.2886 -1.7172
 1458SOL    HW215837   0.749   1.911  13.010 -0.2239 -1.8256 -0.4221
 1459SOL     OW15838   4.368   3.648   5.479  0.3341  0.2105 -0.3345
 1459SOL    HW115839   4.350   3.738   5.503  0.6220  0.8757 -2.6019
 1459SOL    HW215840   4.312   3.634   5.402 -0.1371 -0.3925  0.1117
 1460SOL     OW15841   1.008   1.976   4.327  0.0997  0.0305 -0.1282
 1460SOL    HW115842   1.051   2.053   4.364  0.5396  0.6362 -1.9004
 1460SOL    HW215843   0.941   1.959   4.394  2.2074 -0.7297  1.7976
 1461SOL     OW15844   1.957   0.453   2.649  0.0321  0.3151  0.2178
 1461SOL    HW115845   1.882   0.499   2.611 -0.4441  1.6191  2.7461
 1461SOL    HW215846   2.013   0.450   2.571 -3.5290 -1.2058 -2.2818
 1462SOL     OW15847   1.055   0.098  14.207 -0.1040  0.4411  0.1626
 1462SOL    HW115848   1.014   0.040  14.143 -1.4548 -0.0491  1.4596
 1462SOL    HW215849   1.101   0.159  14.150  0.1536 -0.4480 -0.5908
 1463SOL     OW15850   4.256   2.995  13.115 -0.2446  0.0758  0.4923
 1463SOL    HW115851   4.276   2.997  13.208 -0.2554  0.1773  0.4925
 1463SOL    HW215852   4.249   3.090  13.100  1.2979  0.1975  0.5710
 1464SOL     OW15853   4.609   2.133  16.686 -0.1714 -0.4930 -0.3935
 1464SOL    HW115854   4.557   2.196  16.736  0.5039 -0.9956  0.9278
 1464SOL    HW215855   4.551   2.059  16.670 -0.3605 -0.6104  0.8959
 1465SOL     OW15856   2.488   3.941   5.292 -0.3799 -0.4888 -0.1212
 1465SOL    HW115857   2.432   3.865   5.310 -1.3902  0.2076 -0.3103
 1465SOL    HW215858   2.493   3.923   5.199 -0.7634  1.1254 -0.4492
 1466SOL     OW15859   0.278   4.710   8.688 -0.5468 -0.5864  0.1615
 1466SOL    HW115860   0.205   0.019   8.633 -0.2741  0.6570  0.5130
 1466SOL    HW215861   0.236   4.646   8.745  1.8270 -2.9945 -0.8286
 1467SOL     OW15862   2.808   3.309  15.599  0.4232 -0.2672  0.0609
 1467SOL    HW115863   2.854   3.393  15.589 -2.9556  1.3425 -1.8361
 1467SOL    HW215864   2.725   3.342  15.633  1.4576  1.3769  0.9743
 1468SOL     OW15865   2.039   4.254  12.368 -0.4938 -0.0708  0.5474
 1468SOL    HW115866   2.051   4.163  12.341 -2.4510  0.5653 -2.5193
 1468SOL    HW215867   1.988   4.299  12.300 -2.6965  0.4417  2.5551
 1469SOL     OW15868   3.871   4.051  11.654 -0.2975  0.2227 -0.2545
 1469SOL    HW115869   3.862   4.085  11.565 -0.4945  0.8885  0.0209
 1469SOL    HW215870   3.789   4.000  11.659  0.8560 -1.6190 -0.1280
 1470SOL     OW15871   0.019   4.318   3.646 -0.2529  0.4830 -0.5054
 1470SOL    HW115872   0.008   4.223   3.636  0.1751  0.3934 -0.1069
 1470SOL    HW215873   4.651   4.345   3.665  0.0275  0.7629  0.4321
 1471SOL     OW15874   0.536   2.385   3.861  0.4734 -0.1819  0.1812
 1471SOL    HW115875   0.548   2.392   3.767 -0.1445  3.7690  0.4267
 1471SOL    HW215876   0.582   2.468   3.872  1.1176 -0.4841 -0.2148
 1472SOL     OW15877   1.619   0.740   9.017  0.3911  0.1812 -0.1537
 1472SOL    HW115878   1.652   0.828   9.035 -0.8844  0.3206  1.5209
 1472SOL    HW215879   1.580   0.719   9.102 -0.6275 -1.2343 -0.9628
 1473SOL     OW15880   3.672   3.846  11.613  0.1381 -0.4066  0.3649
 1473SOL    HW115881   3.651   3.768  11.665  0.5289 -1.2919 -0.8007
 1473SOL    HW215882   3.709   3.806  11.534  1.0013  2.4710 -0.6767
 1474SOL     OW15883   0.931   3.308   1.774  0.6059 -0.6777 -0.1165
 1474SOL    HW115884   0.847   3.290   1.734  0.4864 -0.1832 -0.0935
 1474SOL    HW215885   0.942   3.400   1.748 -2.6276  0.1591  1.4759
 1475SOL     OW15886   0.559   0.712  14.510 -0.0403  0.1894 -0.4100
 1475SOL    HW115887   0.635   0.760  14.542  0.7402 -1.2307 -0.1342
 1475SOL    HW215888   0.509   0.787  14.477  0.8605  0.3278 -1.4568
 1476SOL     OW15889   0.732   1.542   5.393  0.6606  0.2686  0.1843
 1476SOL    HW115890   0.693   1.463   5.355 -0.9371  1.0735  0.1273
 1476SOL    HW215891   0.661   1.604   5.374 -1.3960 -2.1988 -0.2887
 1477SOL     OW15892   3.838   3.092   9.263 -0.2237  0.0883  0.6928
 1477SOL    HW115893   3.757   3.041   9.275  0.5540 -0.8645  1.9588
 1477SOL    HW215894   3.831   3.161   9.329 -1.5431  0.4748  0.1494
 1478SOL     OW15895   3.701   2.330   7.854 -0.3910 -0.1475  0.2307
 1478SOL    HW115896   3.786   2.348   7.814 -0.8551 -0.3860 -0.8651
 1478SOL    HW215897   3.718   2.254   7.910 -1.3478 -1.7480 -1.6741
 1479SOL     OW15898   0.855   1.105   6.912  0.0911 -0.4187 -0.1249
 1479SOL    HW115899   0.843   1.196   6.884 -0.3862 -0.2442  0.6568
 1479SOL    HW215900   0.934   1.076   6.867  0.2991 -1.6207  1.0189
 1480SOL     OW15901   1.986   1.508   5.838 -0.0580 -0.4083  0.2641
 1480SOL    HW115902   2.016   1.561   5.912  0.3455  0.3581 -0.4615
 1480SOL    HW215903   1.930   1.441   5.878  0.3978  0.0561  1.6657
 1481SOL     OW15904   3.000   2.044   3.749 -0.4879  0.5188  0.4000
 1481SOL    HW115905   2.945   1.975   3.784 -0.2246 -0.5015 -1.2146
 1481SOL    HW215906   3.089   2.009   3.745 -0.3795  0.9990 -1.2545
 1482SOL     OW15907   4.177   2.057   1.155 -0.5909  1.0214 -0.2689
 1482SOL    HW115908   4.247   2.106   1.112  1.0386 -1.6241 -0.6273
 1482SOL    HW215909   4.165   1.986   1.091 -2.9557  0.7954  0.4408
 1483SOL     OW15910   1.895   0.403  13.176 -0.1466 -0.0091  0.3038
 1483SOL    HW115911   1.970   0.427  13.230  0.6835  0.6046 -1.1218
 1483SOL    HW215912   1.840   0.375  13.249  1.2739 -0.9477  1.0050
 1484SOL     OW15913   2.347   0.545   4.362  0.1138  0.3017  0.0913
 1484SOL    HW115914   2.399   0.509   4.433  3.8664 -0.7613 -3.1745
 1484SOL    HW215915   2.412   0.537   4.292  0.8677  0.9437  0.7204
 1485SOL     OW15916   1.828   3.816   5.688 -0.2610  0.0680 -0.0440
 1485SOL    HW115917   1.858   3.725   5.690 -2.0979 -0.4935  1.6568
 1485SOL    HW215918   1.838   3.857   5.774  1.1120 -2.2263  0.8970
 1486SOL     OW15919   4.219   2.824  17.145  0.3836 -0.1204  0.0619
 1486SOL    HW115920   4.215   2.731  17.168  0.6074 -0.4385 -1.1947
 1486SOL    HW215921   4.280   2.820  17.071  0.6371 -0.9476  0.3221
 1487SOL     OW15922   1.230   4.562   4.946 -0.9724  0.0927  0.0572
 1487SOL    HW115923   1.325   4.572   4.947 -1.0823  1.1795 -0.3160
 1487SOL    HW215924   1.206   4.645   4.987  0.1890  0.4801 -0.0267
 1488SOL     OW15925   1.371   4.572   7.022 -0.2710  0.5240  0.8487
 1488SOL    HW115926   1.463   4.583   7.045  0.1452 -0.4566 -0.3348
 1488SOL    HW215927   1.362   4.616   6.937  2.1476 -2.1996 -0.8269
 1489SOL     OW15928   3.695   0.694   2.650  0.2217 -0.2377 -0.2512
 1489SOL    HW115929   3.783   0.728   2.665 -1.1458  3.1667 -0.0228
 1489SOL    HW215930   3.658   0.762   2.594  0.0037 -1.0587 -1.1170
 1490SOL     OW15931   2.918   1.273   7.432 -0.1378  0.1874  0.0614
 1490SOL    HW115932   2.949   1.243   7.347 -0.1895  0.1533  0.0544
 1490SOL    HW215933   2.946   1.365   7.431 -0.2573  0.2035 -1.9551
 1491SOL     OW15934   4.569   3.470   4.346 -0.5060 -0.3100 -0.0863
 1491SOL    HW115935   4.581   3.410   4.272  0.5058 -1.1201  0.7503
 1491SOL    HW215936   4.593   3.554   4.309  0.5372 -0.6976 -0.2778
 1492SOL     OW15937   1.106   3.798   6.714  0.5970 -0.0461  0.7362
 1492SOL    HW115938   1.177   3.762   6.767 -0.1129 -0.8823  1.1176
 1492SOL    HW215939   1.143   3.811   6.626 -1.6747  0.3812 -0.1505
 1493SOL     OW15940   0.975   0.586   6.598  0.2277  0.0320  0.5271
 1493SOL    HW115941   0.964   0.522   6.668 -1.1887  0.8426  1.0505
 1493SOL    HW215942   0.989   0.671   6.641 -1.1156  0.8058 -0.5567
 1494SOL     OW15943   3.626   2.790  13.905  0.5942  0.5320  0.4368
 1494SOL    HW115944   3.685   2.756  13.973 -1.9286 -1.3612  1.6773
 1494SOL    HW215945   3.655   2.881  13.907  2.4651 -0.0813  2.2987
 1495SOL     OW15946   3.190   3.310   9.132  0.0921  0.2033  0.0494
 1495SOL    HW115947   3.137   3.286   9.209 -0.8847  2.0398 -0.0454
 1495SOL    HW215948   3.275   3.289   9.171 -0.0959 -1.0534 -0.2270
 1496SOL     OW15949   1.692   3.741   8.748  0.1265 -0.0148  0.1439
 1496SOL    HW115950   1.778   3.737   8.789 -0.3183 -0.2995  1.0571
 1496SOL    HW215951   1.649   3.673   8.800  0.9362  0.9665  2.1084
 1497SOL     OW15952   4.634   1.575   2.112  0.0468 -0.4742 -0.5200
 1497SOL    HW115953   4.550   1.530   2.113 -1.4973  2.4546  0.4606
 1497SOL    HW215954   4.644   1.587   2.018 -0.1734 -0.1119 -0.4951
 1498SOL     OW15955   3.227   4.389   3.526 -0.2406  0.6286  0.2307
 1498SOL    HW115956   3.165   4.450   3.566 -0.3932  0.1440  0.7480
 1498SOL    HW215957   3.177   4.364   3.448 -0.3374 -1.2977  0.8984
 1499SOL     OW15958   1.500   2.704   8.446  0.1975  0.2791 -0.1047
 1499SOL    HW115959   1.420   2.666   8.410  0.7491 -1.1550  0.1718
 1499SOL    HW215960   1.561   2.673   8.379  0.9903 -0.1797  0.8342
 1500SOL     OW15961   1.995   4.444   8.050  0.8058  0.3816  0.4302
 1500SOL    HW115962   1.934   4.388   8.097 -0.1406  0.2118 -1.0168
 1500SOL    HW215963   2.031   4.377   7.992 -3.3903 -0.6613 -0.9115
 1501SOL     OW15964   3.833   1.202   5.543  0.7917 -0.4901  0.1991
 1501SOL    HW115965   3.890   1.186   5.467 -0.0872 -2.6132 -0.0049
 1501SOL    HW215966   3.820   1.115   5.579  3.1369 -0.9707 -0.0708
 1502SOL     OW15967   0.473   3.726   4.208 -0.4076 -0.0191  0.2409
 1502SOL    HW115968   0.489   3.738   4.301 -0.6877  0.3116  0.2459
 1502SOL    HW215969   0.458   3.818   4.186 -1.0834  0.1802  1.5776
 1503SOL     OW15970   4.544   0.743  11.503 -0.0422 -0.1622  0.2003
 1503SOL    HW115971   4.587   0.773  11.423  1.1179  1.4554  1.4286
 1503SOL    HW215972   4.495   0.823  11.522  0.0477  0.2713 -1.3834
 1504SOL     OW15973   1.247   1.352  14.057  0.1680 -0.2907 -0.4340
 1504SOL    HW115974   1.333   1.312  14.051 -0.9325 -2.5405 -1.3975
 1504SOL    HW215975   1.261   1.435  14.012  1.8678 -0.8602 -0.9493
 1505SOL     OW15976   1.845   1.190   4.664  0.4302  0.3572 -0.2810
 1505SOL    HW115977   1.881   1.167   4.750 -1.2700  0.8021  0.5554
 1505SOL    HW215978   1.866   1.283   4.659  3.3229 -0.3459 -1.2836
 1506SOL     OW15979   2.774   3.844   2.470 -0.1224 -0.3986  0.3683
 1506SOL    HW115980   2.720   3.875   2.542  1.9830 -0.0031  1.7689
 1506SOL    HW215981   2.846   3.804   2.518  0.6814 -1.8111 -1.9753
 1507SOL     OW15982   4.603   1.825   0.349 -0.4321 -0.4217 -0.0613
 1507SOL    HW115983   4.691   1.813   0.385  0.3786 -2.1152 -2.5294
 1507SOL    HW215984   4.557   1.880   0.411  1.9856 -0.0590  1.4024
 1508SOL     OW15985   4.239   3.384   2.820 -0.6952  0.1289  0.9897
 1508SOL    HW115986   4.234   3.471   2.859  2.3006  0.3870  0.7957
 1508SOL    HW215987   4.207   3.403   2.732  1.8524  0.9255  0.2214
 1509SOL     OW15988   3.865   2.863   5.276  0.0181  0.0143 -0.1457
 1509SOL    HW115989   3.877   2.958   5.270 -0.0628  0.0095 -0.3883
 1509SOL    HW215990   3.924   2.840   5.347 -0.0958  0.8053  0.2068
 1510SOL     OW15991   0.862   2.119  10.409 -0.0332 -0.1331 -0.3087
 1510SOL    HW115992   0.826   2.186  10.466  2.4229  1.5921 -0.7670
 1510SOL    HW215993   0.804   2.048  10.436  1.1402  0.1045  2.8999
 1511SOL     OW15994   4.131   4.145   7.890  0.0426  0.1303 -0.4016
 1511SOL    HW115995   4.188   4.096   7.949 -2.0080 -1.7349  0.0330
 1511SOL    HW215996   4.194   4.186   7.831  0.4609 -0.0544 -0.0787
 1512SOL     OW15997   1.351   4.120   5.200 -0.4909 -0.0889 -0.1106
 1512SOL    HW115998   1.297   4.189   5.160 -0.5305  0.2733  0.5757
 1512SOL    HW215999   1.371   4.076   5.118  2.4226  0.7134  0.1882
 1513SOL     OW16000   3.842   0.606   3.885 -0.0922  0.4024  0.3439
 1513SOL    HW116001   3.759   0.573   3.920  0.7402 -1.1199  0.8990
 1513SOL    HW216002   3.836   0.701   3.892  0.7317  0.4681  0.0883
 1514SOL     OW16003   0.605   1.171   7.678  0.7486  0.3720  0.5139
 1514SOL    HW116004   0.690   1.177   7.635  0.5294  1.3458  0.2140
 1514SOL    HW216005   0.558   1.122   7.610 -1.3633  0.5492  1.8368
 1515SOL     OW16006   0.276   1.140  12.010 -0.0211 -0.2821 -0.2427
 1515SOL    HW116007   0.312   1.136  11.922  2.0921  2.2034  0.5345
 1515SOL    HW216008   0.346   1.087  12.047 -1.0349  0.7276  3.1175
 1516SOL     OW16009   0.055   3.369   8.704 -0.0624 -0.7849  0.1921
 1516SOL    HW116010   0.027   3.440   8.762  1.0864 -0.3849  0.2574
 1516SOL    HW216011   0.148   3.390   8.697 -0.3268  0.1897 -0.3520
 1517SOL     OW16012   2.577   1.251   3.546  0.0302  0.1745  0.6451
 1517SOL    HW116013   2.489   1.220   3.524 -0.4215  0.8865  1.4726
 1517SOL    HW216014   2.575   1.332   3.496  0.7800  0.8882  1.7872
 1518SOL     OW16015   4.060   0.829   5.651 -0.0987 -0.5925  0.3769
 1518SOL    HW116016   3.990   0.768   5.675 -1.9169  0.4704 -2.1273
 1518SOL    HW216017   4.027   0.871   5.571  1.3516 -0.3375 -0.0856
 1519SOL     OW16018   3.123   0.549  13.034  0.5705  0.3952 -0.3487
 1519SOL    HW116019   3.086   0.590  12.956  0.1932  1.0720  0.1884
 1519SOL    HW216020   3.207   0.521  12.997  0.3809 -0.5971 -0.0538
 1520SOL     OW16021   0.378   2.841   0.925 -0.0816  0.2393 -0.3570
 1520SOL    HW116022   0.367   2.871   1.016 -0.9226 -0.6606 -0.1706
 1520SOL    HW216023   0.289   2.829   0.893 -0.7795  1.3259  1.1600
 1521SOL     OW16024   3.149   1.325   1.814 -0.5075  0.5625 -0.1237
 1521SOL    HW116025   3.242   1.317   1.835 -0.0735  0.4184 -2.0579
 1521SOL    HW216026   3.148   1.411   1.772 -0.0896 -0.0747 -1.4621
 1522SOL     OW16027   0.102   2.250   4.454  0.1636 -0.6950 -0.4170
 1522SOL    HW116028   0.169   2.182   4.457 -0.6225 -1.6301 -3.1444
 1522SOL    HW216029   0.117   2.290   4.368  1.1664  0.9128  0.5106
 1523SOL     OW16030   3.024   3.510   5.076  0.1088  0.1155 -0.0283
 1523SOL    HW116031   3.063   3.581   5.127 -1.1132  1.0194 -0.3645
 1523SOL    HW216032   3.012   3.542   4.987 -2.6299  1.8051  0.9539
 1524SOL     OW16033   1.043   4.210   2.497  0.0735  0.2147  0.1295
 1524SOL    HW116034   0.949   4.224   2.491  0.2010  0.2303 -1.9519
 1524SOL    HW216035   1.051   4.138   2.559  1.2283  0.1051 -0.1519
 1525SOL     OW16036   0.228   2.461   7.844  0.3893  1.0184  0.3153
 1525SOL    HW116037   0.216   2.376   7.887 -0.1084  1.0534  0.2480
 1525SOL    HW216038   0.166   2.518   7.889 -0.3553  1.0461 -0.7491
 1526SOL     OW16039   2.638   4.540   4.809  0.0334  0.1361  0.3784
 1526SOL    HW116040   2.715   4.575   4.854 -0.9635  0.9688  1.4460
 1526SOL    HW216041   2.609   4.467   4.864 -0.7465 -0.5078 -0.9075
 1527SOL     OW16042   2.159   1.792  16.889  0.0735  0.0415 -0.2571
 1527SOL    HW116043   2.165   1.851  16.813  0.4081  1.0285  0.5372
 1527SOL    HW216044   2.243   1.807  16.932  0.3173 -3.1432  0.3393
 1528SOL     OW16045   1.695   3.525  15.351  0.1331  0.6782  0.3442
 1528SOL    HW116046   1.755   3.599  15.344 -0.6465  1.0138 -2.8334
 1528SOL    HW216047   1.640   3.558  15.422 -0.5186 -1.1452  0.6929
 1529SOL     OW16048   0.100   0.118   2.310 -0.2136 -0.7278 -1.0825
 1529SOL    HW116049   0.093   0.186   2.242 -2.1134  0.2305  0.0712
 1529SOL    HW216050   0.146   0.048   2.264  1.9642 -0.8903  1.3485
 1530SOL     OW16051   1.921   1.492   4.048 -0.1900 -0.0333  0.0131
 1530SOL    HW116052   1.893   1.520   4.135  0.7055 -2.3825  1.0773
 1530SOL    HW216053   1.858   1.420   4.042 -1.3520  1.0480 -0.6062
 1531SOL     OW16054   2.349   1.713   9.123  0.2515 -0.2227 -0.2939
 1531SOL    HW116055   2.370   1.773   9.195 -0.0231 -1.7243  1.0262
 1531SOL    HW216056   2.384   1.756   9.044  1.3092  2.2443  1.5272
 1532SOL     OW16057   0.230   3.256   7.139 -0.1067  0.3065  0.0098
 1532SOL    HW116058   0.261   3.204   7.065  0.0314  0.0292  0.2635
 1532SOL    HW216059   0.308   3.310   7.152  0.3516 -0.4581  0.4853
 1533SOL     OW16060   0.287   0.455   4.142  0.3335  0.1516 -0.0061
 1533SOL    HW116061   0.299   0.523   4.077  1.8325 -0.1993 -0.0898
 1533SOL    HW216062   0.284   0.373   4.093 -0.3378  0.4006 -0.3791
 1534SOL     OW16063   1.926   3.354   4.002  0.0304 -0.4534  0.4989
 1534SOL    HW116064   1.862   3.400   3.947  1.1890  0.9761  0.3460
 1534SOL    HW216065   1.976   3.299   3.941  0.7841  0.4930  0.2553
 1535SOL     OW16066   2.320   2.862  17.124  0.1768  0.5645 -0.1391
 1535SOL    HW116067   2.271   2.872  17.206 -0.3229 -0.5228 -0.3066
 1535SOL    HW216068   2.312   2.767  17.115 -1.2951  0.3102  3.7345
 1536SOL     OW16069   3.832   3.854   4.014 -0.0823 -0.3617  0.2594
 1536SOL    HW116070   3.898   3.876   4.080  0.2665  0.1717 -0.2702
 1536SOL    HW216071   3.886   3.846   3.936  0.5423  0.0753  0.6479
 1537SOL     OW16072   4.308   2.358  17.038  0.1711  0.4444  0.1295
 1537SOL    HW116073   4.255   2.280  17.052 -2.6816  2.1802 -0.9110
 1537SOL    HW216074   4.243   2.428  17.044  0.5744  0.7129  1.3777
 1538SOL     OW16075   4.367   0.665   1.401  0.3309 -0.3240 -0.2220
 1538SOL    HW116076   4.400   0.665   1.491  0.5864 -1.6920 -0.3164
 1538SOL    HW216077   4.442   0.713   1.365  0.5192 -0.7250 -0.3570
 1539SOL     OW16078   2.657   0.489   5.660  0.6091 -0.5458 -0.6199
 1539SOL    HW116079   2.675   0.488   5.566  3.9494  0.5793 -0.0192
 1539SOL    HW216080   2.653   0.583   5.681 -0.6136 -0.1729 -2.5734
 1540SOL     OW16081   2.266   0.946   5.463 -0.4732 -0.4540  0.0798
 1540SOL    HW116082   2.225   0.975   5.381 -0.8937  0.1489  0.4995
 1540SOL    HW216083   2.347   0.907   5.433 -1.8479 -2.2504 -1.2748
 1541SOL     OW16084   2.785   2.823   7.561  0.4513 -0.4740  0.4034
 1541SOL    HW116085   2.823   2.773   7.634  0.7419 -0.2717  0.3912
 1541SOL    HW216086   2.780   2.908   7.606  0.3366 -0.3872  0.2233
 1542SOL     OW16087   4.036   4.558   8.019 -0.0656  0.4917  0.6126
 1542SOL    HW116088   4.011   4.640   8.061  1.2771  1.5892 -0.7208
 1542SOL    HW216089   4.097   4.525   8.085 -0.5940  1.3196  1.5133
 1543SOL     OW16090   1.321   0.704   5.427  0.0937  0.6342 -0.1717
 1543SOL    HW116091   1.317   0.609   5.434  0.5871  0.6907  0.7790
 1543SOL    HW216092   1.277   0.719   5.343  1.3008 -1.1744 -1.1574
 1544SOL     OW16093   2.983   4.100  13.426  0.4902 -0.0386 -0.6129
 1544SOL    HW116094   2.982   4.094  13.330  0.4805 -0.3290 -0.5932
 1544SOL    HW216095   3.065   4.148  13.441  1.7159 -2.4313  0.3143
 1545SOL     OW16096   0.453   3.145   9.296  0.3856 -0.8145 -0.0630
 1545SOL    HW116097   0.487   3.230   9.324 -1.6147  0.6011 -1.9340
 1545SOL    HW216098   0.380   3.130   9.356 -1.6711  1.4742 -1.9753
 1546SOL     OW16099   0.824   2.793  15.941  0.0177 -0.1437 -0.3672
 1546SOL    HW116100   0.757   2.751  15.995 -1.2710  1.2148 -0.9124
 1546SOL    HW216101   0.776   2.860  15.892 -0.1260 -0.0191 -0.0597
 1547SOL     OW16102   3.866   2.053   9.126  0.0868  0.2008 -0.6273
 1547SOL    HW116103   3.804   2.115   9.163  0.9723 -1.6105  3.8465
 1547SOL    HW216104   3.832   1.964   9.141 -0.6678  0.4953 -0.5570
 1548SOL     OW16105   0.612   0.589   2.473  0.4496 -0.3659  0.0884
 1548SOL    HW116106   0.669   0.548   2.538  2.0773  1.4370 -0.2028
 1548SOL    HW216107   0.646   0.551   2.392 -0.6486  2.7221 -1.8006
 1549SOL     OW16108   3.484   1.578   1.721 -0.0042 -0.7432  0.0231
 1549SOL    HW116109   3.397   1.598   1.688 -0.0477 -0.1336  0.5060
 1549SOL    HW216110   3.526   1.662   1.704 -1.6793 -0.1186 -0.9663
 1550SOL     OW16111   1.821   2.168   6.020 -0.1952  0.5769  0.0280
 1550SOL    HW116112   1.906   2.210   6.005  1.2873 -1.4188  2.8913
 1550SOL    HW216113   1.813   2.184   6.114  1.4786 -0.7523  0.3933
 1551SOL     OW16114   3.406   3.525  12.384 -0.2170 -0.1759  0.1210
 1551SOL    HW116115   3.362   3.602  12.348 -0.2986 -0.1443  0.2844
 1551SOL    HW216116   3.353   3.511  12.462  2.9617  0.0424  2.3442
 1552SOL     OW16117   2.515   2.675   4.819 -0.1964  0.5956  0.2969
 1552SOL    HW116118   2.530   2.594   4.867 -1.8648 -0.7602 -1.4972
 1552SOL    HW216119   2.570   2.728   4.876  1.5492 -1.4186  0.4752
 1553SOL     OW16120   0.132   0.852   3.540 -0.5725  0.0823 -0.2315
 1553SOL    HW116121   0.054   0.883   3.495 -1.0295 -0.6406  0.0563
 1553SOL    HW216122   0.127   0.902   3.622 -2.2447 -0.8317  0.2270
 1554SOL     OW16123   3.573   0.457   8.499 -0.2401 -0.4079 -0.6017
 1554SOL    HW116124   3.551   0.550   8.503 -1.9605 -0.7820 -1.2551
 1554SOL    HW216125   3.488   0.429   8.534  0.2038 -0.7965  0.1844
 1555SOL     OW16126   1.672   0.097  10.727 -0.1808 -0.4202 -0.0513
 1555SOL    HW116127   1.738   0.029  10.742  0.4314  0.4784  1.2406
 1555SOL    HW216128   1.735   0.166  10.708  1.0734 -1.7794 -0.8540
 1556SOL     OW16129   0.897   0.389   6.405  0.2988 -0.3815  0.4338
 1556SOL    HW116130   0.923   0.429   6.322 -0.9815 -0.2781  0.0761
 1556SOL    HW216131   0.906   0.461   6.467 -0.9111 -1.7263  2.1948
 1557SOL     OW16132   1.650   4.688   5.689  0.5486  0.5481 -0.0084
 1557SOL    HW116133   1.581   0.031   5.697 -2.4529 -2.6332  0.4625
 1557SOL    HW216134   1.601   4.605   5.690 -0.7215  1.2834 -0.8472
 1558SOL     OW16135   2.409   4.293   3.255  0.0349  0.3751 -0.5938
 1558SOL    HW116136   2.500   4.307   3.229  0.3770  0.4405  0.6867
 1558SOL    HW216137   2.375   4.274   3.167  0.1529 -3.9014  0.2491
 1559SOL     OW16138   1.465   3.298   6.932 -0.3813  0.0262  0.3723
 1559SOL    HW116139   1.462   3.393   6.923  1.9441  0.0776  0.0571
 1559SOL    HW216140   1.371   3.281   6.933 -0.5685  1.0484  0.0423
 1560SOL     OW16141   4.137   3.306   6.426  0.1561  0.4622  0.0735
 1560SOL    HW116142   4.206   3.358   6.386  0.5779 -1.1771 -1.3187
 1560SOL    HW216143   4.121   3.239   6.359  0.5742  0.3671  0.0708
 1561SOL     OW16144   2.922   3.524   7.217 -0.2574  0.3932 -0.6126
 1561SOL    HW116145   2.828   3.511   7.205 -0.2062 -1.4326  1.1291
 1561SOL    HW216146   2.923   3.554   7.308 -1.3600 -0.9378 -0.1631
 1562SOL     OW16147   3.072   3.896   3.830 -0.1160 -0.4407  0.3035
 1562SOL    HW116148   3.161   3.879   3.862 -0.5890  0.9748  2.3274
 1562SOL    HW216149   3.023   3.815   3.846  1.1143 -1.5396 -1.4478
 1563SOL     OW16150   2.201   1.014  10.401  0.4904  0.0374 -0.4251
 1563SOL    HW116151   2.204   0.955  10.477  0.1875 -1.6936 -1.7496
 1563SOL    HW216152   2.176   0.951  10.333 -1.6711 -1.2664  1.5438
 1564SOL     OW16153   2.920   4.308   0.861 -0.6051  0.1206  0.3063
 1564SOL    HW116154   2.926   4.253   0.783  0.4368  0.4960  0.1293
 1564SOL    HW216155   2.861   4.256   0.916  1.9943 -1.6247  1.4208
 1565SOL     OW16156   0.861   3.897   6.794 -0.2445  0.3509 -0.7896
 1565SOL    HW116157   0.903   3.977   6.826  0.0626 -0.6777  1.3489
 1565SOL    HW216158   0.933   3.852   6.750 -1.5704 -0.8929 -1.6820
 1566SOL     OW16159   0.015   1.895   5.967  0.2605 -0.1379 -0.3479
 1566SOL    HW116160   0.079   1.923   6.031  0.1890 -2.6159  0.7917
 1566SOL    HW216161   0.077   1.837   5.923  2.5688  1.7229  0.4712
 1567SOL     OW16162   1.357   1.642   4.963  0.2055 -0.0919  0.1784
 1567SOL    HW116163   1.308   1.568   4.928 -0.8237  0.9418 -0.5650
 1567SOL    HW216164   1.333   1.638   5.055 -1.6067 -0.9740 -0.3479
 1568SOL     OW16165   3.574   2.446   4.583  0.9548  0.0964  0.0050
 1568SOL    HW116166   3.621   2.439   4.499  1.5456  1.2726  0.2396
 1568SOL    HW216167   3.619   2.511   4.636 -0.9720  0.6520  0.9489
 1569SOL     OW16168   4.542   3.732   1.917 -0.7331  0.4008  0.4040
 1569SOL    HW116169   4.494   3.812   1.894  0.6442  2.0407  3.1770
 1569SOL    HW216170   4.499   3.721   2.002  0.9901 -2.6756  0.8975
 1570SOL     OW16171   2.462   0.101   9.227 -0.1620 -1.1797  0.3750
 1570SOL    HW116172   2.452   0.053   9.145  0.2982  1.5058 -1.2713
 1570SOL    HW216173   2.428   0.187   9.200 -0.6535 -2.5161 -3.2460
 1571SOL     OW16174   2.195   4.276  10.142  0.0219 -0.0996 -0.7329
 1571SOL    HW116175   2.289   4.260  10.146 -0.0512 -0.0967  1.0035
 1571SOL    HW216176   2.162   4.189  10.167 -0.1199 -0.3403 -1.7706
 1572SOL     OW16177   4.706   2.302  16.056  0.0862 -0.0172  0.4220
 1572SOL    HW116178   0.028   2.242  16.117 -1.1517  0.6454  1.9657
 1572SOL    HW216179   0.036   2.288  15.978 -1.2310 -1.0682 -0.2688
 1573SOL     OW16180   2.591   0.792   2.291 -0.1406 -0.2916  0.2556
 1573SOL    HW116181   2.603   0.867   2.232 -0.4471 -0.4774 -0.0396
 1573SOL    HW216182   2.575   0.838   2.373  1.2563 -0.1497  0.4539
 1574SOL     OW16183   3.255   1.818   7.770  0.2009  0.3320 -0.2537
 1574SOL    HW116184   3.310   1.807   7.692 -0.9231 -1.1080 -0.8598
 1574SOL    HW216185   3.208   1.734   7.774  0.6160 -0.0153 -2.6411
 1575SOL     OW16186   4.498   0.310   8.045 -0.0771  0.0428 -0.5527
 1575SOL    HW116187   4.513   0.326   7.952  1.0500 -0.0287 -0.3783
 1575SOL    HW216188   4.415   0.354   8.067 -0.8799 -2.1926  0.8722
 1576SOL     OW16189   0.648   0.233  15.949  0.2608 -0.6078 -0.0323
 1576SOL    HW116190   0.671   0.266  15.863 -2.7428 -1.3403 -1.1209
 1576SOL    HW216191   0.681   0.144  15.935 -0.8055 -0.8383 -1.0606
 1577SOL     OW16192   0.468   0.876   5.192 -0.7354 -0.2265  0.2638
 1577SOL    HW116193   0.425   0.844   5.272 -0.3548  0.3943  0.7171
 1577SOL    HW216194   0.561   0.862   5.207 -1.1312 -0.9993  2.0465
 1578SOL     OW16195   3.028   0.865  11.005 -0.1295  0.6395  0.3229
 1578SOL    HW116196   2.943   0.908  11.018 -0.9056 -0.7415 -0.2025
 1578SOL    HW216197   3.055   0.879  10.914  0.6639 -0.2814  0.4199
 1579SOL     OW16198   0.277   3.244   2.205  0.1253 -0.2036  0.1896
 1579SOL    HW116199   0.248   3.241   2.296  0.2691 -0.8546  0.2107
 1579SOL    HW216200   0.253   3.157   2.175 -0.2861  0.3653 -1.1263
 1580SOL     OW16201   1.897   3.055   2.131 -0.0327  0.0131 -0.5608
 1580SOL    HW116202   1.874   2.966   2.156  1.4172 -0.1814  0.0612
 1580SOL    HW216203   1.913   3.099   2.214  0.0783 -0.1523 -0.4952
 1581SOL     OW16204   0.258   0.072   6.762  0.0025  0.0524 -0.5672
 1581SOL    HW116205   0.307   0.153   6.777 -1.6724  0.9207  0.1393
 1581SOL    HW216206   0.241   0.036   6.849 -1.8227  1.3083 -0.4055
 1582SOL     OW16207   3.777   3.179   9.745  0.4310 -0.1095 -0.2136
 1582SOL    HW116208   3.791   3.206   9.655 -1.2809 -0.6115 -0.6283
 1582SOL    HW216209   3.858   3.211   9.784 -0.7932  0.6727  1.6981
 1583SOL     OW16210   0.122   2.330   6.172 -0.3936  0.0865  0.7492
 1583SOL    HW116211   0.168   2.409   6.142  1.0224 -1.7420 -1.8200
 1583SOL    HW216212   0.155   2.309   6.260  2.7137 -0.4039 -0.5220
 1584SOL     OW16213   4.483   0.775   0.600 -0.1763 -0.2246  0.7136
 1584SOL    HW116214   4.393   0.795   0.574 -0.0119 -0.5391 -0.1014
 1584SOL    HW216215   4.499   0.701   0.541 -2.2411  0.7155 -1.0132
 1585SOL     OW16216   4.716   3.085   7.076 -0.2514 -1.0138 -0.2032
 1585SOL    HW116217   0.025   3.142   7.147  0.9190 -2.2725  0.2799
 1585SOL    HW216218   4.630   3.123   7.056 -1.8453 -3.7993  1.3493
 1586SOL     OW16219   2.977   3.207   2.554 -0.0319  0.4100  0.5822
 1586SOL    HW116220   2.992   3.293   2.594  1.1163 -0.0827  1.2352
 1586SOL    HW216221   2.988   3.240   2.466 -1.5013  0.3825  0.3840
 1587SOL     OW16222   0.094   4.154   5.211 -0.3595 -0.6737  0.2132
 1587SOL    HW116223   0.083   4.128   5.302  0.4516  0.3519  0.5932
 1587SOL    HW216224   0.189   4.166   5.209 -0.8277  3.3016  1.9199
 1588SOL     OW16225   0.363   1.960   2.232 -0.3386  0.2795  0.2961
 1588SOL    HW116226   0.290   1.907   2.199  0.1264 -1.6797  2.4155
 1588SOL    HW216227   0.403   1.893   2.288 -1.7240  1.3432  2.5240
 1589SOL     OW16228   0.174   0.033   3.864 -0.3895 -1.1624 -0.1282
 1589SOL    HW116229   0.231   0.002   3.793  0.4114 -2.9301  1.2904
 1589SOL    HW216230   0.086   0.006   3.840 -0.4931 -0.4291 -0.5565
 1590SOL     OW16231   2.679   4.057   6.763 -1.2808 -0.2708 -0.1518
 1590SOL    HW116232   2.599   4.048   6.814 -0.8342  1.2480  0.7964
 1590SOL    HW216233   2.657   4.142   6.726 -2.8155 -0.5107  0.1995
 1591SOL     OW16234   4.487   0.267  13.184  0.5393  0.0711  0.2559
 1591SOL    HW116235   4.502   0.261  13.279  0.5453 -1.9977  0.1248
 1591SOL    HW216236   4.518   0.356  13.165  0.5854 -0.0332 -0.1522
 1592SOL     OW16237   2.380   1.210   4.721 -0.1910  0.3957 -0.0555
 1592SOL    HW116238   2.390   1.122   4.685 -0.7877  0.2960  0.0292
 1592SOL    HW216239   2.300   1.207   4.774 -0.1729  0.2482 -0.0368
 1593SOL     OW16240   0.470   2.666   8.010 -0.3622 -0.7168  0.0268
 1593SOL    HW116241   0.383   2.654   7.972 -1.3273 -1.8018  2.5640
 1593SOL    HW216242   0.463   2.633   8.100 -0.5612  0.1984  0.3535
 1594SOL     OW16243   1.711   0.475   5.595  0.4656 -0.2179  0.2238
 1594SOL    HW116244   1.744   0.547   5.541  1.8791 -0.5721  0.6039
 1594SOL    HW216245   1.623   0.512   5.605 -0.0426 -1.0502 -1.3001
 1595SOL     OW16246   1.045   1.708   7.030  0.5389  0.5061  0.2615
 1595SOL    HW116247   1.072   1.630   6.981  0.5958  0.1471  0.8708
 1595SOL    HW216248   0.952   1.688   7.026  0.2946  1.5735  0.6345
 1596SOL     OW16249   2.496   0.252   2.820 -0.1268  0.2043  0.3891
 1596SOL    HW116250   2.521   0.253   2.913  1.7149  0.0310 -0.1138
 1596SOL    HW216251   2.406   0.286   2.824 -0.4302 -0.5890  0.2723
 1597SOL     OW16252   1.325   2.983   9.634  0.1065 -1.0581  0.6193
 1597SOL    HW116253   1.418   2.988   9.614 -0.3519  3.4970 -0.4229
 1597SOL    HW216254   1.297   2.936   9.556 -0.8524  1.7433 -0.7381
 1598SOL     OW16255   2.398   2.440   4.478  0.1972 -0.0705 -0.3594
 1598SOL    HW116256   2.480   2.484   4.453  0.7495 -1.7351 -1.5145
 1598SOL    HW216257   2.436   2.384   4.545  3.1840  0.9174 -1.2204
 1599SOL     OW16258   0.718   1.924   2.797  0.1051 -0.8033  0.9909
 1599SOL    HW116259   0.654   1.939   2.727 -0.9456 -1.5733  1.7778
 1599SOL    HW216260   0.744   1.834   2.781  2.2548  0.2593 -1.6359
 1600SOL     OW16261   0.332   2.499   5.606 -0.0747 -0.2296  0.0926
 1600SOL    HW116262   0.332   2.493   5.511 -1.6528 -1.2419  0.1551
 1600SOL    HW216263   0.393   2.568   5.632 -0.2528  0.0583 -0.2533
 1601SOL     OW16264   2.258   3.038   9.168  0.3288  0.1849  0.4767
 1601SOL    HW116265   2.197   2.971   9.135  1.7658 -0.6142 -0.5855
 1601SOL    HW216266   2.198   3.081   9.229  0.1133 -0.0011  0.3967
 1602SOL     OW16267   0.365   4.629   7.850 -0.2217  0.2352  0.3454
 1602SOL    HW116268   0.404   4.545   7.875 -2.1858 -0.8036 -0.0523
 1602SOL    HW216269   0.381   4.680   7.928 -2.5939  0.4218  0.7084
 1603SOL     OW16270   3.105   2.714   4.338 -0.0058 -0.5227  0.0823
 1603SOL    HW116271   3.043   2.690   4.269  0.0740 -2.7061  0.7885
 1603SOL    HW216272   3.185   2.695   4.289 -2.2845  2.3995 -4.8189
 1604SOL     OW16273   0.593   0.282   7.395  0.0291 -0.0509  0.0499
 1604SOL    HW116274   0.650   0.315   7.464  1.1798  0.8987 -1.3511
 1604SOL    HW216275   0.655   0.224   7.351 -0.2923 -1.1481  1.0327
 1605SOL     OW16276   2.357   0.067   6.505  0.2106 -0.1754  0.1093
 1605SOL    HW116277   2.438   0.018   6.519  0.1942  0.1966  1.5150
 1605SOL    HW216278   2.396   0.155   6.500 -2.1310  1.0029  2.7744
 1606SOL     OW16279   0.265   4.646  15.532  0.0394 -0.0307 -0.4136
 1606SOL    HW116280   0.284   4.553  15.534 -3.1790 -0.7014 -0.5044
 1606SOL    HW216281   0.334   4.690  15.581 -0.3206 -1.3420  1.2663
 1607SOL     OW16282   2.402   2.652   4.122 -0.2846 -0.9836 -0.2366
 1607SOL    HW116283   2.420   2.717   4.189  0.8253 -1.4219 -0.1229
 1607SOL    HW216284   2.491   2.624   4.100 -0.7663 -0.0833 -3.4084
 1608SOL     OW16285   2.792   3.246  10.180 -0.6727  0.3517  0.0856
 1608SOL    HW116286   2.809   3.221  10.089 -0.4846 -0.1417  0.2566
 1608SOL    HW216287   2.750   3.167  10.214  0.7859 -1.3320 -2.0134
 1609SOL     OW16288   3.005   0.181   6.339 -0.3354  0.1776  0.1717
 1609SOL    HW116289   3.073   0.187   6.406 -2.2050  0.4873  2.0883
 1609SOL    HW216290   3.062   0.177   6.263 -0.4108 -0.9285  0.1723
 1610SOL     OW16291   1.725   4.115   7.085  0.0955 -0.8240  0.1871
 1610SOL    HW116292   1.680   4.189   7.044  3.1685  1.5020  1.0092
 1610SOL    HW216293   1.661   4.047   7.105 -0.0120 -0.5379  0.8373
 1611SOL     OW16294   2.483   1.995   4.080  0.2278  0.2916 -0.1147
 1611SOL    HW116295   2.560   2.007   4.024 -1.7275  1.6232 -2.4900
 1611SOL    HW216296   2.479   2.081   4.122  1.8555  1.3897 -2.2084
 1612SOL     OW16297   0.716   3.970  15.103  0.2600 -0.0456 -0.0532
 1612SOL    HW116298   0.686   4.050  15.060  0.4844  0.3238  0.4813
 1612SOL    HW216299   0.802   3.992  15.138 -0.0838  1.0583  0.1030
 1613SOL     OW16300   4.136   3.035   4.356  0.3140 -0.2793  0.4954
 1613SOL    HW116301   4.128   3.118   4.308  0.7254 -0.5287 -0.0081
 1613SOL    HW216302   4.212   2.988   4.322 -0.0142 -0.8879  0.6182
 1614SOL     OW16303   0.910   1.017   2.947 -0.0116  0.0817 -0.8468
 1614SOL    HW116304   0.942   0.938   2.903 -2.1807 -2.0988  1.4572
 1614SOL    HW216305   0.824   0.984   2.973  1.0944 -0.6422  1.8849
 1615SOL     OW16306   3.772   4.527   8.019 -0.4288  0.5012  0.4686
 1615SOL    HW116307   3.751   4.619   8.033 -2.4286  0.4459 -2.2441
 1615SOL    HW216308   3.863   4.538   7.991 -1.2896  3.1155 -1.3782
 1616SOL     OW16309   3.671   3.587   5.118  0.0949  0.0801 -0.2980
 1616SOL    HW116310   3.616   3.664   5.129  0.8562  0.4712  0.7601
 1616SOL    HW216311   3.756   3.621   5.146  0.1933  0.9852 -1.7054
 1617SOL     OW16312   0.243   3.965   5.794  0.2640 -0.1924  0.0864
 1617SOL    HW116313   0.246   3.873   5.821 -0.2291  0.2742  1.7561
 1617SOL    HW216314   0.164   3.968   5.741 -1.4182  3.1609  2.8243
 1618SOL     OW16315   2.693   3.322   8.313  0.0619 -0.1042 -0.0578
 1618SOL    HW116316   2.626   3.391   8.306  1.2835  1.1095  0.1399
 1618SOL    HW216317   2.635   3.246   8.318 -1.0239  0.4703 -3.4288
 1619SOL     OW16318   2.377   3.076   5.385 -0.1629 -0.2937  0.5872
 1619SOL    HW116319   2.441   3.032   5.330  1.1535  1.2327  0.8931
 1619SOL    HW216320   2.290   3.052   5.355 -0.3177 -1.2536  1.8179
 1620SOL     OW16321   2.391   2.420  16.634 -0.5826  0.2749  0.6546
 1620SOL    HW116322   2.379   2.374  16.717 -2.1864  0.6631  0.6425
 1620SOL    HW216323   2.486   2.425  16.642 -0.3795 -1.6530 -0.5667
 1621SOL     OW16324   1.669   2.281   0.138  0.0683 -0.6291 -0.0801
 1621SOL    HW116325   1.631   2.314   0.219  0.3717 -0.2124 -0.1053
 1621SOL    HW216326   1.708   2.360   0.100  1.2941 -0.1323  2.2128
 1622SOL     OW16327   2.651   2.255   2.548  0.2082 -0.0666  0.4769
 1622SOL    HW116328   2.638   2.256   2.642  3.2488  0.2457  0.9049
 1622SOL    HW216329   2.745   2.272   2.540  0.0062  2.1431  2.8761
 1623SOL     OW16330   4.674   3.431  10.281  0.0187  0.1797 -0.9004
 1623SOL    HW116331   4.599   3.422  10.222 -1.6249  0.0977  1.2205
 1623SOL    HW216332   4.717   3.348  10.261 -0.7828 -0.0438 -1.7161
 1624SOL     OW16333   2.836   0.833  15.733 -0.7079 -0.1313 -0.1754
 1624SOL    HW116334   2.801   0.821  15.645  0.4587  0.8971 -0.7839
 1624SOL    HW216335   2.772   0.793  15.793  0.1850  0.3245  1.0883
 1625SOL     OW16336   2.616   1.295  11.924  0.1470  0.0743 -0.8127
 1625SOL    HW116337   2.626   1.250  11.840  0.2401  1.5468 -1.5996
 1625SOL    HW216338   2.543   1.246  11.961  0.4816  0.0221 -0.2344
 1626SOL     OW16339   1.446   2.343  12.463  0.3275 -0.6111  0.2529
 1626SOL    HW116340   1.401   2.263  12.438 -1.2252  0.6107 -0.8371
 1626SOL    HW216341   1.413   2.352  12.552 -2.7149 -1.2415 -0.8043
 1627SOL     OW16342   0.901   0.389   6.767  0.0237  0.2939 -0.5216
 1627SOL    HW116343   0.923   0.296   6.762  1.1252  0.4648  1.3790
 1627SOL    HW216344   0.807   0.388   6.748  0.1582 -0.8814 -1.1479
 1628SOL     OW16345   2.516   0.131   7.452  0.0498  0.2415 -0.5878
 1628SOL    HW116346   2.469   0.132   7.535 -0.0667  1.8566 -0.6753
 1628SOL    HW216347   2.602   0.130   7.494 -0.6306 -0.5343  0.7967
 1629SOL     OW16348   1.094   3.464   5.379 -0.0476  0.1430 -0.1810
 1629SOL    HW116349   1.073   3.382   5.334  2.8582 -0.3866 -0.5482
 1629SOL    HW216350   1.189   3.465   5.370  0.0210  0.2237  0.5373
 1630SOL     OW16351   4.160   4.011   8.949 -0.2057  0.1498  0.5461
 1630SOL    HW116352   4.081   4.063   8.961 -0.1907  0.0967  0.8529
 1630SOL    HW216353   4.145   3.944   9.015  0.2643 -0.6751 -0.1922
 1631SOL     OW16354   2.629   2.612  16.300  0.9736  0.0621 -0.3417
 1631SOL    HW116355   2.706   2.555  16.296 -0.3217 -1.5830 -1.4641
 1631SOL    HW216356   2.557   2.550  16.292 -0.4014  1.2544  3.0726
 1632SOL     OW16357   2.549   2.007   4.504 -0.1341 -0.0513 -0.1689
 1632SOL    HW116358   2.588   2.072   4.446 -0.4841  0.6453  0.3740
 1632SOL    HW216359   2.555   1.932   4.445 -0.8670  0.0004 -0.3046
 1633SOL     OW16360   2.151   1.546   4.293 -0.2862  0.5443  0.2200
 1633SOL    HW116361   2.235   1.511   4.325 -1.2355  0.5570  2.7310
 1633SOL    HW216362   2.089   1.503   4.351 -0.9495 -0.0243 -0.9077
 1634SOL     OW16363   4.087   0.393  12.806  0.1887  0.4653  0.0070
 1634SOL    HW116364   4.129   0.479  12.799  1.0412  0.1342  1.0118
 1634SOL    HW216365   4.018   0.403  12.741 -0.3960  0.3348  0.6092
 1635SOL     OW16366   4.152   3.130   0.623  0.4108 -0.1053 -0.0158
 1635SOL    HW116367   4.091   3.061   0.651 -1.9019  1.1828 -1.8510
 1635SOL    HW216368   4.148   3.100   0.532 -0.7524  0.7625 -0.2501
 1636SOL     OW16369   1.601   3.663   5.452  0.1626  0.2227  0.2828
 1636SOL    HW116370   1.552   3.696   5.526  0.4478 -1.2999  1.1486
 1636SOL    HW216371   1.643   3.584   5.486 -1.8669 -1.1437 -0.3963
 1637SOL     OW16372   1.944   1.841  12.800 -0.4939 -0.0359  0.0827
 1637SOL    HW116373   1.955   1.890  12.882 -0.2820  0.4670 -0.2501
 1637SOL    HW216374   1.967   1.754  12.834 -0.1005 -0.1164 -0.3849
 1638SOL     OW16375   0.930   1.317   8.798 -0.2203 -0.5829  0.4030
 1638SOL    HW116376   0.928   1.319   8.893  0.9419  1.5612  0.3854
 1638SOL    HW216377   0.846   1.274   8.781 -0.1191 -1.3864  1.9647
 1639SOL     OW16378   0.415   3.865  17.117  0.0057  0.1104  0.7488
 1639SOL    HW116379   0.504   3.877  17.083 -1.8424 -0.4937 -4.3233
 1639SOL    HW216380   0.380   3.954  17.122  1.9445  0.8370  1.4728
 1640SOL     OW16381   1.310   2.973   5.376  0.2791 -0.6978  0.3933
 1640SOL    HW116382   1.286   2.963   5.468 -2.4703 -1.3647 -0.4061
 1640SOL    HW216383   1.398   2.935   5.382 -0.3166 -1.9639  1.2885
 1641SOL     OW16384   2.854   2.068   4.816 -0.3536 -0.2017 -0.0503
 1641SOL    HW116385   2.866   2.153   4.774  1.0499 -1.7082 -2.7129
 1641SOL    HW216386   2.774   2.026   4.781  0.1741 -0.2706 -1.1866
 1642SOL     OW16387   1.569   1.117   4.470 -0.1696  0.1353  0.0879
 1642SOL    HW116388   1.649   1.064   4.471  0.5012  1.1721  0.8516
 1642SOL    HW216389   1.529   1.089   4.388  2.7593  1.2175 -1.7320
 1643SOL     OW16390   0.753   2.068   3.794 -0.2232 -0.2627  0.3836
 1643SOL    HW116391   0.825   2.043   3.851  1.7108 -1.2492 -2.4843
 1643SOL    HW216392   0.770   2.162   3.785 -2.4665 -0.0855 -2.1150
 1644SOL     OW16393   2.130   1.887   5.161  0.3725  0.3112 -0.0222
 1644SOL    HW116394   2.167   1.805   5.130 -0.5492 -0.0183 -0.2549
 1644SOL    HW216395   2.049   1.856   5.200  1.1669  0.7306  1.9461
 1645SOL     OW16396   0.995   0.319   7.340  0.1195 -0.7521  0.4477
 1645SOL    HW116397   1.078   0.271   7.345  0.9485  0.3875 -2.5405
 1645SOL    HW216398   1.026   0.409   7.335 -2.7494  0.1238 -1.2399
 1646SOL     OW16399   0.476   1.499   6.947  0.3509  0.4709 -0.7725
 1646SOL    HW116400   0.448   1.544   6.867  0.1132 -1.4654 -1.7668
 1646SOL    HW216401   0.407   1.522   7.010  0.6391 -0.5205 -0.0945
 1647SOL     OW16402   2.159   0.307   5.431  0.4612 -0.1878  0.2575
 1647SOL    HW116403   2.120   0.293   5.517 -0.3703  1.3205  0.1357
 1647SOL    HW216404   2.128   0.397   5.418  2.4868  0.6239  1.1042
 1648SOL     OW16405   0.868   0.482  14.113 -0.6267  0.1067  0.2914
 1648SOL    HW116406   0.913   0.545  14.057  2.4943 -0.2137  2.4762
 1648SOL    HW216407   0.877   0.539  14.189  1.0223 -0.3499  0.4209
 1649SOL     OW16408   2.663   2.289  12.349  0.0203 -0.4158  0.5835
 1649SOL    HW116409   2.619   2.372  12.366 -0.6451 -0.6136 -0.1618
 1649SOL    HW216410   2.632   2.245  12.428 -1.5220  3.7951  2.3154
 1650SOL     OW16411   3.989   3.892  17.555  0.1981  0.1757  0.4728
 1650SOL    HW116412   4.016   3.838  17.629  2.6327 -0.3389 -0.7795
 1650SOL    HW216413   4.068   3.921  17.508  0.7011  1.2443  1.9722
 1651SOL     OW16414   3.878   3.038   2.505 -0.2193 -0.0234  0.2053
 1651SOL    HW116415   3.944   2.968   2.508 -0.2077 -0.0053  0.3813
 1651SOL    HW216416   3.930   3.115   2.524 -0.0145 -0.3290  0.8852
 1652SOL     OW16417   3.894   4.417   2.228  0.4349  0.1190 -0.0919
 1652SOL    HW116418   3.846   4.496   2.203  0.3514  0.6224  1.6218
 1652SOL    HW216419   3.858   4.346   2.176  2.4266 -2.4620  2.0553
 1653SOL     OW16420   4.537   0.451  17.056  0.6220 -0.9927  0.1062
 1653SOL    HW116421   4.627   0.421  17.057  1.2867  0.9519 -0.5522
 1653SOL    HW216422   4.493   0.369  17.035  0.6157 -0.2766 -2.7147
 1654SOL     OW16423   4.147   2.977   9.698  0.3413  0.3994  0.7075
 1654SOL    HW116424   4.108   3.061   9.720  1.8738  1.9484 -2.4898
 1654SOL    HW216425   4.206   2.968   9.772  1.4589  0.5421 -0.1618
 1655SOL     OW16426   4.217   0.076   3.194 -0.8298 -0.4426  0.3931
 1655SOL    HW116427   4.178   0.046   3.112  1.5601  0.3490 -1.0203
 1655SOL    HW216428   4.133   0.108   3.228 -0.7133 -0.0472  0.3078
 1656SOL     OW16429   4.170   3.806   7.199 -0.6900  0.1804  0.9702
 1656SOL    HW116430   4.076   3.799   7.183 -0.7963 -2.0668  2.6825
 1656SOL    HW216431   4.155   3.816   7.293 -1.7468 -0.2712  0.8468
 1657SOL     OW16432   2.524   3.258   3.336  0.0413  0.2848 -0.2829
 1657SOL    HW116433   2.506   3.351   3.355  1.8580  0.5770  0.0287
 1657SOL    HW216434   2.619   3.257   3.325 -0.0408 -2.3287 -0.6925
 1658SOL     OW16435   1.893   4.626   1.340 -0.2454  0.0408  0.1498
 1658SOL    HW116436   1.875   4.712   1.376 -0.0854  0.4239 -0.6771
 1658SOL    HW216437   1.801   4.608   1.322 -0.3106  0.7647 -0.2127
 1659SOL     OW16438   1.216   3.108   3.089 -0.5298  0.5910 -0.4142
 1659SOL    HW116439   1.193   3.149   3.005  0.9101  1.0155 -0.5938
 1659SOL    HW216440   1.301   3.149   3.104  0.1410 -0.1294 -2.2920
 1660SOL     OW16441   1.645   1.307  15.639  0.1574 -0.0267 -0.0594
 1660SOL    HW116442   1.632   1.231  15.582  0.1481 -0.1512  0.1079
 1660SOL    HW216443   1.679   1.265  15.718 -0.9087  1.6574  1.3013
 1661SOL     OW16444   0.198   3.147   2.454 -0.2760  0.3829  0.0558
 1661SOL    HW116445   0.134   3.076   2.458  1.4037 -1.2231 -1.6451
 1661SOL    HW216446   0.273   3.124   2.509  0.7731 -0.8218 -1.8936
 1662SOL     OW16447   0.388   2.500  16.675  0.4290  0.1588 -0.2672
 1662SOL    HW116448   0.335   2.477  16.752 -0.6192 -0.3818 -1.1487
 1662SOL    HW216449   0.466   2.547  16.704  0.3742 -0.1700  0.4127
 1663SOL     OW16450   0.144   4.599   2.174 -0.4835 -0.5864 -0.3625
 1663SOL    HW116451   0.141   4.550   2.256 -1.3359 -2.1419 -1.3301
 1663SOL    HW216452   0.055   4.586   2.140 -1.8963  1.5161  2.4724
 1664SOL     OW16453   0.464   3.870   2.793  0.1945 -0.1506  0.1171
 1664SOL    HW116454   0.431   3.938   2.734 -0.4782 -0.8127 -0.2608
 1664SOL    HW216455   0.398   3.882   2.861 -0.4921 -1.6370 -0.3011
 1665SOL     OW16456   1.256   3.451   8.625  0.2298 -0.5912  0.6712
 1665SOL    HW116457   1.253   3.371   8.573  3.2594  0.7339 -1.5694
 1665SOL    HW216458   1.338   3.429   8.668 -0.5423 -1.5508  1.6511
 1666SOL     OW16459   0.197   4.301  16.965  0.0234  0.0640  0.1193
 1666SOL    HW116460   0.148   4.281  16.885  0.2602  0.6131 -0.1603
 1666SOL    HW216461   0.280   4.331  16.931 -0.3309  3.3563  2.1750
 1667SOL     OW16462   1.571   3.918   7.598 -0.4607  0.1769  0.0196
 1667SOL    HW116463   1.507   3.959   7.539  1.5032  0.4151 -1.9352
 1667SOL    HW216464   1.621   3.997   7.618  1.1657 -0.3079 -2.2005
 1668SOL     OW16465   2.570   0.351   4.010  0.0539  0.7140 -0.4977
 1668SOL    HW116466   2.503   0.345   3.942 -1.2453  0.2798  0.8070
 1668SOL    HW216467   2.650   0.351   3.958  1.1189  0.0710  1.1240
 1669SOL     OW16468   2.941   1.197   5.585 -0.7373 -0.0004 -0.2675
 1669SOL    HW116469   2.885   1.215   5.660  0.5414 -0.8150  0.8971
 1669SOL    HW216470   2.883   1.195   5.510  0.3232 -2.0900 -1.0433
 1670SOL     OW16471   4.693   0.104   5.336  0.3993 -0.1272  0.3795
 1670SOL    HW116472   0.053   0.108   5.286 -0.4360  1.9867 -0.7970
 1670SOL    HW216473   4.632   0.140   5.273 -1.6089 -3.1481  0.5916
 1671SOL     OW16474   0.582   3.840   6.610  0.4008  0.5170 -0.4101
 1671SOL    HW116475   0.558   3.919   6.658  1.4579  0.5595  0.0641
 1671SOL    HW216476   0.660   3.802   6.651  0.0107  0.1984  0.0367
 1672SOL     OW16477   3.230   1.633   5.435  0.1620 -0.6901  0.3807
 1672SOL    HW116478   3.146   1.608   5.473  0.3686 -2.5874 -0.4032
 1672SOL    HW216479   3.240   1.558   5.377  1.6736 -0.8543  0.8648
 1673SOL     OW16480   2.852   4.057   5.762 -0.3388  0.5694  0.0098
 1673SOL    HW116481   2.848   4.148   5.731 -1.1134  1.2319  2.0508
 1673SOL    HW216482   2.767   4.036   5.724 -0.9014  1.7985  0.5924
 1674SOL     OW16483   0.224   0.190  16.244  0.1509  0.0787 -0.1530
 1674SOL    HW116484   0.219   0.275  16.200 -1.8195  0.8485  1.5903
 1674SOL    HW216485   0.134   0.161  16.254 -0.1395  0.6626 -1.0506
 1675SOL     OW16486   4.274   2.787  12.468  0.1710  0.5198  0.1955
 1675SOL    HW116487   4.336   2.800  12.540  0.0648  0.1209  0.3618
 1675SOL    HW216488   4.321   2.840  12.404 -0.7573 -0.7634 -1.5380
 1676SOL     OW16489   1.812   1.916   4.867 -0.3477 -0.0678 -0.1739
 1676SOL    HW116490   1.888   1.859   4.880  0.2382  0.7899  0.2445
 1676SOL    HW216491   1.865   1.992   4.840 -1.2726  0.9545  0.8891
 1677SOL     OW16492   2.945   1.824   2.940  0.1427  0.3603  0.3230
 1677SOL    HW116493   2.948   1.829   2.845  2.5517 -0.6208  0.3575
 1677SOL    HW216494   2.913   1.912   2.959 -0.8753  0.1964 -0.6204
 1678SOL     OW16495   1.915   1.123  14.658  1.2544 -0.2243  0.3357
 1678SOL    HW116496   1.949   1.099  14.572  0.2052  1.6004 -0.5897
 1678SOL    HW216497   1.889   1.215  14.649 -2.7043 -1.1890  1.6879
 1679SOL     OW16498   3.521   1.486  10.249  0.0356 -0.3096 -0.2671
 1679SOL    HW116499   3.488   1.396  10.255  1.1304 -0.7139 -0.4412
 1679SOL    HW216500   3.492   1.499  10.158  0.5987 -0.2355 -0.4336
 1680SOL     OW16501   4.539   2.742   5.424  0.5406 -0.6444 -0.4593
 1680SOL    HW116502   4.515   2.797   5.498 -0.0494  0.5256 -1.5253
 1680SOL    HW216503   4.595   2.677   5.467  0.2567 -0.5039  0.1122
 1681SOL     OW16504   3.580   1.886   0.094 -0.8520  0.0440  0.5279
 1681SOL    HW116505   3.632   1.827   0.040  2.2793  3.0105  0.3624
 1681SOL    HW216506   3.492   1.886   0.055 -0.1035  3.2657 -1.1096
 1682SOL     OW16507   4.291   2.528   2.854  0.5440  0.1370  0.1169
 1682SOL    HW116508   4.245   2.499   2.933 -2.9805  0.9506 -1.6117
 1682SOL    HW216509   4.237   2.480   2.791 -1.1582  0.9129  0.9680
 1683SOL     OW16510   3.842   4.617   9.990 -0.4902 -0.3166 -0.6399
 1683SOL    HW116511   3.874   4.689  10.045 -0.1149 -2.1485  1.5303
 1683SOL    HW216512   3.813   4.668   9.915  0.5242 -0.2753 -0.9928
 1684SOL     OW16513   1.568   1.336   7.168  0.1330 -0.1919  0.3104
 1684SOL    HW116514   1.539   1.416   7.213  1.1058 -0.1961  0.9460
 1684SOL    HW216515   1.507   1.346   7.094  0.6432  0.9720  0.0396
 1685SOL     OW16516   2.272   3.213   3.504 -0.1328 -0.8012  0.4909
 1685SOL    HW116517   2.361   3.210   3.467  0.2993 -0.0394  1.4618
 1685SOL    HW216518   2.275   3.172   3.590 -1.1640 -3.5012 -0.7872
 1686SOL     OW16519   1.136   2.855   3.014  0.5411  0.4969 -0.0516
 1686SOL    HW116520   1.158   2.942   3.047  1.6966 -0.2784  1.2256
 1686SOL    HW216521   1.122   2.811   3.098 -1.8240 -0.8976 -1.1633
 1687SOL     OW16522   4.224   4.570   2.079  0.3942  0.2189  0.4002
 1687SOL    HW116523   4.301   4.552   2.026 -0.2877 -1.4989  0.0130
 1687SOL    HW216524   4.166   4.496   2.062 -0.5176  1.2098 -0.8480
 1688SOL     OW16525   0.597   4.158  13.900  0.2599 -0.1195 -0.3271
 1688SOL    HW116526   0.650   4.103  13.957  3.3105  1.1315 -1.9613
 1688SOL    HW216527   0.668   4.191  13.845 -0.0760  1.4702  0.1741
 1689SOL     OW16528   0.949   1.766  10.227  0.2142 -0.1722 -0.7426
 1689SOL    HW116529   1.027   1.745  10.176  0.3422 -0.9292 -0.2269
 1689SOL    HW216530   0.947   1.861  10.211 -0.1493 -0.0088  0.2715
 1690SOL     OW16531   0.731   1.305   2.710 -0.0901 -0.0076  0.2854
 1690SOL    HW116532   0.702   1.221   2.746 -0.1920 -0.7172 -1.4229
 1690SOL    HW216533   0.812   1.319   2.759  1.1880 -0.3148 -1.6896
 1691SOL     OW16534   2.785   0.028   7.818  0.4752  0.1403 -0.2244
 1691SOL    HW116535   2.862   0.084   7.819 -0.2308  1.1174 -0.1236
 1691SOL    HW216536   2.717   0.072   7.767  0.5737 -1.5612 -1.8484
 1692SOL     OW16537   4.191   0.626   2.679  0.4844  0.2830 -0.1051
 1692SOL    HW116538   4.248   0.703   2.686 -0.6873  0.9499  2.2885
 1692SOL    HW216539   4.115   0.662   2.634  0.9580  0.7435 -0.5352
 1693SOL     OW16540   4.168   4.201   5.530 -0.1612  0.2788 -0.2364
 1693SOL    HW116541   4.186   4.292   5.506 -2.1469  0.3633 -1.4515
 1693SOL    HW216542   4.247   4.169   5.572 -0.0558  1.0820  0.1761
 1694SOL     OW16543   3.969   1.840   2.145 -0.4396 -0.4027  0.3275
 1694SOL    HW116544   4.009   1.918   2.184 -0.3868 -0.5358  0.5397
 1694SOL    HW216545   4.001   1.764   2.194 -0.1464  0.1141  0.9436
 1695SOL     OW16546   0.705   3.883   5.771  0.6883 -0.4150 -0.0446
 1695SOL    HW116547   0.677   3.971   5.798 -0.3162 -0.6658 -0.3011
 1695SOL    HW216548   0.673   3.881   5.681 -0.8912 -1.6358  0.5576
 1696SOL     OW16549   3.257   2.135   0.465  0.3416  0.2243  0.3336
 1696SOL    HW116550   3.308   2.069   0.417 -2.1081 -0.3200 -1.4936
 1696SOL    HW216551   3.317   2.163   0.534 -1.6240  1.0448  1.6861
 1697SOL     OW16552   3.385   2.141   6.070 -0.5388  0.0728 -0.0470
 1697SOL    HW116553   3.303   2.119   6.025  0.3261 -2.5234 -0.4048
 1697SOL    HW216554   3.365   2.230   6.097  0.1312  0.7056 -1.5894
 1698SOL     OW16555   3.877   3.432   8.605  0.3967 -0.0495  0.5880
 1698SOL    HW116556   3.782   3.446   8.608  0.4521  0.3758  0.3796
 1698SOL    HW216557   3.882   3.361   8.668  0.5966 -0.6453 -0.1064
 1699SOL     OW16558   1.028   4.199   6.144 -0.1437 -0.4559 -0.2061
 1699SOL    HW116559   0.998   4.123   6.194  1.6784 -0.6929  0.5079
 1699SOL    HW216560   0.984   4.189   6.060 -0.0101 -3.8625  0.1399
 1700SOL     OW16561   3.076   1.276   8.686 -0.3572  0.7072 -0.1943
 1700SOL    HW116562   3.120   1.359   8.668 -1.1808  1.2326  0.2402
 1700SOL    HW216563   3.001   1.282   8.628 -0.5875  1.0379  0.1414
 1701SOL     OW16564   4.535   1.912   0.762  0.4971  0.2064 -0.5288
 1701SOL    HW116565   4.593   1.978   0.801  2.1375 -2.0587  0.8089
 1701SOL    HW216566   4.567   1.892   0.674 -0.6148 -1.1739 -0.6131
 1702SOL     OW16567   3.392   4.331   8.632 -0.4083  0.1889 -0.1041
 1702SOL    HW116568   3.443   4.304   8.556 -0.8353 -2.5238  0.5664
 1702SOL    HW216569   3.440   4.290   8.704  1.0971  0.4838 -0.9400
 1703SOL     OW16570   3.788   4.633   3.370  0.6357 -0.0246  0.7867
 1703SOL    HW116571   3.734   4.573   3.319  0.2707  1.1944 -0.2823
 1703SOL    HW216572   3.776   4.715   3.321 -1.2006 -1.0231 -0.4612
 1704SOL     OW16573   2.695   4.030   3.619  0.8183  0.0728 -0.6032
 1704SOL    HW116574   2.608   4.024   3.580  1.6461 -2.4933 -2.0704
 1704SOL    HW216575   2.722   4.122   3.608 -0.0615  0.5101  0.9923
 1705SOL     OW16576   2.802   3.582   0.756 -0.4517  0.5488 -0.7336
 1705SOL    HW116577   2.749   3.509   0.723 -0.7393 -0.4948  2.1051
 1705SOL    HW216578   2.881   3.531   0.774 -0.6419 -0.0277 -1.5030
 1706SOL     OW16579   0.465   3.587   5.000  0.5335  0.9569 -0.5251
 1706SOL    HW116580   0.473   3.680   4.979  0.4572  0.8107 -1.2158
 1706SOL    HW216581   0.394   3.586   5.064  2.1162 -1.1054  1.2058
 1707SOL     OW16582   4.515   1.188   6.330 -0.1019 -0.2589  0.2862
 1707SOL    HW116583   4.427   1.173   6.363 -0.0839  0.6110  0.7414
 1707SOL    HW216584   4.561   1.199   6.413 -0.9982 -0.9063  0.8607
 1708SOL     OW16585   2.318   1.926   7.619 -0.2439 -0.8103 -0.3010
 1708SOL    HW116586   2.260   1.979   7.565  0.7212  0.5965  0.0479
 1708SOL    HW216587   2.407   1.941   7.588 -0.8259  1.6860 -0.7398
 1709SOL     OW16588   1.082   3.404   5.661 -0.2982  0.8295 -0.3502
 1709SOL    HW116589   1.139   3.375   5.590 -0.1700  0.3320 -0.0441
 1709SOL    HW216590   1.000   3.424   5.614 -0.7108 -2.0316 -0.8510
 1710SOL     OW16591   4.647   1.436   5.190 -0.2032  0.0080  0.0057
 1710SOL    HW116592   0.001   1.469   5.238 -0.5720 -1.2263  1.4586
 1710SOL    HW216593   4.579   1.459   5.253  0.4856  0.6199  0.5370
 1711SOL     OW16594   1.537   2.970  17.495 -0.4222  0.0171 -0.3910
 1711SOL    HW116595   1.493   2.970  17.581  1.8397 -0.5304  0.7648
 1711SOL    HW216596   1.466   2.914  17.462  0.0574 -0.7752 -0.0812
 1712SOL     OW16597   0.694   4.465  15.705 -0.4406 -0.5975 -0.4521
 1712SOL    HW116598   0.707   4.471  15.610  1.8865  1.8523  0.0243
 1712SOL    HW216599   0.780   4.427  15.718  0.2994  1.0568 -0.4730
 1713SOL     OW16600   1.980   3.870   4.277 -0.3787 -0.4835  0.2350
 1713SOL    HW116601   1.959   3.882   4.370 -1.1686  2.3425 -0.2923
 1713SOL    HW216602   1.895   3.882   4.235  0.8480  2.3192 -1.4159
 1714SOL     OW16603   0.788   2.406   3.086  0.2934  0.4579  0.3309
 1714SOL    HW116604   0.794   2.311   3.094  2.7624  0.6948  1.2019
 1714SOL    HW216605   0.842   2.432   3.161  0.1137 -1.5719  1.1428
 1715SOL     OW16606   3.114   3.256  14.771  0.1553 -0.2471 -0.1216
 1715SOL    HW116607   3.068   3.339  14.759 -1.2803 -1.3130 -2.1198
 1715SOL    HW216608   3.185   3.274  14.710  0.8538  0.2143  0.8432
 1716SOL     OW16609   3.002   3.904   0.183 -0.0075  0.4702  0.0048
 1716SOL    HW116610   3.023   3.992   0.214 -1.0660  0.7255 -0.0106
 1716SOL    HW216611   2.992   3.864   0.270 -1.6991  0.8991  0.0080
 1717SOL     OW16612   1.747   0.548  15.219 -0.4244 -0.1861 -0.1906
 1717SOL    HW116613   1.657   0.530  15.246 -0.1176 -0.9982  0.3013
 1717SOL    HW216614   1.755   0.636  15.257 -0.4648  0.5580 -1.9442
 1718SOL     OW16615   0.637   1.692   6.100  0.0316 -0.0016  1.0400
 1718SOL    HW116616   0.615   1.644   6.020 -0.5671  1.4554  0.3370
 1718SOL    HW216617   0.589   1.773   6.085  1.9770  0.9641  0.0828
 1719SOL     OW16618   2.114   2.286   3.637 -0.4011  0.0319  0.1245
 1719SOL    HW116619   2.061   2.241   3.702 -0.7441 -0.0681 -0.2253
 1719SOL    HW216620   2.136   2.363   3.690 -0.0342  0.2915 -0.4008
 1720SOL     OW16621   1.544   4.324   4.764 -0.5744 -0.5687 -0.0379
 1720SOL    HW116622   1.548   4.249   4.824  0.6611 -0.2512  0.2776
 1720SOL    HW216623   1.594   4.393   4.809  1.3682 -2.1818  0.2377
 1721SOL     OW16624   2.984   4.151   3.805 -0.9572  0.4323  0.2266
 1721SOL    HW116625   2.922   4.140   3.733 -0.0227 -1.4957 -0.2564
 1721SOL    HW216626   2.998   4.062   3.836 -0.6758  0.8443  1.2766
 1722SOL     OW16627   0.155   0.935   4.337 -0.8622  0.0563 -0.1658
 1722SOL    HW116628   0.128   0.851   4.373  2.0186 -1.0673 -0.6512
 1722SOL    HW216629   0.236   0.970   4.373  0.1563 -2.6387  0.1196
 1723SOL     OW16630   0.892   1.917   8.341 -0.0313 -0.6710 -0.2843
 1723SOL    HW116631   0.962   1.982   8.328 -1.4269  1.0997  1.0339
 1723SOL    HW216632   0.897   1.908   8.436  4.4317 -0.4309 -0.4783
 1724SOL     OW16633   4.396   4.686   3.690  0.1472  0.2171 -0.5072
 1724SOL    HW116634   4.332   0.012   3.743 -0.1007 -0.0190 -0.5887
 1724SOL    HW216635   4.360   4.710   3.604  0.1247  1.8635 -0.0284
 1725SOL     OW16636   0.104   0.129   7.577  0.2504  0.5212 -0.1012
 1725SOL    HW116637   0.170   0.173   7.524  0.6952  0.9203  0.7717
 1725SOL    HW216638   0.132   0.153   7.665 -4.9770 -1.2592  2.0494
 1726SOL     OW16639   1.770   1.288  14.851 -0.3841 -0.4261  0.5278
 1726SOL    HW116640   1.715   1.210  14.853  1.0136 -1.3884  1.0568
 1726SOL    HW216641   1.744   1.312  14.762  1.3443 -0.7178 -0.0477
 1727SOL     OW16642   0.107   2.741   9.229 -0.5984  0.2059 -0.2871
 1727SOL    HW116643   0.179   2.794   9.262  1.1060 -0.8604 -2.3581
 1727SOL    HW216644   0.036   2.803   9.246  0.2441  1.9133 -3.0088
 1728SOL     OW16645   0.785   3.269   5.847 -0.7658 -0.1269  0.5946
 1728SOL    HW116646   0.822   3.293   5.932  0.1914  3.1685 -0.7597
 1728SOL    HW216647   0.758   3.357   5.820  2.3292  0.8321  0.6258
 1729SOL     OW16648   2.595   1.165   4.160 -0.4559 -0.0691  0.1139
 1729SOL    HW116649   2.503   1.146   4.141  0.5504 -3.4326 -1.4381
 1729SOL    HW216650   2.582   1.254   4.194  0.4079 -0.4057  1.3186
 1730SOL     OW16651   4.497   3.416   7.739 -0.4864 -0.3669 -0.1041
 1730SOL    HW116652   4.590   3.394   7.732 -0.6804 -0.9398 -0.8714
 1730SOL    HW216653   4.494   3.511   7.747 -1.6728 -0.3668 -0.4845
 1731SOL     OW16654   3.426   3.192   5.843  0.0765  0.7583  0.5480
 1731SOL    HW116655   3.416   3.217   5.751 -1.4213  2.6500  1.2195
 1731SOL    HW216656   3.452   3.101   5.834 -0.0493  0.8348 -0.6286
 1732SOL     OW16657   1.263   1.352   5.838 -0.0355 -0.3446 -0.6244
 1732SOL    HW116658   1.334   1.303   5.880  0.8589  0.9441 -0.6328
 1732SOL    HW216659   1.185   1.309   5.874  0.3886 -0.5382  0.0721
 1733SOL     OW16660   3.888   0.286   6.218  0.9004  0.0386 -0.2083
 1733SOL    HW116661   3.964   0.316   6.268  0.4872  1.5297 -0.4945
 1733SOL    HW216662   3.912   0.193   6.223 -0.6986 -0.4956 -2.8620
 1734SOL     OW16663   4.522   3.957   2.831 -0.0827  0.1279  0.4536
 1734SOL    HW116664   4.501   3.904   2.908  1.7292 -0.9752  0.1801
 1734SOL    HW216665   4.502   4.045   2.862 -0.4189  0.5134 -0.8407
 1735SOL     OW16666   4.498   4.340   5.759 -0.8601  0.2975  0.5524
 1735SOL    HW116667   4.581   4.306   5.793  0.2673  0.3166 -2.1313
 1735SOL    HW216668   4.490   4.424   5.803 -2.1541  0.7197 -0.5029
 1736SOL     OW16669   3.935   0.761   6.899 -0.2019 -0.6318  1.0475
 1736SOL    HW116670   3.926   0.666   6.889  0.1200 -0.6740  1.1701
 1736SOL    HW216671   4.014   0.784   6.850 -0.4616  0.1150  0.9875
 1737SOL     OW16672   1.659   0.744   8.589 -0.1699  0.2791 -0.1396
 1737SOL    HW116673   1.602   0.699   8.652  1.0832 -0.1924  0.6613
 1737SOL    HW216674   1.735   0.692   8.614 -2.6350 -1.8496  2.9943
 1738SOL     OW16675   2.499   0.977   9.939  0.8089 -0.5725  0.3554
 1738SOL    HW116676   2.451   1.050   9.977 -2.4640 -2.4525 -0.1376
 1738SOL    HW216677   2.526   1.014   9.855  0.8117 -1.5546 -0.0826
 1739SOL     OW16678   3.562   0.871  13.684 -0.2989  0.1774  0.4598
 1739SOL    HW116679   3.630   0.907  13.627 -0.5113  3.0206  1.9772
 1739SOL    HW216680   3.554   0.937  13.752 -3.1787 -0.5366  0.8481
 1740SOL     OW16681   1.452   2.734   7.099 -0.0341 -0.2720  0.1597
 1740SOL    HW116682   1.534   2.782   7.108  0.3990 -1.0633  0.3949
 1740SOL    HW216683   1.389   2.801   7.072  0.2335 -1.2954 -3.0391
 1741SOL     OW16684   3.342   0.112   6.244  0.7113 -0.2180  0.4097
 1741SOL    HW116685   3.315   0.201   6.223 -1.0069 -0.4727  1.5304
 1741SOL    HW216686   3.313   0.105   6.335 -1.8443  2.3576 -0.2223
 1742SOL     OW16687   3.446   2.180  17.225  0.0807 -0.2203 -0.1222
 1742SOL    HW116688   3.418   2.238  17.155 -1.6750 -1.8776 -0.7946
 1742SOL    HW216689   3.507   2.238  17.270  0.3669 -0.6167  0.0117
 1743SOL     OW16690   3.995   2.902   0.695  0.2115  0.4529 -0.4868
 1743SOL    HW116691   3.976   2.841   0.766 -0.3107  0.7998 -0.3231
 1743SOL    HW216692   4.043   2.845   0.635 -1.6181  0.9343 -2.4026
 1744SOL     OW16693   0.430   1.965  14.192  0.6424 -0.7194  0.1181
 1744SOL    HW116694   0.454   1.930  14.278  0.8907 -1.5977 -0.3072
 1744SOL    HW216695   0.366   2.029  14.221  1.6425 -0.5945  2.0442
 1745SOL     OW16696   1.580   0.479   9.211 -0.6282 -0.6438 -0.8484
 1745SOL    HW116697   1.500   0.528   9.189  0.0962  0.4821 -0.9674
 1745SOL    HW216698   1.598   0.528   9.292  0.3435 -0.9905 -0.8571
 1746SOL     OW16699   3.398   0.982   8.881  0.0674  0.5488  0.1532
 1746SOL    HW116700   3.400   0.940   8.967 -0.3943  0.4809  0.1336
 1746SOL    HW216701   3.313   1.027   8.883  0.9763  2.2096  1.4886
 1747SOL     OW16702   1.622   3.621   6.385 -0.0389 -0.3375  0.2882
 1747SOL    HW116703   1.586   3.534   6.369  1.2669 -0.9544  0.7061
 1747SOL    HW216704   1.608   3.623   6.479 -0.3736 -0.6478  0.2426
 1748SOL     OW16705   4.677   2.880   4.295 -0.5777  0.2347  0.0052
 1748SOL    HW116706   0.023   2.820   4.265  1.4149  1.3052  2.2854
 1748SOL    HW216707   4.704   2.971   4.282 -1.0200  0.2658 -0.6475
 1749SOL     OW16708   1.491   2.603   0.733  0.2422  0.4578 -0.1007
 1749SOL    HW116709   1.448   2.652   0.803  0.1473 -1.2584  1.0630
 1749SOL    HW216710   1.419   2.567   0.682 -0.1761  1.1263  0.0273
 1750SOL     OW16711   4.169   0.795   4.489  0.1788 -0.5262  0.2721
 1750SOL    HW116712   4.177   0.700   4.476 -1.2858 -0.4368 -1.2321
 1750SOL    HW216713   4.107   0.805   4.561 -0.3962  1.5531 -0.5336
 1751SOL     OW16714   2.886   4.628  13.782  0.0994 -0.0668 -0.4683
 1751SOL    HW116715   2.793   4.649  13.789  0.5020  1.6146 -0.0624
 1751SOL    HW216716   2.916   4.638  13.872 -1.1641 -0.3339 -0.0251
 1752SOL     OW16717   3.950   2.175  11.437  0.2667  0.1838  0.6532
 1752SOL    HW116718   4.039   2.168  11.472 -0.1275 -1.0657  1.3952
 1752SOL    HW216719   3.918   2.085  11.445  0.6360  0.0564  0.6887
 1753SOL     OW16720   1.559   0.338   3.386  0.3617  0.5004 -0.0471
 1753SOL    HW116721   1.608   0.339   3.468  2.8142  0.0632 -1.5052
 1753SOL    HW216722   1.590   0.416   3.340 -0.4249  1.0249  0.3040
 1754SOL     OW16723   0.174   1.780  14.425 -0.3106  0.5139  0.1387
 1754SOL    HW116724   0.121   1.749  14.351  0.4541  1.8158 -0.9460
 1754SOL    HW216725   0.259   1.740  14.403 -0.8408  0.1609 -1.2638
 1755SOL     OW16726   0.084   3.435   2.084  0.3779  0.2822  0.0055
 1755SOL    HW116727   0.153   3.369   2.085 -1.6459 -1.8722 -1.7715
 1755SOL    HW216728   0.044   3.404   2.165  1.4465 -0.0457  0.4043
 1756SOL     OW16729   3.291   2.354   2.258  0.0536  0.4959  0.2041
 1756SOL    HW116730   3.316   2.439   2.223 -0.1439  0.8861  1.0102
 1756SOL    HW216731   3.376   2.310   2.259 -0.3907 -0.4146 -1.3558
 1757SOL     OW16732   3.391   0.331   7.531  0.5286 -0.2583 -0.4645
 1757SOL    HW116733   3.379   0.297   7.620 -0.2219  1.3741  0.0445
 1757SOL    HW216734   3.345   0.265   7.479  2.2555 -0.8960 -1.1944
 1758SOL     OW16735   3.606   1.892   5.877 -0.6074  0.8243 -0.4289
 1758SOL    HW116736   3.549   1.853   5.944 -0.5465  0.0916 -0.8077
 1758SOL    HW216737   3.542   1.922   5.813  0.2569  0.5725 -1.4097
 1759SOL     OW16738   1.510   2.875   7.637 -0.3774 -0.0785 -0.5768
 1759SOL    HW116739   1.468   2.961   7.634 -1.4217 -0.5715  0.1548
 1759SOL    HW216740   1.505   2.846   7.546 -0.7728  1.2780 -0.9854
 1760SOL     OW16741   4.513   2.709   8.481 -0.1887  0.3149  0.5225
 1760SOL    HW116742   4.593   2.660   8.461 -0.1970  0.2008  0.7733
 1760SOL    HW216743   4.497   2.704   8.575 -3.9493 -0.4319 -0.1549
 1761SOL     OW16744   0.003   4.174  15.712 -0.3437  0.5398 -0.6602
 1761SOL    HW116745   4.640   4.163  15.672 -1.4517  1.9329  1.2957
 1761SOL    HW216746   0.041   4.257  15.684 -3.4027  1.6490 -1.3944
 1762SOL     OW16747   1.880   2.295   8.240  0.8262  0.3765  0.2783
 1762SOL    HW116748   1.794   2.298   8.199  0.5228 -2.0314  0.7492
 1762SOL    HW216749   1.906   2.386   8.254 -1.2062  0.6679  2.0359
 1763SOL     OW16750   1.296   0.379  12.721  0.5728 -0.2185  0.4469
 1763SOL    HW116751   1.284   0.472  12.743  1.1147  0.4713 -2.1583
 1763SOL    HW216752   1.361   0.400  12.654  1.6994 -1.2728  1.2121
 1764SOL     OW16753   0.864   2.472   3.358  0.9428  0.1194  0.1928
 1764SOL    HW116754   0.830   2.536   3.421 -0.4398  0.3463 -0.7758
 1764SOL    HW216755   0.847   2.388   3.402 -1.5246  1.8809  2.6167
 1765SOL     OW16756   0.765   2.342  11.738  0.0189 -0.0049  0.3501
 1765SOL    HW116757   0.729   2.418  11.785 -0.2027  1.0864 -1.6044
 1765SOL    HW216758   0.821   2.312  11.810 -1.9592 -0.8366  1.5760
 1766SOL     OW16759   3.804   2.536   3.434 -0.0939  0.3263 -0.1763
 1766SOL    HW116760   3.806   2.596   3.509  0.4417 -0.8258  0.7405
 1766SOL    HW216761   3.727   2.579   3.397  0.8343  0.6586 -1.6917
 1767SOL     OW16762   4.659   3.086   5.619 -0.1714 -0.5338  0.3950
 1767SOL    HW116763   4.641   2.996   5.645 -0.3498 -1.0389 -1.5355
 1767SOL    HW216764   0.031   3.102   5.628 -0.6971  2.8587  0.0753
 1768SOL     OW16765   3.195   0.469   3.980  0.2288 -0.0248  0.0975
 1768SOL    HW116766   3.261   0.470   4.050  0.7742 -0.9928 -0.4012
 1768SOL    HW216767   3.136   0.530   4.024 -0.6106  0.4775 -1.7355
 1769SOL     OW16768   3.264   1.701  10.254  0.1133 -0.5083 -0.0636
 1769SOL    HW116769   3.340   1.738  10.209  1.7971 -2.0422  1.5245
 1769SOL    HW216770   3.202   1.731  10.187  1.6118  2.1180 -0.2983
 1770SOL     OW16771   3.746   0.172   5.278 -0.1558 -0.1077 -0.5321
 1770SOL    HW116772   3.720   0.110   5.209  0.9436 -0.0590 -0.9807
 1770SOL    HW216773   3.721   0.116   5.351 -0.4613  0.2766 -0.3382
 1771SOL     OW16774   2.752   1.666   9.294  0.0607  0.2882 -0.3246
 1771SOL    HW116775   2.722   1.736   9.352  1.3676  2.6141 -2.4816
 1771SOL    HW216776   2.671   1.625   9.265  0.0282  1.2233 -1.5521
 1772SOL     OW16777   3.774   0.233   6.783 -0.1709  0.0341 -0.7527
 1772SOL    HW116778   3.781   0.160   6.845 -1.2893  0.6997  0.1424
 1772SOL    HW216779   3.786   0.182   6.702 -0.6086  0.4445 -1.0778
 1773SOL     OW16780   0.911   2.131   6.683  0.3085 -0.1616 -0.6332
 1773SOL    HW116781   0.983   2.075   6.654  2.2438  2.3854 -0.7437
 1773SOL    HW216782   0.884   2.141   6.592  2.5629 -1.0234 -1.3881
 1774SOL     OW16783   2.996   3.972   6.025 -0.5047 -0.3451  0.2398
 1774SOL    HW116784   3.002   4.030   6.100  1.0680 -0.1282 -0.0476
 1774SOL    HW216785   2.921   4.004   5.975  0.5922 -0.5724 -1.5706
 1775SOL     OW16786   0.940   1.450  12.294 -0.4654  0.4896 -0.0747
 1775SOL    HW116787   0.924   1.397  12.372  0.9083 -0.9894 -0.8130
 1775SOL    HW216788   0.866   1.511  12.292  0.1108  1.1814 -0.5489
 1776SOL     OW16789   2.798   2.559   3.798  0.0825 -0.9151  0.6075
 1776SOL    HW116790   2.745   2.590   3.872 -0.2151  3.0275 -1.2612
 1776SOL    HW216791   2.807   2.641   3.750  2.1961 -0.3254  1.9912
 1777SOL     OW16792   0.877   3.141   2.988 -0.3644 -0.3204  0.3060
 1777SOL    HW116793   0.969   3.150   2.961 -0.7010  0.6074 -0.5577
 1777SOL    HW216794   0.842   3.230   2.987  0.3629 -0.0265  1.0595
 1778SOL     OW16795   3.792   0.636  11.211 -0.2948  0.6241 -0.9988
 1778SOL    HW116796   3.843   0.555  11.213  0.2769  1.0303  0.6259
 1778SOL    HW216797   3.721   0.623  11.147  0.0822  0.8356 -1.4618
 1779SOL     OW16798   0.170   1.720   9.362  0.2031 -0.2909  0.0413
 1779SOL    HW116799   0.125   1.773   9.297  2.6164  2.4143  0.5766
 1779SOL    HW216800   0.263   1.744   9.354  0.3156 -0.4135  0.9967
 1780SOL     OW16801   3.252   3.915   0.459 -0.0854  0.4023 -0.5164
 1780SOL    HW116802   3.182   3.890   0.519  0.6442 -2.7711 -0.9497
 1780SOL    HW216803   3.312   3.954   0.523 -0.5508 -0.4994  0.4665
 1781SOL     OW16804   4.692   2.036  11.777  0.1493  0.0212  0.4697
 1781SOL    HW116805   4.633   1.975  11.733 -1.5687  0.2031  2.4850
 1781SOL    HW216806   0.055   1.993  11.780  1.0471  1.7436 -0.7130
 1782SOL     OW16807   4.498   4.220   7.329  0.8381  0.2138  0.5498
 1782SOL    HW116808   4.574   4.176   7.293 -1.4287 -1.1264 -2.5370
 1782SOL    HW216809   4.539   4.298   7.368  0.3283  0.6533  0.2148
 1783SOL     OW16810   0.968   0.749   3.724  0.1369 -0.7785 -0.0826
 1783SOL    HW116811   1.046   0.786   3.682 -0.3528  1.4133  0.9634
 1783SOL    HW216812   0.971   0.784   3.813  1.2752  1.0325 -0.8314
 1784SOL     OW16813   1.240   4.155   4.687  0.6048 -0.6185  0.6020
 1784SOL    HW116814   1.319   4.107   4.714  0.2263 -0.4557  1.9973
 1784SOL    HW216815   1.279   4.241   4.678 -0.1559 -0.4403 -0.9430
 1785SOL     OW16816   0.761   0.288   3.045  0.5379 -0.0120  0.4411
 1785SOL    HW116817   0.780   0.317   2.956  0.3847  1.6698  0.9529
 1785SOL    HW216818   0.716   0.356   3.095  0.6800 -0.4264  1.1288
 1786SOL     OW16819   2.834   0.586   1.696 -0.3953 -0.2120 -0.2020
 1786SOL    HW116820   2.759   0.529   1.680  0.6958 -1.9042  0.7482
 1786SOL    HW216821   2.888   0.591   1.617 -2.8893 -1.1065 -1.9455
 1787SOL     OW16822   1.008   2.236   8.514 -0.3344 -0.0635 -0.1109
 1787SOL    HW116823   1.059   2.315   8.530 -0.0768 -0.4240  0.8912
 1787SOL    HW216824   0.922   2.277   8.502 -0.8936 -1.0494  0.4545
 1788SOL     OW16825   3.500   1.870  11.941  0.8363  0.0373 -0.0003
 1788SOL    HW116826   3.437   1.938  11.966  1.0413  0.5039 -0.7595
 1788SOL    HW216827   3.515   1.840  12.031  1.6942  1.9350  0.4997
 1789SOL     OW16828   1.908   0.498   2.926 -0.1292  0.2358 -0.1528
 1789SOL    HW116829   1.944   0.479   2.839  0.2307  0.3176 -0.0221
 1789SOL    HW216830   1.850   0.572   2.910 -1.2553 -0.9582 -1.5930
 1790SOL     OW16831   1.670   4.283  12.329  0.5635  0.3281 -0.2563
 1790SOL    HW116832   1.663   4.213  12.394 -1.0265  1.3886  0.7220
 1790SOL    HW216833   1.634   4.356  12.380 -2.0059 -0.2884 -1.1876
 1791SOL     OW16834   1.305   2.463   3.637 -0.5110 -0.7080  0.0532
 1791SOL    HW116835   1.359   2.402   3.588  0.5101  0.9366 -0.8554
 1791SOL    HW216836   1.217   2.426   3.631 -0.9937  0.0069  2.3470
 1792SOL     OW16837   3.194   1.228   5.124  0.4530  0.2831 -0.0547
 1792SOL    HW116838   3.156   1.269   5.201  0.0482 -0.8775  0.3672
 1792SOL    HW216839   3.116   1.232   5.069  1.2269  0.4720 -1.1483
 1793SOL     OW16840   0.783   1.113   7.320 -0.0307 -0.1343  0.7702
 1793SOL    HW116841   0.877   1.100   7.336  0.3782  0.3335 -1.2801
 1793SOL    HW216842   0.756   1.025   7.292 -2.5715  1.2906 -1.2360
 1794SOL     OW16843   4.584   1.968   7.163  0.4098 -0.0762  0.1165
 1794SOL    HW116844   4.513   1.904   7.164 -0.7413  1.1731 -0.8327
 1794SOL    HW216845   4.567   2.008   7.248  1.3729 -2.1762  1.2890
 1795SOL     OW16846   1.240   0.026   3.206 -0.4129  0.3748  0.3312
 1795SOL    HW116847   1.145   0.034   3.197 -0.1733  0.4487 -2.1675
 1795SOL    HW216848   1.264   0.114   3.235  1.8292 -0.6365  1.5919
 1796SOL     OW16849   3.582   0.948   5.499 -0.3422 -0.3402 -0.3648
 1796SOL    HW116850   3.575   0.924   5.407  0.2702  0.4719 -0.6222
 1796SOL    HW216851   3.544   1.036   5.499 -0.7219 -0.4978  0.9287
 1797SOL     OW16852   1.936   0.924   5.146  0.9205 -0.1531 -0.1210
 1797SOL    HW116853   1.855   0.873   5.146  0.3820  0.7081  0.5063
 1797SOL    HW216854   1.904   1.012   5.167  3.3833  0.8907 -0.7611
 1798SOL     OW16855   2.010   0.042  12.550 -0.0538 -1.0787  0.2294
 1798SOL    HW116856   1.941   0.103  12.524 -0.3924 -2.1283 -1.3219
 1798SOL    HW216857   2.086   0.093  12.581 -1.5042  1.2296  0.0223
 1799SOL     OW16858   4.457   3.167   3.437  0.0845  0.3664 -0.0833
 1799SOL    HW116859   4.540   3.214   3.447 -1.0247  1.9761  1.4181
 1799SOL    HW216860   4.452   3.137   3.346  1.1132 -3.0944  1.0127
 1800SOL     OW16861   2.449   2.138   8.956 -0.8165  0.0778 -0.2215
 1800SOL    HW116862   2.532   2.147   8.909 -1.7085  1.5217 -1.5098
 1800SOL    HW216863   2.390   2.116   8.884  0.5804  2.4578 -2.1163
 1801SOL     OW16864   3.025   4.490  10.157 -0.1574 -0.0721  0.4647
 1801SOL    HW116865   3.082   4.441  10.216 -0.2160  0.7688  1.2267
 1801SOL    HW216866   3.016   4.571  10.208 -0.4073  0.3259 -0.2159
 1802SOL     OW16867   1.805   2.658   6.066 -0.1476 -0.1989 -0.1462
 1802SOL    HW116868   1.854   2.602   6.006 -0.2021 -1.2245  0.7671
 1802SOL    HW216869   1.874   2.672   6.130 -1.4395 -1.4018  1.5245
 1803SOL     OW16870   2.940   3.600   5.873 -0.1046  0.0911 -0.7968
 1803SOL    HW116871   2.927   3.667   5.806  1.4060 -1.0023 -2.1907
 1803SOL    HW216872   3.027   3.620   5.906 -0.1866 -0.5385 -0.2038
 1804SOL     OW16873   1.296   3.465   2.797  0.2225  0.2324 -0.7569
 1804SOL    HW116874   1.334   3.491   2.713 -0.1966  2.2183 -0.3441
 1804SOL    HW216875   1.365   3.406   2.827 -0.8311 -1.1525 -1.0613
 1805SOL     OW16876   2.649   1.126   3.046  0.6631  0.0600 -0.3944
 1805SOL    HW116877   2.615   1.092   2.963 -0.7101  0.5364 -0.0281
 1805SOL    HW216878   2.651   1.218   3.017  1.5449  0.4343  0.8393
 1806SOL     OW16879   3.752   2.146   6.610  0.2288 -0.5725 -0.7003
 1806SOL    HW116880   3.808   2.069   6.603 -1.8184 -1.8291 -3.1307
 1806SOL    HW216881   3.697   2.142   6.532 -0.0155 -1.4536 -0.4804
 1807SOL     OW16882   3.053   4.148   9.757  0.3960 -0.0976 -0.1599
 1807SOL    HW116883   3.043   4.228   9.808  1.7607  0.0321 -0.1005
 1807SOL    HW216884   3.013   4.081   9.812 -2.0932  0.4998 -1.2719
 1808SOL     OW16885   2.034   2.348   8.550  0.3325 -0.5775  0.4229
 1808SOL    HW116886   1.943   2.378   8.542  0.9131  0.8339 -0.9431
 1808SOL    HW216887   2.091   2.400   8.493  0.0667  1.5776  2.1220
 1809SOL     OW16888   3.795   0.526   4.654 -0.0421 -0.3466  0.5745
 1809SOL    HW116889   3.821   0.487   4.738  1.2528 -1.1635 -0.2061
 1809SOL    HW216890   3.712   0.480   4.646  0.2050 -0.5095 -0.9451
 1810SOL     OW16891   1.316   1.549  12.240 -0.2876 -0.3314  0.1133
 1810SOL    HW116892   1.389   1.487  12.245  0.4356  0.4489 -0.8052
 1810SOL    HW216893   1.257   1.487  12.198  0.4326 -1.1843  0.3541
 1811SOL     OW16894   3.789   1.096   4.818  0.4126 -0.0548 -0.3419
 1811SOL    HW116895   3.833   1.158   4.877  1.5172 -0.7362 -0.4354
 1811SOL    HW216896   3.732   1.154   4.767  0.2066  1.0979  1.1924
 1812SOL     OW16897   0.943   3.342  15.241 -0.8234 -0.3219 -0.5129
 1812SOL    HW116898   0.968   3.398  15.314 -1.9561 -0.9816  0.4077
 1812SOL    HW216899   0.864   3.379  15.201  0.9349  0.3190 -3.3196
 1813SOL     OW16900   2.233   1.962   7.876 -0.0957  0.1977 -0.2001
 1813SOL    HW116901   2.277   1.933   7.796  1.1609 -2.7198  1.5102
 1813SOL    HW216902   2.161   2.016   7.843  0.6701  1.1681 -0.2703
 1814SOL     OW16903   1.751   4.521   6.716 -0.4843 -0.0980  0.0506
 1814SOL    HW116904   1.665   4.509   6.675  0.3193 -0.5966 -1.4554
 1814SOL    HW216905   1.798   4.559   6.642 -2.7546  1.3084 -0.6624
 1815SOL     OW16906   4.669   4.676   3.776  0.1921 -0.6642  0.3035
 1815SOL    HW116907   4.653   4.631   3.859 -0.0419 -0.5985  0.2929
 1815SOL    HW216908   4.580   4.675   3.743  0.8618  0.7900 -1.5500
 1816SOL     OW16909   2.264   3.536   4.812 -0.3116 -0.2633 -0.5611
 1816SOL    HW116910   2.302   3.607   4.761  0.0842  0.1538  0.3059
 1816SOL    HW216911   2.325   3.462   4.802 -3.1247 -2.5597 -0.7159
 1817SOL     OW16912   3.338   0.100   5.920 -0.1654  0.4913  0.3110
 1817SOL    HW116913   3.275   0.027   5.923  0.3850 -0.0957 -1.7844
 1817SOL    HW216914   3.341   0.127   6.011 -1.6685  0.6028  0.3260
 1818SOL     OW16915   0.348   0.347  13.623  0.0113  0.0749 -0.2151
 1818SOL    HW116916   0.423   0.323  13.678  0.5899 -0.7083 -1.3345
 1818SOL    HW216917   0.396   0.403  13.562  1.6944  0.1821  1.1855
 1819SOL     OW16918   1.186   3.411  15.128 -0.1740  0.3674 -0.0665
 1819SOL    HW116919   1.102   3.391  15.170  0.6108 -2.3130  0.2700
 1819SOL    HW216920   1.171   3.372  15.041 -0.7061  0.8596 -0.1950
 1820SOL     OW16921   0.423   4.384   4.580  0.6179 -0.1360  0.4067
 1820SOL    HW116922   0.484   4.392   4.507  0.3012 -1.8330 -0.0392
 1820SOL    HW216923   0.404   4.291   4.569  0.6521 -0.1944  0.8338
 1821SOL     OW16924   3.551   0.863   2.466  0.1747 -0.1937  0.1366
 1821SOL    HW116925   3.523   0.775   2.492 -1.6666  0.4674  0.3718
 1821SOL    HW216926   3.490   0.896   2.400  0.5791  0.3183  0.0184
 1822SOL     OW16927   4.392   2.968  14.506  0.6635 -0.0323  0.6110
 1822SOL    HW116928   4.304   2.961  14.543  0.7914  0.1353  0.9434
 1822SOL    HW216929   4.373   2.970  14.412 -0.6024 -0.8236  0.8399
 1823SOL     OW16930   0.808   1.132  17.376 -0.3288  0.2715  0.1433
 1823SOL    HW116931   0.786   1.039  17.375 -1.4052  0.5344 -0.5620
 1823SOL    HW216932   0.903   1.141  17.379 -0.3398  1.0474 -1.8437
 1824SOL     OW16933   0.169   2.626   5.180 -0.2621 -0.1122  0.0827
 1824SOL    HW116934   0.170   2.626   5.084 -1.4181  2.3947  0.0647
 1824SOL    HW216935   0.100   2.691   5.191 -1.6233 -1.7672  1.2093
 1825SOL     OW16936   2.125   3.461   1.640  0.0246  0.4571 -0.1553
 1825SOL    HW116937   2.043   3.494   1.602 -1.4622  0.4909  3.0931
 1825SOL    HW216938   2.163   3.419   1.562  0.7760 -1.1240  1.0689
 1826SOL     OW16939   4.490   1.048   3.904  0.5471 -0.6994  0.1186
 1826SOL    HW116940   4.577   1.059   3.866 -0.5227 -2.5744 -2.8316
 1826SOL    HW216941   4.505   1.056   3.999  1.6357 -0.3412 -0.0845
 1827SOL     OW16942   2.380   0.093   7.706 -0.3090 -0.2629 -0.0733
 1827SOL    HW116943   2.323   0.026   7.744  0.8469 -1.3640 -0.3029
 1827SOL    HW216944   2.457   0.098   7.763 -1.4078 -4.8482  1.7845
 1828SOL     OW16945   2.584   2.220   3.402  0.7939 -0.3169  0.0050
 1828SOL    HW116946   2.560   2.281   3.472  0.1098  1.2743 -1.5938
 1828SOL    HW216947   2.679   2.223   3.407  0.7399 -0.5239  1.1950
 1829SOL     OW16948   0.321   3.730  13.875 -0.2265 -0.2875 -0.2134
 1829SOL    HW116949   0.401   3.763  13.915  0.5114 -1.6949 -0.5119
 1829SOL    HW216950   0.257   3.788  13.915 -0.0484 -0.0409 -0.2838
 1830SOL     OW16951   3.237   0.434   1.534  0.2503 -0.3521 -0.0380
 1830SOL    HW116952   3.287   0.446   1.453 -0.1594 -0.9669 -0.3810
 1830SOL    HW216953   3.304   0.413   1.600  0.0535  0.9593  0.5762
 1831SOL     OW16954   0.267   2.537   1.792  0.0459 -0.0889 -0.6863
 1831SOL    HW116955   0.270   2.631   1.806 -0.4344  0.2730 -3.0409
 1831SOL    HW216956   0.172   2.528   1.788  0.1240 -1.3815  0.2337
 1832SOL     OW16957   2.400   1.861  15.563  0.1900 -0.0824 -0.1876
 1832SOL    HW116958   2.473   1.812  15.526  0.5004 -0.1830  0.5684
 1832SOL    HW216959   2.448   1.938  15.593  0.4502 -0.6661  0.8642
 1833SOL     OW16960   1.603   1.155   2.047 -0.0084  0.6620  0.0545
 1833SOL    HW116961   1.665   1.082   2.055  0.4354  1.0130 -0.1395
 1833SOL    HW216962   1.650   1.228   2.008 -0.1019 -0.5728 -2.3522
 1834SOL     OW16963   3.059   0.494   5.255  0.0023 -0.1936  0.4394
 1834SOL    HW116964   3.082   0.581   5.288  0.3329  0.2704 -1.0178
 1834SOL    HW216965   3.136   0.480   5.199 -1.3719 -1.2575 -1.1625
 1835SOL     OW16966   0.172   0.194   8.162 -0.1158 -0.1997 -0.0770
 1835SOL    HW116967   0.090   0.165   8.202 -0.9234 -0.7898 -2.1898
 1835SOL    HW216968   0.238   0.152   8.217 -0.2195  0.8141  0.8222
 1836SOL     OW16969   1.004   2.267   2.576  0.0355  0.1928 -0.1411
 1836SOL    HW116970   0.992   2.325   2.650 -2.0352  0.3714 -0.6315
 1836SOL    HW216971   1.065   2.202   2.611  1.7198  1.3917 -0.8309
 1837SOL     OW16972   0.611   3.148   1.902  0.3912  0.1535  0.2557
 1837SOL    HW116973   0.652   3.176   1.820 -0.0464 -1.2972 -0.4741
 1837SOL    HW216974   0.551   3.091   1.853 -1.0353  2.4243 -0.6280
 1838SOL     OW16975   4.487   1.777   4.451 -0.1177 -0.2749 -0.6121
 1838SOL    HW116976   4.554   1.764   4.383 -1.2884  2.5357 -2.3119
 1838SOL    HW216977   4.446   1.858   4.423 -0.2227  0.2162  1.0013
 1839SOL     OW16978   3.935   2.202   1.434 -1.0795  0.3316 -0.5201
 1839SOL    HW116979   3.895   2.212   1.521  0.1012  0.7853 -0.0386
 1839SOL    HW216980   3.858   2.177   1.383  1.1373 -2.5322 -2.4311
 1840SOL     OW16981   1.167   3.842   7.712 -0.1279 -0.2469  0.2825
 1840SOL    HW116982   1.136   3.851   7.802 -2.1048 -0.6003 -0.3660
 1840SOL    HW216983   1.216   3.760   7.716  0.8164  0.3523  1.0271
 1841SOL     OW16984   3.931   3.203   7.895 -0.9055 -0.6552 -0.2981
 1841SOL    HW116985   4.018   3.216   7.935 -0.7577 -0.0574 -0.8118
 1841SOL    HW216986   3.899   3.119   7.927  1.2617 -1.0213  0.9164
 1842SOL     OW16987   1.587   3.868  13.266  0.0372  0.3317 -0.3252
 1842SOL    HW116988   1.628   3.954  13.275  0.0569  0.3001 -0.1171
 1842SOL    HW216989   1.537   3.881  13.185  0.2182 -1.8310 -0.7873
 1843SOL     OW16990   3.337   2.369  14.559  0.5683 -0.3206 -0.0233
 1843SOL    HW116991   3.271   2.390  14.625  0.7951 -0.9011  0.3916
 1843SOL    HW216992   3.309   2.279  14.543  1.0994 -0.6486  0.9176
 1844SOL     OW16993   3.017   3.295   3.629  0.2512 -0.4197 -0.5324
 1844SOL    HW116994   2.960   3.355   3.580 -0.3666  0.4486  1.2376
 1844SOL    HW216995   2.986   3.322   3.716  2.8989 -2.5978  1.0971
 1845SOL     OW16996   2.380   0.898   3.602 -0.1445 -0.1143 -0.0894
 1845SOL    HW116997   2.363   0.981   3.559 -0.4186  0.1008  0.4350
 1845SOL    HW216998   2.419   0.843   3.534 -0.3634 -0.2982 -0.0673
 1846SOL     OW16999   0.874   2.922   3.210  0.3315  0.1229  0.0814
 1846SOL    HW117000   0.882   2.979   3.133 -0.1796  1.1149  0.7686
 1846SOL    HW217001   0.856   2.992   3.272 -0.9656  1.1666 -1.4686
 1847SOL     OW17002   3.599   1.709   6.728  0.2928 -0.1355 -0.0509
 1847SOL    HW117003   3.602   1.804   6.739  1.6390  0.0141 -1.8464
 1847SOL    HW217004   3.666   1.685   6.792  0.4772 -0.9551 -0.5481
 1848SOL     OW17005   2.547   0.712   8.103 -0.1639 -0.6340  0.2036
 1848SOL    HW117006   2.459   0.719   8.140 -0.3283  1.2626 -0.5768
 1848SOL    HW217007   2.549   0.622   8.069  2.4539  1.1406 -4.3456
 1849SOL     OW17008   1.500   2.122   8.665 -0.2445 -0.1301  0.1164
 1849SOL    HW117009   1.531   2.049   8.611 -0.8686 -0.4332  0.1686
 1849SOL    HW217010   1.464   2.076   8.740  1.7027 -0.9158  0.5592
 1850SOL     OW17011   3.068   4.467   1.093 -0.7296  0.4828 -0.3295
 1850SOL    HW117012   3.052   4.393   1.035 -0.4333  0.6134 -0.5802
 1850SOL    HW217013   3.143   4.441   1.146 -1.5866 -0.9471  0.1744
 1851SOL     OW17014   3.889   0.682   5.795 -0.1747 -0.1043 -0.6720
 1851SOL    HW117015   3.896   0.720   5.883 -1.7967 -1.1297 -0.0897
 1851SOL    HW217016   3.798   0.653   5.790 -0.6844  1.4379 -0.2753
 1852SOL     OW17017   3.183   3.829   4.365 -0.4066 -0.1831 -1.0952
 1852SOL    HW117018   3.114   3.886   4.397 -1.0880 -0.5530 -1.8862
 1852SOL    HW217019   3.226   3.804   4.447  1.1870  0.9772 -1.5766
 1853SOL     OW17020   1.822   1.240   1.877  0.6426  0.0622 -0.0141
 1853SOL    HW117021   1.899   1.218   1.929 -0.4158 -0.2334  1.4367
 1853SOL    HW217022   1.857   1.251   1.788 -1.1324 -0.1556 -0.7391
 1854SOL     OW17023   1.479   3.336   5.283  0.1386  0.1332 -0.7924
 1854SOL    HW117024   1.540   3.401   5.319 -1.6525  2.0001 -1.1341
 1854SOL    HW217025   1.413   3.335   5.352 -1.1817  0.8453 -2.0215
 1855SOL     OW17026   1.556   2.892  13.495  0.2823  0.2687 -0.2542
 1855SOL    HW117027   1.500   2.969  13.490  0.4578  0.5077  1.4057
 1855SOL    HW217028   1.633   2.927  13.540  1.3576 -0.5568 -1.4795
 1856SOL     OW17029   3.418   0.579  12.645  0.4651 -0.5129  0.1686
 1856SOL    HW117030   3.472   0.523  12.589 -0.4358 -1.3591  0.1393
 1856SOL    HW217031   3.483   0.605  12.711 -0.0843 -0.5852  0.7311
 1857SOL     OW17032   1.773   1.414   2.867 -0.3592  0.2991  0.3035
 1857SOL    HW117033   1.854   1.456   2.896 -0.3427 -0.4260  1.2895
 1857SOL    HW217034   1.784   1.415   2.772  0.7794  0.3552  0.4431
 1858SOL     OW17035   3.452   0.794   1.469 -0.5236  0.4290 -0.4835
 1858SOL    HW117036   3.477   0.857   1.402 -1.5503 -0.0653 -1.3239
 1858SOL    HW217037   3.490   0.825   1.551  2.1486 -0.0566 -1.5284
 1859SOL     OW17038   3.458   0.219   4.960 -0.6426 -0.2164  0.6673
 1859SOL    HW117039   3.512   0.280   5.012 -0.0686  0.1041 -0.3010
 1859SOL    HW217040   3.489   0.234   4.871  1.4122  0.1502  1.4395
 1860SOL     OW17041   1.574   4.300   6.975  0.6782 -0.1835  0.5141
 1860SOL    HW117042   1.601   4.390   6.990  0.7065 -0.2832  1.0748
 1860SOL    HW217043   1.491   4.312   6.929  1.6160 -0.2840 -1.2154
 1861SOL     OW17044   2.764   3.521  12.285 -0.1857 -0.0311  0.3120
 1861SOL    HW117045   2.797   3.464  12.355 -0.4325  1.0598  1.3334
 1861SOL    HW217046   2.788   3.456  12.219 -0.7545  0.3120 -0.2281
 1862SOL     OW17047   1.542   1.476   7.903  0.0334 -0.5010  0.3485
 1862SOL    HW117048   1.590   1.479   7.821 -0.9179  2.1232 -0.0984
 1862SOL    HW217049   1.587   1.409   7.955 -1.1427  0.1274  2.1802
 1863SOL     OW17050   2.232   1.882  15.796  0.2264  0.0152 -0.2246
 1863SOL    HW117051   2.194   1.794  15.794  1.4639 -0.5567  2.4182
 1863SOL    HW217052   2.271   1.887  15.708  1.3603  0.3699  0.2995
 1864SOL     OW17053   1.307   0.257   7.787  0.5934  0.0792 -0.3093
 1864SOL    HW117054   1.369   0.229   7.855  0.3137  0.4520  0.0996
 1864SOL    HW217055   1.316   0.187   7.722 -2.6416 -0.8861  0.3075
 1865SOL     OW17056   1.864   4.637   6.501 -0.4478  0.3535 -0.4229
 1865SOL    HW117057   1.814   4.711   6.468  1.0382  2.6113  2.4060
 1865SOL    HW217058   1.920   4.673   6.570  0.0305  0.2037 -0.7294
 1866SOL     OW17059   3.257   4.575  13.596  0.5242 -0.3084  0.2212
 1866SOL    HW117060   3.174   4.618  13.619  0.2945 -0.3953 -0.4519
 1866SOL    HW217061   3.247   4.589  13.502 -0.9719  1.1171  0.5932
 1867SOL     OW17062   4.058   2.976   8.288  0.1147 -0.0671  0.1273
 1867SOL    HW117063   4.111   2.975   8.208 -1.4685 -3.0361 -0.8980
 1867SOL    HW217064   4.046   3.070   8.301 -0.9617  0.0116 -1.3846
 1868SOL     OW17065   1.615   1.994  15.920 -0.0166  0.2178 -0.0655
 1868SOL    HW117066   1.703   1.988  15.956 -0.2743 -2.7845  0.1245
 1868SOL    HW217067   1.603   2.087  15.901  0.0437  0.3718  0.6617
 1869SOL     OW17068   1.277   2.542   6.448 -0.1748 -0.1862  0.2546
 1869SOL    HW117069   1.339   2.574   6.382  0.3612  0.9191  1.3004
 1869SOL    HW217070   1.328   2.521   6.526  1.5116 -2.5038 -1.4572
 1870SOL     OW17071   1.862   4.607   9.567  0.6847 -0.1446  0.0846
 1870SOL    HW117072   1.923   4.536   9.590  0.1459  0.0776  2.2539
 1870SOL    HW217073   1.781   4.567   9.599  0.6299 -1.6918 -1.9790
 1871SOL     OW17074   3.224   1.474   8.072 -0.3557  0.3039  0.0052
 1871SOL    HW117075   3.248   1.436   7.988  0.4185  1.3013 -0.2203
 1871SOL    HW217076   3.273   1.556   8.070  1.5479 -0.8520 -0.2146
 1872SOL     OW17077   3.854   0.998  12.622 -0.3552 -0.4493  0.1260
 1872SOL    HW117078   3.888   1.050  12.549 -0.6908  0.4863  0.6411
 1872SOL    HW217079   3.814   1.063  12.680 -0.8564 -2.1151  1.6331
 1873SOL     OW17080   2.399   3.363  11.404  0.3481 -0.1829 -0.1408
 1873SOL    HW117081   2.418   3.414  11.482  0.9572  2.3527 -1.9295
 1873SOL    HW217082   2.474   3.304  11.391  0.5523 -0.6490  3.1978
 1874SOL     OW17083   3.838   0.364  11.148 -0.0329 -0.1892 -0.2970
 1874SOL    HW117084   3.898   0.306  11.103  1.3946 -0.1428  1.5429
 1874SOL    HW217085   3.770   0.382  11.083  0.9367  0.5953 -1.0892
 1875SOL     OW17086   2.721   0.908  12.948 -0.5530 -0.2861  0.5283
 1875SOL    HW117087   2.756   0.945  13.029  0.8294 -2.5199  0.9531
 1875SOL    HW217088   2.789   0.856  12.904 -1.3373  1.3581 -2.5898
 1876SOL     OW17089   0.306   1.914   4.201 -0.4015  0.1032 -0.1608
 1876SOL    HW117090   0.351   1.831   4.186  0.8329  1.1728 -2.3930
 1876SOL    HW217091   0.296   1.943   4.110 -0.2046 -1.6755 -0.7566
 1877SOL     OW17092   3.071   3.908  11.980  0.1042  0.1004  0.3010
 1877SOL    HW117093   3.102   3.818  11.981 -1.3033 -0.3908 -1.0931
 1877SOL    HW217094   2.998   3.898  12.041  0.4760 -2.3605  0.3111
 1878SOL     OW17095   3.753   0.752   8.697 -0.4356 -0.1250  0.3649
 1878SOL    HW117096   3.734   0.675   8.751 -1.4840 -0.0879  0.0621
 1878SOL    HW217097   3.668   0.762   8.654  0.4573 -0.3392 -1.4370
 1879SOL     OW17098   0.583   3.436   8.215  0.0031  0.4494  0.5009
 1879SOL    HW117099   0.674   3.466   8.218 -0.8705  3.0603  0.6831
 1879SOL    HW217100   0.569   3.424   8.309 -1.6140  1.0364  0.3381
 1880SOL     OW17101   1.436   3.306  13.202 -0.6972 -0.2253  0.2379
 1880SOL    HW117102   1.480   3.388  13.225  0.5856 -1.2249  1.3361
 1880SOL    HW217103   1.477   3.278  13.121  0.6523  0.9250  0.5258
 1881SOL     OW17104   2.765   4.104  12.012 -0.1233  0.0191  0.1020
 1881SOL    HW117105   2.827   4.120  12.084  1.1996 -0.5368 -0.9138
 1881SOL    HW217106   2.716   4.028  12.046  1.4275 -0.4952  1.1843
 1882SOL     OW17107   2.577   1.131   5.902  0.0952 -0.6435 -0.0616
 1882SOL    HW117108   2.613   1.214   5.872 -0.9996 -0.8634 -1.9907
 1882SOL    HW217109   2.604   1.066   5.838 -0.6604 -0.2247 -0.8118
 1883SOL     OW17110   3.891   4.273   7.795 -0.2432 -0.1682 -0.2921
 1883SOL    HW117111   3.926   4.354   7.759  1.5083 -1.6748 -2.0321
 1883SOL    HW217112   3.972   4.224   7.812  1.2312  1.8023 -1.6810
 1884SOL     OW17113   2.869   0.998   6.138 -0.2801 -0.0961  0.4279
 1884SOL    HW117114   2.842   0.924   6.192  1.2635 -1.7664 -1.0911
 1884SOL    HW217115   2.827   1.065   6.191  3.5372 -0.0925  3.4114
 1885SOL     OW17116   4.025   3.574   7.466 -0.2826 -0.0388  0.3114
 1885SOL    HW117117   4.100   3.536   7.512 -2.1928 -3.1676  0.8262
 1885SOL    HW217118   4.033   3.663   7.501  0.7783 -0.6521  1.6445
 1886SOL     OW17119   1.326   4.380   8.135 -0.0321  0.7272 -0.4159
 1886SOL    HW117120   1.260   4.445   8.155  0.3871  0.8053  0.7298
 1886SOL    HW217121   1.333   4.346   8.225  0.6396 -0.9750 -1.1124
 1887SOL     OW17122   1.061   4.661   2.995 -0.1061 -0.2975  0.6975
 1887SOL    HW117123   1.150   4.684   3.021  0.2554 -1.0226  0.1251
 1887SOL    HW217124   1.022   4.649   3.081 -0.4842  0.0485  0.5753
 1888SOL     OW17125   1.857   0.174  16.685 -0.4383 -0.5187  0.4003
 1888SOL    HW117126   1.913   0.218  16.749  1.1802  0.3776 -1.6491
 1888SOL    HW217127   1.834   0.251  16.633 -0.1386 -0.1784  0.7820
 1889SOL     OW17128   4.240   2.538  12.364 -0.3773  0.4021 -0.0488
 1889SOL    HW117129   4.167   2.508  12.419  0.1620 -0.3129  0.2628
 1889SOL    HW217130   4.246   2.627  12.400 -1.8923  1.1932 -1.7323
 1890SOL     OW17131   1.486   0.459   7.707  0.1913  0.0660 -0.5381
 1890SOL    HW117132   1.412   0.399   7.697 -0.2151  0.5518 -0.4869
 1890SOL    HW217133   1.444   0.531   7.754 -1.8557 -0.2842 -1.7964
 1891SOL     OW17134   1.983   3.432  11.413 -0.1381  0.3156  0.2582
 1891SOL    HW117135   2.060   3.482  11.386  2.3214 -4.0191 -0.7429
 1891SOL    HW217136   1.957   3.388  11.332  1.3603 -2.2808  1.1624
 1892SOL     OW17137   2.059   3.115   3.207 -0.0229 -0.3577 -0.0760
 1892SOL    HW117138   1.976   3.160   3.223 -0.5235 -0.0679 -3.6510
 1892SOL    HW217139   2.020   3.028   3.199  0.1495 -0.6216  1.8260
 1893SOL     OW17140   2.000   1.462   8.113  0.0431 -0.1716 -0.8174
 1893SOL    HW117141   1.963   1.536   8.163 -0.0951  1.0061 -2.6804
 1893SOL    HW217142   1.919   1.415   8.093 -1.5346  1.5802  1.2956
 1894SOL     OW17143   3.464   0.700   8.590 -0.4102 -0.2934  0.4717
 1894SOL    HW117144   3.425   0.787   8.580  0.2084  0.0243  0.8231
 1894SOL    HW217145   3.443   0.685   8.682  0.5026 -0.5603  0.6360
 1895SOL     OW17146   0.790   4.223  15.472 -0.1173 -0.3700 -0.2211
 1895SOL    HW117147   0.709   4.185  15.438 -2.1250  1.6739  2.2592
 1895SOL    HW217148   0.782   4.317  15.462 -0.3694 -0.5546 -1.7297
 1896SOL     OW17149   3.504   4.129   0.138  0.1212  0.4821  0.3890
 1896SOL    HW117150   3.418   4.121   0.178  0.1072 -0.0835  0.2365
 1896SOL    HW217151   3.507   4.071   0.062  0.6403  2.6325 -1.2320
 1897SOL     OW17152   0.296   3.705  15.426  0.1179 -0.0636 -0.1610
 1897SOL    HW117153   0.354   3.629  15.418  0.4351  0.0021  1.4560
 1897SOL    HW217154   0.339   3.760  15.361 -1.7640  0.8215 -0.6393
 1898SOL     OW17155   3.289   3.728   8.903 -0.2327  0.0131  0.1845
 1898SOL    HW117156   3.371   3.678   8.899  0.8434  1.7426  0.3616
 1898SOL    HW217157   3.227   3.674   8.952 -2.7422  1.1605 -1.7263
 1899SOL     OW17158   2.963   1.577   9.146  0.3216 -0.1263 -0.3577
 1899SOL    HW117159   2.934   1.542   9.061  0.1163 -0.7609 -0.0278
 1899SOL    HW217160   2.887   1.616   9.189  1.7281  1.7794  0.3612
 1900SOL     OW17161   0.360   3.403  12.034  0.5586 -0.6157  0.4887
 1900SOL    HW117162   0.277   3.430  12.074 -0.4643 -1.7830 -0.8310
 1900SOL    HW217163   0.421   3.409  12.107  1.9052  0.5967 -0.7304
 1901SOL     OW17164   0.307   0.997   2.558  0.2005 -0.5518  0.5985
 1901SOL    HW117165   0.363   0.920   2.555 -0.3074 -0.8432 -1.2571
 1901SOL    HW217166   0.373   1.067   2.556 -1.0861  0.5692 -3.4985
 1902SOL     OW17167   4.309   3.391  11.492 -0.9690 -0.2525  0.3354
 1902SOL    HW117168   4.351   3.448  11.557  1.7611  0.5516 -2.1559
 1902SOL    HW217169   4.379   3.325  11.485 -1.3764 -0.4782 -1.4996
 1903SOL     OW17170   0.703   2.851   6.904 -0.0120 -0.3797  0.1460
 1903SOL    HW117171   0.628   2.835   6.848 -0.6722  0.5520  0.7726
 1903SOL    HW217172   0.719   2.763   6.938  1.0002 -0.1802  0.1908
 1904SOL     OW17173   2.746   4.196  15.700 -0.2331  0.7706 -0.4177
 1904SOL    HW117174   2.827   4.242  15.723 -0.6966  0.6171  1.5735
 1904SOL    HW217175   2.698   4.206  15.783  0.1157  1.4537 -0.2986
 1905SOL     OW17176   1.655   1.869  11.712  0.1302 -0.4100  0.0957
 1905SOL    HW117177   1.678   1.934  11.779  2.1992  1.0203 -1.9963
 1905SOL    HW217178   1.722   1.801  11.710 -0.7509 -1.2321 -1.1257
 1906SOL     OW17179   2.241   3.809   4.289  0.2551  0.2668  0.4522
 1906SOL    HW117180   2.146   3.805   4.278  0.3059 -1.5137  0.6174
 1906SOL    HW217181   2.274   3.754   4.218 -1.1536 -1.9889  1.5488
 1907SOL     OW17182   1.256   1.662   4.324 -0.2400  0.1379 -0.3528
 1907SOL    HW117183   1.196   1.678   4.396  0.3414 -1.5445  0.5048
 1907SOL    HW217184   1.239   1.736   4.265  0.0718 -0.4635 -1.1975
 1908SOL     OW17185   3.565   4.715   6.428  0.1281  0.2697 -0.2211
 1908SOL    HW117186   3.520   0.039   6.498  0.1094  1.6620 -1.1616
 1908SOL    HW217187   3.602   4.639   6.474 -0.4864 -0.3504 -0.7565
 1909SOL     OW17188   0.661   4.626   6.361 -0.2005  0.3904  0.2408
 1909SOL    HW117189   0.676   4.555   6.424 -1.8435  0.2495  0.4879
 1909SOL    HW217190   0.748   4.652   6.333 -0.1889  1.6951  1.5299
 1910SOL     OW17191   1.740   2.520  14.846 -0.1516 -0.1316 -0.3289
 1910SOL    HW117192   1.834   2.509  14.861 -0.2140 -0.0938  0.1094
 1910SOL    HW217193   1.746   2.603  14.799 -0.9048 -0.6626 -1.3698
 1911SOL     OW17194   0.376   3.338  16.153  0.1094  0.0394 -0.3873
 1911SOL    HW117195   0.386   3.245  16.174  0.0978  0.4890  1.6299
 1911SOL    HW217196   0.344   3.335  16.063 -1.2497  1.7203  0.0496
 1912SOL     OW17197   3.822   3.622   6.889  0.0983 -0.4281 -0.1531
 1912SOL    HW117198   3.842   3.605   6.797  0.6210 -1.4730  0.1487
 1912SOL    HW217199   3.728   3.639   6.885 -0.3367 -1.5783  4.7284
 1913SOL     OW17200   1.903   2.593   7.865 -0.1219  0.4424  0.1506
 1913SOL    HW117201   1.860   2.675   7.840 -0.8068  0.3380  0.9645
 1913SOL    HW217202   1.928   2.614   7.955  1.9449 -0.1329 -0.2796
 1914SOL     OW17203   1.037   0.333   9.451 -0.2702 -0.2979 -0.4168
 1914SOL    HW117204   1.113   0.381   9.417  0.0238 -0.4544  0.0321
 1914SOL    HW217205   1.080   0.274   9.512  2.1474 -0.7554 -2.5720
 1915SOL     OW17206   1.824   4.539  12.926  0.4121  0.2014 -0.1373
 1915SOL    HW117207   1.794   4.590  12.850  0.3050 -0.3054 -0.4373
 1915SOL    HW217208   1.912   4.574  12.936  0.2445  0.2307  1.2456
 1916SOL     OW17209   0.027   2.626   8.418  0.0606  0.0353  0.8433
 1916SOL    HW117210   0.030   2.693   8.487 -3.2304  1.3388 -0.2652
 1916SOL    HW217211   0.087   2.563   8.459 -0.5777 -0.2362  1.3625
 1917SOL     OW17212   1.185   3.762   7.296  0.2880 -0.5239  0.1299
 1917SOL    HW117213   1.185   3.674   7.257  1.0887 -0.3901 -0.1785
 1917SOL    HW217214   1.273   3.760   7.332  0.5116  0.4508 -0.3650
 1918SOL     OW17215   1.561   2.207  15.639  0.3723  0.0420  0.2601
 1918SOL    HW117216   1.612   2.140  15.593 -1.9963 -0.6356 -1.3815
 1918SOL    HW217217   1.484   2.154  15.656  0.3052 -0.0471 -0.3137
 1919SOL     OW17218   3.384   2.475   5.490  0.0044 -0.1942  1.0069
 1919SOL    HW117219   3.455   2.452   5.550  2.1703  1.9218 -0.7986
 1919SOL    HW217220   3.417   2.442   5.407  0.6505 -0.5714  1.4209
 1920SOL     OW17221   3.726   1.319   1.081  0.4768 -0.4119 -0.2047
 1920SOL    HW117222   3.815   1.350   1.065 -0.6102  1.1954 -3.2350
 1920SOL    HW217223   3.667   1.383   1.041 -0.7605 -0.6003  1.3331
 1921SOL     OW17224   0.689   2.717   3.207 -0.1362 -0.1288  0.2645
 1921SOL    HW117225   0.642   2.770   3.143 -1.1630 -1.4449 -0.0546
 1921SOL    HW217226   0.781   2.741   3.193 -0.2689 -0.1118 -0.5637
 1922SOL     OW17227   0.946   2.792   7.467 -0.3031  0.3189 -0.3279
 1922SOL    HW117228   0.926   2.798   7.373 -0.0306 -1.8525 -0.5203
 1922SOL    HW217229   1.041   2.792   7.471 -0.3278 -0.1546  0.2260
 1923SOL     OW17230   4.045   3.194   9.839 -0.0926  0.4635  0.0472
 1923SOL    HW117231   4.052   3.248   9.917  1.0711 -2.0950  1.7392
 1923SOL    HW217232   4.044   3.113   9.890  0.8019 -0.6085 -1.6474
 1924SOL     OW17233   1.780   3.754   9.170  0.4077 -0.3751  0.0172
 1924SOL    HW117234   1.754   3.814   9.099 -2.2308  0.3798  1.6193
 1924SOL    HW217235   1.859   3.718   9.129  0.3361  1.3411 -1.6049
 1925SOL     OW17236   2.193   0.422   6.566 -0.7532 -0.0770 -0.5472
 1925SOL    HW117237   2.128   0.366   6.526 -0.4204  0.8212 -2.3501
 1925SOL    HW217238   2.167   0.432   6.658 -0.0255  0.4738 -0.3906
 1926SOL     OW17239   0.110   4.592   6.919 -0.4296 -0.2692  0.0064
 1926SOL    HW117240   0.017   4.591   6.899 -0.1678  2.2064 -1.3189
 1926SOL    HW217241   0.128   4.507   6.959  1.3722 -0.1713 -0.5716
 1927SOL     OW17242   1.574   3.717  14.871 -0.3398 -0.0933 -0.1566
 1927SOL    HW117243   1.576   3.649  14.939  2.1280 -2.1956 -2.3710
 1927SOL    HW217244   1.479   3.723  14.862 -0.2714  1.1312 -0.0215
 1928SOL     OW17245   0.139   2.837   3.911 -0.3530  0.0546  0.0836
 1928SOL    HW117246   0.228   2.814   3.936 -0.7703 -0.3594  1.2249
 1928SOL    HW217247   0.137   2.931   3.929 -0.8625  0.3157 -1.3872
 1929SOL     OW17248   3.243   4.404   7.867  0.0741 -0.2434 -0.5469
 1929SOL    HW117249   3.302   4.436   7.935 -1.0763 -0.1249  0.4049
 1929SOL    HW217250   3.285   4.320   7.853 -0.3785 -0.6595  0.6192
 1930SOL     OW17251   1.532   0.447   5.936  0.3851  0.0020 -0.0403
 1930SOL    HW117252   1.591   0.523   5.939  0.9026 -0.3941 -0.1872
 1930SOL    HW217253   1.595   0.376   5.951 -0.9996 -1.2903 -0.4397
 1931SOL     OW17254   4.698   3.946   2.131  0.0273  0.2254 -0.3730
 1931SOL    HW117255   4.675   3.881   2.198  0.7028  1.2322  0.8427
 1931SOL    HW217256   4.707   3.878   2.065  2.1210  0.1577 -0.0069
 1932SOL     OW17257   4.183   3.111   7.503 -0.0136 -0.6578 -0.2098
 1932SOL    HW117258   4.098   3.089   7.541 -0.9659 -0.2004 -2.0865
 1932SOL    HW217259   4.195   3.203   7.527  3.9916 -0.7476 -1.8648
 1933SOL     OW17260   4.665   0.114   5.897 -0.0257 -0.6714 -0.1634
 1933SOL    HW117261   4.717   0.194   5.893  1.7120 -1.9494 -2.5552
 1933SOL    HW217262   0.011   0.050   5.919  1.0809 -0.4678 -3.0338
 1934SOL     OW17263   2.734   2.577   5.410 -0.0872  0.2575 -0.0205
 1934SOL    HW117264   2.811   2.626   5.379 -0.1868  0.0803 -0.5432
 1934SOL    HW217265   2.744   2.490   5.373 -1.3124  0.0987  0.0198
 1935SOL     OW17266   4.377   2.672   1.932 -0.0823  0.6178  0.2094
 1935SOL    HW117267   4.380   2.766   1.951 -0.2053  1.1211 -2.3646
 1935SOL    HW217268   4.465   2.655   1.964  0.0890  1.0022 -0.0602
 1936SOL     OW17269   1.529   1.759   7.444  0.7888 -0.4562 -0.0767
 1936SOL    HW117270   1.597   1.753   7.510  0.8593 -0.0199 -0.1104
 1936SOL    HW217271   1.575   1.819   7.385 -1.3885  0.1987 -1.1146
 1937SOL     OW17272   3.625   1.239   5.241  0.1450  0.3398 -0.0724
 1937SOL    HW117273   3.591   1.197   5.162 -1.8960  1.6239  0.1190
 1937SOL    HW217274   3.704   1.187   5.253  1.8673  2.4131 -2.3433
 1938SOL     OW17275   0.611   2.797   0.761  0.1264  1.0295 -0.3593
 1938SOL    HW117276   0.589   2.887   0.738 -0.7398  0.8739 -0.1372
 1938SOL    HW217277   0.530   2.776   0.808 -0.3129 -2.5105 -2.7236
 1939SOL     OW17278   0.730   1.597  16.176 -0.0648  0.0553  0.5622
 1939SOL    HW117279   0.741   1.675  16.121  0.0575  0.1817  0.7658
 1939SOL    HW217280   0.635   1.585  16.172 -0.1573  0.5040  1.4113
 1940SOL     OW17281   1.062   4.074  13.430  0.0265  0.3094 -0.1066
 1940SOL    HW117282   1.033   4.081  13.521 -1.4491 -0.5095 -0.5173
 1940SOL    HW217283   0.980   4.098  13.387 -0.1715 -1.1729 -0.5286
 1941SOL     OW17284   1.183   2.199   0.466 -0.7247  0.3303  0.3489
 1941SOL    HW117285   1.141   2.147   0.535 -0.6425 -2.1149 -1.4330
 1941SOL    HW217286   1.256   2.142   0.444 -2.4728 -1.6933 -0.2332
 1942SOL     OW17287   2.289   0.326   4.950 -0.3137 -0.1045  0.2076
 1942SOL    HW117288   2.291   0.236   4.917  0.4288 -0.5359  1.4647
 1942SOL    HW217289   2.353   0.313   5.019 -0.8782 -1.0414  0.5585
 1943SOL     OW17290   4.559   1.252   7.872  0.2577 -0.3856 -0.2951
 1943SOL    HW117291   4.570   1.300   7.954 -0.5805  0.6654 -0.7906
 1943SOL    HW217292   4.634   1.193   7.868  2.2885  2.2776 -2.0130
 1944SOL     OW17293   1.271   0.753   5.172  0.2311  0.4949  0.2379
 1944SOL    HW117294   1.181   0.744   5.140  0.7255 -0.5788 -0.8789
 1944SOL    HW217295   1.296   0.835   5.130 -0.3062  0.6383  0.2010
 1945SOL     OW17296   4.317   4.148  14.484  0.3988 -0.5446 -0.2918
 1945SOL    HW117297   4.262   4.176  14.557  1.0785  1.6969 -0.6469
 1945SOL    HW217298   4.295   4.216  14.420  0.6145  0.1321  0.3483
 1946SOL     OW17299   4.140   3.531   2.192  0.6573  0.3708 -0.7280
 1946SOL    HW117300   4.084   3.604   2.168 -0.1338 -0.3103 -0.9563
 1946SOL    HW217301   4.109   3.507   2.279  1.2728  0.1019 -0.5806
 1947SOL     OW17302   2.281   2.101  14.714  0.1402  0.1048 -0.2729
 1947SOL    HW117303   2.190   2.131  14.707  1.0075  2.0081 -3.2756
 1947SOL    HW217304   2.303   2.128  14.803  1.5853 -0.7365 -0.3781
 1948SOL     OW17305   0.429   1.080   6.006 -0.2240  0.2516  0.6355
 1948SOL    HW117306   0.390   0.994   6.023 -0.8350  0.5624  0.8183
 1948SOL    HW217307   0.493   1.099   6.076  1.7767 -0.6384 -0.9659
 1949SOL     OW17308   1.394   0.972   4.874 -0.8560  0.8963  0.1431
 1949SOL    HW117309   1.351   0.938   4.796  1.3418 -0.8988 -0.2817
 1949SOL    HW217310   1.478   1.004   4.842  0.1508 -0.6809  1.2441
 1950SOL     OW17311   4.482   3.643  10.477  0.2008 -0.1967  0.3025
 1950SOL    HW117312   4.457   3.733  10.457  0.3691 -0.4867 -1.1874
 1950SOL    HW217313   4.573   3.635  10.449  0.2616  0.5432  0.3045
 1951SOL     OW17314   1.139   4.644   8.939  0.2732  0.5132 -0.4599
 1951SOL    HW117315   1.064   4.586   8.942 -0.7614  1.9625  1.8209
 1951SOL    HW217316   1.092   0.003   8.921  0.9317  0.3288 -3.0515
 1952SOL     OW17317   2.320   2.990   3.273 -0.0334  0.3529 -0.2866
 1952SOL    HW117318   2.273   2.937   3.338  1.7362 -0.2241  0.5322
 1952SOL    HW217319   2.256   3.055   3.246  0.1452 -0.3273 -2.3899
 1953SOL     OW17320   2.937   0.591   3.777  0.3555 -0.4979 -0.3463
 1953SOL    HW117321   2.904   0.658   3.718  0.8134  1.6807  1.8590
 1953SOL    HW217322   2.944   0.631   3.864 -3.4955 -1.4984  0.3987
 1954SOL     OW17323   1.468   1.721   2.993  0.2553 -0.4687 -0.2293
 1954SOL    HW117324   1.476   1.765   3.078 -1.0758  1.4775 -1.0992
 1954SOL    HW217325   1.375   1.731   2.971  0.1341 -0.2831  0.3762
 1955SOL     OW17326   3.289   3.470  13.904 -0.2546  0.0695 -0.7767
 1955SOL    HW117327   3.360   3.426  13.950 -0.3310  0.5009 -0.2567
 1955SOL    HW217328   3.325   3.460  13.816  2.6729 -0.3352  0.4874
 1956SOL     OW17329   2.572   1.059   3.756 -0.2346  0.0566  0.3155
 1956SOL    HW117330   2.563   1.143   3.709  2.2530  0.7382  1.0540
 1956SOL    HW217331   2.590   1.004   3.680  1.8706 -0.4339  1.1572
 1957SOL     OW17332   1.738   1.752  17.124 -0.3723 -0.2546  0.2261
 1957SOL    HW117333   1.759   1.773  17.033  2.9975  0.5697  1.1718
 1957SOL    HW217334   1.645   1.730  17.126 -0.1132 -1.2170  1.7530
 1958SOL     OW17335   1.792   1.081  16.436 -0.2478 -0.0612 -0.5935
 1958SOL    HW117336   1.870   1.137  16.430 -1.6883  2.0162  0.0722
 1958SOL    HW217337   1.828   0.993  16.438 -0.1954  0.0223  2.0135
 1959SOL     OW17338   4.142   3.933   2.992  0.3350  0.6580  0.2480
 1959SOL    HW117339   4.083   3.941   3.067 -1.2458  1.2242 -1.0658
 1959SOL    HW217340   4.221   3.900   3.035  0.5774  1.5063  0.4434
 1960SOL     OW17341   0.484   1.342   3.766  0.0371 -0.0173  0.8588
 1960SOL    HW117342   0.484   1.436   3.786  3.5356  0.7695 -2.8316
 1960SOL    HW217343   0.401   1.338   3.719  0.4324  1.0288  0.0715
 1961SOL     OW17344   3.979   4.620  15.286  0.0540 -0.1968 -0.3939
 1961SOL    HW117345   3.995   4.533  15.248 -2.3045 -0.2897 -1.2160
 1961SOL    HW217346   3.898   4.645  15.240 -0.3766 -0.4770  0.2131
 1962SOL     OW17347   3.865   0.865   4.911 -0.1990  0.1887  0.0131
 1962SOL    HW117348   3.896   0.827   4.829  0.0122  2.0402 -0.7771
 1962SOL    HW217349   3.873   0.956   4.881 -0.7027  0.5950  1.1328
 1963SOL     OW17350   2.841   1.854   0.716  0.4885 -0.0018  0.2517
 1963SOL    HW117351   2.749   1.870   0.693  0.3251  0.5910  1.2875
 1963SOL    HW217352   2.838   1.854   0.812 -1.0423  0.8301  0.2053
 1964SOL     OW17353   3.180   3.632   3.521  0.4658  0.8033  0.1735
 1964SOL    HW117354   3.087   3.613   3.512  0.6617  0.1226 -0.4220
 1964SOL    HW217355   3.180   3.726   3.541  1.6277  0.8275  0.0419
 1965SOL     OW17356   0.015   0.756   4.457 -0.1519  0.3624  0.1113
 1965SOL    HW117357   4.648   0.721   4.463  0.3824 -1.1840 -0.9984
 1965SOL    HW217358   0.040   0.737   4.547  2.6080 -1.1126 -0.9800
 1966SOL     OW17359   1.972   0.224   4.315  0.1590 -0.3322  0.5155
 1966SOL    HW117360   2.001   0.194   4.401  0.0220  2.2539  1.4734
 1966SOL    HW217361   2.026   0.303   4.308 -0.2510 -0.0005  1.0867
 1967SOL     OW17362   1.841   1.860   7.864  0.5095  0.4446 -0.8935
 1967SOL    HW117363   1.887   1.940   7.836  1.7314 -0.1127 -0.4698
 1967SOL    HW217364   1.902   1.828   7.931 -0.5938  1.5610  0.6545
 1968SOL     OW17365   1.615   4.144   4.451 -0.2244 -0.0674 -0.2941
 1968SOL    HW117366   1.574   4.198   4.519 -0.8013 -2.2405  1.0896
 1968SOL    HW217367   1.639   4.210   4.386 -0.7074 -0.4364 -0.8393
 1969SOL     OW17368   0.081   0.147  13.140  0.3941  0.2623 -0.1603
 1969SOL    HW117369   0.138   0.204  13.193  1.0525  0.0870 -0.6778
 1969SOL    HW217370   0.079   0.220  13.077 -0.9578 -0.6333 -1.1649
 1970SOL     OW17371   4.108   1.445   7.870 -0.4003 -0.7366  0.3288
 1970SOL    HW117372   4.099   1.392   7.949 -1.0467 -0.9091  0.1396
 1970SOL    HW217373   4.198   1.426   7.844 -0.5480 -1.7612  0.5424
 1971SOL     OW17374   4.389   4.226   6.622 -0.2006 -0.0369 -0.1853
 1971SOL    HW117375   4.353   4.137   6.625 -0.2275 -0.0162  0.0717
 1971SOL    HW217376   4.483   4.211   6.634 -0.2413  0.7534  1.1711
 1972SOL     OW17377   1.147   3.315   6.278  0.0387 -0.7541  0.2384
 1972SOL    HW117378   1.052   3.319   6.274  0.0031 -2.3389 -0.3890
 1972SOL    HW217379   1.183   3.305   6.190 -1.5654 -0.6984 -0.4119
 1973SOL     OW17380   4.620   1.560   5.968  0.5036 -0.0875 -0.4713
 1973SOL    HW117381   4.540   1.555   6.020 -0.3561 -1.4941 -1.9347
 1973SOL    HW217382   4.608   1.490   5.904 -0.3927 -0.3413 -0.0272
 1974SOL     OW17383   4.255   2.483   9.027 -0.5712 -0.0071  0.1602
 1974SOL    HW117384   4.330   2.503   9.083  0.3576 -0.3081 -0.9618
 1974SOL    HW217385   4.187   2.486   9.094 -0.2143 -1.3493  0.5799
 1975SOL     OW17386   1.029   4.006   8.505 -0.2058 -0.0263 -0.1719
 1975SOL    HW117387   1.014   3.958   8.587 -2.1625 -0.0561 -0.5562
 1975SOL    HW217388   1.097   4.064   8.540  0.5057 -0.0101 -1.6102
 1976SOL     OW17389   1.818   3.564   3.532  0.5459 -0.1228 -0.3371
 1976SOL    HW117390   1.862   3.645   3.508  0.1082 -0.3901 -2.0714
 1976SOL    HW217391   1.895   3.530   3.579  1.4824 -0.9241 -2.4551
 1977SOL     OW17392   3.590   1.853   4.838  0.2621  0.6714  0.2649
 1977SOL    HW117393   3.658   1.851   4.771  0.0457  0.9759  0.0350
 1977SOL    HW217394   3.509   1.839   4.788  0.4680  0.3664  0.0202
 1978SOL     OW17395   1.971   2.687   0.541 -0.6677 -0.5560 -0.5876
 1978SOL    HW117396   1.889   2.640   0.553 -0.1906 -1.3243 -0.2820
 1978SOL    HW217397   1.975   2.739   0.621 -1.9716  0.4184 -1.1609
 1979SOL     OW17398   0.039   1.314   6.897  0.2034  0.4463  0.4671
 1979SOL    HW117399   0.054   1.342   6.987 -0.3929  1.0206  0.3899
 1979SOL    HW217400   0.100   1.241   6.888  1.1910  1.2473  0.6570
 1980SOL     OW17401   3.632   2.142   9.286  0.4081  0.3391 -0.1326
 1980SOL    HW117402   3.654   2.212   9.347  1.1027  0.4169 -0.4780
 1980SOL    HW217403   3.540   2.162   9.267  0.5970  0.6176 -0.7474
 1981SOL     OW17404   3.604   2.467   0.498 -0.3872  0.3875 -0.2556
 1981SOL    HW117405   3.536   2.523   0.534 -0.2630  0.4379 -0.0959
 1981SOL    HW217406   3.597   2.468   0.403  1.4619 -0.3466 -0.4034
 1982SOL     OW17407   0.320   0.212   7.393  0.1154 -0.0823  0.4726
 1982SOL    HW117408   0.413   0.236   7.393  0.3601 -1.0558  0.9510
 1982SOL    HW217409   0.322   0.123   7.359  0.9543  0.8991 -2.0631
 1983SOL     OW17410   3.656   2.351   6.176 -0.1630  0.6571  0.7324
 1983SOL    HW117411   3.645   2.288   6.105  0.9540  0.8745  0.3682
 1983SOL    HW217412   3.605   2.418   6.131  1.3522  0.7141 -0.8847
 1984SOL     OW17413   3.394   4.208  12.039  0.6628  0.2367  0.6433
 1984SOL    HW117414   3.408   4.119  12.007  0.4661  1.3892 -2.6701
 1984SOL    HW217415   3.336   4.249  11.975  0.8960  0.6352  0.6802
 1985SOL     OW17416   4.172   2.607   7.987 -0.3056 -0.5077 -0.0331
 1985SOL    HW117417   4.214   2.610   7.901 -0.7772 -1.3168 -0.2945
 1985SOL    HW217418   4.247   2.635   8.039 -0.2783  0.5577 -0.6339
 1986SOL     OW17419   0.767   0.386   3.953  0.4388 -0.2318 -0.3405
 1986SOL    HW117420   0.832   0.456   3.951 -0.6433  0.8047  1.2203
 1986SOL    HW217421   0.819   0.316   3.993  3.1728  1.8959 -0.1662
 1987SOL     OW17422   3.112   2.748  11.046  0.3416  0.0548  0.0116
 1987SOL    HW117423   3.189   2.697  11.073 -0.1853  0.0952  1.5922
 1987SOL    HW217424   3.113   2.729  10.952  1.8754 -0.8476  0.2060
 1988SOL     OW17425   0.071   1.697   7.093 -0.3006  0.3751  0.0942
 1988SOL    HW117426   0.029   1.678   7.177  0.8973 -0.0481  0.5981
 1988SOL    HW217427   0.159   1.732   7.110 -0.3519  0.9796 -0.9399
 1989SOL     OW17428   0.064   3.867  15.798  0.1670  0.2204  0.5999
 1989SOL    HW117429   0.053   3.956  15.831 -2.6535  0.1085 -0.0147
 1989SOL    HW217430   4.712   3.815  15.828 -0.5603 -0.1344 -1.7479
 1990SOL     OW17431   0.415   1.846  15.642 -0.9118 -0.3962 -0.9077
 1990SOL    HW117432   0.482   1.799  15.692 -0.9555  0.5827  0.0889
 1990SOL    HW217433   0.374   1.891  15.716  0.7541  1.9450 -1.3816
 1991SOL     OW17434   2.130   4.081  13.570  0.6070 -0.3978  0.1463
 1991SOL    HW117435   2.056   4.029  13.538  0.8440 -0.4195 -0.3852
 1991SOL    HW217436   2.164   4.095  13.481 -0.5772  0.8546 -0.0902
 1992SOL     OW17437   1.842   4.627   7.899 -0.1812 -0.3745  0.6975
 1992SOL    HW117438   1.770   4.654   7.956  0.1059  2.3249 -0.2326
 1992SOL    HW217439   1.866   4.547   7.945  0.7012  0.1850  1.1916
 1993SOL     OW17440   4.471   1.377   2.511 -0.2606 -0.2563  0.3940
 1993SOL    HW117441   4.443   1.459   2.553  0.4694 -0.7515  1.8635
 1993SOL    HW217442   4.495   1.329   2.590  1.5712 -1.8585 -1.1317
 1994SOL     OW17443   0.954   0.746   9.227  0.0120 -0.4044  0.7057
 1994SOL    HW117444   1.015   0.728   9.156  1.0982  0.1126  1.5003
 1994SOL    HW217445   0.978   0.839   9.234 -0.6752 -0.1319 -0.4903
 1995SOL     OW17446   4.161   1.570   1.408 -0.5653  0.1593 -0.5917
 1995SOL    HW117447   4.238   1.533   1.364 -0.6271  1.1527 -1.5285
 1995SOL    HW217448   4.113   1.600   1.331 -1.7002  0.1025  0.0976
 1996SOL     OW17449   0.605   0.228   2.378 -0.8065  0.1081  0.7387
 1996SOL    HW117450   0.672   0.268   2.323 -0.8154 -0.5241  0.2668
 1996SOL    HW217451   0.555   0.308   2.396 -0.9907 -0.1743  1.4602
 1997SOL     OW17452   2.744   1.464  16.375 -0.0286 -0.2512 -0.5500
 1997SOL    HW117453   2.828   1.422  16.392  0.0776 -0.1344 -0.7792
 1997SOL    HW217454   2.683   1.420  16.433 -1.4991  0.7496 -1.3516
 1998SOL     OW17455   0.931   2.395   5.829  0.0965  0.2185  0.1081
 1998SOL    HW117456   0.956   2.457   5.760 -0.7320  0.5659  0.1213
 1998SOL    HW217457   0.955   2.311   5.790  1.7864  1.0213 -0.5896
 1999SOL     OW17458   4.658   1.413   4.333  0.3735 -0.2538  0.2976
 1999SOL    HW117459   4.712   1.335   4.323  0.6813 -0.0978  0.7359
 1999SOL    HW217460   4.575   1.372   4.357  0.0001  0.0525 -0.4744
 2000SOL     OW17461   1.348   0.091   3.708 -0.3997  0.0233  0.0641
 2000SOL    HW117462   1.342   0.104   3.802 -0.5240 -2.3400  0.3894
 2000SOL    HW217463   1.267   0.125   3.670 -0.0862  0.6820 -0.0119
 2001SOL     OW17464   2.682   1.883  10.016  0.2541  0.3075  0.4322
 2001SOL    HW117465   2.754   1.869  10.077 -0.5611  1.7591  1.7265
 2001SOL    HW217466   2.642   1.963  10.051 -1.7877 -0.7718  0.5681
 2002SOL     OW17467   0.927   4.695   4.270 -0.4436  0.2314 -0.1951
 2002SOL    HW117468   1.000   0.033   4.287 -0.5584  0.8925 -1.9565
 2002SOL    HW217469   0.976   4.616   4.292 -0.1369  0.1740 -1.0752
 2003SOL     OW17470   4.325   0.335  15.165  0.0217  0.5890 -0.1964
 2003SOL    HW117471   4.246   0.318  15.216  0.4934  2.3277  1.1021
 2003SOL    HW217472   4.388   0.378  15.222 -0.3505 -0.6840  1.1826
 2004SOL     OW17473   0.967   1.580   5.868 -0.0936 -0.4778  0.1434
 2004SOL    HW117474   0.897   1.589   5.803 -0.7335  0.4976  0.9796
 2004SOL    HW217475   0.985   1.486   5.859 -0.7183 -0.6734  0.9560
 2005SOL     OW17476   1.189   4.688  13.578  0.2219 -0.0533  0.2673
 2005SOL    HW117477   1.233   0.042  13.542 -2.4121  0.2386 -2.3120
 2005SOL    HW217478   1.117   4.673  13.516  0.3971 -1.0183  0.2858
 2006SOL     OW17479   2.268   1.160   9.774  0.5577 -0.0874 -0.3420
 2006SOL    HW117480   2.332   1.197   9.835  2.2897 -0.9561 -1.6352
 2006SOL    HW217481   2.201   1.124   9.831 -0.5600  0.5972 -1.2344
 2007SOL     OW17482   2.564   2.300  11.099  0.4548  0.4111 -0.1547
 2007SOL    HW117483   2.488   2.248  11.073  0.3107  0.3660  0.3714
 2007SOL    HW217484   2.516   2.354  11.162  0.1216 -2.3757  1.9832
 2008SOL     OW17485   2.794   3.843   6.850  0.3038  0.0698 -0.5692
 2008SOL    HW117486   2.738   3.915   6.824  0.6200  0.7767  0.7020
 2008SOL    HW217487   2.876   3.876   6.814  0.7837 -2.2752 -1.6540
 2009SOL     OW17488   4.274   2.803   2.783 -0.0815  0.1757 -0.0360
 2009SOL    HW117489   4.366   2.820   2.764 -0.1498  0.1406 -0.3918
 2009SOL    HW217490   4.288   2.714   2.815 -0.8869 -0.3647 -1.1617
 2010SOL     OW17491   0.499   0.252   0.268 -0.1964  0.3830  0.6045
 2010SOL    HW117492   0.469   0.163   0.286  0.1354  0.3530  1.0228
 2010SOL    HW217493   0.482   0.257   0.174  0.9572  2.3077  0.4957
 2011SOL     OW17494   1.466   2.406  15.877  0.5205  0.0915 -0.3169
 2011SOL    HW117495   1.482   2.400  15.971 -0.3692  0.7057 -0.1202
 2011SOL    HW217496   1.424   2.320  15.877 -0.3210  0.4971 -0.1636
 2012SOL     OW17497   2.147   1.108  12.926  0.3021 -0.2484  0.0313
 2012SOL    HW117498   2.198   1.053  12.985 -1.3785  0.6501  2.3468
 2012SOL    HW217499   2.111   1.167  12.992  1.1354  1.3597 -0.9640
 2013SOL     OW17500   0.593   3.519   6.167 -0.2463  0.9557  0.3687
 2013SOL    HW117501   0.606   3.598   6.114 -1.2926  0.4232 -0.6883
 2013SOL    HW217502   0.549   3.461   6.104  1.2938 -1.9095  1.9160
 2014SOL     OW17503   0.305   3.261  11.248  0.0328  0.5705 -0.3645
 2014SOL    HW117504   0.400   3.256  11.250 -0.0172 -0.2131  0.1589
 2014SOL    HW217505   0.283   3.170  11.225  0.4556  0.0189  1.4375
 2015SOL     OW17506   1.163   0.795   0.201 -0.0606  0.8932  0.3672
 2015SOL    HW117507   1.127   0.709   0.225 -2.0174  1.0907 -1.8973
 2015SOL    HW217508   1.171   0.781   0.107 -0.4031  0.5808  0.3826
 2016SOL     OW17509   0.239   3.849   8.440 -1.0433 -0.4810 -0.8749
 2016SOL    HW117510   0.177   3.855   8.513 -1.1237  0.1985 -0.9998
 2016SOL    HW217511   0.312   3.908   8.456 -0.8585 -0.6999 -0.9141
 2017SOL     OW17512   2.628   4.310   1.821  0.4155 -0.2805 -0.0870
 2017SOL    HW117513   2.573   4.267   1.887  2.7577 -3.5281 -0.2546
 2017SOL    HW217514   2.568   4.377   1.789 -0.4329 -1.8335 -1.7328
 2018SOL     OW17515   3.620   3.747   0.031  0.1181  0.0109 -0.3818
 2018SOL    HW117516   3.598   3.790   0.113  2.9610  2.4564 -0.8843
 2018SOL    HW217517   3.545   3.688   0.034  0.2852 -0.1876 -0.0592
 2019SOL     OW17518   3.906   1.301   1.400 -0.7500 -0.5675 -0.2819
 2019SOL    HW117519   3.953   1.261   1.327 -0.7539 -0.8324 -0.1416
 2019SOL    HW217520   3.892   1.393   1.378 -1.8228 -0.5643  0.4041
 2020SOL     OW17521   0.641   0.060   8.297 -0.1619  0.5304 -0.4254
 2020SOL    HW117522   0.571   0.021   8.350 -1.7423  3.5833 -0.2802
 2020SOL    HW217523   0.717   0.038   8.350 -2.3681 -1.6907  1.8894
 2021SOL     OW17524   2.349   1.256   2.056  0.6642 -0.4620 -0.4004
 2021SOL    HW117525   2.376   1.234   1.967  0.7613 -1.3560 -0.1449
 2021SOL    HW217526   2.369   1.174   2.102  1.2797 -0.1175 -0.0524
 2022SOL     OW17527   0.769   2.310   7.038 -0.2423 -0.5765 -0.2535
 2022SOL    HW117528   0.707   2.304   6.964  2.5798 -0.1655 -2.6560
 2022SOL    HW217529   0.852   2.274   7.007 -0.1431  1.2328 -2.0979
 2023SOL     OW17530   2.833   3.497  13.532  0.2052 -0.1042  0.5358
 2023SOL    HW117531   2.833   3.450  13.449 -0.7958 -0.3656  0.6860
 2023SOL    HW217532   2.895   3.436  13.573 -0.3618 -1.2635 -0.3391
 2024SOL     OW17533   0.489   2.587   3.070 -0.1716 -0.4486 -0.7129
 2024SOL    HW117534   0.426   2.644   3.112 -3.9004 -3.7779 -1.8293
 2024SOL    HW217535   0.564   2.616   3.122 -0.3410  0.9969 -1.2737
 2025SOL     OW17536   3.384   1.426   2.681  0.1648  0.3762 -0.0806
 2025SOL    HW117537   3.393   1.483   2.757  1.4738  1.7601 -1.2753
 2025SOL    HW217538   3.360   1.498   2.623 -3.0007 -0.3544  0.3731
 2026SOL     OW17539   4.256   2.912   5.920  0.6627  0.3158 -0.2799
 2026SOL    HW117540   4.344   2.933   5.889  0.3207  1.1882 -0.6753
 2026SOL    HW217541   4.234   2.839   5.862 -0.7563  0.5591 -0.0522
 2027SOL     OW17542   3.346   4.176   8.356  0.0872 -0.2952 -0.2690
 2027SOL    HW117543   3.264   4.181   8.406  0.0006 -0.0193 -0.4333
 2027SOL    HW217544   3.350   4.085   8.326 -0.5508 -0.4358  0.0655
 2028SOL     OW17545   3.087   1.283   2.840 -0.1642  0.4169 -0.3017
 2028SOL    HW117546   3.030   1.236   2.901 -1.5139  1.5167 -0.7124
 2028SOL    HW217547   3.120   1.210   2.788 -1.1204  0.6867 -1.2962
 2029SOL     OW17548   0.803   3.144   2.593 -0.3231  0.0363 -0.1802
 2029SOL    HW117549   0.796   3.058   2.552 -0.5107  0.1733 -0.4348
 2029SOL    HW217550   0.729   3.191   2.555 -1.6448 -2.3301 -0.5109
 2030SOL     OW17551   1.752   1.182   1.200  0.0618  0.4496  0.1428
 2030SOL    HW117552   1.662   1.169   1.230  0.0167 -2.6560 -1.4413
 2030SOL    HW217553   1.786   1.099   1.233  1.5009 -0.1006 -2.7481
 2031SOL     OW17554   3.195   1.582   3.636 -0.0369  0.3532 -0.1004
 2031SOL    HW117555   3.207   1.619   3.549  0.2235 -0.1676 -0.2839
 2031SOL    HW217556   3.273   1.531   3.658 -1.0304 -1.0865  0.0831
 2032SOL     OW17557   3.473   0.678  14.970  0.0825  0.3718 -0.0565
 2032SOL    HW117558   3.396   0.631  14.937 -0.3460  1.2068 -0.2617
 2032SOL    HW217559   3.461   0.662  15.063 -1.0789 -0.4654 -0.3579
 2033SOL     OW17560   3.531   1.633   0.743 -0.4053  0.5728 -0.0531
 2033SOL    HW117561   3.617   1.632   0.700  0.3507 -1.2155  1.5028
 2033SOL    HW217562   3.480   1.667   0.669  0.8915 -2.1612 -2.1961
 2034SOL     OW17563   2.459   1.677   0.872 -0.2507 -0.0557 -0.1788
 2034SOL    HW117564   2.522   1.684   0.800  0.7104 -1.0957  0.5595
 2034SOL    HW217565   2.387   1.720   0.826 -0.0723 -1.7414 -2.0066
 2035SOL     OW17566   4.678   3.664   6.382 -0.0436  0.1832  0.2433
 2035SOL    HW117567   4.676   3.675   6.286  2.4914 -1.2120  0.0328
 2035SOL    HW217568   0.005   3.743   6.406 -2.1149  1.1223  1.4004
 2036SOL     OW17569   1.709   2.846   0.948  0.1417 -0.5058  0.8794
 2036SOL    HW117570   1.649   2.797   0.892 -0.1994  0.5488  0.3232
 2036SOL    HW217571   1.789   2.802   0.917 -0.1711 -0.1702 -0.4003
 2037SOL     OW17572   3.531   2.234   2.286  0.1032 -0.2861  0.1533
 2037SOL    HW117573   3.570   2.166   2.231 -1.0936 -1.2293  0.4639
 2037SOL    HW217574   3.599   2.264   2.347 -0.3211  2.6467 -0.8452
 2038SOL     OW17575   3.897   3.230   1.025 -0.5223  0.2692 -0.1109
 2038SOL    HW117576   3.937   3.296   1.082 -0.2051 -1.0066  1.1318
 2038SOL    HW217577   3.897   3.273   0.940  0.2787  1.7041  0.6150
 2039SOL     OW17578   2.364   3.213   6.090 -0.1304 -0.1166 -0.9130
 2039SOL    HW117579   2.296   3.163   6.046 -0.5840  0.3443 -0.7322
 2039SOL    HW217580   2.400   3.264   6.018  0.3562  2.2363  1.0199
 2040SOL     OW17581   2.507   0.912   5.089 -0.2059  0.3506  0.0657
 2040SOL    HW117582   2.584   0.859   5.067 -0.4536 -0.8271  2.0253
 2040SOL    HW217583   2.495   0.874   5.176 -4.0623  0.4645 -0.4212
 2041SOL     OW17584   3.596   1.723  10.959  0.3156 -0.1577  0.2867
 2041SOL    HW117585   3.513   1.710  11.005  0.1575 -1.6233 -0.3846
 2041SOL    HW217586   3.563   1.741  10.871 -0.2218 -0.1736  0.4870
 2042SOL     OW17587   1.979   3.670   4.848  0.5600 -0.1772  0.4540
 2042SOL    HW117588   2.001   3.605   4.916  0.0318 -2.7997 -1.8892
 2042SOL    HW217589   1.975   3.752   4.898  2.2892 -0.2554  0.7423
 2043SOL     OW17590   3.964   1.314   5.285 -0.3985 -0.1417  0.6193
 2043SOL    HW117591   4.040   1.309   5.343  0.1966 -1.9355 -0.3042
 2043SOL    HW217592   3.951   1.408   5.292 -0.1748 -0.1351  0.9707
 2044SOL     OW17593   3.628   2.838   9.236 -0.7536  0.2168 -0.3604
 2044SOL    HW117594   3.574   2.846   9.158 -0.1415 -0.9609 -0.8907
 2044SOL    HW217595   3.569   2.882   9.298 -1.5687 -0.2089 -0.8369
 2045SOL     OW17596   0.978   0.760   5.693  0.9552 -0.2428 -0.1129
 2045SOL    HW117597   1.060   0.790   5.654  1.0890  1.2709  1.3200
 2045SOL    HW217598   0.909   0.802   5.641  1.7450 -1.2358 -1.9623
 2046SOL     OW17599   2.270   0.397   5.701  0.0288 -0.0075  0.1124
 2046SOL    HW117600   2.231   0.310   5.696 -1.1468  0.4961  0.7093
 2046SOL    HW217601   2.359   0.374   5.672 -0.2040 -2.5887  1.5049
 2047SOL     OW17602   1.089   0.575   7.370 -0.4877 -0.3288 -0.1682
 2047SOL    HW117603   1.101   0.617   7.455 -0.8782  1.4926 -1.0227
 2047SOL    HW217604   1.037   0.647   7.335 -1.0575 -0.6359  0.0515
 2048SOL     OW17605   1.049   3.634   6.172  0.3909  0.2554 -0.1999
 2048SOL    HW117606   1.141   3.637   6.197  1.2905 -2.0657 -3.1698
 2048SOL    HW217607   1.006   3.674   6.247 -1.5220  0.0184 -1.1590
 2049SOL     OW17608   3.083   1.751   6.211 -0.4609 -0.2971  0.4221
 2049SOL    HW117609   3.081   1.671   6.159 -0.9501  1.3634 -2.1418
 2049SOL    HW217610   3.043   1.721   6.293  0.0502  0.4737  0.9479
 2050SOL     OW17611   0.414   0.675   4.943 -0.7376  0.0298  0.3651
 2050SOL    HW117612   0.418   0.692   5.037  0.4844  1.0727  0.1281
 2050SOL    HW217613   0.374   0.752   4.903  2.1536  2.0349  1.3642
 2051SOL     OW17614   0.505   4.292   9.038  0.0229  0.6451  0.0559
 2051SOL    HW117615   0.456   4.210   9.047  1.8465 -0.2625  1.8008
 2051SOL    HW217616   0.595   4.262   9.055  0.8059  2.5547 -0.8052
 2052SOL     OW17617   3.338   4.338  12.266  0.3407  0.3212  0.5611
 2052SOL    HW117618   3.267   4.392  12.231 -0.3968 -0.9306  0.1154
 2052SOL    HW217619   3.377   4.313  12.182  0.2375  0.2634  0.5295
 2053SOL     OW17620   1.524   3.985   2.537 -0.0881  0.3119 -0.4707
 2053SOL    HW117621   1.542   3.964   2.445  0.8139 -0.5956 -0.0966
 2053SOL    HW217622   1.504   3.894   2.560 -0.5206  0.4970 -0.1091
 2054SOL     OW17623   4.470   3.871   4.724 -0.2196 -0.9195  0.6500
 2054SOL    HW117624   4.548   3.911   4.688 -1.0769  0.1189 -0.0561
 2054SOL    HW217625   4.461   3.926   4.802  2.7810  1.0443 -0.4087
 2055SOL     OW17626   4.481   1.977  17.183 -0.0036 -0.5578 -0.9608
 2055SOL    HW117627   4.531   2.027  17.119  2.2683 -0.5293  0.8153
 2055SOL    HW217628   4.545   1.925  17.232 -0.1907  1.2510  1.2433
 2056SOL     OW17629   2.035   4.325  13.339 -0.1149  0.4040  0.0135
 2056SOL    HW117630   1.962   4.291  13.391 -1.5932  2.0795 -0.9617
 2056SOL    HW217631   1.995   4.332  13.253 -0.1045 -1.8154 -0.1588
 2057SOL     OW17632   3.096   1.153   3.266 -0.2223  0.2956 -0.3963
 2057SOL    HW117633   3.042   1.118   3.196 -0.1796 -0.0266 -0.2689
 2057SOL    HW217634   3.169   1.095   3.246  1.2274  1.5291  1.2281
 2058SOL     OW17635   3.469   2.037   5.064 -0.1661  0.1502  0.4190
 2058SOL    HW117636   3.539   2.079   5.114  0.0510  0.2346  0.0440
 2058SOL    HW217637   3.526   2.016   4.991 -2.1389  1.0299 -1.3624
 2059SOL     OW17638   0.498   3.522   2.450 -0.1575 -0.5768  0.3886
 2059SOL    HW117639   0.426   3.544   2.392 -0.6561  1.5738  1.8315
 2059SOL    HW217640   0.560   3.516   2.377 -1.4686  2.6150 -0.9885
 2060SOL     OW17641   1.685   3.819   4.525  0.5895  0.1902  0.0980
 2060SOL    HW117642   1.638   3.873   4.462 -4.7019 -1.6818  2.4783
 2060SOL    HW217643   1.689   3.741   4.470  2.7554  0.8696 -0.7220
 2061SOL     OW17644   1.465   1.667  14.951  0.3347  0.7085  0.0133
 2061SOL    HW117645   1.558   1.646  14.962 -0.2905 -1.9885  0.0598
 2061SOL    HW217646   1.430   1.578  14.955 -1.7356  1.5796  1.0899
 2062SOL     OW17647   2.585   1.674   6.194  0.2457  0.1944 -0.3570
 2062SOL    HW117648   2.637   1.754   6.195  1.1501 -0.4218  1.3073
 2062SOL    HW217649   2.658   1.618   6.169  0.5599 -0.4378  1.9519
 2063SOL     OW17650   1.991   1.467   3.581  0.2287 -0.2282  0.6171
 2063SOL    HW117651   1.930   1.539   3.565  0.3599 -0.3086 -0.2560
 2063SOL    HW217652   1.992   1.435   3.491  0.3575 -1.7482  1.1438
 2064SOL     OW17653   3.344   2.010   3.224  0.0249  0.6014 -0.5587
 2064SOL    HW117654   3.398   1.968   3.157 -0.3089  2.5915 -2.0928
 2064SOL    HW217655   3.258   1.974   3.205  0.8437 -2.1317  0.9069
 2065SOL     OW17656   3.969   3.816   4.527  0.3081  0.2769  0.3051
 2065SOL    HW117657   3.986   3.846   4.617  0.9780 -1.7916  0.8713
 2065SOL    HW217658   4.016   3.732   4.522 -2.2430 -1.0697 -0.9023
 2066SOL     OW17659   0.467   0.518   1.359  0.0703 -0.5340 -0.6169
 2066SOL    HW117660   0.409   0.567   1.301 -0.2987 -1.6294 -1.1690
 2066SOL    HW217661   0.510   0.591   1.404  1.0456 -2.3816  1.4924
 2067SOL     OW17662   3.290   4.048   8.048 -0.5258  0.3633  0.0279
 2067SOL    HW117663   3.304   4.106   7.973 -0.6620  0.7819  0.3325
 2067SOL    HW217664   3.359   4.079   8.107 -0.3304 -2.8857  1.5052
 2068SOL     OW17665   1.777   3.050  14.673 -0.2020  0.2308 -0.3538
 2068SOL    HW117666   1.732   3.116  14.620 -0.0645  1.9790  1.6947
 2068SOL    HW217667   1.708   2.992  14.704 -1.0765  1.3179 -0.2829
 2069SOL     OW17668   1.659   1.021   5.079  0.0101 -0.6418  0.1938
 2069SOL    HW117669   1.678   0.946   5.022  0.1544  0.9451 -1.8259
 2069SOL    HW217670   1.657   1.090   5.013  1.2281  0.7120  1.5768
 2070SOL     OW17671   4.301   4.705  16.729  0.0241  0.3096 -0.2076
 2070SOL    HW117672   4.389   4.674  16.711 -0.0388 -1.4760  2.6016
 2070SOL    HW217673   4.313   0.078  16.736 -0.7630  0.5363 -1.9904
 2071SOL     OW17674   3.934   1.653   3.465  0.0919  0.2970 -0.1156
 2071SOL    HW117675   3.967   1.595   3.397 -0.5915 -1.5225  1.1143
 2071SOL    HW217676   4.017   1.666   3.509  1.0371 -1.9065 -1.2475
 2072SOL     OW17677   1.276   0.963   3.197 -0.1149 -0.5210  0.1089
 2072SOL    HW117678   1.353   0.918   3.163 -0.0653 -0.5601  0.2749
 2072SOL    HW217679   1.317   1.022   3.261 -1.7865  1.0879 -0.3037
 2073SOL     OW17680   4.577   3.032   7.461  0.1746 -0.4395 -0.0542
 2073SOL    HW117681   4.493   3.039   7.508 -0.0168 -1.0000 -0.3121
 2073SOL    HW217682   4.559   3.099   7.395  0.6052 -1.4122 -1.1635
 2074SOL     OW17683   4.342   0.374   3.154 -0.1739  0.0624 -0.2755
 2074SOL    HW117684   4.254   0.356   3.188  0.7802 -1.2783  1.4422
 2074SOL    HW217685   4.319   0.413   3.069  1.7008  1.9671  0.0908
 2075SOL     OW17686   3.724   4.091   9.017 -0.3426 -0.1222 -0.3702
 2075SOL    HW117687   3.684   4.075   8.931  0.5177  0.8562 -0.9452
 2075SOL    HW217688   3.789   4.021   9.011 -3.0330 -2.6846  0.4350
 2076SOL     OW17689   2.603   0.822   0.399 -0.3906 -0.5798 -0.1698
 2076SOL    HW117690   2.617   0.889   0.333  2.5341 -0.2322  0.8040
 2076SOL    HW217691   2.516   0.852   0.427  1.1045  4.5744 -0.9698
 2077SOL     OW17692   0.598   2.183   1.693  0.5086 -0.0518 -0.1374
 2077SOL    HW117693   0.579   2.269   1.655  0.4819 -0.8142 -1.8664
 2077SOL    HW217694   0.518   2.163   1.742 -1.0812  2.1368 -1.8189
 2078SOL     OW17695   0.709   1.609  13.101 -0.5394  0.0984 -0.4180
 2078SOL    HW117696   0.681   1.601  13.192 -2.1527 -1.5068 -1.0501
 2078SOL    HW217697   0.736   1.701  13.109  2.4372 -0.9576  1.6748
 2079SOL     OW17698   2.254   3.470   4.194  0.1534 -0.4704  0.3150
 2079SOL    HW117699   2.236   3.513   4.110 -0.3049 -1.3661 -0.0417
 2079SOL    HW217700   2.348   3.490   4.200 -0.0308  0.6216 -0.4041
 2080SOL     OW17701   0.793   4.592  13.573  0.3468  0.0736  0.1885
 2080SOL    HW117702   0.861   4.635  13.521  0.4652  0.4366  0.6417
 2080SOL    HW217703   0.713   4.640  13.552 -0.2322 -0.5879  0.8671
 2081SOL     OW17704   1.961   2.041   4.462  0.0094 -0.5390  0.3369
 2081SOL    HW117705   1.925   2.125   4.488 -1.8045 -1.2797  0.1948
 2081SOL    HW217706   2.049   2.039   4.501  1.0313  0.2869 -1.9348
 2082SOL     OW17707   1.493   1.534   8.414  0.0691 -0.0649  0.2882
 2082SOL    HW117708   1.505   1.574   8.327 -0.5948 -3.2268 -1.2626
 2082SOL    HW217709   1.572   1.480   8.418  1.6510  2.2273  0.3913
 2083SOL     OW17710   2.782   2.811   8.260 -0.4230 -0.2856 -0.5746
 2083SOL    HW117711   2.865   2.820   8.307 -1.2961 -1.7513  1.2513
 2083SOL    HW217712   2.726   2.773   8.327 -1.0509  0.8041 -0.4807
 2084SOL     OW17713   3.904   2.018   8.843 -0.1878  0.0478 -0.2854
 2084SOL    HW117714   3.902   2.085   8.774 -1.6785  1.6285  1.3218
 2084SOL    HW217715   3.918   2.074   8.919  1.3741  0.7792 -1.0961
 2085SOL     OW17716   3.794   3.381   3.796  0.5375 -0.3636 -0.2346
 2085SOL    HW117717   3.729   3.325   3.838  2.8018 -1.2446  2.0235
 2085SOL    HW217718   3.826   3.317   3.733  1.7192  0.8234 -0.8474
 2086SOL     OW17719   2.770   4.435  17.180  0.1105  0.4534  0.1476
 2086SOL    HW117720   2.779   4.455  17.273  0.2185 -0.0149  0.2409
 2086SOL    HW217721   2.763   4.339  17.183  1.5545  0.2786 -1.8326
 2087SOL     OW17722   4.062   1.442   7.419  0.0079 -0.3578 -0.6408
 2087SOL    HW117723   4.027   1.523   7.456 -0.0961  0.9946 -3.7240
 2087SOL    HW217724   3.981   1.393   7.403  0.0782 -0.2527 -1.3055
 2088SOL     OW17725   3.600   3.366   7.686  0.3574 -0.3615  0.7693
 2088SOL    HW117726   3.641   3.346   7.770  1.3281  1.5601  0.7448
 2088SOL    HW217727   3.552   3.283   7.682  0.1521 -0.2104  0.0972
 2089SOL     OW17728   2.930   0.564  14.359  0.8584 -0.2253  0.1456
 2089SOL    HW117729   2.945   0.656  14.339 -0.1534 -0.5809 -2.2743
 2089SOL    HW217730   2.924   0.565  14.454  0.2668 -0.2123  0.1074
 2090SOL     OW17731   1.685   0.666   5.867 -0.0233 -0.3512  0.0830
 2090SOL    HW117732   1.752   0.730   5.892  0.6577 -0.9106 -0.3115
 2090SOL    HW217733   1.646   0.704   5.789 -1.6600 -1.3790  0.3955
 2091SOL     OW17734   3.910   2.545   8.761 -0.0260 -0.0338 -0.0273
 2091SOL    HW117735   3.909   2.562   8.667  0.1769  2.2496  0.3995
 2091SOL    HW217736   3.998   2.508   8.770  0.9029  2.0426 -0.7450
 2092SOL     OW17737   4.115   0.617   6.064  0.1972 -0.1337 -0.0229
 2092SOL    HW117738   4.069   0.583   6.141  0.9885  1.2463  1.0565
 2092SOL    HW217739   4.066   0.697   6.047 -0.1793 -0.1004  1.2102
 2093SOL     OW17740   3.198   2.692  13.187  0.8012 -0.4468  0.1341
 2093SOL    HW117741   3.280   2.650  13.163  1.6476  0.6000  1.1975
 2093SOL    HW217742   3.151   2.687  13.103  2.3966 -1.0680 -0.7268
 2094SOL     OW17743   0.860   4.257   1.523 -0.0037  0.1990  0.2026
 2094SOL    HW117744   0.799   4.317   1.480  1.0235  1.4082  0.4326
 2094SOL    HW217745   0.830   4.175   1.483  0.3595  0.8998 -1.5166
 2095SOL     OW17746   2.489   4.322   2.410 -0.1246 -0.9568  0.0575
 2095SOL    HW117747   2.523   4.395   2.358  1.2025 -0.3432  1.7934
 2095SOL    HW217748   2.400   4.312   2.375 -0.5082  1.9456  0.2264
 2096SOL     OW17749   0.996   0.853   6.656  0.3471 -0.0404  0.0378
 2096SOL    HW117750   1.080   0.846   6.611  0.4639 -0.0573  0.2625
 2096SOL    HW217751   1.021   0.860   6.748  1.6394 -3.1739 -0.0580
 2097SOL     OW17752   0.564   1.079   5.438  0.2083  0.5480 -0.0624
 2097SOL    HW117753   0.572   1.058   5.345  0.6626  2.8935 -0.5360
 2097SOL    HW217754   0.471   1.063   5.458 -0.4203  0.4912 -3.1239
 2098SOL     OW17755   2.216   4.604   6.166 -0.0347 -0.3869  0.2150
 2098SOL    HW117756   2.294   4.561   6.199 -1.1022  0.5934  3.9420
 2098SOL    HW217757   2.172   4.624   6.248 -0.8899  0.6826 -0.5054
 2099SOL     OW17758   0.747   1.820   6.507 -0.0816  0.4946  0.5771
 2099SOL    HW117759   0.715   1.805   6.596  0.6222  5.2557  1.6824
 2099SOL    HW217760   0.841   1.805   6.523  0.2091  3.0880  1.3342
 2100SOL     OW17761   3.304   4.471  13.332 -0.2476 -0.5350  0.4431
 2100SOL    HW117762   3.233   4.407  13.329  0.6991 -1.5031 -1.1794
 2100SOL    HW217763   3.339   4.465  13.243 -2.3998  2.7231 -0.6129
 2101SOL     OW17764   1.934   4.074   6.254 -0.0581 -0.2587 -0.0035
 2101SOL    HW117765   1.966   4.158   6.224  0.7442  0.2607  2.2616
 2101SOL    HW217766   2.010   4.037   6.299  0.5587  2.4132  1.1507
 2102SOL     OW17767   2.994   1.539   5.546 -0.1723 -0.4537 -0.7001
 2102SOL    HW117768   2.929   1.583   5.492  2.0284  3.3366 -0.2481
 2102SOL    HW217769   2.960   1.557   5.634  1.9038  3.0395 -0.6392
 2103SOL     OW17770   0.171   2.671   4.911 -0.0081  0.3847  0.5988
 2103SOL    HW117771   0.146   2.763   4.905  2.5138  0.8936 -1.9306
 2103SOL    HW217772   0.165   2.650   4.818 -0.0852  0.8105  0.5073
 2104SOL     OW17773   0.773   2.251  12.136  0.1764  0.4527 -0.4405
 2104SOL    HW117774   0.684   2.216  12.140  0.9937 -1.6669 -1.3092
 2104SOL    HW217775   0.825   2.195  12.079 -0.8060 -0.3599 -0.5252
 2105SOL     OW17776   1.950   2.565   0.230 -0.0507  0.2270  0.1059
 2105SOL    HW117777   1.875   2.533   0.181  0.7056  0.2589 -1.0726
 2105SOL    HW217778   1.979   2.624   0.160  2.2684  0.6069  1.3762
 2106SOL     OW17779   2.284   0.548   3.966 -0.0394  0.7710  0.7932
 2106SOL    HW117780   2.202   0.595   3.977  0.0426  0.7221  1.6201
 2106SOL    HW217781   2.288   0.519   3.875  0.5809 -0.9635  1.3733
 2107SOL     OW17782   4.292   0.751  15.937  0.4477 -0.1969  0.4356
 2107SOL    HW117783   4.272   0.806  15.861  1.5709  0.1135  0.3774
 2107SOL    HW217784   4.330   0.817  15.994 -1.4130  0.2359  1.2035
 2108SOL     OW17785   2.096   0.432   9.475 -0.4622  0.7798  0.3694
 2108SOL    HW117786   2.148   0.381   9.536  1.2774  0.5920 -1.2798
 2108SOL    HW217787   2.124   0.523   9.488 -0.3689  0.4036  2.8618
 2109SOL     OW17788   0.086   1.850   1.427  0.0795 -0.1396  0.0343
 2109SOL    HW117789   0.083   1.755   1.437  1.9636 -0.2710 -0.5298
 2109SOL    HW217790   0.168   1.857   1.377 -1.1846 -0.0737 -2.0262
 2110SOL     OW17791   4.125   4.346   0.710  0.2372 -0.3846  0.4808
 2110SOL    HW117792   4.105   4.380   0.623 -2.5329 -2.6992  0.2055
 2110SOL    HW217793   4.221   4.343   0.706  0.3158  2.7501  0.3333
 2111SOL     OW17794   0.251   2.555   4.576  0.5276  0.3552 -0.0299
 2111SOL    HW117795   0.155   2.554   4.574  0.5065  0.0110  0.8154
 2111SOL    HW217796   0.257   2.512   4.491 -0.0417 -0.1819  0.1982
 2112SOL     OW17797   2.469   0.380   6.231  0.2717  0.4945  0.5075
 2112SOL    HW117798   2.549   0.359   6.182  0.5473  0.3802  1.0083
 2112SOL    HW217799   2.411   0.308   6.206  1.8278  0.0064 -1.7177
 2113SOL     OW17800   3.359   4.627   2.658  0.0933  0.3346  0.5888
 2113SOL    HW117801   3.426   4.681   2.614 -1.3967  1.7795  0.1062
 2113SOL    HW217802   3.309   4.591   2.585  1.6342 -1.5088  0.4256
 2114SOL     OW17803   1.961   4.204   4.556  0.2928  0.3120 -0.7084
 2114SOL    HW117804   1.960   4.108   4.560  0.5094  0.3039 -0.8660
 2114SOL    HW217805   1.993   4.220   4.468 -0.1911  2.5162 -0.4821
 2115SOL     OW17806   3.398   2.454   8.726 -0.6292 -0.5678  0.4282
 2115SOL    HW117807   3.346   2.393   8.674  0.2983  1.0580 -2.4106
 2115SOL    HW217808   3.480   2.437   8.680 -0.3251  1.2290  0.3010
 2116SOL     OW17809   3.181   1.435  10.015 -0.5307 -0.1708  0.2859
 2116SOL    HW117810   3.153   1.515  10.060  1.0707 -1.2381  3.2350
 2116SOL    HW217811   3.270   1.453   9.985 -0.3805  0.0150  0.8418
 2117SOL     OW17812   2.216   2.326   9.473 -0.3798  0.3089 -0.2634
 2117SOL    HW117813   2.202   2.280   9.556  1.5213  1.2662  0.6028
 2117SOL    HW217814   2.235   2.264   9.403 -1.5599  0.8790 -1.0809
 2118SOL     OW17815   0.251   2.904   7.929 -0.5295 -0.0970  0.4590
 2118SOL    HW117816   0.200   2.974   7.887  0.3116  0.0673 -0.2891
 2118SOL    HW217817   0.271   2.945   8.013  0.7135 -0.0532  0.1413
 2119SOL     OW17818   3.807   0.926   1.900 -0.2445 -0.3762  0.2157
 2119SOL    HW117819   3.737   0.937   1.835 -0.5032  1.0092  0.7341
 2119SOL    HW217820   3.758   0.943   1.980  0.8975  0.8584  0.6526
 2120SOL     OW17821   2.034   3.270   7.729 -0.3003  0.4213 -0.6192
 2120SOL    HW117822   2.095   3.234   7.794 -0.7889  1.8267  0.6018
 2120SOL    HW217823   1.971   3.314   7.785  2.1173  0.8559  1.7424
 2121SOL     OW17824   3.696   2.843   4.203 -0.3748 -0.1176  0.2275
 2121SOL    HW117825   3.722   2.761   4.160 -0.9795  0.5534 -1.4138
 2121SOL    HW217826   3.600   2.842   4.197 -0.4696  0.0633  1.6987
 2122SOL     OW17827   4.538   3.002   1.129 -0.6351 -0.0457  0.3215
 2122SOL    HW117828   4.463   2.962   1.085 -0.6757  1.1239 -0.6695
 2122SOL    HW217829   4.586   2.919   1.127 -1.8058 -0.7452  1.1714
 2123SOL     OW17830   2.474   0.643   1.877  0.5217 -0.0974 -0.0536
 2123SOL    HW117831   2.449   0.593   1.800 -1.8214  0.2475  0.4799
 2123SOL    HW217832   2.393   0.689   1.898  2.1713  1.6187  2.6771
 2124SOL     OW17833   4.322   4.474   7.115 -0.0331 -0.1313  0.0923
 2124SOL    HW117834   4.393   4.418   7.084  1.1368 -0.1195  2.7473
 2124SOL    HW217835   4.369   4.556   7.132  1.2821 -1.2126  1.6253
 2125SOL     OW17836   4.507   4.130  16.309  0.3572  0.3446  0.0528
 2125SOL    HW117837   4.561   4.209  16.316 -0.8363  1.1268  0.2488
 2125SOL    HW217838   4.539   4.085  16.387  0.8344  1.5769  0.5604
 2126SOL     OW17839   0.610   3.355  11.897  1.0972 -0.0917  0.3945
 2126SOL    HW117840   0.519   3.376  11.918  0.2428  0.2205 -3.6026
 2126SOL    HW217841   0.640   3.382  11.983  2.1483  0.1958 -0.0662
 2127SOL     OW17842   4.215   0.862   8.772  0.3897  0.1237 -0.0609
 2127SOL    HW117843   4.173   0.940   8.733  0.8336  0.1052 -0.5727
 2127SOL    HW217844   4.161   0.854   8.850  0.0883  1.3485 -0.1386
 2128SOL     OW17845   1.438   1.010  15.932 -0.0583 -0.2390 -0.4917
 2128SOL    HW117846   1.453   1.095  15.972 -1.4998  0.4435 -1.3987
 2128SOL    HW217847   1.524   0.987  15.897 -0.2145 -0.4700 -0.7327
 2129SOL     OW17848   4.492   4.121   2.131  0.1702 -0.1878 -0.0779
 2129SOL    HW117849   4.578   4.081   2.122 -0.1484 -0.7930 -0.3959
 2129SOL    HW217850   4.445   4.039   2.141 -2.9410  1.9558  3.0519
 2130SOL     OW17851   3.786   3.958   3.103  0.4511 -0.6372 -0.0624
 2130SOL    HW117852   3.858   3.941   3.164 -0.3261  2.1869  1.6332
 2130SOL    HW217853   3.735   4.024   3.150  0.2095 -0.0512 -1.1749
 2131SOL     OW17854   2.973   4.374   8.051  0.6394 -0.0207 -0.0482
 2131SOL    HW117855   3.003   4.417   8.131 -0.6099  0.1419  0.3360
 2131SOL    HW217856   3.041   4.405   7.991 -1.7587  1.7343 -1.8809
 2132SOL     OW17857   3.821   3.621   5.386 -0.1214  0.4911 -0.0160
 2132SOL    HW117858   3.764   3.553   5.423  0.3134  0.0116 -0.2294
 2132SOL    HW217859   3.785   3.698   5.431  0.8916  1.8010 -1.5014
 2133SOL     OW17860   4.299   1.978   8.579  0.3511 -0.4073 -0.4983
 2133SOL    HW117861   4.348   1.987   8.497 -1.5070 -1.8947 -1.7701
 2133SOL    HW217862   4.270   1.887   8.577 -0.2920 -0.1920 -0.6838
 2134SOL     OW17863   1.904   1.053  14.357  0.2757  0.1165 -0.4941
 2134SOL    HW117864   1.985   1.003  14.345  1.8304  1.7953  3.0425
 2134SOL    HW217865   1.849   0.983  14.390  0.2138  0.2502 -0.3146
 2135SOL     OW17866   1.112   4.216  10.213  0.1079 -0.4386  0.8217
 2135SOL    HW117867   1.151   4.228  10.300  1.9409  0.6777 -0.1357
 2135SOL    HW217868   1.029   4.172  10.230 -0.7104  0.7939  0.0516
 2136SOL     OW17869   2.928   4.503   4.135  0.5343  0.2174 -0.1156
 2136SOL    HW117870   2.860   4.449   4.096  1.3685 -1.0146  0.1346
 2136SOL    HW217871   2.865   4.566   4.170 -2.5079 -3.3636  0.9281
 2137SOL     OW17872   4.119   1.893   6.087 -0.4570 -0.1306 -0.9223
 2137SOL    HW117873   4.135   1.881   5.994 -0.8809 -0.3358 -0.9700
 2137SOL    HW217874   4.140   1.985   6.099  0.4285 -0.2812 -1.3455
 2138SOL     OW17875   1.586   3.621   2.157 -0.3920 -0.0223 -0.0977
 2138SOL    HW117876   1.551   3.541   2.118  0.4508 -1.0045  1.1726
 2138SOL    HW217877   1.612   3.673   2.082 -4.5556 -1.3556 -2.4848
 2139SOL     OW17878   1.722   1.699   4.705  0.2623  0.1650 -0.0123
 2139SOL    HW117879   1.696   1.747   4.626  0.4658  1.1107  0.4999
 2139SOL    HW217880   1.700   1.768   4.768 -0.2845  0.0629 -0.0912
 2140SOL     OW17881   1.575   0.406   5.077  0.4694 -0.0276  0.0385
 2140SOL    HW117882   1.637   0.333   5.079 -0.9541 -1.2718 -1.8986
 2140SOL    HW217883   1.553   0.400   4.984  2.4279  1.4703 -0.5394
 2141SOL     OW17884   3.770   1.330  10.256  0.5705 -0.2534 -0.4850
 2141SOL    HW117885   3.794   1.381  10.178 -1.6121  0.9734 -0.3525
 2141SOL    HW217886   3.696   1.282  10.220  0.7026 -0.5245 -0.3937
 2142SOL     OW17887   4.461   2.158  17.536 -0.2617  0.3583  0.0352
 2142SOL    HW117888   4.459   2.062  17.537  1.1789  0.2809 -2.9846
 2142SOL    HW217889   4.419   2.194  17.458  0.5306  1.9506  0.3356
 2143SOL     OW17890   2.360   2.932   7.166  0.1903 -0.2238 -0.1295
 2143SOL    HW117891   2.358   2.991   7.241 -1.1504  1.5296 -1.5541
 2143SOL    HW217892   2.367   2.853   7.220 -0.2882  0.7964  1.3953
 2144SOL     OW17893   1.834   4.322  15.309 -0.3848 -0.5065  0.0578
 2144SOL    HW117894   1.752   4.357  15.275 -0.5259 -2.4091 -1.5449
 2144SOL    HW217895   1.830   4.231  15.281  2.8388 -0.1947 -1.4985
 2145SOL     OW17896   3.033   3.181  15.127 -0.5276  0.0722 -0.3541
 2145SOL    HW117897   2.981   3.257  15.100  0.4113  0.5708 -0.7500
 2145SOL    HW217898   3.031   3.187  15.223 -2.5296 -2.5996 -0.2321
 2146SOL     OW17899   4.317   1.897   0.122 -0.0601 -0.1481 -0.2789
 2146SOL    HW117900   4.258   1.967   0.151 -0.2410 -0.6230  0.4919
 2146SOL    HW217901   4.276   1.894   0.035 -2.9887 -1.7588  1.1368
 2147SOL     OW17902   1.357   0.907   6.707 -0.1894 -0.0540 -0.1387
 2147SOL    HW117903   1.330   0.912   6.615  2.1101  2.8466 -0.6638
 2147SOL    HW217904   1.451   0.896   6.695 -0.5107 -2.1133 -0.8567
 2148SOL     OW17905   3.909   0.570   2.416  0.2064 -0.2417  0.7925
 2148SOL    HW117906   3.921   0.591   2.324 -0.4051  0.8754  0.9561
 2148SOL    HW217907   3.951   0.643   2.463  2.5161  0.0355 -1.7215
 2149SOL     OW17908   0.587   4.329   7.841 -0.5354  0.1982 -0.1662
 2149SOL    HW117909   0.579   4.234   7.841  0.9572  0.0752  0.6659
 2149SOL    HW217910   0.623   4.347   7.754 -1.7249 -1.5170 -0.9927
 2150SOL     OW17911   4.220   4.355  12.260 -0.1092  0.2354 -0.6305
 2150SOL    HW117912   4.131   4.362  12.293  0.0710 -0.9530  0.0858
 2150SOL    HW217913   4.207   4.277  12.206  2.8086 -2.1930  2.1906
 2151SOL     OW17914   3.450   2.589  13.083  0.1453  0.5053  0.3420
 2151SOL    HW117915   3.479   2.530  13.013 -3.4376  1.8554 -2.2630
 2151SOL    HW217916   3.531   2.639  13.093 -0.5578  1.7801 -0.3971
 2152SOL     OW17917   0.338   1.815   2.618  0.0075 -0.2566 -0.7482
 2152SOL    HW117918   0.248   1.822   2.651  0.2987  1.9572 -0.4429
 2152SOL    HW217919   0.320   1.746   2.553  1.4084 -1.1552 -0.1754
 2153SOL     OW17920   3.567   1.328   7.881  0.2101  0.3602 -0.1826
 2153SOL    HW117921   3.562   1.422   7.893  0.1098  0.4754 -1.1227
 2153SOL    HW217922   3.662   1.319   7.883 -0.0974 -2.6587  1.0686
 2154SOL     OW17923   1.017   2.907   5.587  0.0737  0.2607  0.5130
 2154SOL    HW117924   1.068   2.967   5.643  0.4808 -1.3140  1.8239
 2154SOL    HW217925   1.052   2.822   5.612 -0.9616  0.1044  1.4355
 2155SOL     OW17926   1.168   0.706   3.098  0.6572  0.3042  0.0727
 2155SOL    HW117927   1.206   0.695   3.011  1.9796 -0.1952  0.7027
 2155SOL    HW217928   1.183   0.797   3.125  0.1322  0.5782 -0.5882
 2156SOL     OW17929   4.001   1.291   9.868 -0.5720 -0.1853 -0.0567
 2156SOL    HW117930   4.016   1.200   9.890  1.4114  0.3656  0.8285
 2156SOL    HW217931   4.091   1.322   9.864 -0.2825 -0.8566  1.3680
 2157SOL     OW17932   2.474   1.001   7.895 -0.8061  0.0713 -0.4462
 2157SOL    HW117933   2.475   1.091   7.862  0.1740 -0.0067 -0.6273
 2157SOL    HW217934   2.400   1.001   7.956  0.4406 -1.9753  1.0347
 2158SOL     OW17935   0.029   2.944   2.420 -0.0236  0.1313 -0.1177
 2158SOL    HW117936   4.715   2.862   2.454 -0.8321  0.3709 -0.4105
 2158SOL    HW217937   0.051   2.915   2.332 -2.3816 -2.3005  0.0749
 2159SOL     OW17938   1.532   3.856   6.603 -0.1096  0.6505 -0.0763
 2159SOL    HW117939   1.495   3.940   6.628 -3.3488 -0.9298  0.4131
 2159SOL    HW217940   1.593   3.891   6.538 -2.4415  0.4251 -2.3693
 2160SOL     OW17941   0.230   1.529  15.391  0.4711  0.0222  0.1282
 2160SOL    HW117942   0.171   1.463  15.428 -0.4225  1.2153  0.8325
 2160SOL    HW217943   0.291   1.469  15.348 -0.6088  0.0042 -1.3523
 2161SOL     OW17944   0.510   4.568  13.248  0.1057  0.0370  0.3196
 2161SOL    HW117945   0.490   4.479  13.221  0.7383  0.3074 -1.0779
 2161SOL    HW217946   0.430   4.617  13.229  0.3270  0.0125 -0.7277
 2162SOL     OW17947   2.935   3.972   1.228  0.3733 -0.5822 -0.1024
 2162SOL    HW117948   3.021   3.962   1.268  0.4346 -0.3932 -0.1900
 2162SOL    HW217949   2.934   3.895   1.170 -0.2895  0.6322 -1.6874
 2163SOL     OW17950   3.634   3.086  15.823  0.2049 -0.5077 -0.1186
 2163SOL    HW117951   3.704   3.090  15.888  1.9636  1.1664 -2.1033
 2163SOL    HW217952   3.672   3.146  15.759 -0.7329 -1.5527 -1.6382
 2164SOL     OW17953   1.665   2.266   7.497 -0.8620  0.3243 -0.3432
 2164SOL    HW117954   1.583   2.232   7.462 -0.0949 -0.6832 -1.1390
 2164SOL    HW217955   1.643   2.321   7.572 -4.1108  0.3087 -1.2796
 2165SOL     OW17956   4.316   3.681   6.600 -0.3701  0.3592 -0.2614
 2165SOL    HW117957   4.329   3.609   6.662  0.8401  2.0610  1.4651
 2165SOL    HW217958   4.366   3.752   6.642 -0.9483 -0.0732  1.1545
 2166SOL     OW17959   1.398   2.543   4.062 -0.0079  0.1056 -0.2493
 2166SOL    HW117960   1.453   2.467   4.083 -0.2608  0.7173  2.6604
 2166SOL    HW217961   1.333   2.520   4.129 -1.1479 -0.8185 -1.6932
 2167SOL     OW17962   3.727   2.923   6.099 -0.2298  0.3178  0.7434
 2167SOL    HW117963   3.802   2.863   6.104 -1.1372 -0.7899  1.1129
 2167SOL    HW217964   3.745   2.966   6.015 -2.7390  0.7830  0.4469
 2168SOL     OW17965   1.942   4.689   5.771  0.0612  0.0405 -0.1428
 2168SOL    HW117966   1.955   4.612   5.826 -1.9226 -1.7742 -2.2525
 2168SOL    HW217967   1.853   4.667   5.745 -0.5116  2.4763 -0.2364
 2169SOL     OW17968   1.088   3.254   2.889 -0.1160  0.2970 -0.7201
 2169SOL    HW117969   1.150   3.325   2.903  2.4758 -2.3858  1.3773
 2169SOL    HW217970   1.044   3.287   2.810 -1.3104  2.3708  0.8147
 2170SOL     OW17971   2.502   3.800  11.224  0.1748  0.0863 -0.4671
 2170SOL    HW117972   2.581   3.753  11.196 -1.0656 -1.4442 -1.4100
 2170SOL    HW217973   2.449   3.795  11.145  1.4433  1.5078 -1.4108
 2171SOL     OW17974   0.973   2.912   1.845 -0.2948  0.4041  0.5031
 2171SOL    HW117975   0.997   2.918   1.752 -0.3639 -4.3217  0.1729
 2171SOL    HW217976   1.043   2.851   1.868  0.4123  1.0965  0.1872
 2172SOL     OW17977   2.976   1.528   7.416  0.1032 -0.2622  0.0131
 2172SOL    HW117978   2.910   1.575   7.365 -0.4440  1.3907  2.2484
 2172SOL    HW217979   3.057   1.534   7.367 -0.1635 -2.4269 -0.7073
 2173SOL     OW17980   1.674   0.373   1.528  0.7487 -0.7427 -0.7947
 2173SOL    HW117981   1.692   0.433   1.601  2.7990 -1.4692 -0.6993
 2173SOL    HW217982   1.714   0.420   1.455  0.4576  0.9860  0.1570
 2174SOL     OW17983   2.152   3.588  15.427 -0.1371 -0.0738 -0.6670
 2174SOL    HW117984   2.235   3.588  15.476 -1.7056 -2.3202  2.0179
 2174SOL    HW217985   2.170   3.522  15.360 -2.1382 -0.0016 -1.2575
 2175SOL     OW17986   4.631   0.790   2.999  0.2419  0.0548  0.6416
 2175SOL    HW117987   4.554   0.776   2.945 -0.8408 -0.5256  2.3189
 2175SOL    HW217988   4.663   0.700   3.008  0.4875 -0.0925 -1.7115
 2176SOL     OW17989   1.495   4.566   5.004 -0.7948 -0.0170 -0.0938
 2176SOL    HW117990   1.586   4.542   4.988 -0.6945 -0.6274  1.4148
 2176SOL    HW217991   1.488   4.557   5.099  0.4538  0.4235  0.0405
 2177SOL     OW17992   1.487   4.688   6.754  0.4517 -0.2393  0.7612
 2177SOL    HW117993   1.574   4.718   6.778  2.0672 -1.0342 -4.0548
 2177SOL    HW217994   1.456   0.053   6.728  1.3859  0.2291  1.2408
 2178SOL     OW17995   2.648   2.805   6.215 -0.2043  0.3817 -0.2892
 2178SOL    HW117996   2.677   2.782   6.303  0.0782 -0.6880 -0.6657
 2178SOL    HW217997   2.680   2.727   6.170 -3.5465 -0.9562 -0.3198
 2179SOL     OW17998   3.446   3.107  10.576  0.0937 -0.4000 -0.0771
 2179SOL    HW117999   3.359   3.093  10.614 -0.6180  0.3328 -1.4428
 2179SOL    HW218000   3.506   3.078  10.645 -1.8725  1.5191  2.4990
 2180SOL     OW18001   2.852   4.609   6.005 -0.4353  0.1928 -0.3612
 2180SOL    HW118002   2.783   4.633   5.943 -1.1890 -0.1387  0.3473
 2180SOL    HW218003   2.864   4.517   5.978  0.5179  0.1387  0.2297
 2181SOL     OW18004   4.645   2.306   2.019 -0.1453 -0.2630  0.2478
 2181SOL    HW118005   4.716   2.242   2.011  0.5978  0.8109 -1.6992
 2181SOL    HW218006   4.623   2.296   2.112 -0.8520  0.5786  0.1715
 2182SOL     OW18007   3.160   1.418   1.465 -0.7373  0.2325 -0.2751
 2182SOL    HW118008   3.203   1.333   1.457 -0.7418  0.1085  1.0797
 2182SOL    HW218009   3.073   1.405   1.502 -0.2660 -1.0075  0.3915
 2183SOL     OW18010   0.563   3.561   5.316 -0.4138 -0.1810 -0.2304
 2183SOL    HW118011   0.623   3.629   5.286  0.3672 -1.6737 -2.0138
 2183SOL    HW218012   0.500   3.623   5.353 -0.3469  0.6350 -1.4938
 2184SOL     OW18013   4.226   3.231   8.936  0.4069  0.3224 -0.2185
 2184SOL    HW118014   4.250   3.242   9.028 -0.7597 -0.7179  0.2031
 2184SOL    HW218015   4.132   3.215   8.943  0.4274  1.4671  2.7410
 2185SOL     OW18016   4.180   1.562   6.622  0.3933 -0.0701  0.0930
 2185SOL    HW118017   4.244   1.557   6.550  1.6900  0.0714  1.2464
 2185SOL    HW218018   4.232   1.539   6.698  2.0581  1.5094 -0.5597
 2186SOL     OW18019   3.435   3.766   3.695  0.5784 -0.0449  0.6577
 2186SOL    HW118020   3.425   3.773   3.600  0.1425  0.2761  0.7313
 2186SOL    HW218021   3.514   3.713   3.707  0.8168 -0.2045 -1.5801
 2187SOL     OW18022   1.468   1.973   2.418  0.2898 -0.8875 -0.7521
 2187SOL    HW118023   1.473   1.916   2.494 -2.0898  1.1542  0.9541
 2187SOL    HW218024   1.408   1.923   2.364  0.5362 -1.3260 -0.6169
 2188SOL     OW18025   3.563   2.482   0.219  0.1357 -0.6890 -0.0800
 2188SOL    HW118026   3.505   2.552   0.189 -0.7763 -2.2526 -1.9189
 2188SOL    HW218027   3.538   2.411   0.161 -1.3016 -1.7499  1.8659
 2189SOL     OW18028   0.662   1.121   7.950 -0.8001  0.0098 -0.2640
 2189SOL    HW118029   0.595   1.055   7.967 -0.3461 -0.7002 -1.2398
 2189SOL    HW218030   0.648   1.142   7.858 -1.0599  0.2137 -0.1778
 2190SOL     OW18031   2.996   3.249   8.002 -0.0619  0.2882  0.5938
 2190SOL    HW118032   3.084   3.222   8.028 -0.2103  1.2526  2.0683
 2190SOL    HW218033   2.954   3.280   8.082 -1.6253  1.4226 -0.6674
 2191SOL     OW18034   4.436   3.000   4.310  0.6945  0.6842 -0.1271
 2191SOL    HW118035   4.435   3.033   4.220 -0.6219  1.7616  0.2738
 2191SOL    HW218036   4.508   2.938   4.302 -1.1238 -1.1284 -2.2184
 2192SOL     OW18037   1.168   3.429  10.815 -0.2613 -0.4977  0.3661
 2192SOL    HW118038   1.109   3.368  10.860  0.9237 -1.9767 -0.1016
 2192SOL    HW218039   1.113   3.505  10.792 -0.3071 -0.7384 -0.3230
 2193SOL     OW18040   0.561   1.752   5.355 -0.3661 -0.4139 -0.3077
 2193SOL    HW118041   0.597   1.807   5.285  0.8168  0.8397  1.2766
 2193SOL    HW218042   0.469   1.775   5.351  0.1330  1.7564  0.8461
 2194SOL     OW18043   0.851   1.630   3.536  0.3381 -0.1112  0.1962
 2194SOL    HW118044   0.876   1.652   3.447  1.6078 -1.7032  0.1536
 2194SOL    HW218045   0.771   1.578   3.527 -0.3203  0.7689  0.9671
 2195SOL     OW18046   3.865   0.980   9.355  0.1979 -0.1255 -0.3890
 2195SOL    HW118047   3.789   1.004   9.408  0.8114  0.5021  0.2017
 2195SOL    HW218048   3.932   0.995   9.421  0.9132  0.9192 -1.3604
 2196SOL     OW18049   3.317   1.387   1.083  0.3126 -0.4944 -0.2509
 2196SOL    HW118050   3.364   1.339   1.150  2.3716  0.6494 -0.8761
 2196SOL    HW218051   3.287   1.456   1.142 -0.4426 -0.2528 -0.9056
 2197SOL     OW18052   2.336   3.855   1.026  0.3704 -0.5494 -0.6101
 2197SOL    HW118053   2.273   3.886   0.960  2.9146  1.8939 -1.8786
 2197SOL    HW218054   2.415   3.903   1.002 -0.7056  1.6962  0.3306
 2198SOL     OW18055   3.508   3.078   1.153 -0.1819  0.5596 -0.1730
 2198SOL    HW118056   3.576   3.026   1.109 -0.5323  1.0157 -1.2472
 2198SOL    HW218057   3.430   3.023   1.145 -1.8536  2.9206 -0.1096
 2199SOL     OW18058   1.539   0.074  12.648  0.1889  0.0327 -0.8648
 2199SOL    HW118059   1.570   4.709  12.624 -0.9383 -0.6852  0.2925
 2199SOL    HW218060   1.550   0.074  12.743 -1.2465 -1.8062 -0.7219
 2200SOL     OW18061   3.765   4.571   3.635  0.4451 -0.0542 -0.0297
 2200SOL    HW118062   3.708   4.495   3.649 -0.9003  0.6405 -1.7486
 2200SOL    HW218063   3.760   4.592   3.541  1.9712  1.7064  0.2916
 2201SOL     OW18064   4.401   0.660  14.416 -0.2785 -0.3062  0.5869
 2201SOL    HW118065   4.358   0.645  14.332  4.0018 -2.9572 -1.1293
 2201SOL    HW218066   4.436   0.747  14.396 -4.4675  1.1154 -0.5899
 2202SOL     OW18067   4.568   0.427   4.723 -0.1141  0.0458  0.1660
 2202SOL    HW118068   4.607   0.373   4.654  1.9422 -0.8897  2.0829
 2202SOL    HW218069   4.646   0.464   4.763 -1.1201 -0.8872  3.0339
 2203SOL     OW18070   1.794   4.049   6.686  0.4154  0.4212 -0.1532
 2203SOL    HW118071   1.786   4.031   6.592 -0.9280  0.3959 -0.0241
 2203SOL    HW218072   1.889   4.062   6.695  0.1018  0.0224  3.5174
 2204SOL     OW18073   1.098   1.767   4.539  0.3544 -0.0109  0.7677
 2204SOL    HW118074   1.017   1.814   4.518  0.9946  0.9410  0.4213
 2204SOL    HW218075   1.123   1.810   4.621  3.1879 -0.9500  0.3989
 2205SOL     OW18076   1.493   2.369  17.577  0.4188  0.3008  0.4725
 2205SOL    HW118077   1.584   2.340  17.571  0.4733  0.6916 -0.6262
 2205SOL    HW218078   1.525   2.458  17.591  1.7702 -0.3302  1.3795
 2206SOL     OW18079   0.247   4.372   5.907  0.7500 -0.4703 -0.2013
 2206SOL    HW118080   0.318   4.426   5.942 -0.0283 -0.5868  1.5536
 2206SOL    HW218081   0.261   4.292   5.957  2.0180  0.8531  1.5825
 2207SOL     OW18082   3.113   3.702   9.822 -0.0243  0.0134 -0.2459
 2207SOL    HW118083   3.188   3.725   9.768  0.7146 -0.9644  0.3554
 2207SOL    HW218084   3.168   3.677   9.896  0.7211  0.3414 -0.6957
 2208SOL     OW18085   1.821   0.968   8.614 -0.1310  0.9842  0.3441
 2208SOL    HW118086   1.890   0.939   8.673 -2.4763 -2.9058  1.1356
 2208SOL    HW218087   1.798   0.878   8.592  0.7118  0.6750  0.7410
 2209SOL     OW18088   3.849   3.757  14.324 -1.0304  0.4363  0.1993
 2209SOL    HW118089   3.891   3.695  14.384  0.9552  0.4160 -1.1847
 2209SOL    HW218090   3.844   3.701  14.246  1.7209  0.2019  0.1621
 2210SOL     OW18091   3.757   3.073   0.381  0.2894  0.6615 -0.0692
 2210SOL    HW118092   3.738   3.160   0.415  0.4294  1.6946 -2.6461
 2210SOL    HW218093   3.743   3.023   0.461  0.5150  0.2785 -0.2707
 2211SOL     OW18094   0.456   2.547   4.895 -0.0452 -0.5327 -0.7084
 2211SOL    HW118095   0.536   2.498   4.913  0.2345 -0.2926 -1.3049
 2211SOL    HW218096   0.448   2.594   4.979 -2.0082 -1.5880 -0.3100
 2212SOL     OW18097   2.251   1.337   3.669  0.0224  0.0559  0.2526
 2212SOL    HW118098   2.273   1.321   3.761  3.9393 -0.4273 -0.7826
 2212SOL    HW218099   2.184   1.406   3.666  0.7127  0.6792 -1.0207
 2213SOL     OW18100   1.874   1.820  16.896  0.2760  0.3852  0.1314
 2213SOL    HW118101   1.968   1.813  16.909  0.0101  0.3881  1.9357
 2213SOL    HW218102   1.863   1.913  16.917  2.1988  0.2361  1.7159
 2214SOL     OW18103   0.454   2.346   7.750 -0.9424 -0.1727  0.2346
 2214SOL    HW118104   0.377   2.387   7.790 -1.2561  0.2332 -0.7661
 2214SOL    HW218105   0.503   2.424   7.725 -2.6670  0.1082 -2.2630
 2215SOL     OW18106   2.244   1.647   7.606 -0.7874  0.4265 -0.1952
 2215SOL    HW118107   2.325   1.597   7.614 -1.7115 -1.2805 -1.6397
 2215SOL    HW218108   2.282   1.735   7.608 -0.8399  0.4383  0.6410
 2216SOL     OW18109   0.136   2.867  12.693  1.0397  0.2957  0.5749
 2216SOL    HW118110   0.130   2.783  12.738  2.1358  0.3223  0.7826
 2216SOL    HW218111   0.224   2.861  12.655  0.0501  0.8662 -1.8648
 2217SOL     OW18112   4.547   2.592   2.729 -0.3190 -0.4593  0.0631
 2217SOL    HW118113   4.524   2.586   2.822 -0.4232 -2.2088 -0.0645
 2217SOL    HW218114   4.502   2.513   2.698  0.2166 -0.9293  0.4753
 2218SOL     OW18115   1.621   2.736   9.526  0.1642  0.2946  0.0958
 2218SOL    HW118116   1.531   2.764   9.510  0.0815  0.7569  1.3286
 2218SOL    HW218117   1.644   2.696   9.443  0.4131  0.7012 -0.0314
 2219SOL     OW18118   1.862   0.891  16.891  0.1826 -0.0684  0.1434
 2219SOL    HW118119   1.834   0.962  16.833  0.7566 -0.8119 -1.0453
 2219SOL    HW218120   1.953   0.917  16.902 -0.2368  1.4570 -0.1147
 2220SOL     OW18121   0.022   0.798   5.160 -0.2076  1.0283  0.7051
 2220SOL    HW118122   0.039   0.859   5.232 -2.6782  1.8578  0.5964
 2220SOL    HW218123   4.664   0.752   5.188  1.4429 -1.8215  0.7778
 2221SOL     OW18124   1.779   1.284   3.145  0.0972 -0.7409 -0.0599
 2221SOL    HW118125   1.727   1.207   3.120 -0.7807 -0.4414  0.8320
 2221SOL    HW218126   1.833   1.297   3.067  1.9596 -1.4769  1.1060
 2222SOL     OW18127   4.283   2.324   2.449 -0.0571 -0.6917 -0.0337
 2222SOL    HW118128   4.299   2.301   2.357 -0.4697 -0.3020 -0.2048
 2222SOL    HW218129   4.369   2.324   2.491  0.7912  2.7999 -1.7952
 2223SOL     OW18130   4.425   0.325  12.477  0.1767  0.5029  0.6955
 2223SOL    HW118131   4.480   0.391  12.435 -0.5153  1.8693  1.9355
 2223SOL    HW218132   4.460   0.326  12.566 -0.0458 -0.5290  0.7894
 2224SOL     OW18133   1.548   1.347   5.007  0.3262 -0.2012 -0.1803
 2224SOL    HW118134   1.523   1.361   4.915  0.4845  1.6720  0.0639
 2224SOL    HW218135   1.644   1.355   5.007  0.3203 -0.1838 -2.5952
 2225SOL     OW18136   0.892   0.718  12.534  0.3049 -0.4646 -0.6141
 2225SOL    HW118137   0.817   0.776  12.520 -1.0368 -2.0720 -0.1170
 2225SOL    HW218138   0.878   0.647  12.471  1.4400 -1.8318  0.6591
 2226SOL     OW18139   2.930   1.420   3.191  0.6280 -0.0913  1.0771
 2226SOL    HW118140   2.948   1.449   3.102 -0.4440  0.1657  0.9380
 2226SOL    HW218141   2.905   1.328   3.178  2.0438 -0.2088 -0.8020
 2227SOL     OW18142   4.427   0.872   2.818  0.6946  1.2705 -0.6562
 2227SOL    HW118143   4.480   0.904   2.745  1.1286  1.6126 -0.1945
 2227SOL    HW218144   4.359   0.939   2.823 -1.3259 -0.7300 -1.5679
 2228SOL     OW18145   3.968   2.935  17.208  0.5157 -0.1740 -0.1739
 2228SOL    HW118146   4.045   2.894  17.168  1.1593  0.4734  0.3862
 2228SOL    HW218147   3.924   2.967  17.129  2.2254  2.2620 -0.1660
 2229SOL     OW18148   1.494   4.000  16.741  0.5347 -0.5929 -0.0753
 2229SOL    HW118149   1.527   4.089  16.737 -2.9079  0.7581  1.4543
 2229SOL    HW218150   1.576   3.955  16.763  2.8046  3.7424  0.2724
 2230SOL     OW18151   0.643   0.399   3.517  0.7973 -0.4853 -0.0257
 2230SOL    HW118152   0.690   0.404   3.600 -1.5956  0.8673  1.2271
 2230SOL    HW218153   0.586   0.476   3.522  1.3657 -0.0699  0.0397
 2231SOL     OW18154   4.355   1.368   7.761 -0.6242 -0.3782 -0.1009
 2231SOL    HW118155   4.416   1.324   7.821  0.1066 -0.0370 -0.5933
 2231SOL    HW218156   4.329   1.293   7.708  0.8448 -0.3725 -0.8266
 2232SOL     OW18157   0.904   1.042   0.145 -0.0391 -0.0756  0.3612
 2232SOL    HW118158   0.960   1.026   0.221 -0.1476 -0.5138  0.3528
 2232SOL    HW218159   0.946   1.000   0.070  0.7395 -1.3638  1.5172
 2233SOL     OW18160   3.079   2.131   5.315 -0.1380  0.2396 -0.3842
 2233SOL    HW118161   2.997   2.154   5.359 -0.0236 -0.1459  0.0243
 2233SOL    HW218162   3.078   2.036   5.310  1.3206  0.3625 -2.9715
 2234SOL     OW18163   4.379   4.249   9.521 -0.3443 -0.1616 -0.0409
 2234SOL    HW118164   4.335   4.225   9.602  0.8125  1.4399  1.0593
 2234SOL    HW218165   4.451   4.307   9.546  1.2107 -2.2436  0.2381
 2235SOL     OW18166   1.017   2.627   4.712 -0.0420  0.3640 -0.1347
 2235SOL    HW118167   1.050   2.689   4.777 -0.5608  1.8411 -1.2578
 2235SOL    HW218168   0.942   2.683   4.692 -1.3783 -1.5444 -0.4838
 2236SOL     OW18169   2.842   2.798   4.719  0.0176  0.0465  0.1207
 2236SOL    HW118170   2.854   2.726   4.780 -0.8455 -0.8354 -0.7413
 2236SOL    HW218171   2.848   2.870   4.781  1.1349  0.8399 -0.9203
 2237SOL     OW18172   3.906   0.655   2.149  0.9811 -0.0425  0.7152
 2237SOL    HW118173   3.911   0.747   2.124 -3.1883 -0.2864 -1.0227
 2237SOL    HW218174   3.827   0.622   2.107  1.7387 -3.1007  1.6787
 2238SOL     OW18175   1.495   2.583   3.798 -0.7592  0.4997 -0.1336
 2238SOL    HW118176   1.447   2.567   3.879 -1.5463  2.5248 -0.2009
 2238SOL    HW218177   1.430   2.550   3.736  1.0873 -3.5540  0.0593
 2239SOL     OW18178   0.111   0.812   7.860  0.1517  0.9703  0.3312
 2239SOL    HW118179   0.148   0.895   7.889 -0.5469  1.8415 -1.2656
 2239SOL    HW218180   0.108   0.818   7.764  0.7793  0.2682  0.2709
 2240SOL     OW18181   0.763   1.305   6.726 -0.3495 -0.1227 -0.1233
 2240SOL    HW118182   0.745   1.389   6.768  0.0955 -0.6965  1.2090
 2240SOL    HW218183   0.840   1.324   6.673 -1.1546  1.3200 -0.7661
 2241SOL     OW18184   2.259   1.545   8.089 -0.4142 -0.1594 -0.7573
 2241SOL    HW118185   2.290   1.503   8.009  0.5430  0.0971 -0.5266
 2241SOL    HW218186   2.172   1.507   8.099  0.4628 -2.0119 -0.2237
 2242SOL     OW18187   3.928   3.474  14.093 -0.3618 -0.5701  0.8060
 2242SOL    HW118188   3.892   3.481  14.004 -0.5145 -2.7315  0.7143
 2242SOL    HW218189   4.013   3.430  14.088  0.2749  0.8804 -1.2510
 2243SOL     OW18190   2.841   2.485  14.642  0.3440 -0.0158 -0.8612
 2243SOL    HW118191   2.797   2.463  14.560 -1.4184 -2.2272  0.6563
 2243SOL    HW218192   2.804   2.570  14.669 -1.2404 -0.4325 -1.6885
 2244SOL     OW18193   3.986   3.045   7.193 -0.3002 -0.4057  0.0685
 2244SOL    HW118194   3.942   3.126   7.219  0.1934  0.2579 -1.1491
 2244SOL    HW218195   4.076   3.060   7.222  0.3056  0.5169 -2.2897
 2245SOL     OW18196   3.408   3.525   1.699  0.0482 -0.0919  0.1529
 2245SOL    HW118197   3.386   3.439   1.663  0.4744 -0.6163  1.1372
 2245SOL    HW218198   3.425   3.495   1.788  0.1231 -1.3324 -0.2798
 2246SOL     OW18199   1.155   3.067  16.462 -0.0477 -0.6473  0.1177
 2246SOL    HW118200   1.132   3.021  16.381 -0.9139  1.6168 -0.9243
 2246SOL    HW218201   1.148   3.158  16.432  0.9075 -0.1195  1.5130
 2247SOL     OW18202   4.597   2.745   1.071  0.1196 -0.5030 -0.0026
 2247SOL    HW118203   4.537   2.727   0.999  1.4343  1.1708 -1.4944
 2247SOL    HW218204   4.576   2.675   1.133  1.2659 -0.2868  0.6414
 2248SOL     OW18205   1.041   0.487   5.763 -0.0409  0.4347 -0.5823
 2248SOL    HW118206   1.033   0.581   5.748 -3.7654  0.0746 -0.7498
 2248SOL    HW218207   1.131   0.487   5.795 -0.1214 -0.5626 -0.3588
 2249SOL     OW18208   1.200   0.977  10.659 -0.6323 -0.4018 -0.0055
 2249SOL    HW118209   1.190   1.030  10.739 -1.7765 -0.2219 -0.2699
 2249SOL    HW218210   1.121   1.001  10.612 -1.5072 -0.4974  1.4273
 2250SOL     OW18211   3.523   0.386  10.298  0.4909 -0.3466 -0.0292
 2250SOL    HW118212   3.596   0.391  10.359  1.3797  3.1934 -1.3971
 2250SOL    HW218213   3.446   0.386  10.356  1.7666  1.0770  1.6596
 2251SOL     OW18214   2.842   4.149   8.095 -0.4733  0.0330 -0.0532
 2251SOL    HW118215   2.880   4.157   8.183 -0.0175  0.4050 -0.2849
 2251SOL    HW218216   2.903   4.214   8.061  0.4709 -1.0971 -0.5470
 2252SOL     OW18217   2.688   2.952   3.289  0.2495 -0.4811 -0.0855
 2252SOL    HW118218   2.633   3.006   3.231  1.2381 -0.0586 -0.6265
 2252SOL    HW218219   2.750   3.018   3.321 -1.0920  0.4707  0.5411
 2253SOL     OW18220   2.223   0.558  12.620  0.7424 -0.2362 -0.0241
 2253SOL    HW118221   2.287   0.628  12.629 -1.7813  1.8217  2.1034
 2253SOL    HW218222   2.231   0.530  12.529 -0.4774  1.0390 -0.5391
 2254SOL     OW18223   1.599   0.288   6.317 -0.9342  0.0929 -0.1430
 2254SOL    HW118224   1.516   0.321   6.352  0.1856  1.8640  0.8370
 2254SOL    HW218225   1.642   0.371   6.295 -0.2166 -0.3266 -0.3374
 2255SOL     OW18226   4.610   4.297   8.965  0.4064  0.7538  0.2330
 2255SOL    HW118227   4.589   4.311   8.873  1.7784  1.3355  0.0049
 2255SOL    HW218228   4.530   4.260   9.003  0.5745 -2.1226 -2.1295
 2256SOL     OW18229   4.150   1.282   4.955 -0.0487 -0.5596  0.0894
 2256SOL    HW118230   4.207   1.328   5.016  1.6183  1.2467 -2.8195
 2256SOL    HW218231   4.208   1.208   4.935  0.7101  0.3898 -1.1985
 2257SOL     OW18232   4.060   4.675  15.516 -0.1220 -0.0996  0.8568
 2257SOL    HW118233   4.155   4.660  15.513 -0.2424 -0.2772 -1.4337
 2257SOL    HW218234   4.029   4.644  15.432 -0.5308  0.2283  0.8841
 2258SOL     OW18235   3.508   0.906   5.229  0.3225  0.5880  0.5505
 2258SOL    HW118236   3.423   0.891   5.189  0.6872 -3.2619  1.1987
 2258SOL    HW218237   3.552   0.960   5.163  1.1015 -2.2621 -1.2437
 2259SOL     OW18238   3.048   0.889   6.559 -0.4315 -0.2663 -0.1899
 2259SOL    HW118239   3.036   0.960   6.496  1.5755  1.3007  1.1894
 2259SOL    HW218240   2.961   0.890   6.599 -0.3644  0.8593 -0.0882
 2260SOL     OW18241   2.255   0.310  10.011 -1.1801 -0.5044 -0.4282
 2260SOL    HW118242   2.260   0.289  10.104 -0.0386  1.6076 -0.0023
 2260SOL    HW218243   2.291   0.227   9.981  1.9172  0.6476  0.1310
 2261SOL     OW18244   4.069   3.690   0.061 -0.3045 -0.1807 -0.5616
 2261SOL    HW118245   4.089   3.632  17.678  1.8255 -0.2120  0.0444
 2261SOL    HW218246   3.976   3.668   0.064 -0.3219  0.1544  1.6394
 2262SOL     OW18247   3.681   3.623   3.371 -0.7145  0.5362 -0.1361
 2262SOL    HW118248   3.661   3.539   3.413 -1.1429  0.6455 -0.1180
 2262SOL    HW218249   3.713   3.592   3.286  0.4261 -2.1155  1.2691
 2263SOL     OW18250   3.724   2.106   8.001  0.2568 -0.3759 -0.2022
 2263SOL    HW118251   3.775   2.116   8.082  0.3243 -0.1785 -0.2672
 2263SOL    HW218252   3.709   2.012   7.998 -0.7512 -0.2268  0.3573
 2264SOL     OW18253   3.431   1.120   5.656  0.1768  0.3589  0.1372
 2264SOL    HW118254   3.434   1.033   5.694 -0.0502 -0.6454 -2.1699
 2264SOL    HW218255   3.340   1.145   5.646  0.7246  2.8940  1.3893
 2265SOL     OW18256   3.926   2.352   6.033 -0.3737  0.6778 -0.0441
 2265SOL    HW118257   3.849   2.351   6.089  0.8930 -2.2541  1.6679
 2265SOL    HW218258   3.909   2.433   5.985  2.1248  0.3451 -1.5056
 2266SOL     OW18259   1.816   1.534   9.424  0.2514  0.2525 -0.3086
 2266SOL    HW118260   1.782   1.462   9.477  1.4818 -0.1192 -0.0404
 2266SOL    HW218261   1.769   1.608   9.464 -2.0964 -1.5442  0.2663
 2267SOL     OW18262   0.607   4.553   2.830  0.2345  0.2113  0.1077
 2267SOL    HW118263   0.573   4.551   2.919 -0.9196  0.0139 -0.3321
 2267SOL    HW218264   0.673   4.620   2.842  0.7303  0.0870 -1.8700
 2268SOL     OW18265   0.135   2.697   4.206 -0.6491  0.5397  0.0078
 2268SOL    HW118266   0.097   2.634   4.144 -1.1973 -0.1451  1.0227
 2268SOL    HW218267   0.225   2.682   4.179 -1.8531 -1.2942 -3.0083
 2269SOL     OW18268   3.726   3.871  13.540 -0.1804  0.0387 -0.7913
 2269SOL    HW118269   3.660   3.819  13.496 -1.1452  1.1235 -0.6485
 2269SOL    HW218270   3.675   3.948  13.567  0.1089  0.4542 -1.4298
 2270SOL     OW18271   0.392   1.547   5.039 -0.0824 -0.2631  0.7895
 2270SOL    HW118272   0.298   1.558   5.031  0.1902  0.6727 -1.1236
 2270SOL    HW218273   0.392   1.518   5.130  1.2691 -0.4752  0.7326
 2271SOL     OW18274   2.781   3.939   3.856  0.1482  0.3417 -0.1115
 2271SOL    HW118275   2.802   3.853   3.821 -0.2517  0.6093 -1.0107
 2271SOL    HW218276   2.770   3.987   3.774 -0.6103  0.1559 -0.1211
 2272SOL     OW18277   0.450   2.725   1.300  0.1921  0.0549  0.1877
 2272SOL    HW118278   0.506   2.773   1.361 -0.0471 -0.0558  0.4948
 2272SOL    HW218279   0.402   2.803   1.271  0.7792  0.6218  0.7183
 2273SOL     OW18280   0.122   1.775  15.524 -0.2277 -0.1709  0.4353
 2273SOL    HW118281   0.168   1.795  15.606  2.9834 -1.1988 -1.1403
 2273SOL    HW218282   0.171   1.697  15.498 -1.1972 -1.0427  1.2278
 2274SOL     OW18283   2.356   0.831   6.938 -0.7517 -0.6503  0.1832
 2274SOL    HW118284   2.307   0.792   7.011 -0.6951  2.1356  1.7077
 2274SOL    HW218285   2.341   0.770   6.866 -0.4967 -0.6950  0.1675
 2275SOL     OW18286   2.106   1.180   6.028  0.3305  0.4512  0.1429
 2275SOL    HW118287   2.153   1.204   6.107 -1.2849  2.0539  0.6246
 2275SOL    HW218288   2.174   1.195   5.963 -2.0124  0.4083 -2.3311
 2276SOL     OW18289   0.794   4.620  16.731 -0.1078 -0.4306  0.0155
 2276SOL    HW118290   0.804   4.712  16.754  2.0088 -0.6776  0.0422
 2276SOL    HW218291   0.884   4.596  16.711 -0.5939 -2.5539  0.3880
 2277SOL     OW18292   1.411   4.638   2.516 -0.2405  0.6330 -0.6880
 2277SOL    HW118293   1.441   4.621   2.426 -0.1036  2.1174 -0.9356
 2277SOL    HW218294   1.317   4.632   2.504  0.0526 -2.1680 -1.5465
 2278SOL     OW18295   3.946   2.591   5.895 -0.4184  0.0893 -0.9995
 2278SOL    HW118296   4.016   2.566   5.835 -0.2288  0.2499 -0.8478
 2278SOL    HW218297   3.913   2.673   5.858  1.2568 -0.0306 -2.7493
 2279SOL     OW18298   3.053   0.784   3.375  0.0169  0.6066 -0.3283
 2279SOL    HW118299   3.053   0.816   3.465  0.7681  2.8460 -1.1269
 2279SOL    HW218300   2.970   0.737   3.376  0.6292 -0.4845 -0.4530
 2280SOL     OW18301   0.695   3.041   4.469 -0.3467 -0.0883 -0.2662
 2280SOL    HW118302   0.670   3.057   4.560 -1.7436  0.3023 -0.7176
 2280SOL    HW218303   0.691   3.128   4.429  3.0772 -0.5235 -1.6012
 2281SOL     OW18304   1.577   4.082   8.344  0.2265 -0.3689  0.6329
 2281SOL    HW118305   1.643   4.029   8.389  0.5452 -0.3973  0.1445
 2281SOL    HW218306   1.544   4.010   8.291 -1.2474 -0.4650  1.6837
 2282SOL     OW18307   2.529   0.004  14.363  0.1208  0.5311  0.3165
 2282SOL    HW118308   2.442   0.037  14.384  0.2645 -0.5636  2.5965
 2282SOL    HW218309   2.551   4.668  14.436 -0.6383 -1.6574 -1.2093
 2283SOL     OW18310   0.681   0.801   4.802  0.0460 -0.0712  0.5160
 2283SOL    HW118311   0.704   0.751   4.723  1.5993  0.9654  0.3188
 2283SOL    HW218312   0.596   0.837   4.776 -0.8157 -1.6016  1.1604
 2284SOL     OW18313   0.283   2.127   8.668 -0.2382 -0.4172 -0.2250
 2284SOL    HW118314   0.235   2.060   8.620 -0.4171 -0.3289 -0.1667
 2284SOL    HW218315   0.346   2.144   8.597 -2.0159  0.2218 -1.6438
 2285SOL     OW18316   3.206   1.647   5.884 -0.9118 -0.0208  0.4294
 2285SOL    HW118317   3.141   1.635   5.814 -1.1365 -0.5711  0.7364
 2285SOL    HW218318   3.285   1.642   5.829 -0.5602  0.4869  0.8862
 2286SOL     OW18319   0.836   0.179  12.099  0.1505 -0.1263 -0.0598
 2286SOL    HW118320   0.852   0.104  12.156  2.2088  0.6073  0.3150
 2286SOL    HW218321   0.918   0.228  12.103  0.8928 -1.1459 -2.7305
 2287SOL     OW18322   1.421   1.783   2.626 -0.1254 -0.0768  0.0177
 2287SOL    HW118323   1.397   1.694   2.651  1.6290 -0.2943  0.9290
 2287SOL    HW218324   1.402   1.835   2.703 -0.8760 -1.5499  0.8129
 2288SOL     OW18325   3.740   2.987   0.637 -0.1122  0.4427  0.0824
 2288SOL    HW118326   3.822   3.023   0.671  0.0911  0.4452 -0.4181
 2288SOL    HW218327   3.674   3.035   0.688  0.4679  0.6607  0.6193
 2289SOL     OW18328   2.662   1.410   4.297 -0.0042 -0.5814  0.0027
 2289SOL    HW118329   2.736   1.421   4.356 -0.4909  1.0825  0.2935
 2289SOL    HW218330   2.670   1.490   4.245 -1.5082 -0.9208 -0.7424
 2290SOL     OW18331   1.645   3.520   8.571 -0.0151  0.0131 -0.5049
 2290SOL    HW118332   1.696   3.567   8.637 -0.8181  0.2324 -0.0427
 2290SOL    HW218333   1.608   3.448   8.622 -1.0238  0.8995  0.0276
 2291SOL     OW18334   0.752   1.860   0.140  0.2453 -0.1973  0.2762
 2291SOL    HW118335   0.833   1.809   0.134  1.1038  0.8526  2.9437
 2291SOL    HW218336   0.688   1.791   0.153 -0.5641  0.7025  1.0432
 2292SOL     OW18337   2.861   2.177  15.957 -0.6371  0.2617  0.1756
 2292SOL    HW118338   2.923   2.116  15.997  1.6168  0.8769 -2.3509
 2292SOL    HW218339   2.775   2.150  15.988 -0.4508 -1.0438 -0.4267
 2293SOL     OW18340   1.143   1.267   7.627  0.0667  0.0094  0.0728
 2293SOL    HW118341   1.102   1.321   7.559 -1.5162  0.7255  1.5920
 2293SOL    HW218342   1.183   1.339   7.677 -0.9711 -0.4664  1.5618
 2294SOL     OW18343   3.097   0.934   6.004  0.0592  0.2610  0.2280
 2294SOL    HW118344   3.110   0.840   6.019  0.9399  0.6228  1.7960
 2294SOL    HW218345   3.003   0.942   6.021 -0.0108  3.2150 -1.5548
 2295SOL     OW18346   4.047   4.082   8.382 -0.4627  0.0868 -0.1460
 2295SOL    HW118347   4.028   3.988   8.380  0.5126 -0.0853 -1.5063
 2295SOL    HW218348   4.037   4.110   8.291  0.3083 -0.8099 -0.5047
 2296SOL     OW18349   4.649   3.135   1.328  0.1710  0.0780  0.2197
 2296SOL    HW118350   4.574   3.174   1.374 -0.4413  0.8721 -1.4439
 2296SOL    HW218351   4.608   3.084   1.258  0.1650  1.6223 -0.8910
 2297SOL     OW18352   2.323   4.687   8.431 -0.5434  0.4988 -0.3608
 2297SOL    HW118353   2.298   4.594   8.428 -0.0242  0.3495 -0.0750
 2297SOL    HW218354   2.258   4.721   8.493  0.2609  1.4038 -0.0103
 2298SOL     OW18355   0.720   1.875  11.125  0.2879 -0.0613  0.2032
 2298SOL    HW118356   0.751   1.950  11.075  0.5495  0.8974  1.7747
 2298SOL    HW218357   0.626   1.881  11.107  0.5740  1.9737 -0.5866
 2299SOL     OW18358   3.269   1.072   4.687  0.0804 -0.5003  0.1710
 2299SOL    HW118359   3.298   1.106   4.772 -0.1260  1.3432 -0.4966
 2299SOL    HW218360   3.339   1.110   4.635  0.6612  0.8144  1.8965
 2300SOL     OW18361   3.276   3.728  12.198  0.2693  1.1871  0.0837
 2300SOL    HW118362   3.246   3.688  12.116  2.1603 -1.2590  0.5809
 2300SOL    HW218363   3.369   3.707  12.197  0.1622  0.7657 -1.0364
 2301SOL     OW18364   0.772   2.608   7.040 -0.3762 -0.6303  0.3438
 2301SOL    HW118365   0.794   2.516   7.055  0.0170 -0.9600 -2.1075
 2301SOL    HW218366   0.690   2.611   7.089  0.4113 -1.3153  1.7059
 2302SOL     OW18367   1.478   1.154  14.622 -0.2266 -0.0145 -0.1527
 2302SOL    HW118368   1.392   1.132  14.585  0.3939 -1.7131 -0.5772
 2302SOL    HW218369   1.478   1.247  14.642  1.8483  0.0333 -0.3896
 2303SOL     OW18370   1.536   3.853   2.296 -0.1506  0.3902  0.4049
 2303SOL    HW118371   1.560   3.894   2.213 -0.2114 -0.7439 -0.1555
 2303SOL    HW218372   1.548   3.762   2.270  0.5122  0.0777  1.7744
 2304SOL     OW18373   3.898   4.055   8.668  0.4271 -0.1663 -0.0232
 2304SOL    HW118374   3.846   4.018   8.739 -1.0313  1.1239 -0.4030
 2304SOL    HW218375   3.865   4.012   8.590 -3.4304  1.3706  0.7591
 2305SOL     OW18376   0.219   1.908   8.227  0.3955 -0.0779 -0.1435
 2305SOL    HW118377   0.234   1.819   8.196  0.1869  0.2491 -1.1703
 2305SOL    HW218378   0.267   1.899   8.309 -0.3174  0.9100  0.3852
 2306SOL     OW18379   4.441   2.853   7.012 -0.5725 -0.2407 -0.0248
 2306SOL    HW118380   4.425   2.935   6.964 -1.7712  0.5170  1.6849
 2306SOL    HW218381   4.464   2.786   6.947  2.4584  1.1448 -0.4026
 2307SOL     OW18382   4.115   3.513  10.366 -0.8954 -0.1350 -0.0526
 2307SOL    HW118383   4.134   3.606  10.350 -0.4490  0.0359  1.5709
 2307SOL    HW218384   4.196   3.463  10.355 -1.5064 -1.2368  0.4414
 2308SOL     OW18385   4.550   3.159   8.880  0.0563 -0.3530  0.1323
 2308SOL    HW118386   4.479   3.182   8.820 -2.1727 -2.8245  1.7928
 2308SOL    HW218387   4.539   3.214   8.957 -0.8585 -0.9272  0.4157
 2309SOL     OW18388   1.442   2.556   5.445 -0.8903  0.3194 -0.2002
 2309SOL    HW118389   1.476   2.639   5.414  1.0967 -0.4295 -0.0619
 2309SOL    HW218390   1.489   2.553   5.529  3.6586 -2.1316 -2.7789
 2310SOL     OW18391   1.312   0.462   5.550  0.2586  0.6261 -0.5679
 2310SOL    HW118392   1.391   0.413   5.525  0.4332  1.3503 -1.4372
 2310SOL    HW218393   1.360   0.499   5.624 -0.5594  0.3379  0.1060
 2311SOL     OW18394   2.871   4.652  11.955  0.2734  0.1249 -0.1243
 2311SOL    HW118395   2.840   0.020  11.948  0.1356  0.0562 -0.3824
 2311SOL    HW218396   2.962   4.675  11.974  0.3292 -0.6296  0.5165
 2312SOL     OW18397   4.017   0.764  14.999 -0.2092 -0.4536  0.0930
 2312SOL    HW118398   4.003   0.818  14.921  1.5878 -0.0562  0.0609
 2312SOL    HW218399   3.931   0.722  15.003 -0.0518 -0.8582 -0.7213
 2313SOL     OW18400   4.599   3.741   4.239  0.3652  0.5643 -0.2537
 2313SOL    HW118401   4.544   3.733   4.160  0.2527  0.9436 -0.2109
 2313SOL    HW218402   4.599   3.835   4.252 -2.0340  0.5083  0.2053
 2314SOL     OW18403   0.489   0.383   7.933 -0.0326 -0.0102 -0.8360
 2314SOL    HW118404   0.509   0.345   7.848 -0.1123 -1.1851 -0.3400
 2314SOL    HW218405   0.455   0.305   7.978 -0.8130 -0.2735 -1.8763
 2315SOL     OW18406   2.508   0.574   4.138 -0.3722  0.1837  0.0625
 2315SOL    HW118407   2.521   0.485   4.104  1.7383 -0.0072  1.3855
 2315SOL    HW218408   2.438   0.594   4.077 -1.0765  0.1577  0.8686
 2316SOL     OW18409   2.553   2.853   2.342 -0.8272 -0.1520 -0.8341
 2316SOL    HW118410   2.630   2.890   2.385 -0.5924 -0.0040 -1.3845
 2316SOL    HW218411   2.585   2.835   2.253  0.3464 -0.7783 -0.2899
 2317SOL     OW18412   1.126   0.646   7.641  0.1089 -0.0308 -0.6818
 2317SOL    HW118413   1.112   0.554   7.662 -0.3307  0.0300 -0.7233
 2317SOL    HW218414   1.209   0.662   7.687 -0.2165 -0.7806  0.1458
 2318SOL     OW18415   0.782   4.357   4.894 -0.0675 -0.4871 -0.2033
 2318SOL    HW118416   0.862   4.403   4.870 -1.2779  1.7908  0.1689
 2318SOL    HW218417   0.718   4.415   4.853  0.6689  0.2525 -0.2945
 2319SOL     OW18418   3.855   0.095   6.557 -0.1163  0.2817 -0.4466
 2319SOL    HW118419   3.852   0.000   6.542 -0.1991  0.3913 -1.0946
 2319SOL    HW218420   3.946   0.110   6.581  0.2511 -2.6953  0.1118
 2320SOL     OW18421   4.689   3.500   1.846  0.5302  0.2506 -0.1194
 2320SOL    HW118422   4.655   3.583   1.877 -0.7513 -0.6963  1.0300
 2320SOL    HW218423   0.012   3.473   1.926  1.9005 -1.7490 -1.5733
 2321SOL     OW18424   0.697   0.842   8.493  0.0338 -0.2669 -0.4638
 2321SOL    HW118425   0.738   0.807   8.415 -1.5256 -0.1586 -1.3386
 2321SOL    HW218426   0.750   0.918   8.516 -1.2274  0.5087 -0.1434
 2322SOL     OW18427   3.473   1.984   1.416 -0.8128 -0.0638  0.0062
 2322SOL    HW118428   3.487   1.903   1.366  2.8107  1.0446 -0.7826
 2322SOL    HW218429   3.463   2.051   1.349  0.7765  0.5846  0.4167
 2323SOL     OW18430   0.655   2.038   8.271  0.1725 -0.3761 -0.7806
 2323SOL    HW118431   0.673   2.131   8.282 -0.0485 -0.4758  0.4758
 2323SOL    HW218432   0.735   1.991   8.296  0.4334  0.0979 -0.7262
 2324SOL     OW18433   2.872   3.329  10.430 -0.2322 -0.3335 -0.0414
 2324SOL    HW118434   2.927   3.251  10.428 -0.0941 -0.2297 -0.4536
 2324SOL    HW218435   2.819   3.309  10.353  0.7936 -2.5533 -0.1569
 2325SOL     OW18436   4.323   4.221   4.657  0.4962  0.4244  0.0147
 2325SOL    HW118437   4.266   4.264   4.722 -0.7384 -0.0242 -0.7704
 2325SOL    HW218438   4.401   4.267   4.687  0.0864  1.4053 -0.4272
 2326SOL     OW18439   0.737   0.077  15.581  0.6643 -0.1718  0.0345
 2326SOL    HW118440   0.719   0.064  15.488  2.8067  0.0222 -0.3982
 2326SOL    HW218441   0.831   0.093  15.575  0.8909 -1.4516  0.1024
 2327SOL     OW18442   2.299   2.906  16.778  0.6310 -0.0356 -0.1638
 2327SOL    HW118443   2.280   2.852  16.701 -0.7060  1.1490 -0.6654
 2327SOL    HW218444   2.219   2.911  16.831  1.3708  1.4325  0.7987
 2328SOL     OW18445   2.809   3.775  14.674 -0.1887 -0.4477  0.2037
 2328SOL    HW118446   2.768   3.691  14.653 -0.5268 -0.5005  1.0574
 2328SOL    HW218447   2.900   3.756  14.698  0.2166 -0.9672 -1.7858
 2329SOL     OW18448   4.077   2.983   1.006  0.0804 -0.0948  0.6440
 2329SOL    HW118449   4.010   2.920   0.979 -1.2257  0.5458  2.4041
 2329SOL    HW218450   4.013   3.051   1.028  0.8048  1.0245 -0.6668
 2330SOL     OW18451   3.303   3.455   7.865  0.0491 -0.5127  0.1450
 2330SOL    HW118452   3.235   3.499   7.916  1.5142 -1.1668  2.6671
 2330SOL    HW218453   3.341   3.397   7.932  2.2207 -0.5049 -1.1000
 2331SOL     OW18454   4.281   1.462   7.160  0.1714 -0.3378  0.2282
 2331SOL    HW118455   4.231   1.405   7.101 -0.7559  0.3513  0.3374
 2331SOL    HW218456   4.207   1.490   7.214 -0.9696 -2.1749 -0.3890
 2332SOL     OW18457   3.706   3.213   7.277 -0.0297  0.1377 -0.0924
 2332SOL    HW118458   3.740   3.296   7.310 -1.9048  1.8485 -2.5057
 2332SOL    HW218459   3.710   3.172   7.364  0.6807  0.3482 -0.0325
 2333SOL     OW18460   4.358   2.141   3.843  0.5977 -0.2470  0.0738
 2333SOL    HW118461   4.330   2.204   3.909 -0.4261 -1.3026  0.6452
 2333SOL    HW218462   4.313   2.177   3.768  1.6178  0.1188 -0.3652
 2334SOL     OW18463   1.749   1.991   1.484  0.2095  0.2980  0.6172
 2334SOL    HW118464   1.690   2.003   1.410 -2.2567 -0.8199  2.3961
 2334SOL    HW218465   1.692   1.945   1.545 -0.4838  0.5808  0.1759
 2335SOL     OW18466   2.824   0.813   6.737 -0.1038 -0.2797  0.2563
 2335SOL    HW118467   2.744   0.764   6.753 -0.3887 -0.0832 -0.6164
 2335SOL    HW218468   2.862   0.834   6.823  0.6533 -0.7285  0.0423
 2336SOL     OW18469   3.458   2.923   6.094  0.0278 -1.0518 -0.0112
 2336SOL    HW118470   3.458   3.009   6.136 -0.3705 -0.6024 -0.9405
 2336SOL    HW218471   3.553   2.915   6.096  0.1917  0.5915 -0.9139
 2337SOL     OW18472   0.706   0.710   7.492  0.3208  0.5441  0.0210
 2337SOL    HW118473   0.749   0.654   7.427  0.3408  1.0125 -0.3788
 2337SOL    HW218474   0.783   0.760   7.520  1.3646 -1.7376  1.2305
 2338SOL     OW18475   3.340   3.460   0.273  0.1879 -0.6440 -0.7226
 2338SOL    HW118476   3.342   3.553   0.254  0.3789 -0.4621  0.1788
 2338SOL    HW218477   3.397   3.434   0.200  0.3601 -0.2025 -0.7425
 2339SOL     OW18478   4.600   1.749   7.838 -0.2477 -0.5032  0.0003
 2339SOL    HW118479   4.661   1.691   7.884 -0.8576 -1.5509 -0.5024
 2339SOL    HW218480   4.516   1.711   7.864  0.2254 -1.0356  0.7529
 2340SOL     OW18481   4.256   1.233   0.089  0.4743  0.5258 -0.4820
 2340SOL    HW118482   4.346   1.218   0.058  0.3378  0.6685 -0.9546
 2340SOL    HW218483   4.258   1.329   0.082  4.1795  0.3404 -2.4154
 2341SOL     OW18484   1.867   3.135   3.804  0.4990 -0.5015  0.5454
 2341SOL    HW118485   1.941   3.190   3.779 -0.3680  0.4660  0.0939
 2341SOL    HW218486   1.814   3.138   3.724  1.1696 -1.4660  0.0646
 2342SOL     OW18487   4.596   1.504   3.931 -0.7403  0.5561  0.2943
 2342SOL    HW118488   4.544   1.558   3.991 -1.1146 -0.2634  0.6954
 2342SOL    HW218489   4.639   1.572   3.879  0.0885  0.0293  0.2956
 2343SOL     OW18490   3.087   1.729   2.467  0.4844 -0.1876 -0.4378
 2343SOL    HW118491   3.161   1.685   2.510 -1.3297 -0.2408  2.6621
 2343SOL    HW218492   3.036   1.657   2.430 -0.5590  0.0995  0.4380
 2344SOL     OW18493   2.209   0.792  11.318  0.3117 -0.6531 -0.5539
 2344SOL    HW118494   2.195   0.733  11.393  0.5481 -1.4911 -1.1636
 2344SOL    HW218495   2.267   0.859  11.354 -0.6661  0.9882 -2.0555
 2345SOL     OW18496   2.826   1.105   4.331  0.3694  0.0216  0.0756
 2345SOL    HW118497   2.751   1.150   4.292  0.3746 -0.9177 -1.0082
 2345SOL    HW218498   2.788   1.062   4.408 -2.0367 -0.9318 -1.6590
 2346SOL     OW18499   0.851   1.035  14.822 -0.2275 -0.5029  0.0769
 2346SOL    HW118500   0.883   0.989  14.900  1.9777 -0.8942 -1.0497
 2346SOL    HW218501   0.932   1.077  14.791 -0.1151 -0.8080 -0.0402
 2347SOL     OW18502   2.372   2.618  10.208  0.1871  0.4804  0.2060
 2347SOL    HW118503   2.287   2.638  10.247 -0.3441  1.9128 -1.6871
 2347SOL    HW218504   2.434   2.625  10.281 -0.7004  0.4682  0.9645
 2348SOL     OW18505   1.928   3.761   8.909 -0.3355 -0.1708 -0.2763
 2348SOL    HW118506   1.984   3.794   8.838  1.1759 -1.2990  0.3829
 2348SOL    HW218507   1.966   3.676   8.928  3.2570  1.8364  1.5811
 2349SOL     OW18508   4.227   3.854  14.460 -0.6708  0.3088  0.0167
 2349SOL    HW118509   4.251   3.946  14.462  1.0558 -0.1345  0.0199
 2349SOL    HW218510   4.172   3.861  14.382  0.6970 -0.5664 -1.0339
 2350SOL     OW18511   2.105   0.016   8.619 -0.4407 -0.5161 -0.0553
 2350SOL    HW118512   2.052   0.094   8.635  1.4198  0.8236 -0.3846
 2350SOL    HW218513   2.055   4.669   8.663  1.3120 -0.9851  1.2050
 2351SOL     OW18514   4.374   3.466   7.293 -0.3240 -0.8635  0.6286
 2351SOL    HW118515   4.383   3.527   7.220  0.1989  1.1980  2.4090
 2351SOL    HW218516   4.282   3.470   7.318 -1.4226 -0.4728 -3.3875
 2352SOL     OW18517   2.413   1.542   6.759  0.0241  0.0049  0.1375
 2352SOL    HW118518   2.422   1.496   6.843  0.6197 -2.3119 -1.1740
 2352SOL    HW218519   2.500   1.523   6.725  1.2247  1.7304  2.3095
 2353SOL     OW18520   4.619   0.440   5.096 -0.2415 -0.1147 -0.4059
 2353SOL    HW118521   4.527   0.468   5.100  0.4851  2.3019 -0.7031
 2353SOL    HW218522   4.605   0.345   5.100 -1.3873  0.0471 -0.5782
 2354SOL     OW18523   4.673   4.650   2.779 -0.2859 -0.2244 -0.4942
 2354SOL    HW118524   4.650   4.708   2.707  0.4224 -0.6748 -1.0937
 2354SOL    HW218525   4.652   4.710   2.850  2.8416 -0.7336  0.8889
 2355SOL     OW18526   4.437   0.225   4.011 -0.3473  0.4441 -0.3730
 2355SOL    HW118527   4.437   0.318   4.033  0.2963  0.0072  1.4609
 2355SOL    HW218528   4.513   0.228   3.953  1.4959 -2.8624  1.8892
 2356SOL     OW18529   3.750   2.627   2.075 -0.0398  0.1900 -0.3568
 2356SOL    HW118530   3.771   2.658   1.987  0.4122 -1.1700 -0.7420
 2356SOL    HW218531   3.808   2.550   2.069 -0.6171 -0.3146  0.4851
 2357SOL     OW18532   3.512   1.691   6.290  0.0274  0.4226 -0.2175
 2357SOL    HW118533   3.450   1.719   6.223 -0.5490 -1.0108 -0.2808
 2357SOL    HW218534   3.592   1.726   6.252 -0.2190  1.3501  0.1002
 2358SOL     OW18535   0.939   0.911   7.960 -0.8183 -0.0794 -0.2035
 2358SOL    HW118536   0.949   0.868   7.874 -0.8109 -0.6038  0.0586
 2358SOL    HW218537   0.932   1.002   7.933  0.1072 -0.1784 -0.7812
 2359SOL     OW18538   3.559   2.998   8.272  0.4606  0.1308  0.0952
 2359SOL    HW118539   3.567   2.914   8.227  0.3586  0.7070 -0.9846
 2359SOL    HW218540   3.650   3.006   8.301  1.0578  0.0817 -1.8227
 2360SOL     OW18541   3.706   1.279   8.519 -0.0065  0.3357  0.1144
 2360SOL    HW118542   3.730   1.270   8.611  1.6481  1.8182 -0.1822
 2360SOL    HW218543   3.765   1.206   8.500 -1.3627 -0.9646  0.9002
 2361SOL     OW18544   3.844   2.494  15.195  0.4075 -0.0496 -0.0606
 2361SOL    HW118545   3.922   2.538  15.230  0.3418 -0.7930  1.0151
 2361SOL    HW218546   3.890   2.432  15.139  0.4112 -0.0518 -0.0553
 2362SOL     OW18547   3.954   1.675  13.491 -0.2417  0.0087  0.1691
 2362SOL    HW118548   4.008   1.735  13.544 -0.3158  2.2210 -2.2635
 2362SOL    HW218549   3.949   1.593  13.539  1.4858  0.5624  1.2888
 2363SOL     OW18550   3.459   2.912  11.288 -0.5320  0.8389  0.8625
 2363SOL    HW118551   3.482   2.948  11.374  1.0296 -0.1676  0.8636
 2363SOL    HW218552   3.435   2.824  11.316 -0.2179  0.2424 -0.7449
 2364SOL     OW18553   2.439   0.996   7.538  0.0504  0.6151  0.3127
 2364SOL    HW118554   2.511   0.937   7.558  0.9314  1.6089  0.0848
 2364SOL    HW218555   2.485   1.072   7.501 -0.3824  0.2776 -0.9334
 2365SOL     OW18556   0.619   0.212  13.440  0.3884  0.4167 -0.7492
 2365SOL    HW118557   0.676   0.166  13.379 -0.4330  0.5700 -1.6290
 2365SOL    HW218558   0.579   0.139  13.487  1.6096  0.6750  0.6982
 2366SOL     OW18559   0.397   3.548   6.755  0.6032 -0.4935 -0.2425
 2366SOL    HW118560   0.438   3.469   6.791 -0.8617 -0.5809  1.2030
 2366SOL    HW218561   0.325   3.507   6.707 -0.1289  0.7158 -0.1492
 2367SOL     OW18562   1.524   0.097   4.859  0.1269  0.2994 -0.5216
 2367SOL    HW118563   1.534   0.011   4.901 -0.3724  1.5602  2.1900
 2367SOL    HW218564   1.605   0.136   4.892  1.0212 -0.4487 -1.8258
 2368SOL     OW18565   2.140   3.565  14.346  0.0151  0.0742  0.5100
 2368SOL    HW118566   2.235   3.574  14.337 -0.0292 -0.9393 -0.9689
 2368SOL    HW218567   2.125   3.562  14.440  1.7012 -1.6112  0.7392
 2369SOL     OW18568   1.114   2.657   4.458  0.3058 -0.0061 -0.3391
 2369SOL    HW118569   1.073   2.741   4.442  4.0790  2.0829  0.9653
 2369SOL    HW218570   1.072   2.634   4.541  0.6575  2.3236  0.4645
 2370SOL     OW18571   2.872   4.421   1.855 -0.2123 -0.7646 -0.2456
 2370SOL    HW118572   2.793   4.378   1.821  0.7971 -0.1470 -3.3521
 2370SOL    HW218573   2.862   4.406   1.949 -1.2574  1.6395  0.0319
 2371SOL     OW18574   0.720   4.198   3.354 -0.1717 -0.0238  0.0244
 2371SOL    HW118575   0.728   4.130   3.286 -1.4104 -1.1336  0.9971
 2371SOL    HW218576   0.629   4.224   3.363 -0.1408  0.7821 -2.0752
 2372SOL     OW18577   3.885   0.638   7.544 -0.3497 -0.6923 -0.5341
 2372SOL    HW118578   3.797   0.640   7.581  0.7731  1.0694  2.0898
 2372SOL    HW218579   3.861   0.643   7.452  1.4615  1.1454 -0.9063
 2373SOL     OW18580   0.808   0.518   7.306 -0.0075  0.2740 -0.3416
 2373SOL    HW118581   0.858   0.437   7.302 -0.7092  0.0361 -3.7941
 2373SOL    HW218582   0.815   0.553   7.217  1.1341  0.7007 -0.0837
 2374SOL     OW18583   4.589   2.393   7.806 -0.4699 -0.4700  0.7709
 2374SOL    HW118584   4.515   2.353   7.760 -2.1716 -0.6910  3.6698
 2374SOL    HW218585   4.660   2.335   7.779 -0.2180  0.4675 -0.5549
 2375SOL     OW18586   0.099   2.568   6.352  0.6936  0.0398  0.0489
 2375SOL    HW118587   0.105   2.652   6.307  2.5365 -1.6272 -2.8072
 2375SOL    HW218588   0.188   2.539   6.336 -0.2795 -3.5561  1.0542
 2376SOL     OW18589   1.880   4.289  12.600  0.5192 -0.5576 -0.3788
 2376SOL    HW118590   1.959   4.273  12.549  1.5324  2.9034  0.1423
 2376SOL    HW218591   1.867   4.378  12.569  2.8802 -0.2748 -0.5100
 2377SOL     OW18592   2.509   2.286   7.256  0.0129 -0.2030  0.4093
 2377SOL    HW118593   2.581   2.287   7.193  0.0085  0.0557  0.4083
 2377SOL    HW218594   2.559   2.277   7.338 -0.6283 -2.2532  0.5693
 2378SOL     OW18595   3.347   4.712  13.144 -0.3934  0.6032 -0.1184
 2378SOL    HW118596   3.252   0.001  13.135 -0.2071 -0.6322 -3.7661
 2378SOL    HW218597   3.365   4.695  13.052  0.6229 -0.6168  0.3086
 2379SOL     OW18598   3.818   1.617   4.010 -0.2038 -0.4284  0.0790
 2379SOL    HW118599   3.826   1.707   4.042 -2.8688 -0.0101 -0.3992
 2379SOL    HW218600   3.774   1.639   3.928  1.5808  3.3148  0.1213
 2380SOL     OW18601   1.541   1.906   4.827  0.4518  0.0079  0.3151
 2380SOL    HW118602   1.478   1.978   4.839  0.5565  0.4939 -2.1350
 2380SOL    HW218603   1.624   1.950   4.845 -1.4337  2.8328  2.1775
 2381SOL     OW18604   1.061   3.065   4.964 -0.0490  0.6307  0.2456
 2381SOL    HW118605   1.022   3.091   4.880 -0.5281 -0.3815  0.1562
 2381SOL    HW218606   0.982   3.080   5.016  0.9999  1.0900  1.6919
 2382SOL     OW18607   0.074   0.595   3.244  0.4712 -0.0979 -0.0691
 2382SOL    HW118608   0.084   0.526   3.179 -1.7447  1.7167 -2.3035
 2382SOL    HW218609   0.160   0.635   3.232 -0.2069  1.3675  0.0622
 2383SOL     OW18610   1.819   0.500   8.650 -0.4768 -0.4458  0.8088
 2383SOL    HW118611   1.818   0.405   8.641  1.4919 -0.4616  0.5733
 2383SOL    HW218612   1.834   0.511   8.744  0.5887 -1.6754  0.7827
 2384SOL     OW18613   0.660   1.386   3.541  0.4826  1.0597  0.2540
 2384SOL    HW118614   0.604   1.368   3.617  0.2982  0.4432 -0.0331
 2384SOL    HW218615   0.601   1.375   3.467  0.9271 -0.3203  0.1044
 2385SOL     OW18616   2.216   1.230   7.407 -0.0827 -0.1147 -0.0307
 2385SOL    HW118617   2.126   1.237   7.438  0.2973  1.0346  0.8260
 2385SOL    HW218618   2.254   1.265   7.488  2.5165  1.0167 -1.7272
 2386SOL     OW18619   0.319   2.889  17.665  0.7940  0.3643  0.1518
 2386SOL    HW118620   0.294   2.977  17.637  1.2327  0.9718  1.6846
 2386SOL    HW218621   0.414   2.889  17.658  0.7693 -0.7775 -0.3218
 2387SOL     OW18622   2.764   0.455   1.256 -0.2172  0.3620 -0.1412
 2387SOL    HW118623   2.781   0.367   1.223  0.5221  0.2862  0.4389
 2387SOL    HW218624   2.684   0.443   1.307 -0.5173 -0.9892 -0.9247
 2388SOL     OW18625   2.101   0.529  14.758  0.7025 -0.0898 -0.5114
 2388SOL    HW118626   2.139   0.585  14.825 -1.8891  0.3767  0.5685
 2388SOL    HW218627   2.125   0.574  14.677  1.0327  0.8267  0.0941
 2389SOL     OW18628   3.028   3.689   2.105  0.0768  0.3095  0.1414
 2389SOL    HW118629   2.991   3.778   2.100  1.7476  0.9606 -0.6838
 2389SOL    HW218630   3.040   3.675   2.011 -2.1809 -1.0647  0.0477
 2390SOL     OW18631   3.506   2.519   1.875  0.0669 -0.2853 -0.3753
 2390SOL    HW118632   3.582   2.523   1.818  1.7259 -1.3281  1.7323
 2390SOL    HW218633   3.440   2.575   1.835 -0.3891  0.2601  1.1492
 2391SOL     OW18634   1.637   2.864  14.801  0.2287 -0.0698 -0.2524
 2391SOL    HW118635   1.572   2.794  14.814 -1.3632  1.1202 -1.7111
 2391SOL    HW218636   1.720   2.827  14.831 -0.3765 -0.2240  1.2435
 2392SOL     OW18637   0.428   2.348  15.849 -0.6610 -0.1528  0.1342
 2392SOL    HW118638   0.478   2.271  15.876  0.7181  0.3681 -0.9492
 2392SOL    HW218639   0.396   2.384  15.932 -0.6022 -0.7671  0.4223
 2393SOL     OW18640   2.230   4.414   8.458  0.0009 -0.6762 -0.6573
 2393SOL    HW118641   2.141   4.414   8.422 -0.8082  1.0357  1.3387
 2393SOL    HW218642   2.250   4.322   8.442 -1.1161 -0.9512 -0.4697
 2394SOL     OW18643   3.106   1.492   2.644 -0.4982  0.4232 -0.7750
 2394SOL    HW118644   3.111   1.420   2.707  1.6470 -0.2944 -1.7430
 2394SOL    HW218645   3.132   1.561   2.705  1.0005 -1.7589  1.0563
 2395SOL     OW18646   2.891   1.096  12.604  0.3391  0.0777  0.3732
 2395SOL    HW118647   2.828   1.143  12.549  1.4967 -0.4504 -1.4026
 2395SOL    HW218648   2.877   1.146  12.684 -0.9492 -0.8619  0.7472
 2396SOL     OW18649   3.827   1.141   0.799  0.1792  0.8862  0.4565
 2396SOL    HW118650   3.749   1.167   0.751 -0.0859 -0.6095  0.0804
 2396SOL    HW218651   3.895   1.157   0.734 -0.0270  3.8096  0.9171
 2397SOL     OW18652   3.510   2.050  12.638  0.5959  0.5005 -0.6393
 2397SOL    HW118653   3.495   1.959  12.610  1.5857  0.2530 -0.3675
 2397SOL    HW218654   3.556   2.087  12.563  0.8326 -0.9586 -1.2308
 2398SOL     OW18655   0.360   3.461   2.697  0.0802 -0.6303  0.3383
 2398SOL    HW118656   0.427   3.399   2.726  0.6508  1.2211  2.8895
 2398SOL    HW218657   0.403   3.489   2.616  0.0354 -1.0619  0.1637
 2399SOL     OW18658   3.460   2.573  13.834  0.7452  0.1835 -0.0355
 2399SOL    HW118659   3.513   2.650  13.853  0.2574  0.4841  0.0859
 2399SOL    HW218660   3.376   2.611  13.807  1.5008  0.7795 -1.5358
 2400SOL     OW18661   1.345   2.083  12.537  0.0189 -0.2396  0.1376
 2400SOL    HW118662   1.346   2.054  12.628 -0.3789 -1.6375 -0.3191
 2400SOL    HW218663   1.394   2.007  12.507 -0.4389 -0.1060 -0.9611
 2401SOL     OW18664   1.981   1.186   5.410 -0.6004  0.2521  0.1147
 2401SOL    HW118665   1.990   1.273   5.450  0.2705  0.3690 -0.3322
 2401SOL    HW218666   1.899   1.193   5.361  0.3250 -0.8786 -1.5738
 2402SOL     OW18667   2.286   1.083  11.898  0.2541  0.2045 -0.2760
 2402SOL    HW118668   2.313   1.149  11.961 -0.5507 -0.5065  0.7988
 2402SOL    HW218669   2.195   1.108  11.882 -0.3402 -1.4208  0.5628
 2403SOL     OW18670   3.550   1.487   0.979  0.1668  0.0987  0.0528
 2403SOL    HW118671   3.548   1.528   0.892 -1.4292 -2.8567 -1.3204
 2403SOL    HW218672   3.464   1.450   0.997  0.8809 -2.0347 -0.9460
 2404SOL     OW18673   1.052   2.643   6.317  0.5521 -0.1271 -0.2717
 2404SOL    HW118674   1.019   2.599   6.238  1.2775  2.0591 -1.8174
 2404SOL    HW218675   1.124   2.589   6.347  0.1011 -1.2777 -1.2689
 2405SOL     OW18676   0.406   4.591  14.787 -0.2496 -0.4862 -0.0818
 2405SOL    HW118677   0.470   4.657  14.816 -0.4458 -0.5353  0.4663
 2405SOL    HW218678   0.339   4.607  14.853  0.7237  0.2101  0.7345
 2406SOL     OW18679   4.295   4.687  17.060 -0.4505  0.3367  0.5025
 2406SOL    HW118680   4.317   0.058  17.050  1.3804 -0.1908 -0.3371
 2406SOL    HW218681   4.199   4.692  17.054 -0.3642  1.6135  0.1679
 2407SOL     OW18682   0.265   4.674  13.230  0.5362  0.6658  0.4063
 2407SOL    HW118683   0.213   0.030  13.213 -1.2776 -0.3618  1.3185
 2407SOL    HW218684   0.205   4.600  13.229  0.4649  0.7245  0.3979
 2408SOL     OW18685   1.868   0.439   4.121 -0.6414 -0.4547  0.9047
 2408SOL    HW118686   1.939   0.473   4.176 -0.5180 -1.3249  1.2814
 2408SOL    HW218687   1.913   0.380   4.061 -0.1911  1.5907 -0.7759
 2409SOL     OW18688   3.406   3.858   3.191 -0.2805  0.1822  0.3669
 2409SOL    HW118689   3.361   3.831   3.111  0.3821  0.2386 -0.0263
 2409SOL    HW218690   3.435   3.944   3.160 -1.6753  0.5179 -0.0209
 2410SOL     OW18691   2.084   4.539  10.516  0.3126  0.8684  0.0020
 2410SOL    HW118692   2.105   4.557  10.424 -1.7443  1.6202 -0.3281
 2410SOL    HW218693   2.059   4.446  10.520  1.2826  0.6056 -0.0884
 2411SOL     OW18694   2.389   4.505  16.861  0.1620  0.2619 -0.0613
 2411SOL    HW118695   2.343   4.421  16.862  2.1196 -0.7808  1.7439
 2411SOL    HW218696   2.475   4.464  16.848 -0.1554  0.1866 -1.9013
 2412SOL     OW18697   1.010   0.618   8.011  0.1837 -0.0277 -0.7876
 2412SOL    HW118698   1.071   0.545   8.020  1.4161  0.7877 -2.6626
 2412SOL    HW218699   0.970   0.603   7.925 -0.3087 -0.0861 -0.5484
 2413SOL     OW18700   4.217   2.776   7.150  0.2000  0.3364  0.0129
 2413SOL    HW118701   4.262   2.794   7.067  1.4401 -1.0904  0.3734
 2413SOL    HW218702   4.257   2.851   7.195 -0.2032  0.4153  0.2338
 2414SOL     OW18703   2.290   2.441   8.414 -0.0811 -0.2401 -0.4382
 2414SOL    HW118704   2.344   2.387   8.471  0.4862  1.8270  0.9677
 2414SOL    HW218705   2.269   2.372   8.351 -0.4764  0.3476 -0.9439
 2415SOL     OW18706   0.366   0.716   6.480  0.5975 -0.0745  0.1288
 2415SOL    HW118707   0.427   0.757   6.540  1.8955 -0.4475 -0.9290
 2415SOL    HW218708   0.381   0.762   6.397 -0.3168  1.5863  0.8913
 2416SOL     OW18709   2.702   3.976   1.396  0.5444 -0.1538  0.4736
 2416SOL    HW118710   2.707   3.887   1.431  1.1502 -0.7834 -1.1864
 2416SOL    HW218711   2.770   3.967   1.329 -0.4198  1.4071 -0.7256
 2417SOL     OW18712   4.069   2.119  12.353 -0.4861  0.0296  0.4699
 2417SOL    HW118713   4.017   2.097  12.276  1.3504  3.2427 -1.6602
 2417SOL    HW218714   4.022   2.198  12.378 -0.5143 -0.1151  0.8849
 2418SOL     OW18715   3.668   3.211  16.158  0.9207 -0.3737 -0.2953
 2418SOL    HW118716   3.619   3.142  16.203 -0.9097  1.5245  0.5525
 2418SOL    HW218717   3.617   3.289  16.176 -0.6249 -1.5433  0.3698
 2419SOL     OW18718   0.336   2.917  11.459  0.2471 -0.1358 -0.0595
 2419SOL    HW118719   0.372   2.984  11.516  2.1561 -1.3182  0.1301
 2419SOL    HW218720   0.363   2.845  11.516 -0.7186  1.2075  2.0580
 2420SOL     OW18721   1.162   2.702   3.864  0.0704  0.0738 -0.4768
 2420SOL    HW118722   1.180   2.673   3.953  2.0483 -2.0296 -1.5641
 2420SOL    HW218723   1.231   2.767   3.850  0.3885 -0.0096  0.7283
 2421SOL     OW18724   3.575   3.040   7.103 -0.4063  0.1192  0.0236
 2421SOL    HW118725   3.576   2.967   7.165 -0.0291  0.7534  0.7616
 2421SOL    HW218726   3.612   3.116   7.148  0.8842  1.5582 -3.4668
 2422SOL     OW18727   4.488   0.421  12.055 -0.0518 -0.2360  0.1571
 2422SOL    HW118728   4.484   0.394  11.963  1.8009  0.4711 -0.1285
 2422SOL    HW218729   4.442   0.504  12.061  0.7117  0.3264 -1.6848
 2423SOL     OW18730   4.359   2.295   5.652 -0.5266  0.2204 -0.2111
 2423SOL    HW118731   4.451   2.296   5.679 -0.0333 -0.1315 -1.8991
 2423SOL    HW218732   4.324   2.327   5.735 -0.3725  0.2321 -0.1505
 2424SOL     OW18733   3.610   3.388   5.910 -0.1676 -0.0014  0.5251
 2424SOL    HW118734   3.674   3.388   5.839  0.7143 -1.3526  1.3051
 2424SOL    HW218735   3.557   3.310   5.894  0.0052 -0.2572  1.2035
 2425SOL     OW18736   3.058   1.138  13.215 -0.5188 -0.1927  0.5808
 2425SOL    HW118737   2.977   1.087  13.213 -0.3396 -0.4579  0.0593
 2425SOL    HW218738   3.062   1.167  13.123 -2.9140 -0.1683  0.4607
 2426SOL     OW18739   3.892   0.593   7.826  0.3412  0.0938  0.0210
 2426SOL    HW118740   3.946   0.640   7.763  1.4304 -1.2347 -0.0307
 2426SOL    HW218741   3.932   0.623   7.908  2.3310 -0.6415 -0.6855
 2427SOL     OW18742   3.519   3.045   3.955 -0.1124 -0.5396 -0.2992
 2427SOL    HW118743   3.583   2.983   3.919  1.4795  1.8744 -1.6267
 2427SOL    HW218744   3.479   3.085   3.877  0.6577  0.4092 -0.2000
 2428SOL     OW18745   3.947   1.296  14.489 -0.8341  0.1081 -0.3178
 2428SOL    HW118746   3.881   1.360  14.459 -1.7242 -0.4729  0.4121
 2428SOL    HW218747   3.949   1.228  14.422  0.7362 -0.7624  0.6381
 2429SOL     OW18748   3.502   2.446   8.361 -0.3643 -0.5860 -0.2203
 2429SOL    HW118749   3.496   2.383   8.289  3.3724 -0.6948 -0.4362
 2429SOL    HW218750   3.512   2.526   8.309  0.7698 -0.2733  0.4804
 2430SOL     OW18751   1.878   2.276  13.064  0.1286  0.1402  0.1666
 2430SOL    HW118752   1.868   2.355  13.117 -0.7624 -0.5073  0.9708
 2430SOL    HW218753   1.974   2.278  13.066  0.1671 -0.3376 -1.3209
 2431SOL     OW18754   0.533   4.027   6.320  0.2982 -0.2119  0.2079
 2431SOL    HW118755   0.604   3.996   6.264  2.5957  2.6093  1.5337
 2431SOL    HW218756   0.485   3.946   6.337 -0.4358  0.1843  0.0516
 2432SOL     OW18757   4.123   0.730   7.652  0.5803  0.1597 -0.1996
 2432SOL    HW118758   4.059   0.685   7.598  0.3835 -0.5204  0.5908
 2432SOL    HW218759   4.088   0.819   7.645  1.2747  0.4866  0.4599
 2433SOL     OW18760   3.370   4.348  14.783 -0.7623  0.8280  0.5336
 2433SOL    HW118761   3.310   4.393  14.843  1.4223  0.8385  2.7272
 2433SOL    HW218762   3.336   4.259  14.786  0.4475  0.3970  1.7895
 2434SOL     OW18763   2.123   0.122   1.877 -0.1059  0.0566  0.1022
 2434SOL    HW118764   2.177   0.191   1.916 -0.2873  0.8959 -1.1399
 2434SOL    HW218765   2.151   0.053   1.938  0.8810  0.2754 -0.1184
 2435SOL     OW18766   0.601   2.388   6.221  0.0562 -0.3351 -0.0562
 2435SOL    HW118767   0.656   2.451   6.267 -1.1317  0.2677  0.5512
 2435SOL    HW218768   0.640   2.303   6.240 -0.9049 -0.5153  1.1777
 2436SOL     OW18769   3.610   0.159   4.500 -0.2470 -0.1898 -0.2987
 2436SOL    HW118770   3.700   0.186   4.483 -0.5268  0.7422 -0.3168
 2436SOL    HW218771   3.567   0.214   4.435 -1.0804  0.5028  0.8406
 2437SOL     OW18772   0.279   2.475  15.657  0.3389  0.3551 -0.0982
 2437SOL    HW118773   0.185   2.478  15.674  0.3505 -4.7382  0.8301
 2437SOL    HW218774   0.302   2.418  15.731  2.0515  0.3857 -0.6223
 2438SOL     OW18775   3.934   3.506   9.157  0.2685  0.2270  0.2026
 2438SOL    HW118776   3.923   3.599   9.174 -1.1130  0.1968 -0.4943
 2438SOL    HW218777   4.014   3.488   9.206  0.7475  4.0659  0.7648
 2439SOL     OW18778   2.759   0.042  14.213 -0.1129 -0.4588 -0.5337
 2439SOL    HW118779   2.775   0.134  14.234  0.6976 -1.0631  1.5531
 2439SOL    HW218780   2.685   0.020  14.270  0.5211 -0.4987  0.2832
 2440SOL     OW18781   4.192   1.287   4.626  0.1289 -0.5546 -0.0221
 2440SOL    HW118782   4.100   1.296   4.603  1.0725  1.3731 -3.0570
 2440SOL    HW218783   4.194   1.307   4.720 -1.0329 -1.3816  0.1824
 2441SOL     OW18784   1.485   0.520  13.404 -0.2343 -0.6982  0.7608
 2441SOL    HW118785   1.424   0.593  13.395 -2.2298 -2.5767 -0.9917
 2441SOL    HW218786   1.421   0.457  13.372 -0.2618 -0.6590  0.7387
 2442SOL     OW18787   0.158   1.267  13.600 -0.4238 -0.2375  0.1658
 2442SOL    HW118788   0.179   1.350  13.642  0.3451  0.5574 -1.8199
 2442SOL    HW218789   0.080   1.289  13.550 -0.1662 -0.8805 -0.5286
 2443SOL     OW18790   2.124   1.312   4.102  0.0271  0.4420 -0.5009
 2443SOL    HW118791   2.203   1.320   4.049 -0.9072 -1.1474 -2.1449
 2443SOL    HW218792   2.103   1.401   4.130  0.7551  0.5785 -0.3794
 2444SOL     OW18793   4.703   2.107  17.012  0.1948 -0.4103 -0.4287
 2444SOL    HW118794   4.698   2.056  16.931  0.2777 -0.5049 -0.3750
 2444SOL    HW218795   4.686   2.198  16.989 -1.3366  0.2732  3.4667
 2445SOL     OW18796   1.753   1.945   7.419  0.7288 -0.2502  0.5214
 2445SOL    HW118797   1.738   2.035   7.449  0.6190 -0.2855  0.5744
 2445SOL    HW218798   1.788   1.954   7.331 -0.8826 -0.6437 -0.1621
 2446SOL     OW18799   3.924   3.535   7.732 -0.0562 -0.1281 -0.2590
 2446SOL    HW118800   3.920   3.500   7.643  1.0926  1.0907 -0.7963
 2446SOL    HW218801   3.893   3.460   7.781  0.1546  0.4534  0.7564
 2447SOL     OW18802   2.120   2.377   8.850 -0.1346 -0.0208 -0.0824
 2447SOL    HW118803   2.097   2.349   8.761 -0.0455 -1.0259  0.2222
 2447SOL    HW218804   2.103   2.293   8.892  3.4381  0.1061  1.5780
 2448SOL     OW18805   0.196   3.896   3.163  0.2078 -0.1648  0.4168
 2448SOL    HW118806   0.189   3.959   3.091 -1.0209  0.0037  0.6818
 2448SOL    HW218807   0.118   3.920   3.214 -0.6715 -0.5904 -0.7377
 2449SOL     OW18808   3.057   1.958  12.619  0.2037 -0.0460  0.4980
 2449SOL    HW118809   3.126   1.984  12.558  0.1671  2.8654  1.6881
 2449SOL    HW218810   3.047   1.867  12.593 -1.5984  1.1684 -2.9513
 2450SOL     OW18811   2.009   2.204  15.630 -0.2077 -0.2679  0.1833
 2450SOL    HW118812   2.083   2.209  15.690 -0.7565  1.5090  0.7054
 2450SOL    HW218813   2.003   2.109  15.619 -3.1454  0.1997 -2.1027
 2451SOL     OW18814   4.159   0.702   2.146  0.5031  0.2625 -0.4021
 2451SOL    HW118815   4.143   0.791   2.178 -1.6864  0.0650 -0.9078
 2451SOL    HW218816   4.068   0.671   2.148  0.1255  1.2885 -2.0733
 2452SOL     OW18817   4.687   4.546   4.962  0.2579 -0.2854 -0.0067
 2452SOL    HW118818   4.685   4.544   5.058 -0.0575  2.3427  0.0249
 2452SOL    HW218819   4.711   4.454   4.950  0.8376  0.1546 -2.1043
 2453SOL     OW18820   0.261   0.671   3.982  0.3215  0.4168  0.2687
 2453SOL    HW118821   0.211   0.753   3.979 -0.5516 -0.1415 -0.2972
 2453SOL    HW218822   0.351   0.696   3.962  1.0934 -0.8366  2.2727
 2454SOL     OW18823   2.455   4.266   7.477 -0.4796 -0.0504  0.1429
 2454SOL    HW118824   2.430   4.209   7.404 -0.9580  1.3436 -0.7908
 2454SOL    HW218825   2.539   4.233   7.509  0.7608 -0.2904 -3.2506
 2455SOL     OW18826   1.927   4.668   7.365 -0.6499  0.3977  0.0426
 2455SOL    HW118827   1.908   0.003   7.439  0.1180 -0.8106  1.1576
 2455SOL    HW218828   1.882   4.588   7.390  2.9267 -0.7532  2.6782
 2456SOL     OW18829   2.120   2.802   4.006  0.1358 -0.6256  0.7047
 2456SOL    HW118830   2.179   2.874   4.030 -0.1052 -0.2752  0.2523
 2456SOL    HW218831   2.180   2.729   4.023  0.0304 -0.6990  0.7633
 2457SOL     OW18832   1.597   2.538   6.355 -0.2123  0.3747 -0.4646
 2457SOL    HW118833   1.555   2.486   6.286 -0.2565  1.1447 -1.0191
 2457SOL    HW218834   1.602   2.480   6.431  0.4896 -1.6161 -2.0273
 2458SOL     OW18835   2.683   1.340   0.813 -0.1606  0.1111 -0.0507
 2458SOL    HW118836   2.710   1.385   0.733 -0.3664  0.1091 -0.1195
 2458SOL    HW218837   2.735   1.260   0.818  1.0889  0.9413  0.3512
 2459SOL     OW18838   0.179   2.453   8.549 -0.1401  0.0949  0.4962
 2459SOL    HW118839   0.208   2.487   8.633  0.2508  1.1721 -0.0823
 2459SOL    HW218840   0.120   2.379   8.567  1.5718 -1.7568 -1.4540
 2460SOL     OW18841   2.832   1.878  14.143  0.3673  0.1155 -0.7782
 2460SOL    HW118842   2.769   1.895  14.073 -0.0100  0.3160 -0.3979
 2460SOL    HW218843   2.838   1.782  14.140  0.1882  0.0258  1.5212
 2461SOL     OW18844   3.941   2.445   0.858  0.0438  0.1861 -0.8206
 2461SOL    HW118845   3.881   2.399   0.917  0.4125 -0.9388 -1.3053
 2461SOL    HW218846   3.911   2.430   0.768 -1.8009  0.0231 -0.1904
 2462SOL     OW18847   1.566   2.833   3.856  0.4029 -0.3060  0.4277
 2462SOL    HW118848   1.539   2.745   3.829 -0.3304  0.4410 -1.2964
 2462SOL    HW218849   1.659   2.820   3.876  0.3902 -0.0692  0.6347
 2463SOL     OW18850   3.542   3.999   5.860  0.2169  0.1778  0.0986
 2463SOL    HW118851   3.509   4.088   5.874 -2.0265 -0.5311 -0.7595
 2463SOL    HW218852   3.490   3.953   5.925 -0.7843 -0.1112 -0.9102
 2464SOL     OW18853   4.497   2.488  17.504 -0.1784  0.1119  0.0781
 2464SOL    HW118854   4.577   2.449  17.467 -0.5970 -0.1620 -0.5430
 2464SOL    HW218855   4.453   2.413  17.544  1.0136 -1.2680 -1.1995
 2465SOL     OW18856   1.899   0.828  14.662  0.3856  0.0893  0.1399
 2465SOL    HW118857   1.890   0.921  14.685  1.6758  0.9023 -2.7060
 2465SOL    HW218858   1.821   0.792  14.705 -1.4656  1.7676 -1.8142
 2466SOL     OW18859   1.583   0.172   8.831  0.3733  0.1283 -0.2654
 2466SOL    HW118860   1.555   0.092   8.875  0.8673 -0.1437 -0.4558
 2466SOL    HW218861   1.612   0.212   8.913 -2.1696 -0.4905  0.9399
 2467SOL     OW18862   1.294   2.315   6.820 -0.6213 -0.2740  0.2355
 2467SOL    HW118863   1.218   2.324   6.762 -0.8576 -0.5085  0.5067
 2467SOL    HW218864   1.288   2.393   6.876 -1.1422 -0.7648  0.8742
 2468SOL     OW18865   2.608   2.009   0.655  0.1690  0.5641  0.3043
 2468SOL    HW118866   2.592   2.032   0.747 -2.3317 -1.1173  0.3086
 2468SOL    HW218867   2.523   1.969   0.635 -0.2381  1.4713  0.2120
 2469SOL     OW18868   2.599   3.775  12.326  0.0254  0.3488 -0.1183
 2469SOL    HW118869   2.562   3.825  12.253  1.7206  1.9140  0.0976
 2469SOL    HW218870   2.626   3.694  12.282 -2.0929  1.2835 -3.1648
 2470SOL     OW18871   0.184   2.487   9.359 -0.2500 -0.5915  0.5450
 2470SOL    HW118872   0.104   2.444   9.393 -1.5894  0.8091 -0.8629
 2470SOL    HW218873   0.167   2.576   9.329  3.1093  0.1389  0.8425
 2471SOL     OW18874   1.397   3.692   4.787 -0.9490 -0.5803  0.4226
 2471SOL    HW118875   1.393   3.688   4.692 -2.1969 -1.7749  0.5107
 2471SOL    HW218876   1.410   3.600   4.812 -0.4961 -1.2682 -2.3396
 2472SOL     OW18877   2.023   4.297   7.430 -0.3575 -0.2543 -0.1353
 2472SOL    HW118878   2.060   4.247   7.503 -0.8021 -1.8200 -0.9762
 2472SOL    HW218879   1.952   4.345   7.473  0.1950  0.3690  0.0881
 2473SOL     OW18880   4.486   0.384  12.762 -0.1338 -0.1996 -0.0450
 2473SOL    HW118881   4.439   0.305  12.789 -0.4715  0.0498  0.1062
 2473SOL    HW218882   4.509   0.418  12.849 -2.0052  0.4603  0.1970
 2474SOL     OW18883   3.301   3.376   8.858  0.6321 -0.2102 -0.0078
 2474SOL    HW118884   3.373   3.431   8.890  0.9080 -0.6111  0.0658
 2474SOL    HW218885   3.250   3.362   8.938  2.3088  1.9713  1.4555
 2475SOL     OW18886   3.713   1.026   1.045  0.3079 -0.4845  0.4130
 2475SOL    HW118887   3.760   1.109   1.057 -0.9349  0.3278 -0.3960
 2475SOL    HW218888   3.720   1.022   0.950  0.0353  0.2234  0.3623
 2476SOL     OW18889   3.016   0.862  12.442  0.5587  0.3363 -1.4818
 2476SOL    HW118890   2.970   0.791  12.486  2.9934 -0.7351 -0.6658
 2476SOL    HW218891   2.996   0.852  12.349 -0.5016  0.9107 -1.3188
 2477SOL     OW18892   0.388   0.007   4.017 -0.6092 -0.2721 -0.2604
 2477SOL    HW118893   0.378   0.102   4.013  2.0528 -0.1340 -4.0336
 2477SOL    HW218894   0.304   4.699   3.983 -2.1331  1.8173  1.6888
 2478SOL     OW18895   4.459   4.514   9.048  0.1680  0.2768  0.3024
 2478SOL    HW118896   4.514   4.481   8.977 -1.4342  0.0611 -0.8320
 2478SOL    HW218897   4.509   4.476   9.120  0.5723 -1.8811 -1.1073
 2479SOL     OW18898   0.401   2.551  12.541 -0.4466 -0.0011  0.0851
 2479SOL    HW118899   0.383   2.498  12.618 -0.3098  0.4358  0.4158
 2479SOL    HW218900   0.400   2.637  12.583  3.7144  0.6493 -1.1386
 2480SOL     OW18901   4.368   3.603   4.468  0.1474 -0.4757 -0.1422
 2480SOL    HW118902   4.454   3.567   4.447  1.6795  2.1159  1.5251
 2480SOL    HW218903   4.328   3.590   4.382  1.9161 -2.1565 -0.6919
 2481SOL     OW18904   3.085   2.774   2.233  0.5812  0.1855  0.4774
 2481SOL    HW118905   3.171   2.737   2.254  0.3432  0.0924  1.2800
 2481SOL    HW218906   3.071   2.709   2.164 -0.0326  0.3339  0.4682
 2482SOL     OW18907   2.866   2.857   7.108  0.3282 -0.0216 -0.4907
 2482SOL    HW118908   2.809   2.855   7.185  1.1396 -2.4071  0.0565
 2482SOL    HW218909   2.806   2.809   7.051  0.6590 -0.4038 -0.5177
 2483SOL     OW18910   4.443   2.951   4.579 -0.1360  0.6071  0.0262
 2483SOL    HW118911   4.438   2.990   4.491  1.9079 -2.8598 -1.6195
 2483SOL    HW218912   4.528   2.908   4.566 -0.3552 -0.5226  2.3508
 2484SOL     OW18913   3.276   4.321  13.712 -0.7309  0.2762  0.8112
 2484SOL    HW118914   3.305   4.330  13.803  1.7299  1.8373 -0.1295
 2484SOL    HW218915   3.266   4.414  13.693  0.9285  0.4651  0.8643
 2485SOL     OW18916   1.907   2.893   4.200 -0.0844  0.1438  0.4003
 2485SOL    HW118917   1.853   2.968   4.177 -2.1674 -2.4506 -3.0498
 2485SOL    HW218918   1.933   2.860   4.114 -0.7824  1.7345 -0.4217
 2486SOL     OW18919   2.462   0.574   7.599  0.0589 -0.3245  0.1397
 2486SOL    HW118920   2.515   0.516   7.653  1.8326  0.2898 -0.9469
 2486SOL    HW218921   2.421   0.637   7.658  0.8519  0.4155 -0.0902
 2487SOL     OW18922   3.526   1.969   3.000  0.3790 -0.1009 -0.8212
 2487SOL    HW118923   3.564   2.016   3.073  0.0722 -0.0290 -0.7088
 2487SOL    HW218924   3.602   1.927   2.959  0.6734 -0.0941 -0.2754
 2488SOL     OW18925   1.403   2.247   3.482  0.2545  0.2505 -0.2664
 2488SOL    HW118926   1.440   2.174   3.433  0.2817 -0.0604  0.2115
 2488SOL    HW218927   1.416   2.210   3.570  1.3211 -0.9607 -0.9309
 2489SOL     OW18928   1.741   4.600  16.101 -0.1500 -0.2962 -0.0121
 2489SOL    HW118929   1.835   4.614  16.095  0.1461 -2.1492  0.0584
 2489SOL    HW218930   1.725   4.641  16.186 -2.7407 -3.6990  1.1590
 2490SOL     OW18931   2.961   4.144   7.527  0.0110 -0.1605 -0.6790
 2490SOL    HW118932   3.000   4.215   7.476  1.5250 -1.0943 -0.8472
 2490SOL    HW218933   3.021   4.136   7.601 -0.0535  0.4519 -0.5670
 2491SOL     OW18934   1.351   4.205   2.670  0.2109 -0.0261  0.2440
 2491SOL    HW118935   1.416   4.265   2.634  2.2884 -1.4134  1.6528
 2491SOL    HW218936   1.355   4.140   2.600  0.5346  0.7281 -0.4374
 2492SOL     OW18937   0.211   2.563  13.856 -0.2592 -0.3446  0.3625
 2492SOL    HW118938   0.296   2.533  13.889 -0.6848 -1.1524  0.7176
 2492SOL    HW218939   0.197   2.503  13.783 -1.0926  3.0241 -2.2531
 2493SOL     OW18940   1.558   1.169   6.106 -0.4664  0.4366  0.2918
 2493SOL    HW118941   1.524   1.249   6.144 -0.8027  1.3676 -1.9646
 2493SOL    HW218942   1.571   1.203   6.018 -1.0263  1.0938  0.4648
 2494SOL     OW18943   3.860   1.585   7.800 -0.1306  0.2464 -0.4506
 2494SOL    HW118944   3.801   1.530   7.851  0.1364  0.3157 -0.0615
 2494SOL    HW218945   3.942   1.568   7.848 -0.3578  1.8957  0.5210
 2495SOL     OW18946   0.450   0.846  11.694  0.3117  0.2751  0.1176
 2495SOL    HW118947   0.475   0.860  11.603 -1.6479  1.8566 -0.1853
 2495SOL    HW218948   0.535   0.858  11.736  1.1327  0.5105 -1.6254
 2496SOL     OW18949   2.481   1.527   5.499 -0.4407  0.1502 -0.1428
 2496SOL    HW118950   2.407   1.577   5.463  0.1458 -0.1418 -1.7650
 2496SOL    HW218951   2.456   1.438   5.474 -1.8735  0.4623  0.1604
 2497SOL     OW18952   2.725   4.509   7.393 -0.3690 -0.2203  0.1139
 2497SOL    HW118953   2.633   4.535   7.402  0.2527  2.0792 -0.2796
 2497SOL    HW218954   2.745   4.500   7.486 -0.2147  0.4300  0.1394
 2498SOL     OW18955   2.448   3.279   7.642  0.3636  0.4483 -0.0749
 2498SOL    HW118956   2.375   3.337   7.622  0.4600 -0.0923 -1.9710
 2498SOL    HW218957   2.494   3.329   7.709  1.8772 -2.8351  1.3633
 2499SOL     OW18958   0.770   2.444   9.763 -0.9148  0.5327  0.3995
 2499SOL    HW118959   0.727   2.514   9.811  0.6185  2.0055 -0.3273
 2499SOL    HW218960   0.782   2.488   9.678 -0.4117 -0.1412  0.1199
 2500SOL     OW18961   1.293   1.616   5.243  0.0772 -0.5671  0.1480
 2500SOL    HW118962   1.323   1.530   5.273  1.5518  0.0141  0.3355
 2500SOL    HW218963   1.205   1.624   5.279 -0.7638 -1.1359 -1.7706
 2501SOL     OW18964   1.866   3.815   5.261  0.1329 -0.2027  0.1163
 2501SOL    HW118965   1.841   3.751   5.327 -1.9716 -1.9702 -2.4002
 2501SOL    HW218966   1.844   3.899   5.300 -2.4666 -0.5295 -0.6417
 2502SOL     OW18967   0.995   3.671   3.098  0.1838 -0.2918  0.3250
 2502SOL    HW118968   1.091   3.668   3.101  0.1633  1.1866  1.9755
 2502SOL    HW218969   0.967   3.707   3.014  1.8902  1.7605  0.6423
 2503SOL     OW18970   3.145   2.954   5.543  0.1168  0.5430 -0.0283
 2503SOL    HW118971   3.234   2.920   5.536  0.0310 -0.1738  2.1976
 2503SOL    HW218972   3.145   3.015   5.470  1.4116  2.8028  1.8737
 2504SOL     OW18973   3.884   3.052   1.252 -0.2913  0.1329 -0.1068
 2504SOL    HW118974   3.933   3.124   1.290  0.5511  0.6044 -2.0977
 2504SOL    HW218975   3.843   3.089   1.174 -1.4061  0.3237  0.5678
 2505SOL     OW18976   3.449   3.112  14.752 -0.3795  0.0655 -0.2167
 2505SOL    HW118977   3.428   3.170  14.825 -0.2082 -0.1725  0.0215
 2505SOL    HW218978   3.539   3.138  14.733 -0.3809 -0.4025 -0.8776
 2506SOL     OW18979   1.992   3.873   6.049 -0.2659 -0.3707  0.4283
 2506SOL    HW118980   1.948   3.929   6.113  1.9587  0.7356  0.9886
 2506SOL    HW218981   2.030   3.812   6.113  2.1633  1.6239  0.8845
 2507SOL     OW18982   1.222   1.083   4.041  0.0714  0.1662 -0.2231
 2507SOL    HW118983   1.299   1.057   4.091 -0.1190  0.4873  0.2343
 2507SOL    HW218984   1.269   1.135   3.975 -0.7222  2.2655  0.8709
 2508SOL     OW18985   3.677   0.383  10.531 -0.9319  0.5668 -0.1593
 2508SOL    HW118986   3.705   0.337  10.610  0.1610 -1.5717 -1.7837
 2508SOL    HW218987   3.613   0.440  10.572 -1.5554 -1.1748  1.2999
 2509SOL     OW18988   1.375   1.648   7.771 -0.0142 -0.1749 -0.3601
 2509SOL    HW118989   1.300   1.592   7.790  0.6897  0.7784  5.3926
 2509SOL    HW218990   1.450   1.597   7.801  0.3904  0.4382 -0.3321
 2510SOL     OW18991   2.795   3.182   3.361  0.0621 -0.2980  0.2068
 2510SOL    HW118992   2.871   3.240   3.358 -0.5098  0.5054  1.8031
 2510SOL    HW218993   2.790   3.166   3.455  1.3326  1.3657  0.5476
 2511SOL     OW18994   0.075   2.106   2.068  0.4036 -0.4482 -0.0729
 2511SOL    HW118995   0.124   2.136   2.145  3.1961  0.8067 -2.3446
 2511SOL    HW218996   0.063   2.012   2.077  1.3103 -0.6874 -1.4527
 2512SOL     OW18997   1.517   4.074   6.844  0.1656  0.4122 -0.2142
 2512SOL    HW118998   1.589   4.033   6.795  2.2037  1.1957  2.1313
 2512SOL    HW218999   1.563   4.148   6.884  0.5851  0.5793 -1.0115
 2513SOL     OW19000   0.798   0.213   7.188  0.1014 -0.3820 -0.1492
 2513SOL    HW119001   0.855   0.146   7.149  0.0589 -0.4988 -0.0132
 2513SOL    HW219002   0.852   0.283   7.225 -0.1564 -1.0918  1.6065
 2514SOL     OW19003   1.937   1.713   3.053  0.2909  0.2798 -0.0249
 2514SOL    HW119004   1.970   1.781   3.112  2.3312 -1.6060  1.0187
 2514SOL    HW219005   1.890   1.663   3.120 -0.5528  0.2745 -0.6316
 2515SOL     OW19006   2.387   2.180  14.935 -0.3912 -0.5024 -0.1845
 2515SOL    HW119007   2.383   2.114  15.004  1.4338  1.4273  1.7367
 2515SOL    HW219008   2.473   2.175  14.894 -0.8205 -0.4043 -1.1032
 2516SOL     OW19009   0.137   2.280  12.438 -0.0866 -0.4839  0.1958
 2516SOL    HW119010   0.218   2.229  12.438  0.3224  0.1726 -0.0054
 2516SOL    HW219011   0.170   2.369  12.442  0.6387 -0.6945 -1.0753
 2517SOL     OW19012   3.703   2.486  13.968 -0.1340 -0.2046  0.5770
 2517SOL    HW119013   3.675   2.520  14.053 -0.0401 -1.9998  1.3311
 2517SOL    HW219014   3.622   2.499  13.919 -1.0146 -0.8245  1.8799
 2518SOL     OW19015   3.112   0.132   4.691 -0.3491 -0.8676 -0.3514
 2518SOL    HW119016   3.200   0.141   4.655 -0.0126 -1.1052  0.3999
 2518SOL    HW219017   3.144   0.101   4.776 -0.6280 -0.9015 -0.2564
 2519SOL     OW19018   1.155   0.182   8.452  0.1243  0.2739  0.2825
 2519SOL    HW119019   1.192   0.174   8.540  0.4115 -0.7917  0.0657
 2519SOL    HW219020   1.095   0.255   8.465  0.7923  0.7872  0.5075
 2520SOL     OW19021   3.534   4.339   6.510  0.6342  0.2290 -0.6042
 2520SOL    HW119022   3.498   4.261   6.468 -0.5933  0.3372  0.2477
 2520SOL    HW219023   3.628   4.325   6.518  0.2652 -0.9256  1.9938
 2521SOL     OW19024   0.876   1.675   1.303  0.2681  0.0018 -0.0526
 2521SOL    HW119025   0.849   1.590   1.267 -2.6420  0.3985  1.2018
 2521SOL    HW219026   0.971   1.664   1.313  0.5690  0.6416 -2.1971
 2522SOL     OW19027   1.165   3.157   5.247 -0.5965 -0.2795 -0.5426
 2522SOL    HW119028   1.221   3.086   5.279 -0.8113  0.4076  1.3542
 2522SOL    HW219029   1.160   3.126   5.157 -0.4466  1.9608 -1.3162
 2523SOL     OW19030   1.290   4.305   4.320  0.1685  0.3628  0.1340
 2523SOL    HW119031   1.358   4.349   4.371 -3.2602  1.6765  3.5492
 2523SOL    HW219032   1.296   4.217   4.358 -0.5904 -0.1725 -0.9651
 2524SOL     OW19033   1.450   0.431  17.310 -0.2272  0.1695  0.0699
 2524SOL    HW119034   1.357   0.445  17.295 -0.8412 -1.2371  2.5112
 2524SOL    HW219035   1.477   0.438  17.219 -1.2705 -1.8168 -0.3895
 2525SOL     OW19036   3.142   0.257   2.076  0.2439 -0.5893  1.1396
 2525SOL    HW119037   3.228   0.298   2.087 -0.5678  1.1649  1.0994
 2525SOL    HW219038   3.093   0.319   2.022 -0.2521  0.1382  2.4187
 2526SOL     OW19039   0.583   4.026   2.446  0.4039 -0.1673  0.4531
 2526SOL    HW119040   0.589   3.938   2.481  1.6935 -0.5079 -0.5987
 2526SOL    HW219041   0.589   4.010   2.351 -0.5058  0.1827  0.3429
 2527SOL     OW19042   1.749   1.746   7.613  0.8488 -0.0345 -0.2924
 2527SOL    HW119043   1.796   1.790   7.684  0.7633 -0.4571  0.0259
 2527SOL    HW219044   1.775   1.813   7.549  1.4535  0.5984  0.6139
 2528SOL     OW19045   2.765   4.031  15.206 -0.3820  0.0561 -0.2721
 2528SOL    HW119046   2.704   4.017  15.279 -0.1481  0.8700  0.0775
 2528SOL    HW219047   2.726   4.113  15.176  0.5440  1.2666  1.8853
 2529SOL     OW19048   3.706   0.213   4.182  0.9234 -0.0135  0.0094
 2529SOL    HW119049   3.737   0.284   4.237 -0.3351  0.4470  0.1245
 2529SOL    HW219050   3.782   0.155   4.176  0.1388 -1.2478  2.1151
 2530SOL     OW19051   2.206   4.249   0.165  0.3942 -0.0558 -0.4865
 2530SOL    HW119052   2.145   4.217   0.099  0.9329 -1.4655 -0.3080
 2530SOL    HW219053   2.211   4.166   0.212 -1.4815  1.0849  1.7087
 2531SOL     OW19054   2.340   4.386   3.504  0.2521  0.0739  0.2600
 2531SOL    HW119055   2.253   4.422   3.487  0.7734  0.4714 -1.5300
 2531SOL    HW219056   2.371   4.364   3.417  0.7050 -0.5893  0.5902
 2532SOL     OW19057   3.705   0.363   2.238  0.2410  0.0668  0.1425
 2532SOL    HW119058   3.754   0.373   2.156  0.7148 -3.1438  0.0304
 2532SOL    HW219059   3.758   0.307   2.295  1.6329  0.6161 -0.5943
 2533SOL     OW19060   0.350   1.986   3.180 -0.0544  0.1046  0.0051
 2533SOL    HW119061   0.375   1.943   3.261  0.1937 -2.3305 -1.3782
 2533SOL    HW219062   0.427   2.041   3.167  0.2227 -0.1032  0.7791
 2534SOL     OW19063   1.951   3.743   6.323  0.3906 -1.0766  0.2404
 2534SOL    HW119064   1.948   3.812   6.389 -0.1334 -1.0820  0.2283
 2534SOL    HW219065   1.920   3.663   6.366 -1.0200 -0.4046  0.4866
 2535SOL     OW19066   0.278   0.584   5.594 -0.5611  0.7691  0.1027
 2535SOL    HW119067   0.273   0.497   5.554  2.9130  0.6585 -0.1070
 2535SOL    HW219068   0.311   0.567   5.682  0.6651  0.2539 -0.4609
 2536SOL     OW19069   2.423   0.928   3.966  0.1930 -0.1724 -0.1112
 2536SOL    HW119070   2.460   0.955   3.882 -1.7785  2.0275 -0.2950
 2536SOL    HW219071   2.346   0.878   3.940  0.2688 -0.5666  0.4419
 2537SOL     OW19072   3.111   1.498   8.525  0.1441  0.1314  0.1049
 2537SOL    HW119073   3.178   1.455   8.472 -0.4877  1.3879 -1.7192
 2537SOL    HW219074   3.047   1.524   8.458 -0.9770 -1.5174  0.5240
 2538SOL     OW19075   3.685   4.693  13.290  0.3494 -0.4531 -0.1524
 2538SOL    HW119076   3.720   0.008  13.210  0.3241  0.9164  0.4835
 2538SOL    HW219077   3.644   4.612  13.259 -2.5399  1.1689 -0.6250
 2539SOL     OW19078   1.205   4.082   7.598 -0.3307  0.4475  0.1921
 2539SOL    HW119079   1.160   4.000   7.620 -0.6171  0.1905 -1.2913
 2539SOL    HW219080   1.253   4.110   7.676  1.0718 -1.2981 -0.0129
 2540SOL     OW19081   2.815   3.906   2.925  0.3168 -0.1140 -0.1366
 2540SOL    HW119082   2.791   3.993   2.894  0.8060  0.3922  0.8765
 2540SOL    HW219083   2.896   3.925   2.973  0.7166 -0.7535 -0.5514
 2541SOL     OW19084   0.011   0.488  12.663 -0.0975  0.3697 -0.3039
 2541SOL    HW119085   0.069   0.412  12.675  0.7585  0.8678 -1.2651
 2541SOL    HW219086   4.654   0.457  12.706 -1.3893  1.6207 -1.7737
 2542SOL     OW19087   0.719   2.835  15.227  0.1950  0.1109 -0.2692
 2542SOL    HW119088   0.804   2.864  15.259 -1.5792  3.1941  1.6338
 2542SOL    HW219089   0.727   2.746  15.259  2.9940  0.7048  0.6753
 2543SOL     OW19090   4.111   1.811   5.810  0.6015 -0.1516  0.2105
 2543SOL    HW119091   4.108   1.715   5.806 -0.1474 -0.1068 -0.4105
 2543SOL    HW219092   4.023   1.837   5.782  1.3148 -0.0260 -1.9091
 2544SOL     OW19093   3.889   1.670   7.476  0.4198 -0.1049 -0.7310
 2544SOL    HW119094   3.935   1.670   7.561 -2.0813 -1.9577  0.6081
 2544SOL    HW219095   3.881   1.765   7.465 -4.4205 -0.0916  2.6764
 2545SOL     OW19096   3.905   3.741   1.118 -0.2472 -0.0829  0.1501
 2545SOL    HW119097   3.956   3.799   1.060 -1.9605 -0.5197 -1.8090
 2545SOL    HW219098   3.935   3.782   1.199  0.6644  0.0543 -0.2566
 2546SOL     OW19099   0.814   3.604  16.248  0.0412 -0.0742  0.4565
 2546SOL    HW119100   0.858   3.651  16.177 -2.2371  1.0204 -0.2542
 2546SOL    HW219101   0.810   3.516  16.210 -0.1690  0.4588 -0.7790
 2547SOL     OW19102   4.469   1.119   4.354  0.6239  0.0401  0.0867
 2547SOL    HW119103   4.440   1.202   4.393  2.6431  1.4846 -1.5435
 2547SOL    HW219104   4.459   1.064   4.432  0.6618 -0.2163 -0.0879
 2548SOL     OW19105   3.968   2.760   4.355  0.3838 -0.1877  0.7177
 2548SOL    HW119106   3.973   2.821   4.429  0.5625  1.5110 -0.7129
 2548SOL    HW219107   4.059   2.732   4.344  0.1472 -0.6449 -0.0595
 2549SOL     OW19108   3.449   2.511   3.681 -0.0896  0.3385 -0.5688
 2549SOL    HW119109   3.454   2.423   3.644  1.2666 -0.8316  2.4064
 2549SOL    HW219110   3.368   2.540   3.638 -0.8803 -1.8602 -0.5320
 2550SOL     OW19111   2.837   2.496   2.118  0.1513 -0.1657  0.0444
 2550SOL    HW119112   2.846   2.533   2.206 -0.4912  0.0783  0.0026
 2550SOL    HW219113   2.878   2.566   2.067  0.9036 -1.8384 -1.6564
 2551SOL     OW19114   2.827   0.108   8.579 -0.6133 -0.2844 -0.1606
 2551SOL    HW119115   2.803   0.066   8.661 -1.4699 -0.0426 -0.2885
 2551SOL    HW219116   2.803   0.200   8.594  0.6621  0.1472 -0.7353
 2552SOL     OW19117   2.091   2.850   9.078 -0.3575  0.5515  0.2039
 2552SOL    HW119118   2.004   2.811   9.090  0.3202 -0.8218  0.6619
 2552SOL    HW219119   2.136   2.785   9.025  0.4422  0.2961  1.2093
 2553SOL     OW19120   3.724   4.494  12.737  0.3706 -0.0768  0.9134
 2553SOL    HW119121   3.815   4.480  12.712  0.4751  0.0674  1.2160
 2553SOL    HW219122   3.682   4.534  12.661 -2.1459 -0.6219  2.0040
 2554SOL     OW19123   4.646   2.313   5.650 -0.3688  0.0680 -0.5896
 2554SOL    HW119124   4.670   2.350   5.565 -0.6403  1.3998 -0.0903
 2554SOL    HW219125   0.005   2.331   5.696  0.3647 -1.9255 -1.0938
 2555SOL     OW19126   3.717   1.170  11.648 -0.0442  0.1346 -0.0890
 2555SOL    HW119127   3.726   1.136  11.559 -0.8642 -4.4917  1.5868
 2555SOL    HW219128   3.781   1.241  11.656  0.6463 -0.2945 -1.8347
 2556SOL     OW19129   2.063   1.031   7.750 -0.4493 -0.0586  0.1406
 2556SOL    HW119130   2.127   1.079   7.803 -0.0420  0.0481 -0.4446
 2556SOL    HW219131   2.043   1.099   7.685 -0.2181 -1.4475 -1.3896
 2557SOL     OW19132   0.576   3.410   7.070  0.3203 -0.1712 -0.2003
 2557SOL    HW119133   0.619   3.328   7.093  0.4395  0.0979  0.5395
 2557SOL    HW219134   0.555   3.401   6.977 -0.8114 -3.1880  0.3391
 2558SOL     OW19135   2.665   2.480   8.402 -0.0606 -0.4511 -0.1495
 2558SOL    HW119136   2.621   2.430   8.471 -1.1145  0.0599 -0.4605
 2558SOL    HW219137   2.744   2.487   8.456 -0.7491 -0.6520  0.8877
 2559SOL     OW19138   2.523   4.478   6.671  0.4441 -0.2604 -0.3921
 2559SOL    HW119139   2.534   4.398   6.619  3.6444  0.1695 -0.3554
 2559SOL    HW219140   2.585   4.459   6.742 -0.8029 -0.4543  0.6449
 2560SOL     OW19141   3.633   0.704   8.238 -0.3767 -0.8616  0.1188
 2560SOL    HW119142   3.708   0.656   8.272  1.7198  2.2828  0.0192
 2560SOL    HW219143   3.646   0.797   8.261 -1.1799 -1.7432  4.2413
 2561SOL     OW19144   2.891   3.017   0.866 -0.2397  0.3651  0.5214
 2561SOL    HW119145   2.954   3.071   0.817  0.0796 -0.5268 -0.0642
 2561SOL    HW219146   2.833   2.988   0.795  1.0221 -0.7526 -0.0709
 2562SOL     OW19147   1.154   3.496  11.574 -0.0827  0.5706  0.4270
 2562SOL    HW119148   1.176   3.568  11.514  1.0218 -0.3877 -0.3307
 2562SOL    HW219149   1.081   3.446  11.539  0.0863  0.2080  0.5922
 2563SOL     OW19150   4.059   2.445  12.182  0.6034  0.2405 -0.1887
 2563SOL    HW119151   4.062   2.522  12.125  0.5766 -0.5124 -1.2283
 2563SOL    HW219152   4.135   2.466  12.236 -1.5407  2.3322  1.9453
 2564SOL     OW19153   0.263   0.443   7.640  0.3406 -0.2025  0.1894
 2564SOL    HW119154   0.288   0.534   7.656  0.3288 -0.4288  1.4434
 2564SOL    HW219155   0.327   0.423   7.571 -0.7693 -0.3873 -0.7875
 2565SOL     OW19156   2.643   4.352   3.144 -0.6099  0.0127 -0.6210
 2565SOL    HW119157   2.729   4.310   3.137 -1.3497 -1.6498  0.3135
 2565SOL    HW219158   2.625   4.395   3.060  0.3204 -1.1928 -1.4438
 2566SOL     OW19159   2.895   0.312   4.068 -0.2676 -0.1544  0.1461
 2566SOL    HW119160   2.965   0.252   4.092 -1.0720 -0.7764  0.9383
 2566SOL    HW219161   2.842   0.317   4.147  0.3489  0.3559  0.5226
 2567SOL     OW19162   1.071   1.777   5.329  0.1541  0.7607 -0.2522
 2567SOL    HW119163   1.020   1.697   5.324  0.5489  0.5178 -0.4113
 2567SOL    HW219164   1.059   1.815   5.416  0.2084 -0.8599  0.4636
 2568SOL     OW19165   4.443   3.171   5.774  0.2519  0.1575  0.7859
 2568SOL    HW119166   4.497   3.149   5.698  0.2079  0.3512  0.7004
 2568SOL    HW219167   4.365   3.212   5.736 -0.6638 -3.3143 -1.1033
 2569SOL     OW19168   1.510   1.561  14.073  0.0465  0.4087 -0.0652
 2569SOL    HW119169   1.449   1.624  14.110  0.2397  0.2784  0.4881
 2569SOL    HW219170   1.567   1.614  14.017 -0.5857 -0.3007 -1.3687
 2570SOL     OW19171   1.369   3.796   3.501 -0.2933  0.2214 -0.5939
 2570SOL    HW119172   1.440   3.739   3.529 -0.7452 -0.4750 -0.8642
 2570SOL    HW219173   1.423   3.875   3.506 -0.8649  0.4715  1.4991
 2571SOL     OW19174   2.323   0.408   2.255 -0.2797 -0.1573 -0.6504
 2571SOL    HW119175   2.325   0.504   2.256  1.0971 -0.1764 -2.3414
 2571SOL    HW219176   2.257   0.391   2.322 -1.0963  0.6134 -1.2573
 2572SOL     OW19177   0.979   3.934   4.443  0.6865  0.4334 -0.1761
 2572SOL    HW119178   0.950   3.936   4.352  0.4300  0.1707 -0.0993
 2572SOL    HW219179   0.925   4.002   4.483 -0.2173 -0.5366  0.2282
 2573SOL     OW19180   4.125   1.650   9.187 -0.3190  0.1906  0.2837
 2573SOL    HW119181   4.208   1.606   9.169 -1.8787 -1.6199 -2.5165
 2573SOL    HW219182   4.157   1.719   9.246 -0.0094 -0.3433  0.7460
 2574SOL     OW19183   2.526   0.233   5.656 -0.1752  0.3193 -0.2464
 2574SOL    HW119184   2.517   0.199   5.745 -0.2836  0.9133 -0.0294
 2574SOL    HW219185   2.573   0.316   5.668  1.5550 -0.9357  1.7366
 2575SOL     OW19186   0.355   0.516   8.827  0.2135 -0.1739 -0.4020
 2575SOL    HW119187   0.422   0.539   8.763  1.6723 -0.9429  0.8322
 2575SOL    HW219188   0.302   0.594   8.839  0.5258 -0.7026  4.4078
 2576SOL     OW19189   0.273   3.921   3.923 -0.3354  0.8903  0.5068
 2576SOL    HW119190   0.331   3.971   3.980  0.9853  0.6346 -0.6036
 2576SOL    HW219191   0.332   3.869   3.868 -0.9989 -2.2326  2.7726
 2577SOL     OW19192   0.622   0.112   6.612 -0.3459  0.2638 -0.0929
 2577SOL    HW119193   0.657   0.039   6.663 -1.7778 -0.6198 -0.3812
 2577SOL    HW219194   0.673   0.092   6.533  0.5704  0.0103  0.5680
 2578SOL     OW19195   0.076   1.809   0.557  0.5588 -0.0216  0.0813
 2578SOL    HW119196   0.165   1.776   0.567  0.4490 -0.6596 -1.0132
 2578SOL    HW219197   0.016   1.737   0.577  1.0349 -1.1706 -2.5107
 2579SOL     OW19198   3.669   1.067  13.847  0.2226  0.4745 -0.3507
 2579SOL    HW119199   3.745   1.062  13.906  0.6184  0.1970 -0.8842
 2579SOL    HW219200   3.682   1.155  13.811 -2.7105  1.1173  0.1489
 2580SOL     OW19201   0.148   4.056   2.553 -0.3054 -0.2642 -0.3710
 2580SOL    HW119202   0.239   4.032   2.568  0.1306  0.7348 -1.4867
 2580SOL    HW219203   0.148   4.143   2.593  0.3693  0.4915 -2.0297
 2581SOL     OW19204   1.160   4.087  10.491  0.2311  0.7400  0.3368
 2581SOL    HW119205   1.190   4.012  10.541 -0.9686 -1.3985 -2.1614
 2581SOL    HW219206   1.241   4.120  10.452  0.3379 -2.1597 -1.8876
 2582SOL     OW19207   3.596   0.751   7.586  0.3687 -0.0430  0.2379
 2582SOL    HW119208   3.573   0.659   7.600 -0.8933  0.0548 -1.1442
 2582SOL    HW219209   3.616   0.776   7.676 -1.0610 -0.7898  0.7585
 2583SOL     OW19210   2.620   1.325   4.724  0.0532  0.4213  0.0741
 2583SOL    HW119211   2.584   1.409   4.694  1.9989  1.6700  1.1833
 2583SOL    HW219212   2.533   1.286   4.731 -0.0634  0.6638 -0.0212
 2584SOL     OW19213   4.357   2.185   1.753  0.4621 -0.2698  0.3400
 2584SOL    HW119214   4.408   2.114   1.794  0.4139  0.1952  1.1943
 2584SOL    HW219215   4.421   2.223   1.692 -0.8239  1.8526  0.3556
 2585SOL     OW19216   4.570   2.650   3.141 -0.1512 -0.1790 -0.0855
 2585SOL    HW119217   4.477   2.664   3.123 -0.3503 -2.1612 -0.6679
 2585SOL    HW219218   4.580   2.710   3.214 -3.0558 -0.0379  0.2122
 2586SOL     OW19219   1.808   1.784   6.098  0.1785  0.1769  0.3176
 2586SOL    HW119220   1.796   1.831   6.016  1.4240 -0.5062 -0.2530
 2586SOL    HW219221   1.881   1.835   6.134 -0.6896  0.7129  1.3577
 2587SOL     OW19222   0.543   0.084   5.920  0.1235 -0.1763 -0.2656
 2587SOL    HW119223   0.487   0.110   5.993  0.8763 -0.4890  0.4232
 2587SOL    HW219224   0.490   0.122   5.850 -0.8945 -0.1212  0.5337
 2588SOL     OW19225   0.997   4.388   8.840  0.1407 -0.1311 -0.1242
 2588SOL    HW119226   0.949   4.321   8.791  2.2781 -1.4737 -0.3922
 2588SOL    HW219227   1.046   4.335   8.903  4.2631  1.4581 -2.0108
 2589SOL     OW19228   3.354   0.617   5.900  0.0034  0.5827 -0.1606
 2589SOL    HW119229   3.361   0.523   5.886 -0.5373  0.6915 -1.2117
 2589SOL    HW219230   3.266   0.607   5.938  1.6257 -3.1941  2.6450
 2590SOL     OW19231   3.879   1.875   8.103  0.5612 -0.3064 -0.3194
 2590SOL    HW119232   3.898   1.819   8.178  0.8687 -0.0720 -0.2169
 2590SOL    HW219233   3.792   1.846   8.078  0.1636  0.5008  0.1346
 2591SOL     OW19234   0.580   1.872  15.448  0.6786 -0.2455 -0.1385
 2591SOL    HW119235   0.522   1.855  15.522 -1.4942  1.6406 -1.4312
 2591SOL    HW219236   0.538   1.826  15.376 -0.3881 -0.3758  0.5676
 2592SOL     OW19237   0.995   0.883   3.956 -0.3505  0.0138  0.2056
 2592SOL    HW119238   0.958   0.967   3.930 -0.2862 -0.0896 -0.2173
 2592SOL    HW219239   1.087   0.906   3.971 -1.1528  1.8936  2.3492
 2593SOL     OW19240   4.291   2.449   0.616  0.2233  0.6297 -0.7478
 2593SOL    HW119241   4.232   2.392   0.568 -1.2443 -0.4201  2.3464
 2593SOL    HW219242   4.365   2.451   0.555  0.0974 -0.5787 -0.9333
 2594SOL     OW19243   1.661   2.291   2.827 -0.1059 -0.2171 -0.2595
 2594SOL    HW119244   1.567   2.307   2.820 -0.0303  0.3555  0.0772
 2594SOL    HW219245   1.681   2.272   2.735 -1.0677 -0.8200 -0.3426
 2595SOL     OW19246   2.271   0.445   2.797  0.2015  0.0821  0.6237
 2595SOL    HW119247   2.274   0.518   2.859 -1.3463  0.9901 -0.3913
 2595SOL    HW219248   2.303   0.492   2.720 -0.8585 -0.5088 -0.1610
 2596SOL     OW19249   0.013   1.257  10.210 -0.0287  0.0655 -0.3911
 2596SOL    HW119250   0.019   1.243  10.304  2.5802  0.2500 -0.5231
 2596SOL    HW219251   4.721   1.352  10.205  1.7651  0.3765  0.1783
 2597SOL     OW19252   4.416   1.324   3.762  0.7254  0.1439  0.8168
 2597SOL    HW119253   4.376   1.252   3.811  1.2638  0.3556  1.5681
 2597SOL    HW219254   4.461   1.382   3.824  1.4589 -0.8477  1.2106
 2598SOL     OW19255   4.240   0.088   2.772  0.1880 -0.4779  0.0437
 2598SOL    HW119256   4.275   0.091   2.683 -2.7822  1.3815 -1.0835
 2598SOL    HW219257   4.151   0.117   2.752 -0.5589 -2.4436  0.5911
 2599SOL     OW19258   1.056   1.866   7.633 -0.1483  0.1446  0.1117
 2599SOL    HW119259   1.145   1.900   7.630  0.1432 -0.6723 -0.1899
 2599SOL    HW219260   1.011   1.918   7.566 -1.1674  0.6905  1.2097
 2600SOL     OW19261   0.294   3.595   7.190 -0.3881  0.4350  0.4407
 2600SOL    HW119262   0.372   3.575   7.242  0.5544 -2.1650 -1.9491
 2600SOL    HW219263   0.309   3.677   7.143  0.9077 -0.5825 -0.9154
 2601SOL     OW19264   0.437   0.995   8.286 -0.1116 -0.2510 -0.6797
 2601SOL    HW119265   0.527   0.973   8.262 -0.6540 -0.5470 -2.4793
 2601SOL    HW219266   0.432   1.087   8.261 -0.9880  0.2076  1.2044
 2602SOL     OW19267   2.973   3.426  14.609 -0.3551 -0.0450 -0.0937
 2602SOL    HW119268   2.915   3.429  14.532  0.4376  0.6589 -0.6576
 2602SOL    HW219269   3.021   3.508  14.617  0.4284 -0.5264  0.1512
 2603SOL     OW19270   0.935   1.978   0.589  0.2323 -0.1290  0.9405
 2603SOL    HW119271   0.889   1.932   0.659 -1.1265 -0.3305 -0.0771
 2603SOL    HW219272   0.922   2.067   0.621  0.9816  0.8171 -1.3788
 2604SOL     OW19273   0.556   0.068   9.081 -0.2277  0.0175 -0.0339
 2604SOL    HW119274   0.577   0.001   9.016 -0.7983 -1.4877  1.3311
 2604SOL    HW219275   0.463   0.049   9.094  0.1110 -1.0326  0.9168
 2605SOL     OW19276   1.383   2.535   9.255  0.3182  0.3340 -0.1846
 2605SOL    HW119277   1.432   2.454   9.269  0.6028  0.0440 -2.8090
 2605SOL    HW219278   1.399   2.588   9.333  2.5077 -1.8138  0.8101
 2606SOL     OW19279   3.894   3.865   8.999  0.3322  0.2291  0.3170
 2606SOL    HW119280   3.919   3.812   9.075  0.0218 -0.9456 -0.4015
 2606SOL    HW219281   3.853   3.803   8.939  1.7370 -1.0742  0.6975
 2607SOL     OW19282   4.329   2.666   9.436  0.2216 -0.0037 -0.1470
 2607SOL    HW119283   4.333   2.762   9.428 -0.4506  0.1252  1.1498
 2607SOL    HW219284   4.366   2.654   9.523  2.3526  2.9275 -0.6366
 2608SOL     OW19285   2.760   0.173   3.620  0.0766  0.3905  0.1389
 2608SOL    HW119286   2.795   0.094   3.662  2.2291  1.0005 -0.5319
 2608SOL    HW219287   2.770   0.235   3.692 -0.7769 -0.1235  0.7037
 2609SOL     OW19288   4.348   1.718   7.447  0.1668  0.5119  0.3797
 2609SOL    HW119289   4.406   1.644   7.433 -0.1112  0.7574 -2.0547
 2609SOL    HW219290   4.357   1.748   7.357  1.0973 -1.3512 -0.1396
 2610SOL     OW19291   3.686   3.404   9.253  0.1591  0.3139 -0.1188
 2610SOL    HW119292   3.683   3.414   9.348  0.6108  0.2899 -0.1013
 2610SOL    HW219293   3.777   3.418   9.226  0.1213 -0.0691 -0.4540
 2611SOL     OW19294   2.496   3.648   6.535  0.6096  0.0149  0.2949
 2611SOL    HW119295   2.429   3.654   6.603  0.5178  0.6399  0.1528
 2611SOL    HW219296   2.460   3.573   6.489 -0.1234 -0.9449  2.4396
 2612SOL     OW19297   2.945   0.190   5.005 -0.4623  0.4950 -0.2323
 2612SOL    HW119298   2.988   0.123   4.952  0.6258  0.1659  1.0716
 2612SOL    HW219299   3.012   0.217   5.068 -1.1807  1.4925  0.0960
 2613SOL     OW19300   0.852   0.402  17.029  0.0582 -0.1421 -1.0008
 2613SOL    HW119301   0.925   0.354  16.991  0.2049 -1.1359  0.5161
 2613SOL    HW219302   0.867   0.411  17.123  1.1256 -0.7286 -1.1186
 2614SOL     OW19303   3.896   1.766   5.497 -0.6359 -0.8527 -0.7782
 2614SOL    HW119304   3.911   1.801   5.585 -1.6704  1.4387 -1.5073
 2614SOL    HW219305   3.809   1.726   5.500 -1.7550  1.7508  1.3077
 2615SOL     OW19306   3.083   0.545   2.787  0.5936 -0.0473 -0.1557
 2615SOL    HW119307   3.019   0.482   2.754 -1.6776  2.2573 -0.2044
 2615SOL    HW219308   3.134   0.490   2.846  0.8293  0.9296  0.5704
 2616SOL     OW19309   4.387   0.089   9.920 -0.2570  0.0970  0.6615
 2616SOL    HW119310   4.453   0.097   9.988 -0.5049 -0.8239  1.0053
 2616SOL    HW219311   4.310   0.100   9.976 -0.0270  1.3424  0.7376
 2617SOL     OW19312   1.519   2.787  16.100 -0.4516 -0.0841  0.0357
 2617SOL    HW119313   1.454   2.815  16.165  0.8841 -2.1928  2.3030
 2617SOL    HW219314   1.457   2.777  16.028 -0.0651  1.4041 -0.4981
 2618SOL     OW19315   3.258   3.271   3.947  0.1030 -0.1565  0.9100
 2618SOL    HW119316   3.298   3.319   3.875 -0.3208 -0.6914  0.3276
 2618SOL    HW219317   3.173   3.314   3.948  0.5551  0.7888 -1.5932
 2619SOL     OW19318   1.871   0.304   9.562  0.2203 -0.3902 -0.0692
 2619SOL    HW119319   1.956   0.337   9.535 -0.5425  0.8323 -1.0087
 2619SOL    HW219320   1.817   0.383   9.551 -0.9981 -1.0027  1.4954
 2620SOL     OW19321   2.405   3.769   5.743  0.7317  0.3411  0.1256
 2620SOL    HW119322   2.317   3.803   5.727  0.4064 -1.1584 -1.3227
 2620SOL    HW219323   2.393   3.677   5.722 -0.3589  0.4726  0.1929
 2621SOL     OW19324   2.047   0.628   8.540 -0.0085  0.1827 -0.1043
 2621SOL    HW119325   1.962   0.585   8.538  0.9383 -1.6106 -1.3664
 2621SOL    HW219326   2.070   0.650   8.630  2.5847  0.8187 -0.9199
 2622SOL     OW19327   3.546   1.271  16.782 -0.0548 -0.1858  0.3241
 2622SOL    HW119328   3.521   1.179  16.777 -0.3641  0.0078 -2.0616
 2622SOL    HW219329   3.563   1.295  16.690  0.3611  1.3502  0.7901
 2623SOL     OW19330   3.573   0.976   8.672  0.5177 -0.5203 -0.5240
 2623SOL    HW119331   3.543   1.064   8.648 -1.2836 -1.1420 -0.5635
 2623SOL    HW219332   3.521   0.961   8.751  0.8150  0.5803 -0.1208
 2624SOL     OW19333   3.763   4.192   2.102 -0.3319 -0.2661  0.0986
 2624SOL    HW119334   3.714   4.112   2.082  2.1795 -1.3673 -1.6637
 2624SOL    HW219335   3.745   4.244   2.024 -1.0986  0.4917  0.7738
 2625SOL     OW19336   1.739   0.382  13.402  0.9743  0.2785 -0.0555
 2625SOL    HW119337   1.691   0.300  13.408  2.4868 -0.5195  1.1965
 2625SOL    HW219338   1.663   0.441  13.405  1.2236  0.5375  1.1169
 2626SOL     OW19339   4.548   2.428   3.366 -0.6508  0.0324  0.3428
 2626SOL    HW119340   4.496   2.361   3.322  0.0514 -0.7215  0.6486
 2626SOL    HW219341   4.549   2.493   3.296 -1.1162 -1.1715 -0.7720
 2627SOL     OW19342   3.212   3.661  11.943  0.2171  0.6948 -0.4115
 2627SOL    HW119343   3.298   3.698  11.923  1.6189 -2.3563 -0.0598
 2627SOL    HW219344   3.213   3.583  11.887  1.2757 -0.0213  0.6148
 2628SOL     OW19345   2.492   0.108   5.897  0.1886  0.0706  0.7988
 2628SOL    HW119346   2.401   0.122   5.925 -0.0605 -0.4932  0.2610
 2628SOL    HW219347   2.543   0.167   5.952  0.5695 -0.6036  1.1644
 2629SOL     OW19348   3.818   3.505   6.646  0.2380  0.3137 -0.6005
 2629SOL    HW119349   3.833   3.489   6.552  2.1022 -1.3591 -0.0117
 2629SOL    HW219350   3.723   3.494   6.654  0.2604 -0.0076 -0.7662
 2630SOL     OW19351   3.101   2.393  11.725  0.0733  0.5099 -0.1368
 2630SOL    HW119352   3.171   2.452  11.754 -0.1497  0.7031  0.0112
 2630SOL    HW219353   3.115   2.397  11.631 -0.0955 -2.6620 -0.2830
 2631SOL     OW19354   4.307   2.232  12.258  0.0621 -0.4462 -0.3629
 2631SOL    HW119355   4.267   2.271  12.181  0.2076  2.6765  1.1459
 2631SOL    HW219356   4.236   2.173  12.284 -0.2686 -0.2665 -0.8788
 2632SOL     OW19357   3.753   0.285   9.094 -0.1708 -0.3372 -0.4017
 2632SOL    HW119358   3.776   0.259   9.005  1.4487 -1.4811  0.3507
 2632SOL    HW219359   3.749   0.208   9.151  1.2447  0.5311  0.8853
 2633SOL     OW19360   1.948   4.080  16.206 -0.5144 -0.4605  0.4308
 2633SOL    HW119361   2.032   4.104  16.168 -1.0346 -1.4631 -1.3395
 2633SOL    HW219362   1.925   4.170  16.230 -1.2491 -1.1122  2.2219
 2634SOL     OW19363   0.981   1.007  12.105  0.2310  0.3175  0.5832
 2634SOL    HW119364   1.074   1.030  12.118  0.4213 -0.3200  0.3457
 2634SOL    HW219365   0.937   1.018  12.189  0.0335  0.1560  0.5002
 2635SOL     OW19366   1.093   3.678   4.564  0.7481 -0.6486 -0.3005
 2635SOL    HW119367   1.086   3.773   4.565  1.4107 -0.6274  1.0839
 2635SOL    HW219368   1.002   3.669   4.536 -0.0809 -1.0609  2.5676
 2636SOL     OW19369   4.641   2.800  15.730 -0.4592 -0.6193  0.0877
 2636SOL    HW119370   4.646   2.805  15.826  2.7221 -0.7343 -0.0935
 2636SOL    HW219371   4.698   2.870  15.699 -0.8725  0.4520  1.7428
 2637SOL     OW19372   2.644   2.532   6.647  0.4675 -0.1971  0.2746
 2637SOL    HW119373   2.638   2.605   6.709 -2.1448 -0.9094  0.8643
 2637SOL    HW219374   2.565   2.481   6.663  1.0853 -1.8573 -2.0018
 2638SOL     OW19375   4.066   0.893   3.233 -0.0342 -0.3853  0.0462
 2638SOL    HW119376   4.062   0.874   3.327 -0.4439 -0.8420 -0.0607
 2638SOL    HW219377   4.091   0.985   3.241 -1.2427 -0.0800  0.3154
 2639SOL     OW19378   3.074   1.880   7.447 -0.1111  0.2036 -0.2126
 2639SOL    HW119379   3.147   1.819   7.431  0.7823  2.1043 -3.3691
 2639SOL    HW219380   3.032   1.892   7.362 -0.0936  3.8471  0.2866
 2640SOL     OW19381   2.373   0.601   5.485 -0.0195  0.5056 -0.2102
 2640SOL    HW119382   2.368   0.553   5.567  0.2821 -1.0247 -1.0879
 2640SOL    HW219383   2.282   0.617   5.458 -0.8713 -4.0718  0.0222
 2641SOL     OW19384   2.359   2.390   4.922  0.8771  0.2947 -0.4019
 2641SOL    HW119385   2.386   2.332   4.851 -1.0441  0.5425 -1.3198
 2641SOL    HW219386   2.264   2.396   4.914  0.7801  1.4721  1.6129
 2642SOL     OW19387   1.644   2.830   4.848  0.6757  0.0771  0.3749
 2642SOL    HW119388   1.593   2.903   4.812  1.7372  0.2746 -0.7586
 2642SOL    HW219389   1.583   2.758   4.861  0.9147 -0.7743 -3.1894
 2643SOL     OW19390   1.624   1.036   0.118  0.6438  0.0011 -0.0703
 2643SOL    HW119391   1.609   1.107   0.056 -0.0218  0.6723  0.8621
 2643SOL    HW219392   1.583   1.075   0.195 -0.1506 -0.2151 -0.3895
 2644SOL     OW19393   1.773   0.536   3.765  0.1370  0.4402  0.0586
 2644SOL    HW119394   1.702   0.597   3.782 -1.3367 -1.5001  0.8183
 2644SOL    HW219395   1.741   0.461   3.815 -1.2299 -0.1878 -1.7410
 2645SOL     OW19396   4.190   3.587   8.975  0.1041  0.5355 -0.3511
 2645SOL    HW119397   4.242   3.632   8.909  0.5680  1.1024  0.3980
 2645SOL    HW219398   4.141   3.665   9.004 -0.9816 -1.5865  3.5012
 2646SOL     OW19399   1.385   2.680   6.741 -0.0072  0.1623 -0.4099
 2646SOL    HW119400   1.380   2.773   6.718 -0.1638  0.0646 -0.7699
 2646SOL    HW219401   1.296   2.656   6.766 -0.2843  0.9356 -0.6458
 2647SOL     OW19402   1.353   2.987   8.594  0.2504  0.1692 -0.6079
 2647SOL    HW119403   1.423   2.950   8.648 -0.4136  1.5892  1.2109
 2647SOL    HW219404   1.326   2.909   8.545  0.0122  0.3528 -0.7731
 2648SOL     OW19405   3.785   2.553   6.324  0.5692 -0.4647 -0.5679
 2648SOL    HW119406   3.859   2.499   6.351  0.2981 -0.6276 -0.1586
 2648SOL    HW219407   3.727   2.482   6.294  0.0632  0.5202 -1.9210
 2649SOL     OW19408   0.207   4.265   9.384 -0.4545  0.2615 -0.2895
 2649SOL    HW119409   0.229   4.197   9.321  0.5103  0.4038 -0.1075
 2649SOL    HW219410   0.267   4.333   9.353  0.7994 -1.2088 -1.0975
 2650SOL     OW19411   1.748   2.735   4.601 -0.1599 -0.1487  0.4505
 2650SOL    HW119412   1.723   2.789   4.676 -1.6783  0.4276 -0.4744
 2650SOL    HW219413   1.674   2.747   4.542 -0.2826  1.4079  0.9368
 2651SOL     OW19414   2.405   0.460   5.241  0.0237 -0.4179 -0.0836
 2651SOL    HW119415   2.389   0.531   5.179 -0.2676 -0.7929 -0.4387
 2651SOL    HW219416   2.373   0.498   5.322 -2.7265  1.5807 -2.0928
 2652SOL     OW19417   4.312   0.927  13.078 -0.1300 -0.6692  0.2328
 2652SOL    HW119418   4.241   0.865  13.096 -0.8365 -0.2519 -1.0638
 2652SOL    HW219419   4.279   1.012  13.108 -0.9320 -0.1507 -2.1271
 2653SOL     OW19420   2.184   0.970   1.525  0.1458 -0.2055 -0.1372
 2653SOL    HW119421   2.257   1.023   1.491  0.3423 -0.6768 -0.4392
 2653SOL    HW219422   2.213   0.939   1.611 -0.8370  0.2836  0.3651
 2654SOL     OW19423   1.186   2.796  15.578 -0.8743  0.4740  1.0991
 2654SOL    HW119424   1.096   2.792  15.547 -0.4427 -0.8716  0.0692
 2654SOL    HW219425   1.172   2.769  15.669  0.6126  3.9430  2.3915
 2655SOL     OW19426   2.472   3.730   8.617 -0.5906  0.5358  0.1805
 2655SOL    HW119427   2.546   3.672   8.598 -2.1850 -1.0327 -1.1567
 2655SOL    HW219428   2.514   3.816   8.619  1.2226 -0.3147 -1.0677
 2656SOL     OW19429   2.517   0.346  17.481  0.1156  0.5049  0.6460
 2656SOL    HW119430   2.541   0.439  17.472  3.4615 -0.6727 -2.8470
 2656SOL    HW219431   2.422   0.349  17.476  0.0795 -1.0838  0.4123
 2657SOL     OW19432   2.709   3.761   3.612 -0.1188 -0.4891  0.6310
 2657SOL    HW119433   2.705   3.856   3.620 -0.6036 -0.3964 -0.7662
 2657SOL    HW219434   2.682   3.748   3.522 -0.7917  0.9005  0.6394
 2658SOL     OW19435   4.047   4.485   5.836 -0.7373 -0.3558  0.1722
 2658SOL    HW119436   4.023   4.546   5.766 -0.4591 -0.0612  0.3315
 2658SOL    HW219437   4.030   4.533   5.917  1.8522 -0.4130  0.7402
 2659SOL     OW19438   1.173   3.532  15.700 -0.1305 -0.4309 -0.0389
 2659SOL    HW119439   1.159   3.520  15.606 -3.3411  1.2969  0.2414
 2659SOL    HW219440   1.151   3.625  15.702 -0.7869 -0.5942  0.1607
 2660SOL     OW19441   0.443   1.020   3.002  0.4477 -0.0844 -0.6005
 2660SOL    HW119442   0.367   1.004   2.947 -0.9714 -0.5147  1.4926
 2660SOL    HW219443   0.410   1.084   3.064  1.3168  3.2551 -3.6349
 2661SOL     OW19444   2.865   2.937   8.744  0.1763 -0.6050  0.0505
 2661SOL    HW119445   2.826   2.885   8.814  0.4192  0.8184  1.2285
 2661SOL    HW219446   2.943   2.962   8.793  0.2249  0.3128 -0.4964
 2662SOL     OW19447   2.270   4.548   6.809  0.0979 -0.1580  0.3937
 2662SOL    HW119448   2.343   4.546   6.748  0.2613 -0.4259  0.5956
 2662SOL    HW219449   2.255   4.453   6.815 -1.8491 -0.0088 -2.0700
 2663SOL     OW19450   1.062   3.586   3.919  0.2594  0.1087  0.3789
 2663SOL    HW119451   1.007   3.545   3.985 -1.1565  1.5821  0.1221
 2663SOL    HW219452   1.031   3.559   3.833  0.6261  1.8140 -0.2925
 2664SOL     OW19453   3.494   2.872   3.656  0.4543  0.3858 -0.3517
 2664SOL    HW119454   3.499   2.967   3.657 -0.7862  0.4134  2.0606
 2664SOL    HW219455   3.426   2.852   3.592 -1.7617  3.1254  1.1494
 2665SOL     OW19456   2.642   4.717   6.502 -0.8550 -0.2402  0.2045
 2665SOL    HW119457   2.628   4.624   6.518 -1.6513 -0.1594  0.0132
 2665SOL    HW219458   2.672   0.028   6.586  1.5490 -0.3305 -0.6380
 2666SOL     OW19459   3.599   4.391   7.878 -0.1699 -0.3690  0.4026
 2666SOL    HW119460   3.688   4.407   7.908  0.1423 -1.6767  0.1667
 2666SOL    HW219461   3.546   4.431   7.947 -0.4597 -1.7084  0.9497
 2667SOL     OW19462   4.108   1.186  10.567 -0.0238  0.2520 -0.6789
 2667SOL    HW119463   4.158   1.222  10.494  0.6313  1.2191  0.2403
 2667SOL    HW219464   4.017   1.203  10.544 -0.1729 -0.8694 -0.9039
 2668SOL     OW19465   1.711   4.261   6.155 -0.4207 -0.8475  0.2205
 2668SOL    HW119466   1.766   4.266   6.233 -1.2660 -2.1939  0.9102
 2668SOL    HW219467   1.746   4.188   6.105 -4.7126 -1.8273 -1.4032
 2669SOL     OW19468   3.328   1.141   5.968  0.8517 -0.2306  0.1345
 2669SOL    HW119469   3.378   1.086   6.027  1.8482  1.3296  0.7443
 2669SOL    HW219470   3.243   1.099   5.959  0.8473  0.0419 -1.1136
 2670SOL     OW19471   2.438   0.953   3.095  0.6429  0.0542  0.0163
 2670SOL    HW119472   2.387   0.985   3.020  1.4469  3.1061  0.7587
 2670SOL    HW219473   2.510   1.017   3.095  0.2806  0.4875 -2.5585
 2671SOL     OW19474   0.172   1.324   7.836  0.5980 -0.0237 -0.7148
 2671SOL    HW119475   0.229   1.254   7.803 -1.2903 -1.5152 -0.7968
 2671SOL    HW219476   0.113   1.341   7.762 -1.9200  2.9402  1.9722
 2672SOL     OW19477   3.073   3.344   2.347 -0.8211  0.0017  0.0748
 2672SOL    HW119478   3.136   3.375   2.282 -0.5692  0.2071  0.4176
 2672SOL    HW219479   3.001   3.403   2.328 -0.5396  0.3362  0.0343
 2673SOL     OW19480   0.866   4.052   7.937 -0.5783 -0.0113  0.1690
 2673SOL    HW119481   0.854   3.978   7.995  0.3362 -0.2073  0.1047
 2673SOL    HW219482   0.893   4.124   7.994 -0.2342 -1.3723  1.7055
 2674SOL     OW19483   4.148   2.419   8.774 -0.4512 -0.0693  0.4432
 2674SOL    HW119484   4.225   2.385   8.727 -0.8209 -2.0778  1.2944
 2674SOL    HW219485   4.190   2.410   8.859  1.1334  0.7121 -0.2369
 2675SOL     OW19486   2.161   3.839  16.175  0.5312 -0.4046  0.2873
 2675SOL    HW119487   2.132   3.884  16.254  1.8047 -2.0687  1.6846
 2675SOL    HW219488   2.194   3.914  16.124  0.4305  1.4704  3.0141
 2676SOL     OW19489   2.362   0.949  11.682 -0.3456 -0.1488  0.5878
 2676SOL    HW119490   2.276   0.946  11.640  0.2848  0.9903 -0.8048
 2676SOL    HW219491   2.349   1.012  11.753 -0.7323  1.4341 -0.8922
 2677SOL     OW19492   0.434   2.871   5.379 -0.0139 -0.3986 -0.2603
 2677SOL    HW119493   0.510   2.923   5.407  0.6754 -0.8436 -1.3176
 2677SOL    HW219494   0.447   2.792   5.430  0.9169  0.1532  0.3676
 2678SOL     OW19495   3.567   0.079   2.609  0.4104 -0.4578 -0.0099
 2678SOL    HW119496   3.659   0.076   2.582  0.3583 -1.6487 -0.0357
 2678SOL    HW219497   3.544   0.172   2.621  0.5218 -0.1822 -1.8896
 2679SOL     OW19498   2.646   1.322   8.264  0.1273 -1.0510 -0.3390
 2679SOL    HW119499   2.675   1.254   8.202 -0.5296  0.1645 -1.9636
 2679SOL    HW219500   2.551   1.321   8.258  0.0481 -0.9894  0.7826
 2680SOL     OW19501   3.175   1.869   1.149 -0.0012  0.0107 -0.1247
 2680SOL    HW119502   3.198   1.895   1.060  0.2418 -1.2109 -0.4231
 2680SOL    HW219503   3.136   1.956   1.154  0.2232  0.0840  0.3383
 2681SOL     OW19504   4.431   3.240   2.974  0.1726  0.3955  0.0738
 2681SOL    HW119505   4.387   3.286   2.903  1.6435  0.2813 -0.9151
 2681SOL    HW219506   4.494   3.189   2.923 -1.9790 -1.7372 -0.4435
 2682SOL     OW19507   3.378   3.550   4.865 -0.4625 -0.6667  0.5227
 2682SOL    HW119508   3.392   3.492   4.940  0.2160  0.1305  1.0117
 2682SOL    HW219509   3.466   3.587   4.853 -0.0394 -1.7680  0.2747
 2683SOL     OW19510   0.849   4.302   2.919 -0.1989 -0.1532 -0.1427
 2683SOL    HW119511   0.878   4.363   2.851 -0.1094  1.1325  1.0477
 2683SOL    HW219512   0.781   4.256   2.869  0.1568  0.2193 -0.9652
 2684SOL     OW19513   1.763   3.536   2.659 -0.9904  0.2869  0.5902
 2684SOL    HW119514   1.754   3.631   2.655 -3.7839  0.0327  0.7676
 2684SOL    HW219515   1.750   3.516   2.566 -0.1674  2.0279  0.1118
 2685SOL     OW19516   0.958   0.109   5.438  0.1929 -0.2404  0.0510
 2685SOL    HW119517   1.009   0.071   5.510  0.8640  0.2763 -0.1543
 2685SOL    HW219518   1.007   0.189   5.421 -0.1463 -0.4497 -1.9138
 2686SOL     OW19519   2.066   1.168   6.747 -0.5896  0.1128 -0.4550
 2686SOL    HW119520   2.002   1.127   6.804  0.8337 -1.8172 -0.2353
 2686SOL    HW219521   2.070   1.257   6.783 -1.2932  0.0592 -0.2451
 2687SOL     OW19522   1.205   2.740  14.547  0.8000 -0.0438  0.0468
 2687SOL    HW119523   1.145   2.810  14.523  0.4906 -0.7170 -1.1423
 2687SOL    HW219524   1.281   2.792  14.573  0.3786  0.7889 -0.3816
 2688SOL     OW19525   3.420   2.946   0.474 -0.4440 -0.0880  0.1545
 2688SOL    HW119526   3.337   2.948   0.427  0.2996  0.9084 -1.1013
 2688SOL    HW219527   3.452   3.033   0.451  0.2029  0.1363  1.9318
 2689SOL     OW19528   1.845   2.903   7.521  0.0671  0.0367  0.6719
 2689SOL    HW119529   1.940   2.896   7.527  0.0431 -3.6482 -3.2583
 2689SOL    HW219530   1.828   2.830   7.461 -1.5771 -0.5212  1.8132
 2690SOL     OW19531   2.208   2.476   7.084  0.1516  0.3348  0.0251
 2690SOL    HW119532   2.282   2.437   7.037 -0.1468  1.3334 -1.2723
 2690SOL    HW219533   2.164   2.512   7.007 -1.5000 -0.9504  0.3797
 2691SOL     OW19534   3.606   3.470   8.617  0.3339  0.6611 -0.3994
 2691SOL    HW119535   3.512   3.453   8.626  0.5745 -0.2487  0.3976
 2691SOL    HW219536   3.614   3.452   8.523 -0.1417 -0.4371 -0.2321
 2692SOL     OW19537   0.317   4.721   9.173 -0.3078  0.5934  0.3512
 2692SOL    HW119538   0.321   0.045   9.256 -0.3565  3.0610 -1.0096
 2692SOL    HW219539   0.229   4.685   9.162 -0.6321  0.8600  2.1127
 2693SOL     OW19540   2.632   4.566   2.309  0.7368  0.1541  0.0025
 2693SOL    HW119541   2.555   4.610   2.273 -1.0717 -3.4643 -0.6390
 2693SOL    HW219542   2.673   4.631   2.366 -1.9061 -2.3019  4.7558
 2694SOL     OW19543   0.921   0.517   7.013  0.2958 -0.2062 -0.2266
 2694SOL    HW119544   1.000   0.567   6.992 -0.1551  0.0043 -1.4713
 2694SOL    HW219545   0.913   0.465   6.933  1.2783  0.1360 -0.5484
 2695SOL     OW19546   1.088   3.368   3.386  0.4253  0.0256 -0.0427
 2695SOL    HW119547   1.128   3.285   3.412  1.9838  0.7603 -0.1032
 2695SOL    HW219548   1.148   3.439   3.409  0.3783  0.1175 -0.2055
 2696SOL     OW19549   2.134   3.948   6.439  0.0861  0.2315 -0.2071
 2696SOL    HW119550   2.105   3.940   6.530  1.5469  2.2200  0.4186
 2696SOL    HW219551   2.190   4.023   6.457 -0.2702  1.1342 -2.9309
 2697SOL     OW19552   2.879   0.586  14.610  0.2042  0.2481 -0.0355
 2697SOL    HW119553   2.832   0.668  14.597  0.8281  0.5762 -0.2347
 2697SOL    HW219554   2.959   0.624  14.648  0.0617 -0.4984  1.0190
 2698SOL     OW19555   0.593   0.979  16.672 -0.1379 -0.6372 -0.4448
 2698SOL    HW119556   0.644   1.059  16.681 -0.1055 -0.4577 -2.1576
 2698SOL    HW219557   0.665   0.917  16.663  0.0415 -0.7742  1.8445
 2699SOL     OW19558   4.321   2.468   9.762 -0.3928  0.2309 -0.3930
 2699SOL    HW119559   4.298   2.484   9.670  0.7060 -0.8265 -0.8471
 2699SOL    HW219560   4.390   2.402   9.759 -1.1306 -0.5699 -0.1297
 2700SOL     OW19561   0.395   1.766  15.276 -0.0248  0.4551 -0.1757
 2700SOL    HW119562   0.369   1.691  15.331  1.6870  0.1613  0.2299
 2700SOL    HW219563   0.307   1.799  15.256 -0.7901 -0.7677  1.1315
 2701SOL     OW19564   1.831   0.460  10.731 -0.3508  0.1507 -0.2511
 2701SOL    HW119565   1.895   0.489  10.666  1.4937 -1.3619  0.8776
 2701SOL    HW219566   1.877   0.479  10.812 -0.6032  1.1443 -0.3410
 2702SOL     OW19567   1.729   4.042  13.586  0.1616  0.0487 -0.2486
 2702SOL    HW119568   1.650   4.056  13.638 -0.0013 -0.4248 -0.3720
 2702SOL    HW219569   1.703   4.084  13.504  1.0291  0.0279 -0.5367
 2703SOL     OW19570   0.472   1.389   7.735 -0.4585  0.0671  0.2238
 2703SOL    HW119571   0.508   1.301   7.727 -0.7271  0.1796 -2.0486
 2703SOL    HW219572   0.546   1.440   7.701  0.4439 -1.8967 -0.7304
 2704SOL     OW19573   4.219   4.189   3.333  0.4977 -0.2140 -0.2603
 2704SOL    HW119574   4.196   4.232   3.251  2.9528 -0.0929 -0.8920
 2704SOL    HW219575   4.240   4.261   3.392 -0.6140 -1.0265  1.1323
 2705SOL     OW19576   0.142   3.923   8.170 -0.4954 -0.4615 -0.1264
 2705SOL    HW119577   0.132   3.835   8.134  1.6740 -1.7726  2.5012
 2705SOL    HW219578   0.156   3.903   8.263  0.8659 -0.7261 -0.3831
 2706SOL     OW19579   0.186   3.069   1.410  0.4559 -1.4242  0.0700
 2706SOL    HW119580   0.208   3.126   1.484  1.9764 -3.6346  1.3243
 2706SOL    HW219581   0.100   3.103   1.386  0.6648 -1.8215 -1.2066
 2707SOL     OW19582   2.402   1.505   6.064  0.2219  0.6778 -0.3482
 2707SOL    HW119583   2.324   1.560   6.052 -0.2086  0.4735  1.4310
 2707SOL    HW219584   2.459   1.572   6.101 -1.7500  1.9483  0.4274
 2708SOL     OW19585   0.244   2.185   2.287 -0.2256 -0.4159 -0.0056
 2708SOL    HW119586   0.307   2.115   2.273  0.4227  0.0769  0.4414
 2708SOL    HW219587   0.188   2.144   2.354 -0.3463 -2.2465 -1.2391
 2709SOL     OW19588   0.379   3.173  15.851  0.2388 -0.2070  0.4415
 2709SOL    HW119589   0.365   3.268  15.857 -1.0952 -0.3101 -0.9292
 2709SOL    HW219590   0.468   3.180  15.817  0.8152  1.8781  2.3780
 2710SOL     OW19591   1.660   0.772   4.678 -0.6752 -0.6618  0.4054
 2710SOL    HW119592   1.751   0.784   4.650 -0.7708  0.9541  0.7961
 2710SOL    HW219593   1.611   0.763   4.596  2.2268  2.4243 -1.6520
 2711SOL     OW19594   2.240   1.865   9.526  0.3884 -0.2064 -0.6473
 2711SOL    HW119595   2.187   1.788   9.543 -1.1211  0.8424 -0.6525
 2711SOL    HW219596   2.226   1.899   9.614  0.8853  2.7529 -1.6900
 2712SOL     OW19597   3.127   0.891   0.511 -0.2711  0.1337  0.2606
 2712SOL    HW119598   3.034   0.883   0.488 -0.4344 -1.0632  1.3415
 2712SOL    HW219599   3.112   0.943   0.590  0.5337  2.1206 -0.8934
 2713SOL     OW19600   0.567   0.649   7.934  0.0231 -0.3412  0.3058
 2713SOL    HW119601   0.491   0.688   7.977  2.3074  1.7645  2.4394
 2713SOL    HW219602   0.537   0.558   7.934 -1.2623  0.0952 -1.6234
 2714SOL     OW19603   1.581   0.379   8.443  0.5054  0.6953 -0.0143
 2714SOL    HW119604   1.585   0.470   8.413 -0.2621  1.0769  1.0206
 2714SOL    HW219605   1.511   0.350   8.385  1.9972  1.4074 -2.1664
 2715SOL     OW19606   2.585   0.177   8.703 -0.3060 -0.0052  0.4978
 2715SOL    HW119607   2.603   0.252   8.759  0.2364 -0.8994  1.5130
 2715SOL    HW219608   2.496   0.165   8.737 -1.0433  0.7515 -1.1819
 2716SOL     OW19609   1.609   4.476  15.192  0.3065 -0.0849  0.2410
 2716SOL    HW119610   1.672   4.548  15.192 -0.9521  1.0122  3.4496
 2716SOL    HW219611   1.613   4.433  15.106  2.1760  0.6160 -0.0166
 2717SOL     OW19612   0.551   1.379   5.262 -0.6330  0.5501 -0.0302
 2717SOL    HW119613   0.540   1.300   5.208  2.3976  0.6391 -0.7391
 2717SOL    HW219614   0.465   1.372   5.305 -0.9045 -1.5855 -0.8918
 2718SOL     OW19615   3.489   2.858   8.988  0.1767 -0.0770 -0.4127
 2718SOL    HW119616   3.408   2.809   8.997  0.8465 -0.9173  1.1228
 2718SOL    HW219617   3.554   2.796   8.955  0.2734 -0.3105  0.2066
 2719SOL     OW19618   2.230   4.391  15.446 -0.0606 -0.3319  0.2102
 2719SOL    HW119619   2.179   4.418  15.371  1.4057 -2.2559 -1.4986
 2719SOL    HW219620   2.293   4.462  15.440 -0.4027 -0.0773 -0.3024
 2720SOL     OW19621   4.054   3.556   3.497 -0.1369 -0.0677  0.3451
 2720SOL    HW119622   4.070   3.525   3.586 -1.8889 -1.5801  0.1320
 2720SOL    HW219623   4.110   3.497   3.447 -0.6290  0.6440 -1.0526
 2721SOL     OW19624   3.429   4.204   7.527 -0.0789 -0.2695  0.2766
 2721SOL    HW119625   3.484   4.238   7.455 -0.7284  2.1656  0.9180
 2721SOL    HW219626   3.385   4.130   7.486 -4.3394  2.0196  0.6927
 2722SOL     OW19627   2.078   0.927   6.113  0.8922  0.3985 -0.2086
 2722SOL    HW119628   2.078   0.867   6.038  0.1000  0.6822 -0.4347
 2722SOL    HW219629   2.049   1.005   6.067  1.3553  1.9946  2.2143
 2723SOL     OW19630   4.572   3.265   6.627  0.0110  0.1717  0.1386
 2723SOL    HW119631   4.558   3.350   6.584 -1.8620  0.4871  1.4025
 2723SOL    HW219632   4.492   3.219   6.601  0.2426  0.0001 -0.2725
 2724SOL     OW19633   2.340   3.649  12.437  0.0796 -0.7417 -0.2469
 2724SOL    HW119634   2.397   3.708  12.486 -1.3456  0.6677 -0.2760
 2724SOL    HW219635   2.386   3.632  12.355  1.2209 -0.8269  0.4084
 2725SOL     OW19636   4.027   0.790   2.545  0.2606 -0.4768  0.4160
 2725SOL    HW119637   3.962   0.827   2.485  1.1584 -0.2877 -0.4386
 2725SOL    HW219638   4.021   0.847   2.622 -0.6438 -0.9701  0.7241
 2726SOL     OW19639   2.491   1.671   8.482 -0.0657 -0.7266  0.2461
 2726SOL    HW119640   2.485   1.688   8.388 -0.9359  1.9415  0.7666
 2726SOL    HW219641   2.475   1.578   8.493 -1.2982 -0.1478  3.2330
 2727SOL     OW19642   3.986   0.044   4.769 -0.6896  0.6024 -0.6153
 2727SOL    HW119643   3.942   0.096   4.836 -0.4121  0.7156 -0.5202
 2727SOL    HW219644   3.942   4.681   4.764 -0.7088  0.6094 -0.5620
 2728SOL     OW19645   3.187   3.445   2.083  0.1359  0.4677 -0.7069
 2728SOL    HW119646   3.137   3.524   2.104 -0.2754 -0.7498  2.8659
 2728SOL    HW219647   3.275   3.481   2.087  0.4465 -0.4106  0.4610
 2729SOL     OW19648   3.987   4.644  16.160  0.7378  0.2108  0.6404
 2729SOL    HW119649   3.980   4.567  16.217 -1.2059 -1.6612 -2.1545
 2729SOL    HW219650   4.025   4.704  16.225  2.0630 -0.2863  0.3246
 2730SOL     OW19651   4.662   0.385   8.976 -0.3620 -0.7604 -0.1633
 2730SOL    HW119652   0.016   0.349   9.022 -0.1596 -1.3150 -0.9117
 2730SOL    HW219653   4.608   0.311   9.002 -1.1740 -0.3755 -0.7420
 2731SOL     OW19654   0.577   2.456   7.402 -0.1060  0.2280 -0.4166
 2731SOL    HW119655   0.487   2.458   7.435 -0.0606  1.3790 -0.3893
 2731SOL    HW219656   0.621   2.482   7.483  0.4779  2.8625 -1.6075
 2732SOL     OW19657   0.209   0.726   8.759  0.0417  0.2860 -0.0345
 2732SOL    HW119658   0.194   0.685   8.674  1.5015 -1.0613  0.3643
 2732SOL    HW219659   0.123   0.718   8.801  0.4081 -2.6310  0.1234
 2733SOL     OW19660   0.346   2.420   2.155 -0.0598 -0.0005  0.1716
 2733SOL    HW119661   0.319   2.380   2.238 -0.3030 -0.6865 -0.2408
 2733SOL    HW219662   0.352   2.340   2.102 -0.5916 -1.2968  2.0736
 2734SOL     OW19663   2.295   1.796   1.095 -0.4276 -0.3774 -0.3279
 2734SOL    HW119664   2.347   1.801   1.015  2.2404  0.3723  1.4917
 2734SOL    HW219665   2.362   1.763   1.154  0.2357  2.8605  0.7321
 2735SOL     OW19666   0.943   0.126   3.193  0.0614  0.2684  0.0139
 2735SOL    HW119667   0.921   0.196   3.132 -1.5424 -0.0253  0.2684
 2735SOL    HW219668   0.904   0.157   3.275  1.8405  1.2089  0.5162
 2736SOL     OW19669   2.788   0.646   4.185  0.0039 -0.1643 -0.1754
 2736SOL    HW119670   2.705   0.600   4.201 -0.3286  1.1916  2.0877
 2736SOL    HW219671   2.751   0.727   4.150  1.7635  1.3169  1.3648
 2737SOL     OW19672   0.356   0.541   3.188  0.0983  0.0489  0.3442
 2737SOL    HW119673   0.302   0.493   3.126 -3.2375  0.9448  2.5742
 2737SOL    HW219674   0.385   0.616   3.137  1.6927 -0.7868  0.0238
 2738SOL     OW19675   4.457   2.784  15.152 -0.3006 -0.0942  0.5475
 2738SOL    HW119676   4.367   2.815  15.152 -0.8438 -1.6821  0.2812
 2738SOL    HW219677   4.445   2.692  15.127  1.2727  0.1892 -1.2789
 2739SOL     OW19678   1.901   1.106  12.794  0.1643 -0.0574  0.2716
 2739SOL    HW119679   1.898   1.062  12.709  0.8353  2.7880 -1.2038
 2739SOL    HW219680   1.991   1.096  12.824  0.6195  2.2060 -0.3267
 2740SOL     OW19681   3.945   2.428   8.446  0.3393  0.2774 -0.3899
 2740SOL    HW119682   3.912   2.512   8.415 -0.8260 -0.3848 -0.9169
 2740SOL    HW219683   4.040   2.435   8.431  0.1716  0.0106 -1.6233
 2741SOL     OW19684   3.312   4.169   0.339  0.2170 -0.5095  0.2396
 2741SOL    HW119685   3.231   4.202   0.300 -1.4927 -2.6972  1.9179
 2741SOL    HW219686   3.279   4.090   0.382 -3.3697  0.8866  0.0281
 2742SOL     OW19687   3.454   3.510   2.091  0.2015 -0.3955  0.4619
 2742SOL    HW119688   3.474   3.478   2.179 -0.9201  1.9922  1.5773
 2742SOL    HW219689   3.530   3.562   2.066 -0.0429 -0.4165 -0.3451
 2743SOL     OW19690   2.176   4.665  10.007  0.3407  0.5408 -0.5119
 2743SOL    HW119691   2.097   4.718   9.991  0.9546  1.7177  0.3463
 2743SOL    HW219692   2.241   4.708   9.952  0.9756 -0.6041 -0.6398
 2744SOL     OW19693   0.849   1.818  14.435 -0.3639  0.2381  0.0529
 2744SOL    HW119694   0.896   1.902  14.435  0.8274 -0.4335 -0.6875
 2744SOL    HW219695   0.769   1.848  14.479 -0.3283 -1.2290  1.1055
 2745SOL     OW19696   0.174   4.213   8.489  0.0844  0.0945  0.0774
 2745SOL    HW119697   0.149   4.215   8.582  1.9206 -0.8543  0.5960
 2745SOL    HW219698   0.087   4.193   8.454 -0.4215  0.0531  1.3500
 2746SOL     OW19699   0.401   2.688  16.903  0.6906 -0.1912 -0.6571
 2746SOL    HW119700   0.425   2.771  16.862  1.8037  0.4154  1.2434
 2746SOL    HW219701   0.491   2.662  16.924  0.8596 -0.6097 -1.8378
 2747SOL     OW19702   1.197   0.050   7.605  0.2436  0.0950  0.0279
 2747SOL    HW119703   1.210   4.682   7.575 -1.1807 -0.3916  0.8606
 2747SOL    HW219704   1.161   0.033   7.692 -0.4876 -0.4719 -0.3806
 2748SOL     OW19705   1.544   2.913   2.787 -0.1034 -0.5014  0.1382
 2748SOL    HW119706   1.476   2.851   2.813  0.3438 -1.3255 -0.6290
 2748SOL    HW219707   1.515   2.933   2.698  2.2419  1.6427 -0.1685
 2749SOL     OW19708   3.745   3.761   9.644  0.0518 -0.1589 -0.4366
 2749SOL    HW119709   3.807   3.737   9.575  0.9100  0.5201  0.0942
 2749SOL    HW219710   3.679   3.816   9.603 -2.5681 -1.3859  2.1263
 2750SOL     OW19711   4.164   3.500   2.540 -0.9134 -0.1701  0.7441
 2750SOL    HW119712   4.106   3.569   2.507 -1.8304 -0.3447  2.0035
 2750SOL    HW219713   4.248   3.530   2.506 -2.2038  0.7905 -1.5919
 2751SOL     OW19714   0.658   1.231   4.093 -0.8318 -0.2883 -0.2650
 2751SOL    HW119715   0.732   1.170   4.089  1.0559  2.1155 -1.2963
 2751SOL    HW219716   0.659   1.269   4.006 -2.3912 -1.1542 -0.6558
 2752SOL     OW19717   3.266   1.279   5.512 -0.1815  0.1305 -0.1679
 2752SOL    HW119718   3.174   1.305   5.506  0.1016  1.1134 -0.3806
 2752SOL    HW219719   3.286   1.305   5.423 -0.8718 -0.1797 -0.4141
 2753SOL     OW19720   4.509   4.496   3.310 -0.2362  0.2088 -0.8804
 2753SOL    HW119721   4.452   4.457   3.375 -0.0451 -1.3362 -1.6456
 2753SOL    HW219722   4.534   4.425   3.251  2.6763  0.6294 -0.1830
 2754SOL     OW19723   0.130   3.325   6.580  0.7728 -0.0968 -0.0153
 2754SOL    HW119724   0.057   3.331   6.642  1.4334 -1.1785  0.8723
 2754SOL    HW219725   0.130   3.232   6.556 -0.4179  0.4347 -1.9565
 2755SOL     OW19726   0.826   3.163   4.179  0.0927  0.6511 -0.1030
 2755SOL    HW119727   0.911   3.195   4.150  0.1295  1.9124  1.3615
 2755SOL    HW219728   0.847   3.084   4.228 -0.8760  0.5875  0.2057
 2756SOL     OW19729   1.517   2.763   3.109  0.1414  0.2688 -0.2168
 2756SOL    HW119730   1.462   2.727   3.040 -1.7456  0.8328  0.9917
 2756SOL    HW219731   1.501   2.857   3.097  0.2706  0.2925 -0.2067
 2757SOL     OW19732   4.669   0.607   8.806  0.3830 -0.4003 -0.2975
 2757SOL    HW119733   4.584   0.625   8.765  1.5939  1.7974 -1.8607
 2757SOL    HW219734   4.651   0.521   8.845  2.8843  0.3493  2.5012
 2758SOL     OW19735   4.186   0.920   6.107  0.4305  0.1529 -0.0837
 2758SOL    HW119736   4.264   0.864   6.111 -1.0927 -2.0235 -1.1642
 2758SOL    HW219737   4.186   0.935   6.012 -1.5815  0.7442  0.0160
 2759SOL     OW19738   2.875   3.704   4.227  0.6049  0.1657  0.2488
 2759SOL    HW119739   2.859   3.798   4.233  0.4107  0.1104  0.5678
 2759SOL    HW219740   2.797   3.675   4.178  1.2159  1.4161 -1.4593
 2760SOL     OW19741   0.836   3.949   4.187  0.3708  0.1685 -0.5514
 2760SOL    HW119742   0.784   4.015   4.142 -0.0635 -1.6807 -2.7205
 2760SOL    HW219743   0.898   3.932   4.117  1.6132 -0.0295  0.5868
 2761SOL     OW19744   1.456   4.618   7.597 -0.3857 -0.3486  0.3203
 2761SOL    HW119745   1.551   4.615   7.597 -0.4193 -1.1812 -1.0417
 2761SOL    HW219746   1.431   4.589   7.509  0.2068 -0.9933  0.3714
 2762SOL     OW19747   1.387   3.969  15.729 -0.2656  0.1697 -0.1974
 2762SOL    HW119748   1.395   4.042  15.667 -2.2202 -0.4615 -1.1960
 2762SOL    HW219749   1.431   4.000  15.808  1.1245 -1.8535 -0.1965
 2763SOL     OW19750   0.251   4.172   7.609 -0.3183 -0.7246  0.5091
 2763SOL    HW119751   0.233   4.223   7.688  0.6851  0.0230  0.2568
 2763SOL    HW219752   0.206   4.215   7.536  0.3738  0.5108  0.8047
 2764SOL     OW19753   1.798   2.401  15.602 -0.1503 -0.1163  0.4487
 2764SOL    HW119754   1.887   2.403  15.568  0.1034  2.0775  1.2531
 2764SOL    HW219755   1.800   2.306  15.616  1.0626 -0.2682 -0.7898
 2765SOL     OW19756   1.266   4.407   3.036  0.2476 -0.0362 -0.3936
 2765SOL    HW119757   1.190   4.362   3.071 -0.6345  1.3505 -0.5073
 2765SOL    HW219758   1.307   4.432   3.119 -1.8142 -0.4052  0.7296
 2766SOL     OW19759   3.826   4.039  17.394 -0.1873 -0.0434  0.4171
 2766SOL    HW119760   3.884   3.970  17.427  1.2255  1.3673  0.8934
 2766SOL    HW219761   3.841   4.026  17.300  2.7449  1.0409  0.7266
 2767SOL     OW19762   1.160   3.106   3.363 -0.0890 -0.0526  0.4023
 2767SOL    HW119763   1.231   3.044   3.348  1.7245  1.9122  1.0092
 2767SOL    HW219764   1.146   3.142   3.276  0.1296 -2.0407 -0.4577
 2768SOL     OW19765   2.705   2.594   6.034  0.7544 -0.4046 -0.0094
 2768SOL    HW119766   2.612   2.586   6.012  1.0076 -0.9824 -0.8874
 2768SOL    HW219767   2.747   2.527   5.980  2.8452 -0.4945  1.7402
 2769SOL     OW19768   3.312   4.377   1.253 -0.8274  0.4805 -0.4018
 2769SOL    HW119769   3.308   4.291   1.295  2.6013  0.7424  0.4560
 2769SOL    HW219770   3.377   4.364   1.184 -0.0264  0.3454  0.3776
 2770SOL     OW19771   3.346   1.614   1.465  0.3422  1.0430 -0.8914
 2770SOL    HW119772   3.330   1.648   1.377 -3.3992  3.2983  0.6790
 2770SOL    HW219773   3.286   1.540   1.469  0.7625  0.7149 -0.6011
 2771SOL     OW19774   1.821   4.587   2.146 -0.1305 -0.3510  0.0374
 2771SOL    HW119775   1.738   4.542   2.129 -0.5733  0.9866 -1.3604
 2771SOL    HW219776   1.798   4.678   2.127 -0.8025 -0.1644  1.7188
 2772SOL     OW19777   4.366   1.357   0.812  0.2719  0.1552  0.5409
 2772SOL    HW119778   4.343   1.375   0.903  1.6584 -1.4248  1.2106
 2772SOL    HW219779   4.364   1.262   0.822 -2.6105  0.1903  0.3550
 2773SOL     OW19780   4.368   1.395   2.924  0.1376  1.2876  0.4668
 2773SOL    HW119781   4.437   1.349   2.876 -0.6255  1.5177 -0.8800
 2773SOL    HW219782   4.349   1.464   2.860  1.6774  0.4998 -0.8364
 2774SOL     OW19783   3.631   4.419   3.170 -0.2888 -0.3498 -0.2482
 2774SOL    HW119784   3.567   4.431   3.240  0.5711  0.6980  0.3555
 2774SOL    HW219785   3.605   4.493   3.116  0.4640  1.5917  2.0676
 2775SOL     OW19786   2.619   0.392   2.607 -0.6587 -0.1794 -0.3600
 2775SOL    HW119787   2.584   0.308   2.637  0.9110 -0.5953  0.3186
 2775SOL    HW219788   2.573   0.409   2.525 -0.5627  0.8309 -0.1974
 2776SOL     OW19789   0.789   2.270   8.252  0.3287  0.1228 -0.4742
 2776SOL    HW119790   0.853   2.213   8.208  0.2071  0.4124 -1.0145
 2776SOL    HW219791   0.813   2.358   8.224  1.0607  0.1751  0.2931
 2777SOL     OW19792   1.557   3.260   2.611  0.1516 -0.2513  0.5818
 2777SOL    HW119793   1.516   3.336   2.570  1.7308  0.2097 -0.1731
 2777SOL    HW219794   1.652   3.269   2.601  0.0717 -0.4776 -0.3721
 2778SOL     OW19795   0.335   1.682  10.212  0.2175 -0.4255 -0.5543
 2778SOL    HW119796   0.427   1.706  10.201 -0.1651 -0.4959 -3.9250
 2778SOL    HW219797   0.296   1.768  10.224 -1.1079 -0.9387 -1.2361
 2779SOL     OW19798   4.120   1.843  17.595 -0.3631  0.2778 -0.2938
 2779SOL    HW119799   4.072   1.796  17.663  0.1995  0.1669  0.0277
 2779SOL    HW219800   4.174   1.773  17.557  0.0921  0.2752  0.3549
 2780SOL     OW19801   0.130   1.215  17.231 -0.0861  0.0708 -0.2940
 2780SOL    HW119802   0.175   1.299  17.234  0.5927 -0.3316  0.6694
 2780SOL    HW219803   0.193   1.153  17.193 -1.1556 -0.0244 -1.9310
 2781SOL     OW19804   1.953   2.223  12.457 -0.0028  0.2121 -0.7790
 2781SOL    HW119805   1.866   2.215  12.497  0.2596  0.9410 -0.0618
 2781SOL    HW219806   2.008   2.245  12.532  0.8164 -0.9961 -1.0273
 2782SOL     OW19807   4.338   4.115   0.907 -0.3417 -0.4716 -0.3077
 2782SOL    HW119808   4.266   4.090   0.849 -0.5440 -0.8016  0.0872
 2782SOL    HW219809   4.369   4.191   0.856  0.1861 -0.9414 -0.6841
 2783SOL     OW19810   3.895   4.192   3.399  0.3536  0.1247 -0.6864
 2783SOL    HW119811   3.938   4.273   3.425 -1.6079  1.0634 -0.3862
 2783SOL    HW219812   3.963   4.130   3.372 -0.3755 -0.9504 -0.0596
 2784SOL     OW19813   2.601   1.913   7.263 -0.2208 -0.3585 -0.1318
 2784SOL    HW119814   2.661   1.985   7.241  0.6725 -1.6476 -1.8905
 2784SOL    HW219815   2.618   1.850   7.193 -0.9756  1.1533 -1.6957
 2785SOL     OW19816   3.406   0.574   0.988  0.1534  0.7193 -0.2063
 2785SOL    HW119817   3.497   0.583   1.019  0.0184 -0.3458  0.5224
 2785SOL    HW219818   3.428   0.546   0.899  0.4612 -1.1544  0.4401
 2786SOL     OW19819   3.695   3.235  14.753 -0.2351  0.4636  0.2542
 2786SOL    HW119820   3.763   3.219  14.818  0.6153  3.1798  0.0299
 2786SOL    HW219821   3.644   3.302  14.800 -0.3831 -0.6142  1.6180
 2787SOL     OW19822   2.548   4.603   2.793 -0.0644 -0.3983 -0.1354
 2787SOL    HW119823   2.540   4.653   2.874 -1.9199 -0.4327 -0.2988
 2787SOL    HW219824   2.610   4.653   2.740 -0.8158  0.2015 -0.4423
 2788SOL     OW19825   0.624   4.693   3.482  0.6593 -0.3839  0.2347
 2788SOL    HW119826   0.581   4.619   3.440  3.0556 -2.7235  1.9432
 2788SOL    HW219827   0.575   0.048   3.452  0.5430 -0.2513  0.7460
 2789SOL     OW19828   1.722   4.106   9.319  0.3356 -0.1013  0.3437
 2789SOL    HW119829   1.800   4.113   9.264  1.0655 -1.0404  1.2589
 2789SOL    HW219830   1.662   4.068   9.254  0.9449  1.3172 -1.0597
 2790SOL     OW19831   3.403   1.941   6.937 -0.4882  0.2922 -0.1070
 2790SOL    HW119832   3.445   1.963   7.021 -2.0638 -0.0657  0.7804
 2790SOL    HW219833   3.478   1.940   6.878 -0.6159 -1.8118 -0.2219
 2791SOL     OW19834   0.044   2.921   6.580 -0.3118  0.4090  0.5587
 2791SOL    HW119835   0.022   2.986   6.646 -0.5626 -0.9403  1.8051
 2791SOL    HW219836   0.009   2.845   6.627  2.3880 -2.2615 -1.7426
 2792SOL     OW19837   4.543   0.693   3.703  0.0319 -0.1308  0.2861
 2792SOL    HW119838   4.552   0.667   3.794  1.0693  3.5009  1.2475
 2792SOL    HW219839   4.568   0.612   3.660 -1.1725 -0.8308  0.8979
 2793SOL     OW19840   2.167   2.857  15.941 -0.2165  0.1821 -0.0243
 2793SOL    HW119841   2.078   2.847  15.908  0.1997  0.0659 -1.1189
 2793SOL    HW219842   2.208   2.860  15.855 -2.2819 -2.9741 -1.0926
 2794SOL     OW19843   1.350   0.204   6.662 -0.8518  0.8369  0.0986
 2794SOL    HW119844   1.278   0.195   6.599 -0.7105 -0.1776  0.0734
 2794SOL    HW219845   1.378   0.293   6.645 -0.3967  0.6494 -0.1267
 2795SOL     OW19846   3.662   4.546   2.887  0.2881  0.3262  0.0392
 2795SOL    HW119847   3.678   4.598   2.966 -0.2064 -1.8509  1.5524
 2795SOL    HW219848   3.719   4.593   2.826  1.9011 -0.0684  1.2470
 2796SOL     OW19849   3.695   0.215   2.997 -0.3842 -0.1828  0.1232
 2796SOL    HW119850   3.691   0.304   3.032 -2.2328 -0.0842 -0.3188
 2796SOL    HW219851   3.754   0.218   2.922 -0.1348 -1.3751  0.2659
 2797SOL     OW19852   1.507   1.196   1.582 -0.3176 -0.3054  0.0803
 2797SOL    HW119853   1.512   1.115   1.632  0.5280 -0.6164 -0.5056
 2797SOL    HW219854   1.482   1.251   1.657  0.4399 -0.3516  0.3638
 2798SOL     OW19855   0.176   1.921  15.304  0.2023  0.3366  0.0477
 2798SOL    HW119856   0.136   1.870  15.375 -0.4184  1.3444  0.4194
 2798SOL    HW219857   0.102   1.981  15.292 -0.9673 -1.2831 -0.9905
 2799SOL     OW19858   2.668   2.427   6.973 -0.5529  0.4034  0.0336
 2799SOL    HW119859   2.719   2.393   6.899  1.5829  0.7251  1.3553
 2799SOL    HW219860   2.631   2.511   6.948  0.9805  1.1386  0.2384
 2800SOL     OW19861   1.231   3.743   4.058  0.1398  0.2169  0.4211
 2800SOL    HW119862   1.245   3.691   4.136 -2.0285  0.4458  0.9735
 2800SOL    HW219863   1.181   3.678   4.007  0.2634  0.8495 -0.5159
 2801SOL     OW19864   0.800   3.659   8.786 -0.2846 -0.1775  0.5527
 2801SOL    HW119865   0.757   3.688   8.866 -2.1098 -1.0776 -0.0959
 2801SOL    HW219866   0.831   3.573   8.815 -0.4857 -0.7209 -0.8537
 2802SOL     OW19867   1.918   1.639  13.414  0.3645  0.1338  0.5124
 2802SOL    HW119868   1.865   1.686  13.350 -0.9135  0.3404  1.7253
 2802SOL    HW219869   1.920   1.694  13.492  1.1023  2.4774 -1.1417
 2803SOL     OW19870   1.081   3.564  16.401 -0.6252  0.5381  0.7918
 2803SOL    HW119871   1.044   3.626  16.463 -0.9399  1.0915  0.0503
 2803SOL    HW219872   1.159   3.617  16.386 -0.6187 -0.1288 -1.5275
 2804SOL     OW19873   2.824   2.112   7.345  0.4570 -0.1938  0.2121
 2804SOL    HW119874   2.870   2.130   7.427  1.5012  0.7668 -0.5878
 2804SOL    HW219875   2.811   2.204   7.321 -0.8895 -0.0530  1.4062
 2805SOL     OW19876   4.620   0.343   6.358  0.7376  0.4244  0.4443
 2805SOL    HW119877   4.625   0.350   6.262 -0.0748 -2.9407  0.1639
 2805SOL    HW219878   4.700   0.293   6.370 -0.5397 -2.4107 -2.7028
 2806SOL     OW19879   3.325   3.831   2.129 -0.3211 -0.6572 -0.6317
 2806SOL    HW119880   3.413   3.830   2.092  0.1954 -3.6273  0.6780
 2806SOL    HW219881   3.283   3.900   2.078 -0.0473  1.2869  1.7638
 2807SOL     OW19882   2.939   3.353   3.911  0.1782  0.2235 -0.4162
 2807SOL    HW119883   2.847   3.353   3.886  0.5274  2.7731 -1.7589
 2807SOL    HW219884   2.932   3.314   3.998 -2.3870 -1.0654 -1.2083
 2808SOL     OW19885   3.187   4.459   7.079  0.1575  0.2304  0.5577
 2808SOL    HW119886   3.185   4.546   7.038  0.0575 -0.3655 -0.7026
 2808SOL    HW219887   3.250   4.407   7.030  1.0636  0.5740  1.3562
 2809SOL     OW19888   3.822   0.820  12.121 -0.3104  0.1760  0.3774
 2809SOL    HW119889   3.881   0.834  12.196  1.8394  2.4139 -1.7518
 2809SOL    HW219890   3.824   0.901  12.070 -0.9119  0.1267  0.2715
 2810SOL     OW19891   1.257   4.561   6.470 -0.1892 -0.2614 -0.1528
 2810SOL    HW119892   1.263   4.605   6.385 -2.1302  1.6118  0.6642
 2810SOL    HW219893   1.205   4.629   6.512 -1.9744 -2.1059  0.5708
 2811SOL     OW19894   0.195   1.818   5.007  0.1675 -0.1004  0.0879
 2811SOL    HW119895   0.176   1.733   4.969 -2.3274  0.9214 -0.9215
 2811SOL    HW219896   0.114   1.864   5.029 -0.3044 -1.3471  0.9310
 2812SOL     OW19897   2.559   2.196   8.213 -0.5125 -0.2285 -0.1362
 2812SOL    HW119898   2.484   2.181   8.156 -2.0103  2.1773  1.1756
 2812SOL    HW219899   2.525   2.183   8.302 -1.0126  1.7223 -0.0451
 2813SOL     OW19900   2.824   1.765  14.786 -0.0827  0.1991 -0.0435
 2813SOL    HW119901   2.808   1.671  14.775 -0.7481  0.1198  1.6146
 2813SOL    HW219902   2.788   1.786  14.872 -0.6770 -2.6596  0.3855
 2814SOL     OW19903   0.106   1.209   4.324  0.4149 -0.1498  0.1993
 2814SOL    HW119904   0.096   1.114   4.324  2.4170 -0.3644  1.0567
 2814SOL    HW219905   0.177   1.219   4.260  0.1374  0.2256 -0.0502
 2815SOL     OW19906   0.818   4.526   6.016 -0.0510 -0.0257  0.2342
 2815SOL    HW119907   0.885   4.461   6.037  1.7570  1.2647 -1.6021
 2815SOL    HW219908   0.757   4.464   5.976 -1.3935  1.6228 -0.2977
 2816SOL     OW19909   3.222   3.079   5.323  0.6455  0.0601 -0.0079
 2816SOL    HW119910   3.193   3.154   5.271  0.2520 -0.0235  0.0928
 2816SOL    HW219911   3.308   3.064   5.284 -0.2960  0.5413 -2.2507
 2817SOL     OW19912   4.509   0.790   8.394 -0.4840  0.3196 -0.0996
 2817SOL    HW119913   4.424   0.799   8.438  0.1464 -1.4801  1.4849
 2817SOL    HW219914   4.491   0.856   8.327  0.2909  0.8330  0.2054
 2818SOL     OW19915   0.900   0.816   7.628 -0.1047  0.3362 -0.4093
 2818SOL    HW119916   0.971   0.753   7.616  0.3451  0.7342  0.1463
 2818SOL    HW219917   0.947   0.899   7.618 -1.2395  0.9846 -0.3720
 2819SOL     OW19918   4.576   3.255   5.420 -0.7471 -0.1962 -0.1686
 2819SOL    HW119919   4.545   3.315   5.487  0.9780 -0.9258  1.2706
 2819SOL    HW219920   4.621   3.191   5.474  1.4223  1.7472  0.3578
 2820SOL     OW19921   2.578   1.463   5.187  0.5725  0.1966  0.1739
 2820SOL    HW119922   2.537   1.385   5.150  0.1375  0.3412  0.3599
 2820SOL    HW219923   2.508   1.528   5.187  0.2931 -0.1041 -0.2261
 2821SOL     OW19924   2.748   2.318   5.297  0.3334 -0.4059  0.1420
 2821SOL    HW119925   2.670   2.280   5.257  0.7453  1.3186 -2.3147
 2821SOL    HW219926   2.794   2.338   5.215 -0.2636  1.2215  0.2023
 2822SOL     OW19927   0.715   2.330  12.835 -0.3566 -0.1377  0.0774
 2822SOL    HW119928   0.762   2.372  12.763 -0.2983 -0.0432  0.1717
 2822SOL    HW219929   0.764   2.359  12.911 -0.0189  0.2509 -0.2874
 2823SOL     OW19930   0.327   3.211   8.837  0.0418 -0.1603  0.0090
 2823SOL    HW119931   0.240   3.171   8.839 -0.1807  0.4269  1.6449
 2823SOL    HW219932   0.321   3.286   8.778 -0.1713 -0.8217 -0.8255
 2824SOL     OW19933   1.520   0.677   5.103  0.0778 -0.1614 -0.3180
 2824SOL    HW119934   1.513   0.581   5.107  1.0486 -0.1025  2.7201
 2824SOL    HW219935   1.429   0.698   5.127  0.6989  2.3361 -0.1432
 2825SOL     OW19936   0.365   4.433   9.228  0.0196  0.5961  0.3475
 2825SOL    HW119937   0.364   4.512   9.174  1.2454  1.5837  1.7623
 2825SOL    HW219938   0.417   4.377   9.171  0.5186  0.8423  0.5646
 2826SOL     OW19939   0.508   2.572   2.007  0.3619 -0.3398  0.2953
 2826SOL    HW119940   0.437   2.517   2.039  2.3801 -3.0292  0.1350
 2826SOL    HW219941   0.575   2.507   1.988 -0.7602 -1.4412  0.1375
 2827SOL     OW19942   4.069   1.016   9.540 -0.1104  0.1164 -0.0509
 2827SOL    HW119943   4.163   1.030   9.531  0.0690 -1.9190 -1.3001
 2827SOL    HW219944   4.064   0.984   9.630 -1.8377  0.1438 -0.1377
 2828SOL     OW19945   1.469   0.801   3.110  0.6323 -0.1680 -0.1938
 2828SOL    HW119946   1.465   0.739   3.183 -0.6394  1.0137  0.7241
 2828SOL    HW219947   1.434   0.760   3.031  0.0728  0.0037 -0.0303
 2829SOL     OW19948   2.701   3.605   8.574  0.6354 -0.7558  0.1889
 2829SOL    HW119949   2.762   3.673   8.603 -2.8115  2.2735  0.3583
 2829SOL    HW219950   2.744   3.526   8.609  0.4178  1.1570  4.7627
 2830SOL     OW19951   1.910   1.118  11.638 -0.1823  0.2113 -0.2280
 2830SOL    HW119952   1.929   1.181  11.708  0.4084  0.0824 -0.2730
 2830SOL    HW219953   1.819   1.132  11.609 -0.7369 -0.8961  0.9553
 2831SOL     OW19954   0.462   3.714  12.588  0.3844 -0.0886  0.2872
 2831SOL    HW119955   0.515   3.779  12.543  0.4629 -1.2748 -1.3288
 2831SOL    HW219956   0.399   3.694  12.519  1.0751  1.6881 -0.8519
 2832SOL     OW19957   3.411   1.420   5.291 -0.0949 -0.0268  0.4621
 2832SOL    HW119958   3.459   1.338   5.278 -0.7069 -0.2611 -0.3291
 2832SOL    HW219959   3.471   1.468   5.234  1.5399 -1.5208  0.9512
 2833SOL     OW19960   2.742   3.077   2.454 -0.3674  0.1559 -0.4936
 2833SOL    HW119961   2.782   3.035   2.378  1.9119 -0.6238  1.1222
 2833SOL    HW219962   2.823   3.111   2.494  0.3303 -0.4447 -1.3976
 2834SOL     OW19963   0.406   0.262   3.716  0.7813  0.2046 -0.0600
 2834SOL    HW119964   0.487   0.217   3.738 -0.7767 -2.2775  0.6495
 2834SOL    HW219965   0.440   0.313   3.642  0.1165 -1.2227 -1.3642
 2835SOL     OW19966   4.618   2.038   5.612  0.2856  0.3399  0.0037
 2835SOL    HW119967   4.571   2.056   5.530  5.1025  0.6929 -2.6660
 2835SOL    HW219968   4.632   2.126   5.647  1.2243  0.3353 -0.3579
 2836SOL     OW19969   0.316   0.399  12.041 -0.5915 -0.2238 -0.1003
 2836SOL    HW119970   0.325   0.366  11.952  0.4756 -2.1904  0.7400
 2836SOL    HW219971   0.362   0.334  12.093  2.4787  0.7459 -1.6492
 2837SOL     OW19972   3.015   4.669   8.077  0.1393 -0.1388  0.2520
 2837SOL    HW119973   2.926   4.644   8.053  0.4543 -2.4528  1.5541
 2837SOL    HW219974   2.984   0.017   8.135  0.7068  1.6196 -1.5453
 2838SOL     OW19975   0.021   4.523   8.625 -0.2945 -0.0885 -0.5139
 2838SOL    HW119976   4.673   4.460   8.646 -0.6520  0.8117  1.0271
 2838SOL    HW219977   4.718   4.531   8.533 -3.4027 -1.6746  0.1760
 2839SOL     OW19978   4.033   3.776   7.841  0.2495 -0.5301 -0.3112
 2839SOL    HW119979   3.983   3.854   7.820  1.4607  0.8275  1.9049
 2839SOL    HW219980   3.984   3.710   7.792  1.6889 -0.3314 -2.0637
 2840SOL     OW19981   3.391   2.993  15.732 -0.0993 -0.4497  0.2816
 2840SOL    HW119982   3.352   3.078  15.712  4.1202  1.4710  0.1383
 2840SOL    HW219983   3.467   3.022  15.782  0.6830  0.9051 -1.6697
 2841SOL     OW19984   3.089   3.944   3.535 -0.1227 -0.4310  0.0876
 2841SOL    HW119985   3.107   3.948   3.629 -4.1173 -0.2207  0.8669
 2841SOL    HW219986   3.133   4.021   3.497  2.8548 -0.9474  2.5266
 2842SOL     OW19987   1.286   1.635   5.881 -0.2439 -0.2088  0.3114
 2842SOL    HW119988   1.321   1.547   5.875  1.1795  0.4395 -0.6144
 2842SOL    HW219989   1.237   1.652   5.801 -0.8697 -1.2596  0.4629
 2843SOL     OW19990   4.475   3.930   1.270 -0.6408 -0.9402  0.3218
 2843SOL    HW119991   4.379   3.930   1.280 -0.5497 -1.3788  1.1861
 2843SOL    HW219992   4.496   4.023   1.280  1.5602 -1.2617 -1.5803
 2844SOL     OW19993   0.765   0.402   7.624  0.2035  0.0943  0.3171
 2844SOL    HW119994   0.854   0.378   7.649  0.8725  2.5655  0.2646
 2844SOL    HW219995   0.747   0.486   7.665 -0.8101  0.0623 -0.0430
 2845SOL     OW19996   3.277   4.603  10.422  0.8314 -0.3200 -0.2947
 2845SOL    HW119997   3.342   4.652  10.471  1.5878 -0.9497 -0.6697
 2845SOL    HW219998   3.244   4.548  10.494  0.1071  0.5794  0.0619
 2846SOL     OW19999   1.905   4.202   5.539 -0.0131 -0.3428  0.2501
 2846SOL    HW120000   1.987   4.162   5.509  0.5174  0.9955 -0.1192
 2846SOL    HW220001   1.922   4.288   5.499  0.6291  0.0544  1.3585
 2847SOL     OW20002   2.525   2.379   2.340 -0.1616 -0.2558 -0.1743
 2847SOL    HW120003   2.519   2.457   2.395  1.7360  0.7787 -1.4367
 2847SOL    HW220004   2.583   2.333   2.401  0.4117  0.5002 -0.1605
 2848SOL     OW20005   1.233   0.743   4.024  0.1295  0.0855 -0.0593
 2848SOL    HW120006   1.251   0.758   3.931 -2.3871  1.3747 -0.3349
 2848SOL    HW220007   1.303   0.679   4.037  0.1988  0.0426 -0.6451
 2849SOL     OW20008   1.766   4.403   3.818  0.0686 -0.3562 -0.3584
 2849SOL    HW120009   1.756   4.482   3.764 -1.0134 -0.0762  0.2415
 2849SOL    HW220010   1.792   4.351   3.742 -1.8349 -1.3510 -0.3405
 2850SOL     OW20011   0.275   3.069  13.903  0.0190 -0.2411 -0.4543
 2850SOL    HW120012   0.363   3.098  13.925  1.1064 -2.1053 -2.3813
 2850SOL    HW220013   0.282   2.974  13.895 -1.4438 -0.6565  2.8965
 2851SOL     OW20014   1.544   0.051   6.178  0.0159  0.4192  0.1320
 2851SOL    HW120015   1.572   0.138   6.205 -0.2637  0.2324  1.0172
 2851SOL    HW220016   1.623   0.028   6.130  0.6699  1.2872  0.7981
 2852SOL     OW20017   2.778   0.686   2.107  0.0255 -0.2158 -0.0501
 2852SOL    HW120018   2.737   0.728   2.183  1.6229  2.6563 -0.7736
 2852SOL    HW220019   2.779   0.746   2.033 -0.8600  1.2772  1.1253
 2853SOL     OW20020   0.146   1.470   3.057 -0.2891 -0.1815  0.0718
 2853SOL    HW120021   0.173   1.493   3.146 -2.2681 -0.1343  0.6540
 2853SOL    HW220022   0.154   1.374   3.059 -2.8168 -0.3921 -0.1167
 2854SOL     OW20023   0.331   0.729  14.748  0.1611 -0.4853  0.1719
 2854SOL    HW120024   0.262   0.739  14.682  0.4344  0.2638 -0.0023
 2854SOL    HW220025   0.394   0.666  14.713 -0.2514 -0.5195 -0.5231
 2855SOL     OW20026   4.184   2.653   3.957  0.6222 -0.2930  0.0750
 2855SOL    HW120027   4.199   2.717   4.025 -1.3130  1.2016 -0.8923
 2855SOL    HW220028   4.129   2.705   3.898  1.3948 -1.7063 -1.9014
 2856SOL     OW20029   1.454   3.634   4.495 -0.1588  0.0172 -0.0631
 2856SOL    HW120030   1.488   3.609   4.409  1.4722 -1.3666  0.9893
 2856SOL    HW220031   1.402   3.709   4.468  0.4991  1.1715  1.9440
 2857SOL     OW20032   1.357   4.002   0.810  0.4600  0.0816 -0.5123
 2857SOL    HW120033   1.288   3.944   0.841  0.0355  1.0170  0.3116
 2857SOL    HW220034   1.387   4.052   0.887 -2.2703 -1.1845  1.3581
 2858SOL     OW20035   4.208   3.474  15.227  0.5660  0.2731 -0.7981
 2858SOL    HW120036   4.131   3.418  15.236  2.2083 -1.7612  0.5909
 2858SOL    HW220037   4.287   3.427  15.253  0.6134  1.3561  1.0605
 2859SOL     OW20038   1.062   2.145   3.229 -1.1031 -0.0089 -0.5960
 2859SOL    HW120039   1.039   2.093   3.306 -1.2377  0.4851 -0.3000
 2859SOL    HW220040   0.977   2.152   3.186 -0.9082 -1.0644 -1.1405
 2860SOL     OW20041   4.046   0.981   7.563 -0.4979 -0.2531  0.4060
 2860SOL    HW120042   4.098   1.061   7.572  2.0527 -1.9282  0.4976
 2860SOL    HW220043   3.967   0.996   7.614  0.1314 -0.3162  1.3995
 2861SOL     OW20044   0.262   1.097   5.492 -0.1530 -0.0538 -0.1748
 2861SOL    HW120045   0.313   1.173   5.520  0.4409  0.3604 -2.3956
 2861SOL    HW220046   0.216   1.135   5.417  1.0615 -0.7592 -1.2686
 2862SOL     OW20047   0.396   1.376   7.246  0.0741 -0.2756 -0.1519
 2862SOL    HW120048   0.374   1.287   7.221  2.2116 -1.5485  2.4908
 2862SOL    HW220049   0.491   1.371   7.243  0.1180  0.5752 -0.1348
 2863SOL     OW20050   3.645   3.896   6.848 -0.2933 -0.5710  0.0221
 2863SOL    HW120051   3.602   3.969   6.802  0.9780 -0.1228 -0.4419
 2863SOL    HW220052   3.682   3.844   6.777 -1.6647 -1.1043 -0.3003
 2864SOL     OW20053   0.651   2.518   5.301 -0.5487  0.1381  0.5987
 2864SOL    HW120054   0.558   2.538   5.310 -0.3273  0.6668  1.8038
 2864SOL    HW220055   0.643   2.436   5.254  1.7159  1.2903 -1.7574
 2865SOL     OW20056   1.941   0.765   6.275  0.2485  0.4633  0.3643
 2865SOL    HW120057   1.992   0.834   6.232  1.5269  0.6110  2.1435
 2865SOL    HW220058   2.000   0.736   6.345  2.3655  0.0407 -1.6020
 2866SOL     OW20059   2.931   1.238  13.451  0.1745  0.1309 -0.3321
 2866SOL    HW120060   2.985   1.198  13.383  0.6632 -2.7608  1.7345
 2866SOL    HW220061   2.950   1.330  13.432 -1.8690  0.8656  1.1833
 2867SOL     OW20062   2.928   0.324   5.888 -0.1850  0.6188  0.4213
 2867SOL    HW120063   2.945   0.252   5.949  1.7879 -1.7528 -2.9914
 2867SOL    HW220064   2.932   0.284   5.801 -0.1733 -0.4155  0.8956
 2868SOL     OW20065   2.177   3.051   5.955  0.2015  0.1523  0.2235
 2868SOL    HW120066   2.088   3.021   5.973  0.8786 -2.3875 -0.7502
 2868SOL    HW220067   2.224   2.971   5.935 -1.1059 -0.5409 -0.0955
 2869SOL     OW20068   2.577   3.292   7.087  0.0802 -0.5303 -0.1241
 2869SOL    HW120069   2.482   3.302   7.075 -0.0078 -0.1164  0.8976
 2869SOL    HW220070   2.584   3.204   7.124  3.8710  0.4567  1.4898
 2870SOL     OW20071   3.526   2.721   8.217 -0.1937  0.3215 -0.1126
 2870SOL    HW120072   3.618   2.707   8.193 -0.9845 -0.9520 -2.3843
 2870SOL    HW220073   3.484   2.667   8.150  2.4812  0.9889 -2.3385
 2871SOL     OW20074   1.867   1.844   0.167  0.7280  0.2611  0.5578
 2871SOL    HW120075   1.941   1.882   0.119  1.3738 -0.2389  1.1584
 2871SOL    HW220076   1.897   1.858   0.257 -1.3466  1.1463  1.1065
 2872SOL     OW20077   4.237   3.759   9.409 -0.1758  0.3564 -0.1714
 2872SOL    HW120078   4.151   3.716   9.416 -0.8808  1.9852  1.2895
 2872SOL    HW220079   4.288   3.725   9.483 -0.6295  0.1141  0.0317
 2873SOL     OW20080   4.561   2.479   6.386  0.5599  0.5585  0.0727
 2873SOL    HW120081   4.653   2.483   6.359  0.2017 -2.6175 -1.6323
 2873SOL    HW220082   4.551   2.571   6.411 -0.2796  0.1571  1.1859
 2874SOL     OW20083   3.728   4.360  10.629 -0.3245  0.5922 -0.2346
 2874SOL    HW120084   3.674   4.302  10.574 -2.3554  2.2401  0.0608
 2874SOL    HW220085   3.729   4.305  10.707  0.2063  1.7042  0.5311
 2875SOL     OW20086   4.084   3.114   5.969  0.0352 -0.3857 -0.2170
 2875SOL    HW120087   4.146   3.045   5.947  0.3133 -0.7067  1.5765
 2875SOL    HW220088   4.136   3.194   5.977  0.8716 -1.0774  1.2197
 2876SOL     OW20089   2.716   1.356  14.339  0.5117 -0.0115  0.1167
 2876SOL    HW120090   2.672   1.276  14.367 -1.3530  0.8803 -0.2015
 2876SOL    HW220091   2.682   1.364  14.250  2.0757  0.5776 -0.4157
 2877SOL     OW20092   2.640   3.622   5.923  0.3895 -0.0962  0.2495
 2877SOL    HW120093   2.710   3.683   5.902  2.0381 -2.1985 -0.4302
 2877SOL    HW220094   2.562   3.669   5.951 -0.4831  0.1466 -2.5730
 2878SOL     OW20095   3.606   4.453   7.073  0.1108 -0.0915  0.0910
 2878SOL    HW120096   3.654   4.442   6.991 -0.0932 -1.9584  0.2336
 2878SOL    HW220097   3.520   4.446   7.033  0.3559 -0.6332 -0.3440
 2879SOL     OW20098   2.022   1.562   7.455  0.2432 -0.3814  0.0943
 2879SOL    HW120099   2.096   1.606   7.495  0.1677 -0.4303  0.2907
 2879SOL    HW220100   2.011   1.482   7.508  0.0463  0.1856  0.9042
 2880SOL     OW20101   0.502   1.131   5.129  0.4259 -0.0968 -0.1637
 2880SOL    HW120102   0.498   1.143   5.034 -1.2060  0.5948 -0.0057
 2880SOL    HW220103   0.476   1.040   5.140  1.9657 -0.5585 -0.3091
 2881SOL     OW20104   3.252   2.894   4.717 -0.2060  0.0270  0.0467
 2881SOL    HW120105   3.243   2.812   4.668  0.1698 -0.0326  0.0785
 2881SOL    HW220106   3.309   2.948   4.662 -0.0415 -0.7447 -0.5358
 2882SOL     OW20107   3.240   0.750   9.496 -0.0138 -0.3751  0.2555
 2882SOL    HW120108   3.238   0.756   9.400 -0.0345  1.5969  0.3717
 2882SOL    HW220109   3.332   0.764   9.516 -0.3243  0.7288  0.8793
 2883SOL     OW20110   1.881   3.591   8.093 -0.3485  0.0622  0.5382
 2883SOL    HW120111   1.895   3.649   8.168  0.5959 -0.5846  0.8652
 2883SOL    HW220112   1.815   3.641   8.044  0.2301 -2.2619 -2.5787
 2884SOL     OW20113   3.275   4.388   6.255 -0.1412 -0.1244 -0.0301
 2884SOL    HW120114   3.322   4.464   6.221 -0.8665  0.0848 -0.5619
 2884SOL    HW220115   3.283   4.411   6.347  0.5089 -0.5779  0.0269
 2885SOL     OW20116   4.236   2.359   9.494  0.3364  0.4794 -0.1194
 2885SOL    HW120117   4.211   2.398   9.410  3.1742  0.1923 -1.1114
 2885SOL    HW220118   4.153   2.382   9.535  1.5374  0.4540  2.2951
 2886SOL     OW20119   2.109   1.017   6.397 -0.6509  0.0122  0.4073
 2886SOL    HW120120   2.042   1.082   6.419 -0.1466  0.2544  1.2253
 2886SOL    HW220121   2.097   1.008   6.302  1.2593  0.1192  0.1726
 2887SOL     OW20122   3.579   0.861   5.771 -0.0380 -0.3483 -0.7844
 2887SOL    HW120123   3.550   0.897   5.687 -1.2926  0.0596 -0.1764
 2887SOL    HW220124   3.602   0.773   5.744  1.5681 -0.5366  1.2326
 2888SOL     OW20125   3.195   3.452   2.611  0.1475  0.4115  0.0882
 2888SOL    HW120126   3.166   3.468   2.521  0.9764 -1.1271 -0.4364
 2888SOL    HW220127   3.181   3.531   2.663  2.4449 -0.5598  2.1767
 2889SOL     OW20128   1.602   1.033  15.575  0.1185  0.2229  0.4391
 2889SOL    HW120129   1.541   0.964  15.548  1.2695 -0.5663 -0.1236
 2889SOL    HW220130   1.619   1.013  15.667 -1.4937  0.6641  0.8433
 2890SOL     OW20131   1.821   0.186   2.832  0.0695 -0.1998 -0.0988
 2890SOL    HW120132   1.906   0.228   2.844 -0.7624  0.5217  3.2918
 2890SOL    HW220133   1.803   0.182   2.926 -1.2904 -0.8184 -0.3793
 2891SOL     OW20134   2.225   1.511   6.343 -0.5291  0.1796 -0.0418
 2891SOL    HW120135   2.227   1.456   6.422 -0.3362  0.2055 -0.0281
 2891SOL    HW220136   2.133   1.500   6.318 -0.5545 -1.7741  0.9601
 2892SOL     OW20137   0.144   4.602   4.296  0.1013  0.3049 -0.3217
 2892SOL    HW120138   0.188   4.673   4.344 -0.2027 -0.4647  1.0859
 2892SOL    HW220139   0.161   4.628   4.206 -0.1501  2.7217  0.3078
 2893SOL     OW20140   2.172   2.623   5.765 -0.2948 -0.4336 -0.0638
 2893SOL    HW120141   2.210   2.710   5.755 -2.9866  0.6166 -1.2144
 2893SOL    HW220142   2.197   2.576   5.686  1.4990  0.9293 -0.2999
 2894SOL     OW20143   0.840   3.498   8.144 -0.0883 -0.3014  0.9348
 2894SOL    HW120144   0.923   3.542   8.162 -0.2940  1.4119 -2.3003
 2894SOL    HW220145   0.864   3.458   8.060  0.6531 -1.9888  1.9417
 2895SOL     OW20146   2.321   2.496  12.794 -0.7023  0.3350  0.1753
 2895SOL    HW120147   2.344   2.442  12.870  0.1624  0.0152 -0.3058
 2895SOL    HW220148   2.403   2.510  12.746  0.2146 -2.2568  0.9724
 2896SOL     OW20149   4.063   2.889   1.896 -0.6648 -0.6196  0.6121
 2896SOL    HW120150   3.992   2.833   1.925 -0.6619 -0.6076  0.6425
 2896SOL    HW220151   4.021   2.971   1.869 -2.4541 -1.6813  0.2472
 2897SOL     OW20152   0.802   2.083  17.585  0.1957 -0.3026 -0.3129
 2897SOL    HW120153   0.802   2.151  17.652  4.1041 -0.3215 -0.3101
 2897SOL    HW220154   0.746   2.023  17.635 -0.8780  0.0557 -1.0954
 2898SOL     OW20155   4.317   1.604   1.973 -0.0308  0.2886 -0.7373
 2898SOL    HW120156   4.248   1.544   1.945  1.7576 -2.4060  0.6102
 2898SOL    HW220157   4.376   1.549   2.025 -1.5315 -1.1322 -0.5213
 2899SOL     OW20158   1.196   0.406  13.020  0.0228  0.4876  0.0071
 2899SOL    HW120159   1.289   0.388  13.010  0.2423  1.1298  0.8423
 2899SOL    HW220160   1.189   0.497  12.989 -0.4979  0.3179 -0.3726
 2900SOL     OW20161   3.365   2.678   1.566 -0.6043  0.6302  0.0905
 2900SOL    HW120162   3.315   2.659   1.646 -1.3313 -0.1958 -0.5653
 2900SOL    HW220163   3.426   2.605   1.570 -1.5258 -0.1681 -0.3816
 2901SOL     OW20164   3.237   1.555   4.410 -0.4563  0.7388  0.3736
 2901SOL    HW120165   3.230   1.528   4.319 -0.7220  1.1260  0.2787
 2901SOL    HW220166   3.154   1.529   4.451 -0.2413  0.1882  0.4567
 2902SOL     OW20167   3.200   3.659   4.695  0.1115 -0.1922 -0.7593
 2902SOL    HW120168   3.252   3.613   4.762  0.5980 -1.7252 -2.2061
 2902SOL    HW220169   3.165   3.589   4.640 -3.6225 -0.4164  1.9183
 2903SOL     OW20170   4.367   2.902   3.691 -0.1770 -0.1465 -0.2450
 2903SOL    HW120171   4.460   2.922   3.701 -0.1572  0.1301 -0.9461
 2903SOL    HW220172   4.329   2.920   3.777 -0.5605  0.4631 -0.5359
 2904SOL     OW20173   4.151   3.820   3.473 -0.0657  0.3873  0.3157
 2904SOL    HW120174   4.216   3.821   3.544  0.1883 -0.3279  0.0865
 2904SOL    HW220175   4.117   3.731   3.482 -1.5378  0.8999 -0.2874
 2905SOL     OW20176   3.916   3.396  11.106 -0.0078 -0.5780 -0.0441
 2905SOL    HW120177   3.981   3.398  11.177  2.6695  1.4381 -2.5499
 2905SOL    HW220178   3.921   3.484  11.070 -0.4712 -0.3229  0.5133
 2906SOL     OW20179   1.218   2.460  16.206 -0.4772 -0.2547 -0.0422
 2906SOL    HW120180   1.146   2.515  16.175 -0.4087  0.3725  0.9080
 2906SOL    HW220181   1.280   2.456  16.133  0.6704 -2.7028  1.0797
 2907SOL     OW20182   1.251   4.103   6.735 -0.4140 -0.2062 -0.4981
 2907SOL    HW120183   1.185   4.131   6.799 -0.7356 -0.4991 -0.6971
 2907SOL    HW220184   1.324   4.073   6.789 -1.8041 -0.8105  1.0511
 2908SOL     OW20185   0.938   1.926   3.393  0.0208 -0.0007  0.5182
 2908SOL    HW120186   0.889   1.856   3.348  2.0379 -1.5823  0.7741
 2908SOL    HW220187   0.985   1.869   3.454  1.1127 -0.6606 -0.9497
 2909SOL     OW20188   3.708   0.608   3.344 -0.4294  0.2220 -0.3813
 2909SOL    HW120189   3.739   0.698   3.355 -0.3933 -0.2126  3.1432
 2909SOL    HW220190   3.789   0.557   3.337  0.0726  1.0313 -0.5458
 2910SOL     OW20191   0.511   4.336  14.476  0.5250 -0.0985  0.1634
 2910SOL    HW120192   0.545   4.416  14.436 -0.8648  0.6914  0.5450
 2910SOL    HW220193   0.561   4.266  14.433 -0.9201 -0.5064 -0.8807
 2911SOL     OW20194   2.343   3.159   7.333  0.4424  0.1663  0.1950
 2911SOL    HW120195   2.251   3.158   7.362 -0.6358  1.0046 -3.2001
 2911SOL    HW220196   2.341   3.232   7.271 -1.3038 -0.8093 -0.8925
 2912SOL     OW20197   3.050   4.330  16.179  0.1194 -0.3602  0.5728
 2912SOL    HW120198   3.126   4.368  16.223  0.1698  0.4946 -0.2385
 2912SOL    HW220199   3.070   4.237  16.167  0.3763 -0.2389  0.0770
 2913SOL     OW20200   0.172   3.527   7.535  0.6184  0.3245  0.6482
 2913SOL    HW120201   0.150   3.580   7.458  2.4707 -0.4814 -0.4412
 2913SOL    HW220202   0.164   3.439   7.499 -0.4921  0.7429 -0.1235
 2914SOL     OW20203   3.179   4.413  11.876  0.6987  0.4286 -0.3050
 2914SOL    HW120204   3.099   4.363  11.857  0.1536  0.9650  0.5604
 2914SOL    HW220205   3.184   4.462  11.794 -0.5354 -0.6708 -1.0404
 2915SOL     OW20206   3.393   4.341   5.176  0.0354 -0.1807  0.2304
 2915SOL    HW120207   3.311   4.292   5.174  0.9050 -1.7451  2.0868
 2915SOL    HW220208   3.436   4.289   5.244  0.1253 -0.9442 -0.4060
 2916SOL     OW20209   2.870   2.436   6.517 -0.2368 -0.6702 -0.4468
 2916SOL    HW120210   2.855   2.428   6.423 -3.7758  0.6754  0.0092
 2916SOL    HW220211   2.787   2.474   6.545  0.5181  1.2498 -0.8519
 2917SOL     OW20212   3.684   0.367   3.525 -0.0090 -0.1335 -0.1706
 2917SOL    HW120213   3.644   0.425   3.460  0.1625 -0.7588 -0.8231
 2917SOL    HW220214   3.768   0.355   3.481 -1.8437 -0.5854 -3.4574
 2918SOL     OW20215   0.957   0.203   5.096 -0.0056  0.5414 -0.1640
 2918SOL    HW120216   0.996   0.289   5.114  0.9861  0.3987 -1.6920
 2918SOL    HW220217   0.928   0.228   5.008  2.5243  0.4220 -1.0308
 2919SOL     OW20218   4.487   1.880   4.840 -0.3060  0.6801 -0.0390
 2919SOL    HW120219   4.489   1.961   4.790  0.0720  1.3198  1.0287
 2919SOL    HW220220   4.393   1.868   4.857 -0.2606 -2.1211 -1.5984
 2920SOL     OW20221   2.209   1.800  12.998 -0.0947  0.4159  0.2775
 2920SOL    HW120222   2.149   1.836  13.064 -0.1481 -0.1207  0.5186
 2920SOL    HW220223   2.169   1.716  12.975 -0.4562  0.2115  1.6810
 2921SOL     OW20224   0.973   4.554   4.817 -0.0092 -0.0373  0.6431
 2921SOL    HW120225   0.932   4.630   4.776  0.6724  0.5113  0.9956
 2921SOL    HW220226   1.057   4.587   4.848  0.3411 -0.7289  0.4281
 2922SOL     OW20227   3.213   3.589   0.589 -0.2825 -0.4418  0.5207
 2922SOL    HW120228   3.168   3.651   0.646 -1.0914 -0.1903 -0.3991
 2922SOL    HW220229   3.253   3.658   0.536 -1.1506  0.6966  1.3518
 2923SOL     OW20230   0.554   1.960   3.921 -0.3083  0.4351  0.3574
 2923SOL    HW120231   0.628   1.986   3.866 -3.2611  2.8223 -2.4827
 2923SOL    HW220232   0.576   1.877   3.963 -1.5985  0.0291  0.2328
 2924SOL     OW20233   2.457   1.545   4.647 -0.4668 -0.0975  1.0092
 2924SOL    HW120234   2.407   1.485   4.592  0.0100  0.6561 -0.2326
 2924SOL    HW220235   2.379   1.590   4.682  0.5683  1.5319  1.2111
 2925SOL     OW20236   0.601   1.466   4.236 -0.0386 -0.3696 -0.0976
 2925SOL    HW120237   0.651   1.405   4.181 -0.7118 -1.6247  0.7056
 2925SOL    HW220238   0.650   1.465   4.318  0.6255 -0.0546 -0.4848
 2926SOL     OW20239   1.562   2.956   1.554  0.0452 -0.0348  0.0808
 2926SOL    HW120240   1.470   2.931   1.555  0.1762 -0.6277 -2.9808
 2926SOL    HW220241   1.594   2.906   1.629  2.6342 -0.4557 -1.2971
 2927SOL     OW20242   3.077   1.397   5.302  0.0103 -0.4218  0.5550
 2927SOL    HW120243   3.036   1.414   5.387 -0.6542 -0.9908  0.3448
 2927SOL    HW220244   3.015   1.438   5.241  2.9374  2.9377 -0.1897
 2928SOL     OW20245   0.927   4.422  10.389  0.5731  0.9266 -0.4654
 2928SOL    HW120246   0.855   4.364  10.412 -0.0400  2.6566  1.9228
 2928SOL    HW220247   0.992   4.396  10.454  0.5606  2.5564  0.1986
 2929SOL     OW20248   1.419   4.354  12.697 -0.2160 -0.1960 -0.0101
 2929SOL    HW120249   1.463   4.369  12.780  1.7210  2.1818 -1.4678
 2929SOL    HW220250   1.454   4.266  12.681  1.1711  0.0785  1.4492
 2930SOL     OW20251   3.186   0.009   3.970  0.0841 -0.4857 -0.1893
 2930SOL    HW120252   3.258   0.018   4.033 -0.2951  0.2312  0.1412
 2930SOL    HW220253   3.117   4.704   4.030 -0.1287 -1.2950 -0.8251
 2931SOL     OW20254   1.570   2.319   4.059  0.3335  0.0027 -0.0146
 2931SOL    HW120255   1.666   2.322   4.052  0.4842 -0.5968  1.7942
 2931SOL    HW220256   1.547   2.237   4.014 -2.4230  0.7886 -0.0194
 2932SOL     OW20257   2.274   1.961   2.142 -0.4614  0.0267  0.1289
 2932SOL    HW120258   2.245   1.908   2.068  2.1091  1.1011 -1.6391
 2932SOL    HW220259   2.311   2.037   2.097 -0.5920 -0.1595 -0.2947
 2933SOL     OW20260   0.036   2.406  15.772  0.6381  0.1807 -0.2842
 2933SOL    HW120261   0.046   2.317  15.738 -2.3611 -0.0490 -0.5677
 2933SOL    HW220262   4.710   2.442  15.698  1.4441  3.6863  0.9047
 2934SOL     OW20263   3.040   3.012   6.169  0.8942  0.3529 -0.5275
 2934SOL    HW120264   2.961   2.981   6.127  0.6398 -2.3610  1.9699
 2934SOL    HW220265   3.086   3.041   6.090  0.5233  0.8747 -0.5507
 2935SOL     OW20266   0.296   2.007   6.767 -0.2387 -0.3015 -0.3355
 2935SOL    HW120267   0.342   2.065   6.705 -0.3253 -0.1740 -0.2811
 2935SOL    HW220268   0.223   1.979   6.712 -0.1576  1.2610 -1.2447
 2936SOL     OW20269   3.935   2.474   1.410  0.3163  0.1833  0.0054
 2936SOL    HW120270   3.929   2.391   1.458 -0.0048  0.1879 -0.0242
 2936SOL    HW220271   4.009   2.444   1.357  1.7232  2.9618  0.4089
 2937SOL     OW20272   1.516   2.988   8.152 -0.4109 -0.0596 -0.5128
 2937SOL    HW120273   1.609   2.973   8.133  0.3590 -0.5464  3.6359
 2937SOL    HW220274   1.521   2.993   8.247  1.9244 -0.3841 -0.6005
 2938SOL     OW20275   3.721   3.729   4.352 -0.0012  0.6547 -0.2591
 2938SOL    HW120276   3.765   3.644   4.355  1.1337  1.3814  3.1885
 2938SOL    HW220277   3.781   3.782   4.299  0.5906 -0.4740 -0.7308
 2939SOL     OW20278   0.483   4.396   8.746  0.2314  0.2547  0.7986
 2939SOL    HW120279   0.515   4.325   8.801  3.5091 -1.2302 -3.0298
 2939SOL    HW220280   0.505   4.371   8.656 -2.4516  0.1514  0.1590
 2940SOL     OW20281   0.606   4.002   4.948 -0.9789  0.5844 -0.7344
 2940SOL    HW120282   0.699   4.023   4.959 -0.3755 -1.6503 -1.5042
 2940SOL    HW220283   0.607   3.949   5.028 -1.1392  4.0069  1.5374
 2941SOL     OW20284   3.915   4.254  13.016 -0.7048 -0.5097 -0.4476
 2941SOL    HW120285   3.873   4.201  13.084 -1.4207 -0.9820 -1.2724
 2941SOL    HW220286   3.875   4.211  12.941 -1.3890 -1.0812  0.2439
 2942SOL     OW20287   2.203   3.211   8.204  0.1342  0.6275  0.1147
 2942SOL    HW120288   2.270   3.178   8.144  0.1625 -2.4111  1.7723
 2942SOL    HW220289   2.170   3.281   8.148  1.7578 -0.2243 -1.8838
 2943SOL     OW20290   1.264   4.364   7.837  0.0631  0.3365 -0.0003
 2943SOL    HW120291   1.203   4.388   7.768  0.1765  1.6812  0.3602
 2943SOL    HW220292   1.223   4.392   7.919  2.5762 -0.1713  1.4575
 2944SOL     OW20293   1.984   0.257   3.955  0.1267 -0.0329  0.2992
 2944SOL    HW120294   2.006   0.263   3.862  1.6311  2.3275  0.7850
 2944SOL    HW220295   2.044   0.188   3.983  2.2476  1.9224  0.5997
 2945SOL     OW20296   4.352   4.523  12.063  0.0754  0.0112 -0.1125
 2945SOL    HW120297   4.290   4.464  12.105 -1.8714  2.7115  0.7654
 2945SOL    HW220298   4.429   4.474  12.091 -0.5259 -0.0086  1.4823
 2946SOL     OW20299   0.416   1.564   5.534  0.4793 -0.2869 -0.7278
 2946SOL    HW120300   0.481   1.631   5.512  0.7727 -0.1677  0.5127
 2946SOL    HW220301   0.337   1.616   5.549 -1.1236 -3.1256  0.6023
 2947SOL     OW20302   3.901   3.905  13.045 -0.2904 -0.3219  0.6018
 2947SOL    HW120303   3.948   3.988  13.060  1.2206 -0.9026 -0.9178
 2947SOL    HW220304   3.834   3.942  12.988 -0.7846  0.4196  1.6563
 2948SOL     OW20305   2.297   0.832   4.292 -0.4372  0.0423 -0.2242
 2948SOL    HW120306   2.334   0.801   4.209 -0.1795  2.5263 -1.0286
 2948SOL    HW220307   2.222   0.877   4.253 -1.1617 -1.2959 -0.3914
 2949SOL     OW20308   4.101   3.106   6.252 -0.5025 -0.5260 -0.1924
 2949SOL    HW120309   4.190   3.072   6.262 -1.5181 -2.1547  3.2867
 2949SOL    HW220310   4.082   3.093   6.159  0.4871 -2.3638 -0.1457
 2950SOL     OW20311   1.408   2.002   6.112 -0.3751  0.4227  0.2615
 2950SOL    HW120312   1.418   1.919   6.065 -0.5485  0.7205 -0.3068
 2950SOL    HW220313   1.324   2.028   6.074  0.5906  1.4308 -1.1899
 2951SOL     OW20314   0.374   1.322   4.680 -0.4208 -0.1916  0.1435
 2951SOL    HW120315   0.379   1.368   4.596 -0.5777 -0.1644  0.1496
 2951SOL    HW220316   0.298   1.266   4.662 -0.0531 -0.0570 -1.8760
 2952SOL     OW20317   0.915   2.939   5.318 -0.2795 -0.3394  0.6523
 2952SOL    HW120318   0.980   2.892   5.265 -1.3054 -0.4914 -0.4797
 2952SOL    HW220319   0.956   2.944   5.404 -1.1910  0.8048  1.0213
 2953SOL     OW20320   2.924   4.284   4.586  0.4283  0.1694 -0.1971
 2953SOL    HW120321   3.015   4.259   4.570  0.3841 -1.0881  1.5058
 2953SOL    HW220322   2.912   4.364   4.535 -2.2988 -0.5715 -0.7288
 2954SOL     OW20323   4.619   1.188  10.471 -0.0108 -0.0253  0.1763
 2954SOL    HW120324   4.710   1.210  10.492  0.4300 -1.5006 -0.1448
 2954SOL    HW220325   4.587   1.167  10.558  1.0539 -0.3215  0.5031
 2955SOL     OW20326   1.774   3.415   3.099 -0.3734 -0.2507  0.2108
 2955SOL    HW120327   1.728   3.453   3.174 -1.8885 -0.6215 -0.5295
 2955SOL    HW220328   1.717   3.415   3.022  0.8027 -1.1844 -0.6656
 2956SOL     OW20329   3.162   3.113   5.934 -0.5784  0.1989 -0.2047
 2956SOL    HW120330   3.253   3.111   5.902  0.3399 -1.7436  2.5768
 2956SOL    HW220331   3.135   3.204   5.923 -0.7913  0.1445 -0.1311
 2957SOL     OW20332   4.484   3.386  10.075  0.1782  0.5995 -0.1245
 2957SOL    HW120333   4.453   3.332  10.003  1.4273 -0.9207  0.4663
 2957SOL    HW220334   4.455   3.468  10.034  0.9010  0.5231 -0.7896
 2958SOL     OW20335   2.119   0.459  13.302  0.3320  0.2359 -0.0895
 2958SOL    HW120336   2.189   0.517  13.271  1.4261 -1.2268 -0.3441
 2958SOL    HW220337   2.174   0.398  13.351 -1.5109 -2.5141 -1.4538
 2959SOL     OW20338   3.068   3.837   0.641  0.1373  0.8222 -0.2342
 2959SOL    HW120339   2.982   3.840   0.600  0.3166  1.4725 -0.5669
 2959SOL    HW220340   3.049   3.870   0.729 -2.3396 -0.2382 -0.3703
 2960SOL     OW20341   1.931   2.916  14.512  0.9859  0.3023 -0.3901
 2960SOL    HW120342   1.888   2.831  14.511  1.1333  0.2711 -3.1325
 2960SOL    HW220343   1.877   2.970  14.570 -1.0227  0.4485 -2.3880
 2961SOL     OW20344   1.072   1.438   4.303 -0.3978 -0.0200  0.4705
 2961SOL    HW120345   1.142   1.436   4.238  0.4749  3.5848  1.3006
 2961SOL    HW220346   1.014   1.506   4.269  0.0434  1.7824  3.3056
 2962SOL     OW20347   3.097   1.590   1.683 -0.3431 -1.1045  0.6624
 2962SOL    HW120348   3.026   1.557   1.628  0.2728  0.6983 -1.2012
 2962SOL    HW220349   3.141   1.650   1.623  0.1693 -1.7342  0.3984
 2963SOL     OW20350   3.666   0.375  10.072 -0.5540  0.1302 -0.1336
 2963SOL    HW120351   3.600   0.379  10.141 -0.6173  1.0362 -0.2513
 2963SOL    HW220352   3.741   0.340  10.122  0.5257  2.5557 -0.0778
 2964SOL     OW20353   3.339   4.008   4.186 -0.5417  0.3166 -0.0894
 2964SOL    HW120354   3.285   3.969   4.116 -1.4814  3.2910 -1.0064
 2964SOL    HW220355   3.319   3.953   4.262 -2.5213  0.1021 -0.7452
 2965SOL     OW20356   2.745   1.060   5.158 -0.0359  0.0539 -0.0142
 2965SOL    HW120357   2.790   0.992   5.208 -1.9257 -0.8101  0.4992
 2965SOL    HW220358   2.790   1.062   5.073  0.5836 -1.7794  0.2747
 2966SOL     OW20359   2.862   3.186   8.900  0.3201 -0.4820  0.3736
 2966SOL    HW120360   2.932   3.121   8.911  0.7491 -0.0689  0.0873
 2966SOL    HW220361   2.797   3.159   8.965 -0.8038 -1.6555 -1.2317
 2967SOL     OW20362   3.760   4.311   6.147 -0.4095 -0.1494  0.0342
 2967SOL    HW120363   3.730   4.390   6.192 -0.2902 -0.8183  1.2814
 2967SOL    HW220364   3.796   4.271   6.226 -1.5835 -1.0565  0.1150
 2968SOL     OW20365   3.515   1.751  10.696  0.1169 -0.1840 -0.1645
 2968SOL    HW120366   3.424   1.744  10.669 -0.4281 -1.3340  1.9522
 2968SOL    HW220367   3.554   1.685  10.640  0.9319  0.3618 -0.2396
 2969SOL     OW20368   0.580   0.256  12.133 -0.2384 -0.7145  0.0834
 2969SOL    HW120369   0.540   0.196  12.071 -0.7259 -0.0256 -0.2712
 2969SOL    HW220370   0.674   0.259  12.117 -0.0099  0.8765  1.6927
 2970SOL     OW20371   2.083   3.856   7.523  0.4522 -0.3807  0.4436
 2970SOL    HW120372   2.038   3.805   7.590 -1.3624  0.8581  0.1546
 2970SOL    HW220373   2.157   3.883   7.578  0.5115  2.0009 -0.7839
 2971SOL     OW20374   1.044   2.265  16.223  0.4586 -0.6235  0.2728
 2971SOL    HW120375   1.130   2.308  16.227  0.6106 -0.9703  0.8287
 2971SOL    HW220376   0.984   2.323  16.269  1.8515 -0.7918  2.3334
 2972SOL     OW20377   3.137   0.741   4.383 -0.1180 -0.1330 -0.0930
 2972SOL    HW120378   3.110   0.664   4.333  0.0196 -0.9707  1.1484
 2972SOL    HW220379   3.049   0.778   4.393  0.1516  0.4448  0.1342
 2973SOL     OW20380   0.804   0.544   5.224  0.5084 -0.9668 -0.1859
 2973SOL    HW120381   0.741   0.551   5.153 -1.6468 -1.4117  1.7056
 2973SOL    HW220382   0.786   0.458   5.261  0.5880 -0.7590  0.3283
 2974SOL     OW20383   2.013   2.164   5.794 -0.2310  0.1080 -0.3952
 2974SOL    HW120384   2.046   2.201   5.712 -0.4933  0.1845 -0.4652
 2974SOL    HW220385   2.097   2.129   5.826  1.0111  3.2960 -0.1242
 2975SOL     OW20386   3.249   4.333  12.939 -0.3139  0.1463  0.4309
 2975SOL    HW120387   3.253   4.242  12.969 -0.6562 -0.5684 -1.6790
 2975SOL    HW220388   3.339   4.352  12.914  1.1917 -2.2195  4.0323
 2976SOL     OW20389   1.901   3.694   2.341  0.6872  0.0657  0.2152
 2976SOL    HW120390   1.929   3.689   2.250  0.4916  2.1040  0.0585
 2976SOL    HW220391   1.977   3.653   2.383  1.7012  1.4273 -0.2828
 2977SOL     OW20392   3.132   0.082   8.467  0.7409  0.1646  0.2206
 2977SOL    HW120393   3.058   0.066   8.408  1.5128 -1.9255 -0.1927
 2977SOL    HW220394   3.087   0.133   8.534  0.8915 -0.1727  0.5782
 2978SOL     OW20395   4.393   1.554   9.179  0.5671 -0.1270  0.2953
 2978SOL    HW120396   4.415   1.515   9.264 -1.6512 -0.8584  0.5446
 2978SOL    HW220397   4.433   1.491   9.119  0.0349 -0.2911  0.1096
 2979SOL     OW20398   1.301   2.441   0.613 -0.2764  0.2908  0.1336
 2979SOL    HW120399   1.329   2.369   0.670 -0.1727 -1.4206 -2.1150
 2979SOL    HW220400   1.237   2.399   0.557  1.6063 -1.2981 -0.8266
 2980SOL     OW20401   1.137   2.033   6.547  0.2905  0.1302  0.6399
 2980SOL    HW120402   1.207   1.999   6.602 -0.7670 -3.3407 -0.1549
 2980SOL    HW220403   1.164   1.994   6.464 -0.6978  0.2655  0.2470
 2981SOL     OW20404   1.167   4.405  10.543 -0.7317  0.0808  0.1507
 2981SOL    HW120405   1.156   4.500  10.536  0.1848  0.1243 -0.5999
 2981SOL    HW220406   1.234   4.392  10.477  0.1502 -1.1086  1.2800
 2982SOL     OW20407   4.575   2.118  12.714 -0.6255  0.1600  0.2938
 2982SOL    HW120408   4.505   2.059  12.742  1.4194 -2.4468 -0.0682
 2982SOL    HW220409   4.545   2.198  12.757  0.0049  0.5873 -0.0536
 2983SOL     OW20410   1.437   0.077   5.842 -0.3913 -0.5435 -0.1735
 2983SOL    HW120411   1.424   0.105   5.933 -3.1566 -0.0885 -0.6966
 2983SOL    HW220412   1.429   4.706   5.861  2.4942 -0.3383  1.9564
 2984SOL     OW20413   0.131   2.612  15.138  0.5685 -0.0614 -0.2292
 2984SOL    HW120414   0.062   2.665  15.098 -0.8643  0.0588  2.3749
 2984SOL    HW220415   0.204   2.623  15.078 -0.8152 -2.7745 -2.4604
 2985SOL     OW20416   2.243   2.804   2.325 -0.1417 -0.0386 -0.2891
 2985SOL    HW120417   2.332   2.816   2.293  0.0891  1.1230  0.7830
 2985SOL    HW220418   2.253   2.838   2.414  0.5705  0.2831 -0.4919
 2986SOL     OW20419   4.560   1.980   9.667  0.0752 -0.0166 -0.2693
 2986SOL    HW120420   4.483   2.035   9.679  0.9803  0.4282  3.7809
 2986SOL    HW220421   4.591   1.976   9.758 -0.8856 -0.3310  0.0361
 2987SOL     OW20422   2.961   3.061  10.430 -0.1753 -0.0140  0.2795
 2987SOL    HW120423   2.914   3.029  10.353  2.0170 -0.9431 -0.6872
 2987SOL    HW220424   2.896   3.045  10.498  0.0497  0.1426  0.5289
 2988SOL     OW20425   0.400   1.613   3.818  0.3286 -0.0259 -0.1768
 2988SOL    HW120426   0.455   1.640   3.892 -0.4964  1.4461 -0.1109
 2988SOL    HW220427   0.317   1.621   3.864 -0.7117  0.1138 -2.0993
 2989SOL     OW20428   2.043   2.498   2.638 -0.8023 -0.6429  0.4596
 2989SOL    HW120429   1.956   2.501   2.597  0.2177  2.2102 -1.4750
 2989SOL    HW220430   2.048   2.565   2.705  0.9188 -1.0609  0.7559
 2990SOL     OW20431   2.301   1.696   3.722  0.5782 -0.0410  0.3825
 2990SOL    HW120432   2.270   1.611   3.752  0.4843  0.6466  2.2714
 2990SOL    HW220433   2.309   1.750   3.801  0.6397 -1.1014  1.0928
 2991SOL     OW20434   2.896   0.447   6.906 -0.1972 -0.0475 -0.3669
 2991SOL    HW120435   2.811   0.474   6.871  0.2501  0.9220 -0.6995
 2991SOL    HW220436   2.868   0.387   6.975 -1.4056 -2.4734 -2.9880
 2992SOL     OW20437   3.101   1.760   5.235 -0.1053 -0.6858 -0.0274
 2992SOL    HW120438   3.164   1.712   5.289 -0.7444 -0.3160  1.0693
 2992SOL    HW220439   3.158   1.776   5.160  0.1863 -1.0869  0.1105
 2993SOL     OW20440   3.298   0.594   6.229 -0.1357  1.0030  0.0299
 2993SOL    HW120441   3.280   0.641   6.311 -0.2260  0.6351  0.2226
 2993SOL    HW220442   3.389   0.566   6.230  0.4611  2.9451 -0.1812
 2994SOL     OW20443   0.583   3.912   8.638 -0.3114  0.1822  0.4309
 2994SOL    HW120444   0.497   3.943   8.666 -0.0021  1.7679 -0.3578
 2994SOL    HW220445   0.636   3.965   8.697  1.3239 -1.3496  0.3239
 2995SOL     OW20446   2.988   1.967   7.763 -0.1496  0.3636  1.0237
 2995SOL    HW120447   3.060   2.009   7.714 -0.7195 -0.2722 -0.3394
 2995SOL    HW220448   3.019   1.970   7.854  0.3759 -3.6812  0.9447
 2996SOL     OW20449   0.354   3.408   1.766 -0.3197  0.4679  0.4125
 2996SOL    HW120450   0.427   3.454   1.725 -0.0066  0.0246  0.4785
 2996SOL    HW220451   0.372   3.441   1.855 -1.2839  1.3927  0.2743
 2997SOL     OW20452   2.186   0.089  16.519  0.2640  0.3160  0.2285
 2997SOL    HW120453   2.115   0.034  16.485 -0.9020  2.5028 -0.8604
 2997SOL    HW220454   2.134   0.164  16.547  1.5012  1.3915 -0.3595
 2998SOL     OW20455   2.712   3.090   3.639  0.3320  0.3278 -0.2618
 2998SOL    HW120456   2.731   3.051   3.725  0.0510  0.3987 -0.1665
 2998SOL    HW220457   2.644   3.032   3.606 -0.3771  1.4517 -0.8041
 2999SOL     OW20458   0.496   1.006   0.934  0.0636 -0.4020 -0.3819
 2999SOL    HW120459   0.442   1.084   0.935  1.4327  0.5176  1.4942
 2999SOL    HW220460   0.485   0.979   0.843  0.3381 -2.1703  0.0994
 3000SOL     OW20461   3.763   0.583   6.472 -0.5293  0.7296 -0.3088
 3000SOL    HW120462   3.802   0.504   6.509 -0.7945  0.9907  0.5336
 3000SOL    HW220463   3.694   0.600   6.537 -0.5478 -1.9587  0.3865
 3001SOL     OW20464   3.830   1.404   8.018  0.4778  0.1309  0.7325
 3001SOL    HW120465   3.783   1.357   8.087 -1.6164  1.4716  0.1999
 3001SOL    HW220466   3.916   1.383   8.054  0.7053 -2.5362 -1.3108
 3002SOL     OW20467   2.192   3.578  11.319 -0.0494  0.4567  0.2562
 3002SOL    HW120468   2.265   3.580  11.257 -0.5705  1.7015 -0.3127
 3002SOL    HW220469   2.161   3.667  11.303  0.8458  0.5200 -1.1331
 3003SOL     OW20470   2.443   2.825   2.781 -0.0083 -0.2037 -0.5496
 3003SOL    HW120471   2.429   2.860   2.869  0.1212  1.8355 -1.3290
 3003SOL    HW220472   2.539   2.828   2.780 -0.0482  0.8874 -1.1458
 3004SOL     OW20473   4.645   2.727   2.501 -0.6376  0.2447  0.0889
 3004SOL    HW120474   4.560   2.746   2.463 -0.3774  1.3827  0.0874
 3004SOL    HW220475   4.620   2.687   2.585  0.8118  1.7986  1.2773
 3005SOL     OW20476   3.214   4.650   6.747  0.3320  0.3108  0.2054
 3005SOL    HW120477   3.272   4.705   6.695 -1.1660  2.0653  0.3883
 3005SOL    HW220478   3.229   4.686   6.834 -3.5530 -1.0714  1.4731
 3006SOL     OW20479   1.967   2.332  12.812 -0.1019 -0.3314  0.2929
 3006SOL    HW120480   1.877   2.343  12.843 -0.5455 -1.5042 -0.5709
 3006SOL    HW220481   2.002   2.272  12.878  0.9175  0.8705  0.8391
 3007SOL     OW20482   2.054   4.714   4.142 -0.7497 -0.8996 -0.3149
 3007SOL    HW120483   2.017   0.049   4.209  0.3546 -0.7953  0.2111
 3007SOL    HW220484   2.147   0.003   4.161 -0.9222  0.5504 -0.3397
 3008SOL     OW20485   1.481   1.276   9.708 -0.1139 -0.1769 -0.2524
 3008SOL    HW120486   1.505   1.214   9.777  0.6012 -0.9563 -1.1969
 3008SOL    HW220487   1.389   1.285   9.733 -0.4815 -0.3931 -1.5352
 3009SOL     OW20488   2.357   0.673   6.421 -0.2136 -0.4036 -0.3818
 3009SOL    HW120489   2.369   0.762   6.390 -1.5021  0.0401  0.3957
 3009SOL    HW220490   2.444   0.652   6.453 -0.1013  1.3097  0.4219
 3010SOL     OW20491   2.453   1.441   7.535 -0.5552 -0.0871  0.8020
 3010SOL    HW120492   2.517   1.392   7.484  1.9760  1.5177  2.4211
 3010SOL    HW220493   2.453   1.525   7.489  1.3902  1.0735  2.9370
 3011SOL     OW20494   1.162   2.929   4.708  0.3703 -0.2109  0.3443
 3011SOL    HW120495   1.148   2.899   4.798  2.0756  0.8641  0.9530
 3011SOL    HW220496   1.125   3.017   4.710 -0.7575 -0.6590 -0.1578
 3012SOL     OW20497   4.090   2.501  10.606 -0.1414  0.1655 -0.3820
 3012SOL    HW120498   4.073   2.595  10.618  0.5921  0.4468 -1.6131
 3012SOL    HW220499   4.010   2.475  10.652 -1.0824  1.9638 -1.0051
 3013SOL     OW20500   1.566   4.601   4.394  0.6111  0.0715  0.5092
 3013SOL    HW120501   1.657   4.630   4.393  0.2494  1.3273  5.6619
 3013SOL    HW220502   1.578   4.526   4.452  0.7790 -1.0731 -0.9923
 3014SOL     OW20503   2.396   0.935   6.356 -0.2863  0.0029  0.0787
 3014SOL    HW120504   2.430   0.985   6.282 -2.4726 -0.2452 -1.0710
 3014SOL    HW220505   2.318   0.984   6.381  0.0245 -0.0357  1.1217
 3015SOL     OW20506   0.088   3.246   8.156 -0.4606 -0.0454 -0.3336
 3015SOL    HW120507   0.015   3.188   8.132 -0.2778  1.2439 -3.9719
 3015SOL    HW220508   0.057   3.274   8.242 -0.9307  1.0824 -0.8808
 3016SOL     OW20509   3.732   1.637   1.207  0.1507 -0.1484 -0.0830
 3016SOL    HW120510   3.716   1.564   1.268 -1.4291  0.5728  0.3716
 3016SOL    HW220511   3.715   1.607   1.118  0.0665 -0.4751  0.0424
 3017SOL     OW20512   0.566   1.560   5.835  0.4813 -0.1102 -0.1656
 3017SOL    HW120513   0.641   1.535   5.781 -0.1897 -1.9277 -0.2647
 3017SOL    HW220514   0.524   1.477   5.861  0.8257  0.1457  1.2134
 3018SOL     OW20515   3.430   2.364  11.141 -0.1832  0.0057  0.5608
 3018SOL    HW120516   3.492   2.298  11.172 -1.0587 -1.6269 -1.1518
 3018SOL    HW220517   3.380   2.314  11.077 -0.2037 -1.7012  1.9285
 3019SOL     OW20518   3.174   1.550   7.238 -0.0652  0.1440  0.5632
 3019SOL    HW120519   3.176   1.592   7.152 -1.1290  2.5516  1.7430
 3019SOL    HW220520   3.264   1.522   7.250  0.5148  1.7183 -0.1478
 3020SOL     OW20521   4.646   1.772  12.690  0.0381  0.1471  0.5641
 3020SOL    HW120522   4.618   1.813  12.772 -0.9499  0.1994  0.2033
 3020SOL    HW220523   4.624   1.680  12.698  1.9839 -0.3774 -0.0672
 3021SOL     OW20524   2.745   4.414   7.083 -0.1258  0.2883 -0.5475
 3021SOL    HW120525   2.747   4.335   7.137 -0.2042  2.3523  2.4743
 3021SOL    HW220526   2.697   4.477   7.138 -0.9975 -0.9172  0.0773
 3022SOL     OW20527   4.497   3.060   0.649  0.0420 -0.4447  0.2601
 3022SOL    HW120528   4.592   3.067   0.659 -0.3229  1.7887  2.2941
 3022SOL    HW220529   4.498   3.044   0.555  0.9420 -0.9220  0.3605
 3023SOL     OW20530   0.761   4.315   7.161 -0.1998  0.1928 -0.1098
 3023SOL    HW120531   0.843   4.314   7.211 -0.2936  1.9170  0.0855
 3023SOL    HW220532   0.705   4.302   7.238  0.0671 -0.0093  0.0514
 3024SOL     OW20533   4.542   2.158   3.222 -0.1115 -0.1882  0.7544
 3024SOL    HW120534   4.625   2.119   3.192  0.4158  0.4474  1.3909
 3024SOL    HW220535   4.477   2.146   3.153  1.2853  0.9095 -0.7473
 3025SOL     OW20536   0.284   4.049   9.227  0.5136 -0.1202  0.1736
 3025SOL    HW120537   0.320   3.987   9.290  0.0490 -0.1303  0.4293
 3025SOL    HW220538   0.201   4.006   9.205 -0.2608  1.1002  0.7420
 3026SOL     OW20539   4.316   2.433   4.640 -0.4612  0.0072  0.2430
 3026SOL    HW120540   4.397   2.445   4.690 -0.5696 -1.3071  0.7538
 3026SOL    HW220541   4.289   2.524   4.652 -0.5736  0.0160 -0.0721
 3027SOL     OW20542   1.362   4.167   2.148 -0.5359  0.2195 -0.2997
 3027SOL    HW120543   1.337   4.092   2.203 -1.9594  2.2840  1.8982
 3027SOL    HW220544   1.330   4.146   2.060  1.3568  0.7130 -1.0902
 3028SOL     OW20545   1.121   4.168   2.827 -0.6292 -0.2390 -0.8624
 3028SOL    HW120546   1.088   4.257   2.840  0.7478 -0.1690  2.0201
 3028SOL    HW220547   1.208   4.186   2.791  0.7279 -1.8335  1.6531
 3029SOL     OW20548   0.922   0.653   3.222 -0.2984 -0.4618  0.9296
 3029SOL    HW120549   1.008   0.679   3.190  0.0931 -2.5629  0.2412
 3029SOL    HW220550   0.886   0.659   3.133  2.4069 -0.0846 -0.1238
 3030SOL     OW20551   3.179   3.999   1.999  0.2535 -0.2039  0.6374
 3030SOL    HW120552   3.142   4.084   2.022  1.2792 -0.5269  3.5297
 3030SOL    HW220553   3.096   3.952   1.984  0.3514 -0.6211  1.3665
 3031SOL     OW20554   0.861   3.632   2.121 -0.1009  0.3611  0.2978
 3031SOL    HW120555   0.951   3.600   2.126  0.2428  1.1997 -0.6915
 3031SOL    HW220556   0.861   3.697   2.051 -2.3371 -0.0500 -0.0671
 3032SOL     OW20557   1.160   2.755   2.004  0.1430  0.4134  0.5146
 3032SOL    HW120558   1.147   2.827   2.066 -1.2096  1.9264 -1.5386
 3032SOL    HW220559   1.210   2.686   2.048 -3.1571 -1.7883  0.8189
 3033SOL     OW20560   0.508   2.750   5.619 -0.1332  1.0694 -0.2888
 3033SOL    HW120561   0.455   2.808   5.673 -1.2591  1.1214 -1.4392
 3033SOL    HW220562   0.594   2.778   5.649 -1.2252  1.0388  2.8522
 3034SOL     OW20563   3.358   4.545  11.695 -0.3722  0.3111  0.4778
 3034SOL    HW120564   3.319   4.616  11.643 -0.0553  0.2369  0.1455
 3034SOL    HW220565   3.430   4.591  11.738  0.1364  1.6649 -1.8164
 3035SOL     OW20566   0.884   1.339  11.692  0.5205  0.2724 -0.4049
 3035SOL    HW120567   0.945   1.344  11.766 -1.5126 -0.5334  1.3302
 3035SOL    HW220568   0.908   1.416  11.640  0.4949 -0.1485 -1.0335
 3036SOL     OW20569   3.643   0.625   2.272  0.1194  0.6101  0.3320
 3036SOL    HW120570   3.720   0.610   2.327 -0.3829 -2.5535  0.1884
 3036SOL    HW220571   3.652   0.533   2.246  1.5990  0.9990 -0.5344
 3037SOL     OW20572   2.771   4.292   3.591  0.1876 -0.2335  0.5953
 3037SOL    HW120573   2.796   4.334   3.509  0.1822  3.6258  2.5964
 3037SOL    HW220574   2.716   4.361   3.627 -0.3120  0.1983 -0.9768
 3038SOL     OW20575   1.578   2.607  14.263 -0.0234 -0.4927  0.1954
 3038SOL    HW120576   1.631   2.596  14.184  0.9437 -0.3042  0.8252
 3038SOL    HW220577   1.586   2.701  14.275 -0.5907 -0.1582 -2.0334
 3039SOL     OW20578   2.816   0.321  14.608 -0.1603 -0.3832  0.5547
 3039SOL    HW120579   2.834   0.414  14.591 -0.3943 -0.3714  0.3756
 3039SOL    HW220580   2.797   0.339  14.700  2.0872  0.0414  0.9242
 3040SOL     OW20581   2.510   0.688   8.454  0.5074 -1.0990 -0.2362
 3040SOL    HW120582   2.578   0.716   8.393 -1.1476  0.5822 -1.2816
 3040SOL    HW220583   2.526   0.594   8.459 -1.2005 -1.4547 -1.4353
 3041SOL     OW20584   1.251   3.921   9.842 -0.2369 -0.1133 -0.4221
 3041SOL    HW120585   1.167   3.965   9.857  1.0621  2.2381  0.0468
 3041SOL    HW220586   1.230   3.828   9.832  0.0281  0.2055 -4.0091
 3042SOL     OW20587   2.850   2.719   1.933 -0.5290 -0.1364 -0.1357
 3042SOL    HW120588   2.907   2.649   1.901  2.6555  2.0788  0.6145
 3042SOL    HW220589   2.871   2.796   1.880 -1.0218  0.9370  1.2415
 3043SOL     OW20590   3.526   0.618  12.988 -0.1113 -0.0037  0.0871
 3043SOL    HW120591   3.598   0.582  12.935  0.9109  0.7710  0.9468
 3043SOL    HW220592   3.524   0.711  12.965  2.3252 -0.2193 -1.0740
 3044SOL     OW20593   4.194   3.891  14.059 -0.2555 -0.0968  0.5482
 3044SOL    HW120594   4.138   3.858  13.989  0.0678  0.9573 -0.2007
 3044SOL    HW220595   4.122   3.917  14.116  0.1598 -0.5017  1.2553
 3045SOL     OW20596   4.541   2.347   2.583  0.3787  0.0967  0.3673
 3045SOL    HW120597   4.548   2.308   2.671  1.7963 -1.4577 -0.4448
 3045SOL    HW220598   4.633   2.373   2.573  0.8579 -1.8929 -0.4146
 3046SOL     OW20599   3.981   0.077   7.601  0.7127  0.6391  0.1298
 3046SOL    HW120600   3.893   0.041   7.612  0.2284  1.8277  0.1430
 3046SOL    HW220601   3.950   0.167   7.591  1.7997  0.7468 -2.3637
 3047SOL     OW20602   0.299   2.377   7.378 -0.1850  0.1806 -0.1935
 3047SOL    HW120603   0.269   2.468   7.383  0.1468  0.2679  0.2736
 3047SOL    HW220604   0.274   2.357   7.289 -1.0471 -1.1935  0.3642
 3048SOL     OW20605   3.766   4.203   0.116  0.9232  0.2720 -0.0275
 3048SOL    HW120606   3.671   4.201   0.128  0.9363 -1.3250 -0.2648
 3048SOL    HW220607   3.786   4.111   0.133  1.0255  0.1024 -1.0976
 3049SOL     OW20608   4.383   1.222   9.575 -0.1261  0.2445  0.1513
 3049SOL    HW120609   4.317   1.254   9.637  1.6759 -0.8436  2.6268
 3049SOL    HW220610   4.398   1.295   9.514  0.7968  0.2149  0.3418
 3050SOL     OW20611   0.783   3.523   9.251 -0.2475  0.5793  0.0927
 3050SOL    HW120612   0.827   3.444   9.218 -3.7907 -0.3927 -2.2752
 3050SOL    HW220613   0.835   3.546   9.328 -2.4590 -1.1272  2.0837
 3051SOL     OW20614   4.347   4.349   6.373 -0.2881  0.0776  0.1426
 3051SOL    HW120615   4.413   4.418   6.377  1.3096 -1.3576 -1.4067
 3051SOL    HW220616   4.378   4.293   6.444  0.2697  1.7318  1.1967
 3052SOL     OW20617   0.071   3.363   2.601  0.2811  0.1724 -0.2111
 3052SOL    HW120618   0.111   3.417   2.670 -1.6998 -0.0767  1.1283
 3052SOL    HW220619   0.138   3.297   2.582  0.5770 -0.1436  1.8631
 3053SOL     OW20620   3.588   0.723  11.011  0.1099  1.0241  0.3646
 3053SOL    HW120621   3.612   0.786  10.943  1.9882  2.0742  1.9713
 3053SOL    HW220622   3.518   0.672  10.971 -1.4206  1.0195  3.0214
 3054SOL     OW20623   4.120   4.013   5.318 -0.2229  0.2403  0.0122
 3054SOL    HW120624   4.141   4.087   5.376 -1.6089  0.5806  0.0718
 3054SOL    HW220625   4.072   4.062   5.251 -0.3549 -1.2114 -0.9541
 3055SOL     OW20626   0.260   3.078   6.928  0.0261  0.4199  0.2020
 3055SOL    HW120627   0.169   3.093   6.905 -0.5756 -0.2331  2.1283
 3055SOL    HW220628   0.252   3.008   6.993 -0.2058  0.4900  0.2488
 3056SOL     OW20629   2.202   0.867   2.637  0.1171  0.4565 -0.2061
 3056SOL    HW120630   2.285   0.845   2.595 -0.4715  0.0490 -1.1789
 3056SOL    HW220631   2.153   0.812   2.575  2.1945 -3.4768  1.6179
 3057SOL     OW20632   0.163   3.056  17.474 -0.3082  0.0783  0.6739
 3057SOL    HW120633   0.071   3.054  17.500  0.0607  1.0024  2.1380
 3057SOL    HW220634   0.169   2.985  17.411  2.0086 -0.2927  1.2820
 3058SOL     OW20635   2.706   0.642   8.690 -0.0109  0.3263  0.3841
 3058SOL    HW120636   2.612   0.644   8.708 -0.4125 -2.6014 -1.3391
 3058SOL    HW220637   2.702   0.675   8.601  3.3901  0.6840  0.3498
 3059SOL     OW20638   2.955   1.337   8.155 -0.1053 -0.2674 -0.8061
 3059SOL    HW120639   2.867   1.368   8.132  0.2727  1.0666 -0.3948
 3059SOL    HW220640   3.005   1.360   8.076 -1.5327  2.9289 -0.7609
 3060SOL     OW20641   2.010   1.405   9.210  0.0812  0.0274 -0.2197
 3060SOL    HW120642   2.016   1.377   9.301 -0.7665  3.4982  0.9058
 3060SOL    HW220643   1.947   1.476   9.223  1.5620  1.1209  0.9385
 3061SOL     OW20644   0.227   1.936  12.419  0.7774  0.9137  0.3582
 3061SOL    HW120645   0.135   1.955  12.438  0.0664  0.3720 -2.6225
 3061SOL    HW220646   0.260   1.945  12.509 -0.9081 -1.1868  1.1920
 3062SOL     OW20647   3.095   4.357   3.911  0.0557  0.0823  0.0828
 3062SOL    HW120648   3.052   4.295   3.851 -0.3302  1.0449 -0.6405
 3062SOL    HW220649   3.019   4.379   3.964 -0.3254 -1.2368  0.0803
 3063SOL     OW20650   1.036   0.012  10.057  0.2458 -0.2358  0.0121
 3063SOL    HW120651   1.023   4.640  10.048 -0.9040  0.1191 -1.9479
 3063SOL    HW220652   0.983   0.044   9.984  0.4201 -1.8286 -0.8117
 3064SOL     OW20653   3.910   1.056  10.210 -0.6417  0.3767  0.1325
 3064SOL    HW120654   4.003   1.068  10.192 -0.0328 -0.7417  2.5851
 3064SOL    HW220655   3.865   1.044  10.127 -0.2991 -0.1542  0.0221
 3065SOL     OW20656   0.433   1.441   2.373 -0.1420 -0.0547  0.3431
 3065SOL    HW120657   0.493   1.381   2.418  0.2934  0.9454  1.1022
 3065SOL    HW220658   0.351   1.398   2.399 -0.5117  0.6764  0.3941
 3066SOL     OW20659   3.387   3.194   2.065  0.6873  0.8995  0.4288
 3066SOL    HW120660   3.387   3.284   2.096 -3.3381  0.5879  1.3222
 3066SOL    HW220661   3.301   3.169   2.097  1.8293 -1.2455  1.8555
 3067SOL     OW20662   0.870   4.442   3.463  0.3878 -0.1129  0.0344
 3067SOL    HW120663   0.824   4.366   3.426  2.0180 -0.7859 -0.5984
 3067SOL    HW220664   0.859   4.511   3.397  2.4816  0.2152  0.0304
 3068SOL     OW20665   1.637   0.215  14.288 -0.2417 -0.4973  0.0418
 3068SOL    HW120666   1.542   0.228  14.286 -0.2795 -1.0201 -1.7333
 3068SOL    HW220667   1.666   0.290  14.338 -0.6593 -0.6891  0.5702
 3069SOL     OW20668   4.238   3.192  10.416  0.3146 -0.1317 -0.0793
 3069SOL    HW120669   4.217   3.210  10.507  1.1219 -0.8373  0.2471
 3069SOL    HW220670   4.284   3.275  10.402  3.1470 -1.6507  0.3240
 3070SOL     OW20671   2.453   4.493   1.763  0.2000  0.2380  0.0931
 3070SOL    HW120672   2.359   4.490   1.777  0.1136 -1.4905 -0.8711
 3070SOL    HW220673   2.453   4.580   1.723 -0.7401  0.3671  0.3769
 3071SOL     OW20674   1.948   3.138   1.082 -0.5626  0.1052 -0.4406
 3071SOL    HW120675   1.984   3.171   1.164 -2.3024  0.6738  0.0764
 3071SOL    HW220676   1.860   3.113   1.108 -0.8100  0.0994 -1.2775
 3072SOL     OW20677   3.983   2.804  14.380  0.0717  0.3449 -0.2052
 3072SOL    HW120678   3.927   2.728  14.397 -0.0490 -0.2359 -3.1816
 3072SOL    HW220679   4.069   2.765  14.366  0.2899  0.5796  0.4681
 3073SOL     OW20680   2.897   0.133   9.047  0.2690  0.8484 -0.0699
 3073SOL    HW120681   2.833   0.199   9.019  1.2016  1.7429 -0.1022
 3073SOL    HW220682   2.884   0.121   9.141  0.7139  1.2240  0.0395
 3074SOL     OW20683   1.870   0.395  14.742 -0.0069 -0.2089 -0.0106
 3074SOL    HW120684   1.864   0.417  14.649 -0.2473 -2.5224 -0.5303
 3074SOL    HW220685   1.946   0.450  14.757  0.7913 -0.9938 -1.2240
 3075SOL     OW20686   4.205   1.084   6.337  0.1378  0.4137  0.0355
 3075SOL    HW120687   4.184   1.028   6.262 -1.0522 -0.2043  0.8474
 3075SOL    HW220688   4.135   1.146   6.356 -0.2921 -0.7466  2.2385
 3076SOL     OW20689   4.525   1.673  10.869  0.1216 -0.1482  0.6493
 3076SOL    HW120690   4.545   1.636  10.955  2.4636 -1.9814 -0.6520
 3076SOL    HW220691   4.483   1.753  10.902 -0.8020 -0.4888  0.2788
 3077SOL     OW20692   4.532   3.380  14.593 -0.2824 -0.4430  0.0220
 3077SOL    HW120693   4.494   3.341  14.672  0.5429 -1.7102 -0.2097
 3077SOL    HW220694   4.604   3.431  14.630 -2.0795  0.7305  1.9454
 3078SOL     OW20695   1.778   0.306   9.990 -0.2834 -0.2267  0.5057
 3078SOL    HW120696   1.797   0.372   9.923  2.5507 -2.0989 -0.5280
 3078SOL    HW220697   1.859   0.259  10.011  1.0770  1.6165 -0.6757
 3079SOL     OW20698   2.540   0.770  13.626 -0.1445  0.0907 -0.4090
 3079SOL    HW120699   2.599   0.841  13.652 -1.0763 -0.0108  1.9784
 3079SOL    HW220700   2.500   0.744  13.709 -1.8472 -0.1795 -1.3388
 3080SOL     OW20701   0.771   2.765   4.634 -0.1508 -0.3341 -0.1984
 3080SOL    HW120702   0.766   2.827   4.706  0.7012 -1.6095  0.9599
 3080SOL    HW220703   0.678   2.741   4.634  0.3639 -2.3314  2.4123
 3081SOL     OW20704   2.977   4.334   8.887  0.3308 -0.1472 -0.3542
 3081SOL    HW120705   2.956   4.267   8.953 -1.4753  0.0855 -0.6806
 3081SOL    HW220706   3.006   4.281   8.813 -0.8811  1.4393 -1.9310
 3082SOL     OW20707   0.031   4.561   5.951  0.0142  0.7071  0.1967
 3082SOL    HW120708   0.030   4.473   5.914  1.2648  0.7382  0.0712
 3082SOL    HW220709   0.106   4.603   5.908  1.5933 -1.4161  0.8598
 3083SOL     OW20710   2.025   3.447   5.472  0.6864 -0.0077  0.9017
 3083SOL    HW120711   2.090   3.511   5.443  1.5373 -0.0393  2.7179
 3083SOL    HW220712   1.986   3.490   5.548 -1.9360  0.7282 -0.8450
 3084SOL     OW20713   1.768   1.125   6.710 -0.5064 -0.1617  0.1629
 3084SOL    HW120714   1.692   1.071   6.688 -0.5573 -0.5950  1.3476
 3084SOL    HW220715   1.805   1.074   6.783  2.9921 -0.2066 -1.6210
 3085SOL     OW20716   3.893   4.499   3.089 -0.3844  0.3731 -0.4161
 3085SOL    HW120717   3.813   4.459   3.122  0.1851  0.6190  1.2242
 3085SOL    HW220718   3.892   4.458   3.002 -0.3257 -0.5325  0.0171
 3086SOL     OW20719   1.361   1.320   5.191  0.2075 -0.5482 -0.0981
 3086SOL    HW120720   1.421   1.273   5.249  2.3364  0.1218 -1.7510
 3086SOL    HW220721   1.423   1.342   5.121  1.4682 -2.1930  0.5105
 3087SOL     OW20722   4.472   2.721   4.985  0.6200 -0.1381  0.1387
 3087SOL    HW120723   4.556   2.758   4.961  1.0304 -0.8744  0.4132
 3087SOL    HW220724   4.447   2.778   5.058 -0.2801  1.1597 -1.1889
 3088SOL     OW20725   2.890   3.733  13.618  0.2119  0.1711  0.2449
 3088SOL    HW120726   2.879   3.707  13.710  0.5480 -2.5839 -0.4872
 3088SOL    HW220727   2.849   3.661  13.568 -1.3685  0.3531  1.2645
 3089SOL     OW20728   0.188   0.224   5.543 -0.0932 -0.3729  0.0611
 3089SOL    HW120729   0.227   0.268   5.467  0.2722  0.5453  0.7813
 3089SOL    HW220730   0.173   0.138   5.504 -1.4580 -0.4028  0.6467
 3090SOL     OW20731   4.601   1.525  10.173  0.1743  0.5777 -0.1647
 3090SOL    HW120732   4.577   1.547  10.263  1.5091  2.5009 -0.2813
 3090SOL    HW220733   4.636   1.609  10.145 -0.3586  0.6345 -0.6551
 3091SOL     OW20734   4.215   0.307  13.184  0.0444 -0.2681  0.1585
 3091SOL    HW120735   4.180   0.230  13.230  1.7161  0.1816  2.1955
 3091SOL    HW220736   4.305   0.276  13.175 -0.4220 -2.3387  2.5315
 3092SOL     OW20737   4.527   2.357  15.382  0.0101 -0.3195 -0.0479
 3092SOL    HW120738   4.616   2.385  15.361 -0.6772  0.0342 -2.5291
 3092SOL    HW220739   4.525   2.379  15.475  0.2816 -1.9688  0.3461
 3093SOL     OW20740   2.575   1.010  15.774  0.0935  0.1031 -0.2659
 3093SOL    HW120741   2.569   0.924  15.732  1.8592 -0.5682  0.8785
 3093SOL    HW220742   2.525   0.998  15.855 -2.2020 -2.1158 -1.9827
 3094SOL     OW20743   2.572   2.056  15.619 -0.0529  0.2733  0.7538
 3094SOL    HW120744   2.625   2.082  15.544  0.3246 -1.6694  0.3377
 3094SOL    HW220745   2.613   2.112  15.685 -0.6791  0.2592  1.1595
 3095SOL     OW20746   2.980   0.721  13.188 -0.0235 -0.6634 -0.1541
 3095SOL    HW120747   3.059   0.672  13.165  0.1641  0.0580 -1.0588
 3095SOL    HW220748   2.932   0.638  13.193 -0.4323 -0.3386  1.3294
 3096SOL     OW20749   4.387   0.854   2.063  0.4497 -0.1056 -0.3823
 3096SOL    HW120750   4.386   0.912   1.988 -0.8669 -1.5044 -1.4600
 3096SOL    HW220751   4.321   0.787   2.040  0.4791 -1.0525  2.2639
 3097SOL     OW20752   4.170   2.119   0.140  0.0527  0.1084  0.6881
 3097SOL    HW120753   4.118   2.196   0.115 -0.4839 -1.4777 -3.0257
 3097SOL    HW220754   4.116   2.083   0.210 -3.1494 -1.3671 -2.5715
 3098SOL     OW20755   0.424   3.045   8.480 -0.1562 -0.0578  0.6399
 3098SOL    HW120756   0.344   3.008   8.442  0.6946  1.3236 -2.4231
 3098SOL    HW220757   0.495   3.010   8.426 -0.2258 -1.6316  1.5653
 3099SOL     OW20758   4.701   1.256   3.982  0.2856 -0.1134 -0.0645
 3099SOL    HW120759   0.068   1.237   3.954 -0.3891 -0.9788 -1.6367
 3099SOL    HW220760   4.690   1.350   3.971  3.3277  0.0103 -2.1853
 3100SOL     OW20761   0.641   2.713   8.299 -0.0462 -0.2942 -0.6219
 3100SOL    HW120762   0.730   2.680   8.313 -0.5605 -0.7262  1.5659
 3100SOL    HW220763   0.659   2.807   8.294 -3.1441  0.3422  0.2330
 3101SOL     OW20764   1.025   3.236  10.932  0.4076 -0.3615 -0.7508
 3101SOL    HW120765   0.986   3.231  11.019  1.8550 -0.3765 -0.0999
 3101SOL    HW220766   1.009   3.147  10.901 -0.1472 -0.5530  0.1146
 3102SOL     OW20767   2.231   4.261  16.156 -0.0011 -0.0017 -0.4970
 3102SOL    HW120768   2.288   4.216  16.219  1.2013 -0.9724 -2.2705
 3102SOL    HW220769   2.229   4.197  16.085 -1.5563  0.8387 -1.2097
 3103SOL     OW20770   4.476   2.522   1.731 -0.2599  0.5584 -0.3050
 3103SOL    HW120771   4.436   2.596   1.776  1.9640  0.5089  1.7287
 3103SOL    HW220772   4.452   2.538   1.639 -1.5162  2.6353  0.3992
 3104SOL     OW20773   1.226   4.517   5.942  0.1106 -0.2888 -0.1769
 3104SOL    HW120774   1.198   4.433   5.904 -0.6768 -1.0105  1.9761
 3104SOL    HW220775   1.151   4.573   5.923 -0.2816  0.3141  3.1071
 3105SOL     OW20776   4.623   3.109   8.016  0.7537 -0.3571 -0.0788
 3105SOL    HW120777   4.575   3.030   8.041  0.0944  0.4000  0.9979
 3105SOL    HW220778   4.556   3.171   7.988  0.4483 -1.5064 -1.9420
 3106SOL     OW20779   4.120   0.409   9.369 -0.0486 -0.3018 -0.2201
 3106SOL    HW120780   4.060   0.433   9.299  2.0088  3.8060 -0.5196
 3106SOL    HW220781   4.137   0.498   9.399 -0.8400 -0.3055  0.2448
 3107SOL     OW20782   4.330   2.930   9.496  0.4309 -0.5038  0.2145
 3107SOL    HW120783   4.269   2.931   9.570 -0.7035  0.2846 -0.7384
 3107SOL    HW220784   4.399   2.994   9.513  0.2172 -0.2988  0.3115
 3108SOL     OW20785   4.224   3.475   9.216  0.0098  0.1707 -0.2172
 3108SOL    HW120786   4.231   3.380   9.210 -1.0776  0.1389 -1.1112
 3108SOL    HW220787   4.233   3.500   9.124  0.6696 -0.8376 -0.4273
 3109SOL     OW20788   2.419   1.062   1.374  0.0828  0.1279 -0.1023
 3109SOL    HW120789   2.416   1.156   1.390 -0.9954 -0.3259  2.3251
 3109SOL    HW220790   2.449   1.024   1.456  1.6878  0.0676 -0.7156
 3110SOL     OW20791   4.494   2.535   5.783 -0.4954 -0.6168  0.3163
 3110SOL    HW120792   4.541   2.499   5.708  1.6043  2.6614  0.0743
 3110SOL    HW220793   4.557   2.525   5.855  2.8316  2.0275 -2.2266
 3111SOL     OW20794   0.125   1.134  13.041  0.2201  0.0888  0.4411
 3111SOL    HW120795   0.030   1.127  13.051  0.3857 -0.9407  1.4092
 3111SOL    HW220796   0.152   1.066  13.103  2.3136  0.4034 -0.1339
 3112SOL     OW20797   0.270   2.132   0.740  0.0387  0.4789 -0.1190
 3112SOL    HW120798   0.341   2.159   0.798 -0.9943 -0.1686  1.4645
 3112SOL    HW220799   0.234   2.215   0.709 -0.1293  1.3591  2.3761
 3113SOL     OW20800   1.244   0.163   5.581 -0.0174  0.1389 -0.0518
 3113SOL    HW120801   1.306   0.235   5.588  0.2346  0.0163 -1.0139
 3113SOL    HW220802   1.247   0.120   5.667  1.0626  0.6089  0.1415
 3114SOL     OW20803   4.653   2.532  14.723 -0.5066 -0.2864 -0.0051
 3114SOL    HW120804   4.642   2.627  14.713  0.6054 -0.4383 -2.7608
 3114SOL    HW220805   4.715   2.502  14.656 -0.6418 -0.9807  0.1880
 3115SOL     OW20806   3.738   1.833  11.155  0.7921  0.1960 -0.4606
 3115SOL    HW120807   3.754   1.901  11.090 -1.7133  1.3291  0.1242
 3115SOL    HW220808   3.674   1.780  11.106 -1.2215  1.3211  0.9569
 3116SOL     OW20809   0.248   1.940   9.568  0.0288 -0.0813 -0.3601
 3116SOL    HW120810   0.303   2.010   9.532 -0.6853  0.5732 -0.1516
 3116SOL    HW220811   0.207   1.894   9.494  0.1842 -1.3934  0.3660
 3117SOL     OW20812   3.255   0.510   7.924 -0.1235  0.1166  0.1985
 3117SOL    HW120813   3.296   0.575   7.866  0.4177  0.7381  1.2913
 3117SOL    HW220814   3.168   0.547   7.939 -0.1913  0.4971 -1.1314
 3118SOL     OW20815   4.278   0.069   5.577 -0.6747  0.5470  0.2332
 3118SOL    HW120816   4.208   0.042   5.518 -2.2116  0.7331  1.9498
 3118SOL    HW220817   4.244   0.158   5.590  0.1955  0.6518  1.8949
 3119SOL     OW20818   3.700   4.579   6.215 -0.0971 -0.6425  0.2105
 3119SOL    HW120819   3.778   4.634   6.203  0.6166 -1.2732  1.9923
 3119SOL    HW220820   3.661   4.619   6.294 -1.1481  1.2954 -1.2894
 3120SOL     OW20821   0.982   3.920  10.016  0.2773 -0.5138  0.4693
 3120SOL    HW120822   0.986   3.915  10.112 -0.6810 -0.6779  0.4951
 3120SOL    HW220823   0.986   3.826   9.996  0.5637 -0.6778  1.2948
 3121SOL     OW20824   0.011   2.443   5.396  0.4984  0.0865  0.9894
 3121SOL    HW120825   4.682   2.459   5.316  0.7880 -1.2075  0.5540
 3121SOL    HW220826   0.063   2.370   5.362 -0.3704  0.1891 -0.6115
 3122SOL     OW20827   3.432   0.312   4.151  0.2833 -0.2337  0.0739
 3122SOL    HW120828   3.381   0.239   4.185  0.7324 -0.4715  0.2334
 3122SOL    HW220829   3.519   0.274   4.142  1.2238  2.0143 -0.3666
 3123SOL     OW20830   1.970   1.458   6.242 -0.2058  0.1166  0.5979
 3123SOL    HW120831   1.879   1.486   6.228  0.3495  1.3858 -0.4298
 3123SOL    HW220832   1.954   1.365   6.228 -3.7414  1.0319 -1.4062
 3124SOL     OW20833   2.592   2.578   9.352  0.2643  0.1907  0.0900
 3124SOL    HW120834   2.593   2.543   9.262  1.4133  1.6357 -0.4696
 3124SOL    HW220835   2.502   2.563   9.380  0.7778 -2.1619  0.4784
 3125SOL     OW20836   3.112   3.543   1.129 -0.2594 -0.3743  0.1687
 3125SOL    HW120837   3.156   3.481   1.071 -0.9524 -0.7993  0.0881
 3125SOL    HW220838   3.074   3.475   1.186  1.2103 -1.0483  0.3389
 3126SOL     OW20839   3.574   4.083  14.273 -0.3286  0.2217  0.3989
 3126SOL    HW120840   3.586   4.021  14.201  1.4028  1.1105 -0.0571
 3126SOL    HW220841   3.652   4.069  14.326 -0.8803 -0.6028  1.0052
 3127SOL     OW20842   0.107   4.469   0.794  0.3122 -0.1810  0.6532
 3127SOL    HW120843   0.190   4.483   0.749  0.1380 -0.6923  0.1790
 3127SOL    HW220844   0.080   4.400   0.734 -0.3916 -1.7692  2.7903
 3128SOL     OW20845   0.226   3.802   6.701  0.1792  0.3135 -0.1910
 3128SOL    HW120846   0.201   3.738   6.767  0.9286  1.8048  1.5263
 3128SOL    HW220847   0.308   3.767   6.667  1.6006 -0.0709  3.6419
 3129SOL     OW20848   2.485   1.337  15.281 -0.1917  0.2288 -0.6788
 3129SOL    HW120849   2.459   1.270  15.218 -0.7634  1.2995 -1.5798
 3129SOL    HW220850   2.548   1.288  15.335  0.4749  0.8543 -0.8918
 3130SOL     OW20851   4.113   1.558   8.523 -0.0939 -0.3234 -0.1629
 3130SOL    HW120852   4.067   1.637   8.495 -1.3792 -1.0469 -0.1060
 3130SOL    HW220853   4.203   1.586   8.510  0.4112 -1.1183  1.6320
 3131SOL     OW20854   3.323   2.772   8.444  0.2660  0.2248 -0.1567
 3131SOL    HW120855   3.411   2.794   8.415  0.0960  0.3206 -0.6029
 3131SOL    HW220856   3.286   2.858   8.463 -0.5314 -0.5412  1.7892
 3132SOL     OW20857   3.358   0.543   5.462 -0.2982  0.9822  0.4222
 3132SOL    HW120858   3.353   0.608   5.532 -0.0301  0.7654  0.6489
 3132SOL    HW220859   3.341   0.460   5.507  0.1685  0.8705  0.3891
 3133SOL     OW20860   0.747   2.475   4.975 -0.4705 -0.7607 -0.6937
 3133SOL    HW120861   0.766   2.490   5.067  1.3777 -0.0908 -1.1925
 3133SOL    HW220862   0.802   2.536   4.926 -0.3688 -1.1510 -1.0715
 3134SOL     OW20863   4.042   2.809   2.580  0.1926 -0.6470  0.6756
 3134SOL    HW120864   4.006   2.725   2.611 -0.7338 -1.4249 -2.5213
 3134SOL    HW220865   4.132   2.801   2.610  0.5649 -3.3224 -1.1745
 3135SOL     OW20866   0.510   1.694   7.931  0.0828 -0.1503  0.3571
 3135SOL    HW120867   0.542   1.761   7.992  1.5088 -0.1884 -0.3480
 3135SOL    HW220868   0.416   1.700   7.949 -0.0925 -1.6688 -0.0490
 3136SOL     OW20869   1.614   3.207   5.936 -0.6547 -0.5598  0.6440
 3136SOL    HW120870   1.669   3.271   5.983 -0.9642  0.7286 -0.7649
 3136SOL    HW220871   1.670   3.130   5.944 -0.9602 -0.5341  3.1462
 3137SOL     OW20872   1.287   3.278  10.213  0.3892  0.0211  1.2148
 3137SOL    HW120873   1.237   3.296  10.293  0.9127  0.7220  1.3871
 3137SOL    HW220874   1.227   3.213  10.178  0.9490  0.5724 -0.7533
 3138SOL     OW20875   3.518   2.753   6.520  0.0977  0.5853  0.1316
 3138SOL    HW120876   3.495   2.728   6.431  0.2916  0.2237  0.1800
 3138SOL    HW220877   3.579   2.685   6.550 -0.2015 -0.7213 -2.2857
 3139SOL     OW20878   0.145   0.750   6.288 -0.7696 -0.3740 -0.6982
 3139SOL    HW120879   0.173   0.753   6.380 -0.6438 -0.1536 -0.7448
 3139SOL    HW220880   0.050   0.753   6.301 -0.6060  1.9262 -0.0934
 3140SOL     OW20881   0.887   2.480  15.882 -1.2026 -0.1286  0.0931
 3140SOL    HW120882   0.972   2.446  15.852 -1.0834 -0.1116  0.4142
 3140SOL    HW220883   0.841   2.514  15.805  2.3266  1.7816 -1.1813
 3141SOL     OW20884   1.136   3.472   7.143 -0.0760 -0.1803  0.7259
 3141SOL    HW120885   1.046   3.475   7.109  0.2319  3.4922  0.1975
 3141SOL    HW220886   1.116   3.409   7.212  1.8787 -0.8614  0.6750
 3142SOL     OW20887   4.486   3.183   7.263 -0.3126  0.0497  0.0769
 3142SOL    HW120888   4.491   3.275   7.288 -0.0126  0.4457 -1.4622
 3142SOL    HW220889   4.495   3.179   7.168  3.1122 -3.7011  0.5560
 3143SOL     OW20890   3.033   2.175   1.638 -0.3121  0.6632  0.2242
 3143SOL    HW120891   3.002   2.192   1.549  0.9582  0.1925 -0.3188
 3143SOL    HW220892   3.075   2.090   1.627 -0.8284 -0.1368  4.4675
 3144SOL     OW20893   2.688   1.995   5.087  0.5323 -0.3960 -0.0795
 3144SOL    HW120894   2.656   2.085   5.089  3.5109  0.6990 -1.5292
 3144SOL    HW220895   2.720   1.983   4.997 -2.1337  1.9756 -1.3379
 3145SOL     OW20896   2.024   3.300  16.929  0.3463  0.2142  0.1139
 3145SOL    HW120897   1.964   3.227  16.947  1.7390 -0.1490  3.2788
 3145SOL    HW220898   1.989   3.358  16.997  0.4830  1.7586 -1.1357
 3146SOL     OW20899   2.084   2.458  17.339 -0.2693 -0.3156  0.4190
 3146SOL    HW120900   2.094   2.513  17.261  0.9074  0.2979  0.9902
 3146SOL    HW220901   1.993   2.431  17.327 -0.1814 -0.4548  0.0423
 3147SOL     OW20902   1.420   1.555   8.812 -0.5945 -0.3717  0.0494
 3147SOL    HW120903   1.406   1.536   8.904  3.7042  0.5912  0.8812
 3147SOL    HW220904   1.384   1.473   8.780 -0.1516 -0.5631  0.0412
 3148SOL     OW20905   0.760   2.253   7.604  0.4231  0.4343 -0.1234
 3148SOL    HW120906   0.755   2.157   7.598  0.5974  0.5840 -2.6621
 3148SOL    HW220907   0.721   2.276   7.520 -1.2598  0.8055  0.7676
 3149SOL     OW20908   4.468   1.315   1.723  0.0985 -0.3277 -0.3239
 3149SOL    HW120909   4.453   1.287   1.814 -0.3424  0.5344 -0.1326
 3149SOL    HW220910   4.389   1.365   1.702  0.1327  0.1940  0.7773
 3150SOL     OW20911   2.680   0.665   5.029 -0.2367 -0.6849 -0.0968
 3150SOL    HW120912   2.681   0.609   5.107 -0.6186  1.0718  1.1769
 3150SOL    HW220913   2.769   0.699   5.033 -0.5183 -0.1831  1.8686
 3151SOL     OW20914   4.374   2.841  12.717 -0.8809  0.4274  0.2357
 3151SOL    HW120915   4.357   2.781  12.789 -0.7643 -0.8677 -0.8190
 3151SOL    HW220916   4.342   2.925  12.751  0.3350  0.4930  1.1909
 3152SOL     OW20917   0.485   1.805   8.435  0.3916 -0.3122  0.0724
 3152SOL    HW120918   0.512   1.728   8.384  2.1146 -0.7680  1.6844
 3152SOL    HW220919   0.517   1.781   8.522  0.8260  1.1342  0.2952
 3153SOL     OW20920   4.618   1.010   4.653 -0.2578 -0.1933  0.2714
 3153SOL    HW120921   4.656   0.930   4.689  0.1686 -0.2764 -0.3501
 3153SOL    HW220922   4.529   0.978   4.639 -0.6344 -0.2739  2.8450
 3154SOL     OW20923   4.187   2.617  17.507 -0.2932  0.0687 -0.2277
 3154SOL    HW120924   4.158   2.631  17.597  1.3421 -0.3591  0.3788
 3154SOL    HW220925   4.282   2.633  17.504 -0.2261 -0.2598  0.1709
 3155SOL     OW20926   1.313   1.351   5.572 -0.0670  0.1354 -0.0107
 3155SOL    HW120927   1.323   1.446   5.578  0.8827 -0.0407  1.1996
 3155SOL    HW220928   1.281   1.339   5.661 -0.3331 -1.1646 -0.2793
 3156SOL     OW20929   0.330   2.354  12.713  0.4677 -0.5682 -0.2192
 3156SOL    HW120930   0.239   2.334  12.737  0.6568 -1.6989 -0.4246
 3156SOL    HW220931   0.372   2.339  12.798  1.0377 -2.0207 -0.7497
 3157SOL     OW20932   2.560   3.480  11.086  0.8129 -0.0722 -0.2257
 3157SOL    HW120933   2.593   3.407  11.138  1.8869  0.1611 -0.5873
 3157SOL    HW220934   2.628   3.544  11.105  0.0156  0.8376 -0.4426
 3158SOL     OW20935   3.598   3.589   0.640 -0.0183  0.0824  0.0143
 3158SOL    HW120936   3.687   3.583   0.675 -0.3643 -0.0603  0.8861
 3158SOL    HW220937   3.610   3.654   0.571  0.1687 -0.4872 -0.4903
 3159SOL     OW20938   2.018   0.457  12.348  0.3564  0.2342  0.0121
 3159SOL    HW120939   2.044   0.378  12.302 -1.6490  0.9128 -2.2817
 3159SOL    HW220940   2.103   0.497  12.367  1.8440 -2.2538 -1.4410
 3160SOL     OW20941   0.416   0.667   8.242 -0.2426  0.1738  0.1758
 3160SOL    HW120942   0.362   0.666   8.163 -1.4835 -1.3134  1.0561
 3160SOL    HW220943   0.448   0.757   8.249 -0.0212 -0.0410  2.0993
 3161SOL     OW20944   2.464   4.212   9.471  0.2580  0.9990 -0.3398
 3161SOL    HW120945   2.406   4.222   9.546 -0.3447  1.6526 -0.8954
 3161SOL    HW220946   2.552   4.211   9.510 -0.2255 -1.4196  0.6613
 3162SOL     OW20947   0.497   2.835   4.415  0.3139 -0.8159 -0.0500
 3162SOL    HW120948   0.589   2.857   4.427  0.3258 -0.9588  0.1293
 3162SOL    HW220949   0.468   2.821   4.505 -1.3190  0.7401 -0.3301
 3163SOL     OW20950   2.117   0.718   9.521  0.2202  0.2874  0.0912
 3163SOL    HW120951   2.150   0.792   9.573 -0.5419  0.8467 -0.2279
 3163SOL    HW220952   2.148   0.739   9.433  1.2139  1.6558  0.7764
 3164SOL     OW20953   4.059   4.544   4.364  0.3736 -0.6011 -0.1787
 3164SOL    HW120954   4.129   4.598   4.400 -0.2583 -0.6416  1.0996
 3164SOL    HW220955   4.100   4.508   4.285 -0.0991  0.6058 -0.9801
 3165SOL     OW20956   3.805   3.439   7.394  0.0541 -0.0856 -0.1048
 3165SOL    HW120957   3.746   3.441   7.470  0.5974 -1.1493  0.3496
 3165SOL    HW220958   3.881   3.487   7.426 -1.3125  1.1921  1.2237
 3166SOL     OW20959   3.836   0.362   1.940 -0.2392 -0.0248  0.2054
 3166SOL    HW120960   3.903   0.349   2.007 -0.1406  0.0462  0.1190
 3166SOL    HW220961   3.874   0.447   1.920  1.1238 -0.7232 -0.1745
 3167SOL     OW20962   3.656   2.012  17.098  0.0767 -0.4555  0.6549
 3167SOL    HW120963   3.650   2.106  17.115  0.2231 -0.0918 -1.3138
 3167SOL    HW220964   3.571   1.983  17.131  0.8240 -3.0269  0.2993
 3168SOL     OW20965   1.038   1.344  16.535 -0.2717  0.4284 -0.9324
 3168SOL    HW120966   1.060   1.374  16.623 -1.2249 -1.8578  0.0908
 3168SOL    HW220967   1.119   1.309  16.500  1.8218  1.6817  2.7028
 3169SOL     OW20968   2.843   4.332  13.371 -0.2887  0.7367 -0.5883
 3169SOL    HW120969   2.888   4.411  13.340 -1.0621  0.8848 -1.3341
 3169SOL    HW220970   2.908   4.263  13.383 -2.6190 -2.3117 -5.6268
 3170SOL     OW20971   3.566   0.496   3.932 -0.3006  0.1008 -0.1403
 3170SOL    HW120972   3.556   0.458   4.019  1.4874 -0.8212 -0.3387
 3170SOL    HW220973   3.492   0.475   3.874  0.3073  0.4104 -1.0303
 3171SOL     OW20974   3.575   3.306   1.837 -0.1380 -0.6543  0.4954
 3171SOL    HW120975   3.497   3.256   1.862 -1.4707  0.7512 -0.8535
 3171SOL    HW220976   3.606   3.268   1.755 -1.5880 -1.8201  0.4852
 3172SOL     OW20977   3.984   3.738   8.107  0.1817 -0.2761 -0.8362
 3172SOL    HW120978   4.022   3.758   8.021  1.7694 -0.4193 -0.1704
 3172SOL    HW220979   3.907   3.794   8.109  0.5438  0.2218 -0.8817
 3173SOL     OW20980   0.316   1.834   6.353  0.2766  0.7840 -0.3706
 3173SOL    HW120981   0.386   1.889   6.386  1.3206  0.8511 -2.6750
 3173SOL    HW220982   0.358   1.753   6.382 -2.8439 -0.3387  1.1013
 3174SOL     OW20983   3.160   3.308   1.852 -0.0172 -0.1570 -0.4904
 3174SOL    HW120984   3.163   3.367   1.927  2.7770 -0.5181 -0.3035
 3174SOL    HW220985   3.098   3.242   1.884  0.2620 -1.3801 -2.4803
 3175SOL     OW20986   4.153   2.272  16.339 -0.1717  0.4369  0.1040
 3175SOL    HW120987   4.157   2.360  16.376  0.2286  0.8107 -0.8412
 3175SOL    HW220988   4.062   2.248  16.358 -0.1435  0.4642  0.2786
 3176SOL     OW20989   1.918   2.802  14.814 -0.3439  0.0159 -0.3585
 3176SOL    HW120990   1.988   2.778  14.875  0.1571  0.8208 -0.6073
 3176SOL    HW220991   1.968   2.862  14.758  0.6836  1.0333  1.6369
 3177SOL     OW20992   1.641   1.089   3.014  0.5508  0.0694  0.8134
 3177SOL    HW120993   1.622   1.043   2.933  2.8760 -0.6176  0.6454
 3177SOL    HW220994   1.553   1.122   3.030  0.0622 -0.4845 -0.7337
 3178SOL     OW20995   3.618   1.950   4.494  0.2844  0.2415 -0.3762
 3178SOL    HW120996   3.692   1.952   4.555 -0.4703  0.1402  0.5449
 3178SOL    HW220997   3.568   2.029   4.514 -1.6914 -0.1443 -3.7666
 3179SOL     OW20998   0.256   3.058   6.495  0.4973 -0.2011  0.1595
 3179SOL    HW120999   0.191   3.006   6.542 -0.4181  0.1405 -0.7083
 3179SOL    HW221000   0.329   3.033   6.551  1.2495  0.2139 -0.6467
 3180SOL     OW21001   2.616   3.953   4.442  0.7667  0.2605 -0.0692
 3180SOL    HW121002   2.572   3.875   4.475  0.1113  1.9539  3.0563
 3180SOL    HW221003   2.549   4.022   4.438 -0.3066 -0.8179 -0.5589
 3181SOL     OW21004   2.966   0.572   7.256 -0.2626 -0.2112  0.5105
 3181SOL    HW121005   3.059   0.574   7.235 -0.0426 -0.2170  1.4543
 3181SOL    HW221006   2.970   0.634   7.329  2.8923 -1.1676  1.1696
 3182SOL     OW21007   4.225   4.173   2.016 -0.0086  0.1804  0.2603
 3182SOL    HW121008   4.189   4.094   2.055 -0.6954  0.8369  0.9490
 3182SOL    HW221009   4.312   4.140   1.991 -0.1469 -0.9574  1.3204
 3183SOL     OW21010   2.675   4.613   8.120  0.7279  0.2637 -0.2251
 3183SOL    HW121011   2.582   4.599   8.103  0.4156 -0.8094  2.2938
 3183SOL    HW221012   2.687   4.639   8.212  2.0878 -0.8968 -0.0613
 3184SOL     OW21013   3.684   2.427   3.779  0.0636  0.0595  0.4121
 3184SOL    HW121014   3.592   2.427   3.752 -0.0474  0.0834  0.7925
 3184SOL    HW221015   3.667   2.434   3.873  1.2488 -2.4867  0.7850
 3185SOL     OW21016   2.604   1.459   2.194 -0.1831  0.2165 -0.0293
 3185SOL    HW121017   2.681   1.510   2.171  0.9080 -0.9895  1.0025
 3185SOL    HW221018   2.537   1.517   2.156 -1.1405  0.0565  1.4215
 3186SOL     OW21019   0.270   1.382  10.180 -0.1280  0.2990 -0.2490
 3186SOL    HW121020   0.232   1.385  10.093 -0.0696 -0.1977 -0.2922
 3186SOL    HW221021   0.206   1.438  10.225  1.2951 -0.9553  3.3449
 3187SOL     OW21022   1.522   3.320  12.946 -0.5966 -0.7420 -0.3177
 3187SOL    HW121023   1.551   3.405  12.914  0.0415 -0.8878 -0.1302
 3187SOL    HW221024   1.520   3.262  12.870  0.1116 -0.1563 -0.7797
 3188SOL     OW21025   0.136   4.423  13.509  0.0249  0.2390 -0.3386
 3188SOL    HW121026   0.086   4.343  13.492  0.3011 -0.5951  2.7684
 3188SOL    HW221027   0.225   4.391  13.521  0.3474  1.6925  1.1881
 3189SOL     OW21028   2.900   3.917   2.023 -0.0449 -0.2844 -0.0532
 3189SOL    HW121029   2.872   3.967   2.099  0.5721  0.0210 -0.0216
 3189SOL    HW221030   2.822   3.918   1.968 -0.6343  3.3071  0.8780
 3190SOL     OW21031   3.148   3.616   4.164  0.1833 -0.6008  0.1849
 3190SOL    HW121032   3.068   3.649   4.122  0.2785 -0.9544 -0.2782
 3190SOL    HW221033   3.167   3.679   4.233  0.2889  2.5608 -2.7221
 3191SOL     OW21034   4.021   1.217  14.760  0.0652 -0.2115 -0.2441
 3191SOL    HW121035   3.991   1.240  14.672 -0.0895  1.7349  0.3193
 3191SOL    HW221036   3.994   1.295  14.807 -0.0289 -0.2170 -0.2885
 3192SOL     OW21037   0.847   3.524   5.964  0.3675 -0.2725 -0.3599
 3192SOL    HW121038   0.779   3.590   5.980  0.1914 -0.9845  1.8374
 3192SOL    HW221039   0.862   3.535   5.870  0.6405  0.2985 -0.2493
 3193SOL     OW21040   2.558   2.675   6.942  0.5982  0.2212  0.1646
 3193SOL    HW121041   2.570   2.770   6.933 -0.4381  0.3081 -0.3086
 3193SOL    HW221042   2.501   2.677   7.019  0.2967  0.8906 -0.0724
 3194SOL     OW21043   3.599   1.503   1.448 -0.3944 -0.4022 -0.3529
 3194SOL    HW121044   3.527   1.546   1.494 -2.0647 -1.1977 -2.2034
 3194SOL    HW221045   3.666   1.559   1.486 -1.6231  0.7746  0.1064
 3195SOL     OW21046   2.445   4.014   3.433 -0.4221  0.2176 -0.4667
 3195SOL    HW121047   2.350   4.023   3.423 -0.5044 -0.2375 -0.1134
 3195SOL    HW221048   2.481   4.076   3.370  1.0317 -0.1923 -0.0310
 3196SOL     OW21049   2.596   2.963   7.007 -0.5229 -0.1322 -0.0675
 3196SOL    HW121050   2.548   3.005   6.936 -0.7510  0.3236  0.3504
 3196SOL    HW221051   2.534   2.968   7.080 -0.2135  0.0104  0.1854
 3197SOL     OW21052   0.671   1.528   1.468  0.3846  0.9062 -0.0604
 3197SOL    HW121053   0.601   1.589   1.443  0.1006 -0.1933 -1.9587
 3197SOL    HW221054   0.708   1.498   1.385  0.3469  0.5574  0.0490
 3198SOL     OW21055   2.084   3.167   6.909  0.0869 -0.4675  0.1370
 3198SOL    HW121056   2.068   3.259   6.928  0.5136 -0.0780 -1.3632
 3198SOL    HW221057   2.033   3.127   6.979  0.6751 -1.4235  0.0332
 3199SOL     OW21058   4.023   3.486  16.432 -0.3085 -0.5210 -0.0064
 3199SOL    HW121059   4.021   3.419  16.364  0.7056  0.7486 -1.2870
 3199SOL    HW221060   4.117   3.500  16.428 -0.2852 -1.3949 -2.7708
 3200SOL     OW21061   0.513   1.280   5.853 -0.2377  0.0464 -0.0092
 3200SOL    HW121062   0.458   1.246   5.923  0.0429  0.3918  0.3807
 3200SOL    HW221063   0.564   1.203   5.829 -0.4553 -0.1535  0.1773
 3201SOL     OW21064   1.032   1.038   3.462 -0.1973  0.2430  0.6306
 3201SOL    HW121065   0.978   1.078   3.529 -0.1748 -0.1162  0.8670
 3201SOL    HW221066   0.979   0.959   3.449 -2.7923  2.3334 -1.4758
 3202SOL     OW21067   2.186   0.626  11.521 -0.2699  0.3172  0.2061
 3202SOL    HW121068   2.214   0.546  11.565 -1.3321  0.9090  1.9765
 3202SOL    HW221069   2.093   0.604  11.522 -0.6145  1.7334 -0.3639
 3203SOL     OW21070   2.055   2.267   1.875 -0.2144  0.2781 -0.4953
 3203SOL    HW121071   2.010   2.347   1.904 -0.8057  0.9542 -3.2448
 3203SOL    HW221072   2.012   2.196   1.922  0.6039 -0.4853 -0.8925
 3204SOL     OW21073   0.821   1.124   5.970  0.0155  0.1630 -0.4890
 3204SOL    HW121074   0.768   1.080   6.037  1.3724 -0.0732  0.4345
 3204SOL    HW221075   0.775   1.090   5.894 -0.0173 -1.3792  0.2231
 3205SOL     OW21076   3.034   3.971   6.771  0.9696  0.8149  0.6814
 3205SOL    HW121077   3.122   3.952   6.803 -0.0011  0.8902  3.4278
 3205SOL    HW221078   3.027   4.066   6.780 -1.3527  1.0138 -3.1359
 3206SOL     OW21079   3.893   2.192   8.612  0.7618  0.3397  0.0128
 3206SOL    HW121080   3.976   2.168   8.570  0.2650 -0.4664 -0.4816
 3206SOL    HW221081   3.880   2.282   8.583  0.7970 -0.3806 -2.1955
 3207SOL     OW21082   2.440   3.150   1.373  0.2893 -0.3111 -0.2252
 3207SOL    HW121083   2.478   3.067   1.342  0.3545 -0.8400  1.2809
 3207SOL    HW221084   2.362   3.156   1.317  0.7500  0.5050 -0.7626
 3208SOL     OW21085   1.134   3.522   4.960  0.3711 -0.1355 -0.0909
 3208SOL    HW121086   1.147   3.490   4.871  1.5117 -0.7448  0.2960
 3208SOL    HW221087   1.224   3.537   4.988 -0.0208  0.9348  0.6147
 3209SOL     OW21088   3.639   2.200   5.473  0.1797 -0.4840  0.0492
 3209SOL    HW121089   3.685   2.180   5.554  0.5154 -0.1761 -0.0626
 3209SOL    HW221090   3.580   2.126   5.461 -1.5277  0.9746 -0.5564
 3210SOL     OW21091   1.725   2.355   6.507  0.1392 -0.2385  0.2217
 3210SOL    HW121092   1.783   2.385   6.577  1.3535 -0.7332 -0.5841
 3210SOL    HW221093   1.653   2.313   6.553 -0.3073  1.4842  1.1147
 3211SOL     OW21094   2.732   0.809   7.955  0.5189  0.2307 -0.7223
 3211SOL    HW121095   2.682   0.882   7.919 -0.6848  0.8044  2.0947
 3211SOL    HW221096   2.665   0.779   8.017  0.8963 -1.6537 -1.2251
 3212SOL     OW21097   1.669   1.841   4.270  0.1497 -0.1065  0.2410
 3212SOL    HW121098   1.652   1.850   4.176 -2.4655  3.4830  1.0545
 3212SOL    HW221099   1.584   1.864   4.306  0.7412  3.2244 -0.4643
 3213SOL     OW21100   3.808   4.715  14.333  0.0991  0.3593 -0.1546
 3213SOL    HW121101   3.736   0.017  14.392  0.1019 -0.9339  0.3733
 3213SOL    HW221102   3.862   4.666  14.396  0.6750 -1.0627 -1.7675
 3214SOL     OW21103   0.507   2.173  12.178  0.2753 -0.6417  0.4989
 3214SOL    HW121104   0.442   2.105  12.163 -1.1567  0.7362  0.4055
 3214SOL    HW221105   0.465   2.211  12.256  0.9871 -3.8857  2.4574
 3215SOL     OW21106   1.224   2.802  10.953  0.1284 -0.0050 -0.3929
 3215SOL    HW121107   1.262   2.714  10.946 -0.6335 -0.4409  0.7652
 3215SOL    HW221108   1.213   2.797  11.049  1.6155 -0.2180 -0.2361
 3216SOL     OW21109   4.210   2.695  14.220  0.2969  0.0944 -0.3074
 3216SOL    HW121110   4.175   2.611  14.252  0.3498 -0.5965 -2.0706
 3216SOL    HW221111   4.186   2.696  14.128  0.6690  0.3166 -0.4017
 3217SOL     OW21112   1.891   0.444  17.304 -0.2641  0.2209  0.2267
 3217SOL    HW121113   1.904   0.376  17.370 -0.9963 -0.1042  0.0315
 3217SOL    HW221114   1.910   0.398  17.223  0.4350  2.8467 -1.1065
 3218SOL     OW21115   1.543   0.864   4.051  0.2170 -0.4297 -0.6120
 3218SOL    HW121116   1.531   0.772   4.076  2.5571 -0.0467  1.8781
 3218SOL    HW221117   1.629   0.865   4.008  1.2925 -0.5636  1.5226
 3219SOL     OW21118   2.199   0.507   1.897  0.2049  0.1793 -0.3732
 3219SOL    HW121119   2.182   0.601   1.905  0.1967  0.3897 -2.8393
 3219SOL    HW221120   2.207   0.510   1.802 -1.7675  2.5877 -0.4890
 3220SOL     OW21121   1.797   3.089   4.077  0.4883 -0.3131 -0.2383
 3220SOL    HW121122   1.832   3.054   3.996  0.3187 -3.6099  1.1199
 3220SOL    HW221123   1.827   3.180   4.070  1.1000 -0.3640  1.7732
 3221SOL     OW21124   2.994   0.259   4.477 -0.1955  0.0255  0.4446
 3221SOL    HW121125   3.008   0.348   4.509 -0.1226  0.3911 -0.6265
 3221SOL    HW221126   3.019   0.207   4.554  2.8622  1.8644  0.6840
 3222SOL     OW21127   1.079   1.472   7.469 -0.5106  0.5695  0.3317
 3222SOL    HW121128   1.161   1.516   7.445 -0.7172  0.3717 -0.7452
 3222SOL    HW221129   1.021   1.487   7.395 -0.9151 -1.9411  0.1456
 3223SOL     OW21130   2.259   3.466   3.052  0.2215  0.3702 -0.2703
 3223SOL    HW121131   2.249   3.391   2.994 -1.9909 -0.6463  1.4141
 3223SOL    HW221132   2.335   3.512   3.018  0.9870  1.2360  2.5827
 3224SOL     OW21133   4.297   0.056   0.023  0.3076 -0.2305 -0.0035
 3224SOL    HW121134   4.326   0.112   0.094 -2.0968 -0.5055  1.2156
 3224SOL    HW221135   4.332   0.092  17.633 -0.0953 -3.5011 -1.6234
 3225SOL     OW21136   4.338   2.580  13.190  0.0614 -0.0447  0.0598
 3225SOL    HW121137   4.291   2.584  13.273  0.2714  0.6428  0.1440
 3225SOL    HW221138   4.426   2.586  13.228  0.3470  1.0133 -0.7503
 3226SOL     OW21139   0.865   1.002   4.810  0.4797 -0.1888  0.4112
 3226SOL    HW121140   0.803   0.931   4.825 -1.1836  0.9723 -0.9763
 3226SOL    HW221141   0.940   0.973   4.862  1.0374  0.5474  0.0250
 3227SOL     OW21142   2.794   4.504   7.651 -0.3424 -0.2190  0.3589
 3227SOL    HW121143   2.777   4.458   7.733  3.2560 -1.3930  0.4297
 3227SOL    HW221144   2.754   4.586   7.679  0.7723 -0.5186  2.8069
 3228SOL     OW21145   2.442   1.232  16.370 -0.0049 -0.1808 -0.8346
 3228SOL    HW121146   2.451   1.324  16.398  1.9328 -0.2059 -1.3570
 3228SOL    HW221147   2.437   1.197  16.459  0.3903  0.0902 -0.7018
 3229SOL     OW21148   3.326   3.735   0.248 -0.0198 -0.1071 -0.0601
 3229SOL    HW121149   3.396   3.799   0.235  1.9118 -1.8361  1.8859
 3229SOL    HW221150   3.251   3.787   0.277  2.0287  2.9499 -0.2137
 3230SOL     OW21151   1.247   4.287   9.278 -0.0723 -0.0548 -0.2509
 3230SOL    HW121152   1.240   4.361   9.337 -0.2627 -0.8464  0.7212
 3230SOL    HW221153   1.340   4.271   9.258 -0.2259  0.0561 -1.0814
 3231SOL     OW21154   3.991   3.714   2.409  0.5284 -0.1130  0.1704
 3231SOL    HW121155   4.010   3.757   2.326  2.2342 -0.2339  0.5034
 3231SOL    HW221156   3.940   3.772   2.465  2.2920  1.6528 -0.0671
 3232SOL     OW21157   1.122   3.851   2.498 -0.0463  0.1835 -0.2715
 3232SOL    HW121158   1.030   3.853   2.474 -0.3899 -0.4378  0.9642
 3232SOL    HW221159   1.163   3.878   2.416  2.1249 -1.7624  0.1649
 3233SOL     OW21160   1.949   0.621   4.848 -0.1590 -0.2539 -0.2655
 3233SOL    HW121161   1.878   0.650   4.906 -0.2116 -0.0550 -0.4315
 3233SOL    HW221162   1.997   0.571   4.914  1.5550  3.1261  1.0254
 3234SOL     OW21163   2.900   3.495   4.401 -0.5739 -0.3686 -0.5742
 3234SOL    HW121164   2.898   3.555   4.326 -0.4794  0.6602  0.2426
 3234SOL    HW221165   2.893   3.563   4.468  2.3685 -1.3154  0.6771
 3235SOL     OW21166   4.204   3.743   4.176 -0.1242  0.0067 -0.1633
 3235SOL    HW121167   4.217   3.797   4.099  1.6432  2.6881  1.9936
 3235SOL    HW221168   4.249   3.667   4.140  0.0323  0.9763 -2.0155
 3236SOL     OW21169   0.098   2.663   7.966  0.4617  0.2767 -0.8775
 3236SOL    HW121170   0.039   2.673   7.892 -1.2344  1.0513  0.5733
 3236SOL    HW221171   0.149   2.744   7.954  0.4427  0.3461 -0.5062
 3237SOL     OW21172   2.822   0.479  13.293 -0.1465  0.5361  0.4291
 3237SOL    HW121173   2.734   0.518  13.297 -0.8163 -0.8538 -0.7842
 3237SOL    HW221174   2.840   0.490  13.387 -5.0773  0.1984  1.4534
 3238SOL     OW21175   1.889   3.051  16.983  0.2920 -0.0121  0.1177
 3238SOL    HW121176   1.880   2.996  17.061 -0.9016 -0.3808 -0.2724
 3238SOL    HW221177   1.804   3.094  16.974 -0.3202 -0.8641  1.7193
 3239SOL     OW21178   1.508   0.999   6.326  0.0330 -0.4188 -0.2384
 3239SOL    HW121179   1.536   1.040   6.244  2.2554 -0.2080  0.6505
 3239SOL    HW221180   1.456   0.923   6.300 -0.7760 -0.0983  0.4183
 3240SOL     OW21181   2.962   3.217   8.512  0.3057 -0.2794 -0.0714
 3240SOL    HW121182   2.943   3.208   8.605  2.4743  0.4258  0.4441
 3240SOL    HW221183   2.873   3.210   8.477 -0.1183  1.0378  0.7591
 3241SOL     OW21184   4.144   0.297   6.008  0.3376 -0.5420  0.0296
 3241SOL    HW121185   4.070   0.298   6.069 -1.3621 -0.5715 -2.0425
 3241SOL    HW221186   4.099   0.338   5.934 -0.1948  0.5709  0.9557
 3242SOL     OW21187   1.850   4.676   3.424  0.2965 -0.4740 -0.0046
 3242SOL    HW121188   1.872   0.029   3.479 -1.1644  1.2188 -1.6825
 3242SOL    HW221189   1.867   4.721   3.341 -0.4927 -0.7132 -0.3038
 3243SOL     OW21190   1.351   2.371   7.249 -0.1714  0.5655 -0.2220
 3243SOL    HW121191   1.367   2.277   7.254  0.0211  0.6478  0.5718
 3243SOL    HW221192   1.256   2.377   7.238 -0.1659 -0.0422 -0.6086
 3244SOL     OW21193   1.719   1.210  10.125 -0.1912  0.4120  0.0014
 3244SOL    HW121194   1.792   1.221  10.063  1.4165  1.9223  2.1704
 3244SOL    HW221195   1.652   1.163  10.074  0.6151 -2.6342  1.7727
 3245SOL     OW21196   3.034   2.983  14.756  0.4459 -0.2301 -0.1938
 3245SOL    HW121197   3.098   2.950  14.693 -1.3536 -0.3432 -1.9533
 3245SOL    HW221198   3.057   3.075  14.770  1.6142 -0.6030  0.3662
 3246SOL     OW21199   3.775   2.314   2.435 -0.0977  0.0788  0.2546
 3246SOL    HW121200   3.827   2.235   2.450 -2.3684 -1.1249  1.7147
 3246SOL    HW221201   3.843   2.371   2.399 -1.0637  0.6308 -0.6909
 3247SOL     OW21202   4.578   1.331  11.009 -0.4972  0.1716 -0.0116
 3247SOL    HW121203   4.598   1.423  11.024  0.8042 -0.2490  0.9327
 3247SOL    HW221204   4.507   1.322  11.073  1.0430 -1.4410  1.4685
 3248SOL     OW21205   0.155   3.102   3.935 -0.4656 -0.5986 -0.1101
 3248SOL    HW121206   0.204   3.133   4.012  0.2688 -0.0867 -0.7859
 3248SOL    HW221207   0.108   3.183   3.914 -0.5561 -0.0806  2.0685
 3249SOL     OW21208   2.612   0.683   6.498  0.2634 -0.0967  0.1713
 3249SOL    HW121209   2.701   0.648   6.495 -0.5759 -2.0044 -1.7816
 3249SOL    HW221210   2.592   0.704   6.589  0.4720 -0.5772  0.3287
 3250SOL     OW21211   1.460   4.498  12.436 -0.2681  0.1444 -0.0342
 3250SOL    HW121212   1.401   4.460  12.501  2.5235 -0.2927  2.2142
 3250SOL    HW221213   1.408   4.552  12.375 -0.9642 -2.1398 -1.4512
 3251SOL     OW21214   3.127   0.212  10.393  0.4316 -0.1934 -0.1621
 3251SOL    HW121215   3.219   0.235  10.409  0.3487  1.3685 -1.9302
 3251SOL    HW221216   3.098   0.283  10.336 -0.2321  1.5488  2.3122
 3252SOL     OW21217   3.631   3.425   5.440 -0.2946  0.3491 -0.2584
 3252SOL    HW121218   3.682   3.346   5.422 -1.5729 -0.1878 -1.5310
 3252SOL    HW221219   3.540   3.415   5.413  0.3472  0.6565 -2.5446
 3253SOL     OW21220   1.778   4.423  16.532 -0.2076 -0.7350 -0.0805
 3253SOL    HW121221   1.758   4.360  16.602  0.3434 -1.7637 -0.8411
 3253SOL    HW221222   1.745   4.378  16.455 -0.9405  1.3537 -0.9814
 3254SOL     OW21223   2.930   2.319   4.760 -0.0377 -0.4820 -0.0861
 3254SOL    HW121224   2.970   2.360   4.683 -1.0068 -0.7493 -0.7201
 3254SOL    HW221225   3.003   2.315   4.822 -0.1606 -0.1345  0.0810
 3255SOL     OW21226   2.718   3.863  12.544  0.4582 -0.2009  0.1742
 3255SOL    HW121227   2.652   3.852  12.612  0.8505  0.0349  0.5928
 3255SOL    HW221228   2.666   3.836  12.468  1.6237  1.7193 -1.3204
 3256SOL     OW21229   4.523   4.477   7.834  0.0382  0.1992 -0.0596
 3256SOL    HW121230   4.600   4.531   7.816  1.1878 -0.4043  3.1025
 3256SOL    HW221231   4.462   4.547   7.809  0.4378  0.3366 -0.6507
 3257SOL     OW21232   0.322   3.030   6.229 -0.2442  0.2186 -0.4227
 3257SOL    HW121233   0.320   3.046   6.323  1.4708  1.6747 -0.6288
 3257SOL    HW221234   0.233   3.056   6.206  0.4372  1.8526 -1.2430
 3258SOL     OW21235   0.900   3.314   7.924 -0.0211  0.3282  0.0243
 3258SOL    HW121236   0.835   3.252   7.892  0.2457 -0.4582  1.0140
 3258SOL    HW221237   0.884   3.389   7.866 -0.9016 -0.5521 -0.8825
 3259SOL     OW21238   3.276   3.083   6.813 -0.2942 -0.3021 -0.4970
 3259SOL    HW121239   3.343   3.014   6.810  0.2719  0.1734  0.8542
 3259SOL    HW221240   3.193   3.036   6.819  0.6522 -1.9786 -0.4031
 3260SOL     OW21241   0.787   1.019   0.940 -0.2633  0.9444  0.4926
 3260SOL    HW121242   0.796   0.947   0.878 -0.8375 -0.1155  1.6638
 3260SOL    HW221243   0.693   1.007   0.952  0.2620 -2.3632  1.0073
 3261SOL     OW21244   4.242   3.476   5.769 -0.4557 -0.0264 -0.9277
 3261SOL    HW121245   4.215   3.565   5.748  0.0499  0.7004  1.5446
 3261SOL    HW221246   4.179   3.448   5.837  1.9707 -0.0835  1.3083
 3262SOL     OW21247   2.274   3.098   7.799  0.4149 -0.0169  0.0169
 3262SOL    HW121248   2.317   3.074   7.882 -0.2427 -0.3713  0.2489
 3262SOL    HW221249   2.343   3.148   7.756  0.5184 -1.0400 -0.9898
 3263SOL     OW21250   0.538   0.787   1.970 -0.2686 -0.4027  0.2189
 3263SOL    HW121251   0.503   0.834   2.046  0.2705 -1.5289  1.1517
 3263SOL    HW221252   0.576   0.712   2.016 -1.1879 -1.1313 -0.1919
 3264SOL     OW21253   0.268   3.223   4.167  0.4992  0.0303 -0.4878
 3264SOL    HW121254   0.360   3.206   4.187 -0.5179 -0.2173  4.0611
 3264SOL    HW221255   0.275   3.313   4.135 -1.2195  0.4328  0.2558
 3265SOL     OW21256   1.990   2.089   7.746  0.3758  0.3690 -0.2398
 3265SOL    HW121257   1.937   2.166   7.764 -0.6900  0.0640 -2.0679
 3265SOL    HW221258   2.044   2.125   7.676  2.1833  0.1279  1.0171
 3266SOL     OW21259   4.162   4.300   3.088 -0.4189 -0.6311  0.3240
 3266SOL    HW121260   4.239   4.339   3.047 -1.1594  2.0574  1.4886
 3266SOL    HW221261   4.125   4.245   3.019  0.5891  1.0034 -1.5497
 3267SOL     OW21262   2.708   1.588   3.138  0.4656  0.0045 -0.5292
 3267SOL    HW121263   2.682   1.589   3.046  2.5562 -2.7877 -1.1258
 3267SOL    HW221264   2.793   1.548   3.125 -0.7355 -2.5632 -0.4896
 3268SOL     OW21265   2.363   1.221   3.984  0.3561  0.9201  0.0463
 3268SOL    HW121266   2.382   1.183   3.898  1.5781 -0.8734  1.1158
 3268SOL    HW221267   2.417   1.299   3.986 -0.7207  1.6638  0.1948
 3269SOL     OW21268   1.087   2.309   7.156  0.1147  0.1069  0.0796
 3269SOL    HW121269   1.057   2.297   7.065  1.9916 -0.1318 -0.5146
 3269SOL    HW221270   1.136   2.229   7.173 -0.1304  0.2497  1.4437
 3270SOL     OW21271   3.129   3.712   6.325 -0.1079  0.3870 -0.0777
 3270SOL    HW121272   3.071   3.721   6.400  0.3009  0.1309  0.2725
 3270SOL    HW221273   3.197   3.776   6.348  1.6348 -1.7879  0.8613
 3271SOL     OW21274   3.063   2.841   1.608 -0.1726 -0.2632 -0.4556
 3271SOL    HW121275   3.072   2.746   1.612 -0.1286 -0.2112  0.5778
 3271SOL    HW221276   3.150   2.869   1.578  0.0615 -0.6280 -0.1005
 3272SOL     OW21277   0.620   0.556   8.608 -0.1629 -0.7361  0.1200
 3272SOL    HW121278   0.651   0.628   8.553 -0.0057 -1.7392 -1.1090
 3272SOL    HW221279   0.570   0.500   8.548 -0.2395  1.8939 -2.2740
 3273SOL     OW21280   3.713   0.445   6.014  0.3511  0.8974 -0.3430
 3273SOL    HW121281   3.662   0.451   6.095  1.3040  1.8889  0.1944
 3273SOL    HW221282   3.795   0.469   6.058  1.6841 -0.8067 -1.8810
 3274SOL     OW21283   3.083   0.756   3.966  0.3217 -0.3748 -1.2050
 3274SOL    HW121284   3.148   0.766   4.035  0.2588  0.4118 -1.2562
 3274SOL    HW221285   3.116   0.801   3.888  2.4424 -1.0218 -0.6830
 3275SOL     OW21286   2.029   1.486   2.887 -0.2380  0.0985  0.8795
 3275SOL    HW121287   2.116   1.448   2.900  0.7391  2.2776  0.7238
 3275SOL    HW221288   2.034   1.551   2.957 -0.2532  0.3909  0.6076
 3276SOL     OW21289   1.983   1.096   1.338 -0.3707 -0.3008 -0.4714
 3276SOL    HW121290   2.017   1.070   1.424  0.0232 -1.9992 -1.1442
 3276SOL    HW221291   1.994   1.191   1.336  0.3063 -0.3314  1.8212
 3277SOL     OW21292   2.030   4.396   9.664 -0.5781  0.1591 -0.1862
 3277SOL    HW121293   2.041   4.434   9.751  0.7350 -1.2299  0.2487
 3277SOL    HW221294   2.050   4.305   9.684  0.0448  0.0098 -1.4632
 3278SOL     OW21295   0.681   2.105   6.213 -0.6593 -0.1306 -0.2104
 3278SOL    HW121296   0.728   2.023   6.226  0.2315  0.4644  0.3275
 3278SOL    HW221297   0.734   2.130   6.137 -0.2446 -0.6820 -0.1023
 3279SOL     OW21298   3.724   3.056  17.631  0.6538 -0.0430 -0.0826
 3279SOL    HW121299   3.666   2.986  17.600 -1.4065  0.7330  2.0352
 3279SOL    HW221300   3.756   3.085  17.545 -1.0274  0.6073 -0.5037
 3280SOL     OW21301   4.073   0.848   3.509 -0.3316  0.3423 -0.8122
 3280SOL    HW121302   4.161   0.818   3.533 -0.9443 -0.4265  0.5046
 3280SOL    HW221303   4.059   0.934   3.549  1.2257  1.0790 -1.8648
 3281SOL     OW21304   1.139   2.830   2.540 -0.1543 -0.0813 -0.3272
 3281SOL    HW121305   1.169   2.921   2.532  1.3242 -0.6215 -0.8805
 3281SOL    HW221306   1.090   2.844   2.621 -0.2526  1.7168 -0.6893
 3282SOL     OW21307   0.383   2.137  11.181  0.0952 -0.1770 -0.6335
 3282SOL    HW121308   0.412   2.093  11.101  1.7914 -1.3702  0.6326
 3282SOL    HW221309   0.375   2.072  11.250  0.2354 -0.0054 -0.4560
 3283SOL     OW21310   0.979   0.071  11.159  0.6971  0.0405 -0.2583
 3283SOL    HW121311   1.026   0.151  11.181 -0.3955  0.6805 -0.2366
 3283SOL    HW221312   0.973   0.044  11.251 -1.0588  1.7502  0.1378
 3284SOL     OW21313   4.537   0.859   7.136  0.1687 -0.3380  0.5903
 3284SOL    HW121314   4.500   0.923   7.076  1.4600 -0.5651 -0.4355
 3284SOL    HW221315   4.600   0.908   7.189  1.2849 -0.5120 -0.5908
 3285SOL     OW21316   4.124   4.481   2.608  0.5862 -0.4231 -0.0645
 3285SOL    HW121317   4.158   4.522   2.528 -1.4101  1.5878  0.1229
 3285SOL    HW221318   4.046   4.435   2.577 -0.2530 -0.1373  1.6449
 3286SOL     OW21319   1.133   1.368  12.107  0.1876 -0.0356 -0.2371
 3286SOL    HW121320   1.115   1.328  12.022  2.4813 -0.0721 -0.7115
 3286SOL    HW221321   1.049   1.402  12.138 -0.7349 -0.8677 -1.8161
 3287SOL     OW21322   3.337   0.358   5.852 -0.2952  0.3774  0.0950
 3287SOL    HW121323   3.348   0.264   5.861  0.4517  0.3498 -1.1146
 3287SOL    HW221324   3.279   0.363   5.776  1.2896  2.1243 -0.9901
 3288SOL     OW21325   4.299   4.228   3.993 -0.1584 -0.1112 -0.7213
 3288SOL    HW121326   4.389   4.200   3.978 -0.5569 -0.8213 -1.8462
 3288SOL    HW221327   4.265   4.235   3.903 -1.3558  0.1932 -0.2355
 3289SOL     OW21328   1.894   3.866   2.025 -0.0490 -0.2201 -0.0008
 3289SOL    HW121329   1.947   3.788   2.009  2.4634  1.7938 -1.5603
 3289SOL    HW221330   1.903   3.915   1.943  2.1604  0.3622  0.5792
 3290SOL     OW21331   2.628   4.667   3.399  0.3578 -0.4248  0.2958
 3290SOL    HW121332   2.540   4.678   3.365  0.0834 -0.1420  1.0934
 3290SOL    HW221333   2.669   0.020   3.356  0.0237  0.4545  1.5126
 3291SOL     OW21334   2.160   4.302   6.471 -0.0087  0.3207 -0.1630
 3291SOL    HW121335   2.095   4.314   6.402  1.2732 -0.9468 -1.5781
 3291SOL    HW221336   2.166   4.391   6.505  0.9861 -0.2739  1.2356
 3292SOL     OW21337   4.266   1.999   7.646 -0.3067 -0.1389 -0.1986
 3292SOL    HW121338   4.358   2.020   7.659 -0.4503  0.0994  0.4406
 3292SOL    HW221339   4.271   1.906   7.625 -1.9011 -0.3623  0.4119
 3293SOL     OW21340   2.080   0.504   5.051  0.1097  0.4999  0.4449
 3293SOL    HW121341   2.150   0.557   5.088  1.7333 -1.4438  0.1260
 3293SOL    HW221342   2.126   0.433   5.006 -1.2830 -1.0606  1.4828
 3294SOL     OW21343   0.505   0.040   9.967 -0.3803  0.4669  0.2597
 3294SOL    HW121344   0.572   0.074  10.027  0.9795 -1.8845  0.0981
 3294SOL    HW221345   0.459   0.112   9.925  0.0724  0.3618 -0.4147
 3295SOL     OW21346   1.180   1.849   7.274 -0.3959 -0.4223  0.4006
 3295SOL    HW121347   1.144   1.793   7.205  1.4245 -2.1750  0.8537
 3295SOL    HW221348   1.202   1.787   7.343  0.8129 -1.0355 -0.5173
 3296SOL     OW21349   4.359   3.881   2.189  0.1270 -0.0690 -0.1800
 3296SOL    HW121350   4.355   3.788   2.168 -0.8773  0.1446 -0.9699
 3296SOL    HW221351   4.272   3.912   2.165  0.8619  1.2571 -1.1371
 3297SOL     OW21352   0.451   2.732   5.118  0.3079 -0.0397 -0.3928
 3297SOL    HW121353   0.456   2.769   5.206  0.1209  0.4222 -0.5770
 3297SOL    HW221354   0.442   2.808   5.060 -0.3741 -0.7337 -1.2009
 3298SOL     OW21355   2.537   3.624   6.954 -0.2842  0.0543 -0.1346
 3298SOL    HW121356   2.490   3.707   6.951  0.0771  0.2747  0.3243
 3298SOL    HW221357   2.494   3.578   6.882 -1.0778  1.0943 -0.3144
 3299SOL     OW21358   2.082   0.999   9.060  0.3363  0.2449 -0.5858
 3299SOL    HW121359   2.176   0.988   9.046  0.3097 -0.3469 -0.3390
 3299SOL    HW221360   2.034   0.916   9.050  1.6737 -0.5786 -0.1813
 3300SOL     OW21361   0.230   1.495   3.316 -0.1395 -0.3195 -0.1262
 3300SOL    HW121362   0.176   1.455   3.384  0.3778 -2.1860 -0.8305
 3300SOL    HW221363   0.314   1.450   3.328  0.3469  0.7616  0.5705
 3301SOL     OW21364   0.164   1.930   6.993 -0.2135 -0.2216 -0.1586
 3301SOL    HW121365   0.099   1.860   6.985  0.0662 -0.6247  1.0122
 3301SOL    HW221366   0.197   1.949   6.906  0.1342 -0.3941 -0.0630
 3302SOL     OW21367   3.954   2.284  17.667  0.2649  0.3270  0.1868
 3302SOL    HW121368   3.869   2.280  17.623  0.4653 -1.6239 -0.0114
 3302SOL    HW221369   3.992   2.365  17.632 -1.0209  0.7179 -0.3085
 3303SOL     OW21370   0.868   2.603   0.349  0.7531 -0.5129  0.4486
 3303SOL    HW121371   0.820   2.573   0.426 -1.2364 -0.0034 -0.5932
 3303SOL    HW221372   0.939   2.539   0.356  1.0708  0.0500  2.4046
 3304SOL     OW21373   2.333   3.767   4.599 -0.2216  0.0764 -0.0871
 3304SOL    HW121374   2.332   3.745   4.505 -0.6627  1.0294 -0.3079
 3304SOL    HW221375   2.242   3.739   4.609  0.4053 -2.4145 -1.2490
 3305SOL     OW21376   3.702   0.110  12.293 -0.3617 -0.0651  0.4185
 3305SOL    HW121377   3.723   0.199  12.264 -3.5616  0.3879 -0.5158
 3305SOL    HW221378   3.696   0.060  12.211  0.4874 -0.3002  0.4974
 3306SOL     OW21379   2.267   1.810   2.367 -0.1410 -0.0800  0.0637
 3306SOL    HW121380   2.200   1.851   2.423  0.7804 -0.5759  1.5346
 3306SOL    HW221381   2.262   1.866   2.290 -0.0433 -0.6163 -0.3275
 3307SOL     OW21382   2.061   2.085   6.391  0.7622 -0.0511 -0.2874
 3307SOL    HW121383   2.096   1.999   6.364  0.7486 -0.3794  0.7596
 3307SOL    HW221384   2.023   2.071   6.477 -1.1639  1.9191 -0.8320
 3308SOL     OW21385   4.715   2.113  15.323 -0.7642 -0.0005 -0.3634
 3308SOL    HW121386   0.009   2.207  15.311 -0.4250  0.0863  0.7630
 3308SOL    HW221387   4.622   2.100  15.304 -0.9097 -1.2877  1.2246
 3309SOL     OW21388   1.999   0.814   2.398 -0.6025  0.4421 -0.1651
 3309SOL    HW121389   2.082   0.855   2.373 -0.3142  1.4160  2.4095
 3309SOL    HW221390   1.940   0.866   2.343  0.7380  0.2389 -1.7940
 3310SOL     OW21391   0.718   2.899   6.099  0.2076 -0.2667 -0.1951
 3310SOL    HW121392   0.811   2.899   6.122  0.8544 -1.8899 -2.7879
 3310SOL    HW221393   0.682   2.901   6.188 -1.2678  1.7606 -0.8362
 3311SOL     OW21394   1.803   4.454   7.468  0.3204  0.4112  0.3165
 3311SOL    HW121395   1.756   4.497   7.540 -0.6404  0.8273 -0.5591
 3311SOL    HW221396   1.760   4.369   7.461  2.3440 -0.3913 -2.1011
 3312SOL     OW21397   4.157   2.615   6.617  0.0051  0.2792  1.0740
 3312SOL    HW121398   4.176   2.661   6.535 -0.6686 -0.6586  0.3948
 3312SOL    HW221399   4.067   2.646   6.624  0.2735  1.5945 -0.9942
 3313SOL     OW21400   2.351   3.627   1.721 -0.5403  0.0862 -0.3108
 3313SOL    HW121401   2.260   3.597   1.714  0.5109 -3.8961  2.9248
 3313SOL    HW221402   2.372   3.667   1.637 -1.5032 -1.2549 -1.1990
 3314SOL     OW21403   0.506   4.692   5.573 -0.1917  0.1877  0.3349
 3314SOL    HW121404   0.450   0.019   5.513 -1.6606 -0.4190  1.2155
 3314SOL    HW221405   0.590   4.689   5.528  0.2255  0.9678  1.0580
 3315SOL     OW21406   1.700   0.682  14.833  0.2830  0.3472  0.2641
 3315SOL    HW121407   1.633   0.670  14.765  2.4984 -0.7863 -1.7407
 3315SOL    HW221408   1.754   0.603  14.829 -0.3956 -0.1287  0.3099
 3316SOL     OW21409   2.377   0.090   4.564  0.4957  0.2421 -0.0721
 3316SOL    HW121410   2.356   0.005   4.602  3.0765 -0.6427 -0.6406
 3316SOL    HW221411   2.319   0.090   4.489  1.4134 -0.6520 -0.7773
 3317SOL     OW21412   2.739   1.162   3.950 -0.5880  0.8575 -0.2774
 3317SOL    HW121413   2.669   1.197   3.894  0.9776  0.3273 -2.5680
 3317SOL    HW221414   2.683   1.152   4.027  2.3792 -1.8479  1.5171
 3318SOL     OW21415   3.624   3.107   0.873 -0.1908 -0.2921  0.9228
 3318SOL    HW121416   3.674   3.034   0.910  0.4194 -0.8294 -0.9958
 3318SOL    HW221417   3.630   3.166   0.948 -2.0315  0.6391  0.3266
 3319SOL     OW21418   2.481   2.240   4.650  0.2520  0.4586  0.0484
 3319SOL    HW121419   2.553   2.286   4.693  1.1802 -2.5924  1.7629
 3319SOL    HW221420   2.516   2.154   4.624  1.3622  0.8408  0.2661
 3320SOL     OW21421   3.284   0.442   4.446 -0.2770  0.2373  0.3348
 3320SOL    HW121422   3.293   0.396   4.363  1.2082  0.5592  0.3122
 3320SOL    HW221423   3.373   0.474   4.460 -0.3804  0.8049 -0.3178
 3321SOL     OW21424   3.075   2.852   0.990  0.3755 -0.0241  0.2971
 3321SOL    HW121425   3.111   2.932   1.030  0.5650  0.4450 -0.8217
 3321SOL    HW221426   3.006   2.892   0.937  1.8567 -0.9884 -2.3540
 3322SOL     OW21427   0.030   0.113   1.247  0.4803  0.5548  0.2837
 3322SOL    HW121428   0.086   0.191   1.244  0.0847  0.7110 -2.7854
 3322SOL    HW221429   4.673   0.146   1.205  0.6501  0.3520 -0.1981
 3323SOL     OW21430   0.846   2.716  14.534 -0.2964  0.0686  0.9418
 3323SOL    HW121431   0.804   2.750  14.456  0.1790 -2.1916 -0.3084
 3323SOL    HW221432   0.850   2.621  14.517 -0.8156  0.4005 -0.9893
 3324SOL     OW21433   4.013   0.393   8.485  0.5720 -0.4615 -0.6991
 3324SOL    HW121434   4.067   0.469   8.507  0.9359 -1.0600  0.4774
 3324SOL    HW221435   4.057   0.325   8.535  0.0272 -0.8591 -0.7632
 3325SOL     OW21436   2.293   2.751   3.714 -0.2522  0.2416  0.0338
 3325SOL    HW121437   2.262   2.685   3.777  0.8570 -0.5158 -0.2248
 3325SOL    HW221438   2.353   2.794   3.775 -2.1035  2.4581  0.2614
 3326SOL     OW21439   0.113   3.917  16.949  0.5768  0.0325 -0.1044
 3326SOL    HW121440   0.038   3.947  17.000  1.9154 -0.3876  2.1284
 3326SOL    HW221441   0.164   3.997  16.938  2.3744 -1.0101  0.6029
 3327SOL     OW21442   2.655   3.045   4.075  0.2997  0.4699 -0.3406
 3327SOL    HW121443   2.589   3.114   4.066 -0.1270 -0.2755 -2.8240
 3327SOL    HW221444   2.661   3.028   4.169 -2.6291 -1.2444 -0.4527
 3328SOL     OW21445   0.139   0.751  13.691  0.0483  0.3378 -0.7553
 3328SOL    HW121446   0.114   0.843  13.698  0.4253  0.3734  0.0610
 3328SOL    HW221447   0.050   0.717  13.697  1.8734 -4.2342  0.3714
 3329SOL     OW21448   0.956   2.494   2.845  0.5661  0.5948 -0.7071
 3329SOL    HW121449   1.027   2.529   2.791  2.1348 -2.5266 -0.6492
 3329SOL    HW221450   1.003   2.483   2.927  1.0526  1.5635 -0.8526
 3330SOL     OW21451   4.008   4.608  13.740  0.1082  0.3943 -0.2534
 3330SOL    HW121452   3.927   4.659  13.741 -0.1069  0.0049  2.3148
 3330SOL    HW221453   4.078   4.669  13.715  0.2888  0.9244  1.5048
 3331SOL     OW21454   4.103   1.499   5.796 -0.0648  0.5695  0.1907
 3331SOL    HW121455   4.167   1.495   5.725 -0.0370 -1.6159  0.3355
 3331SOL    HW221456   4.048   1.422   5.782  0.4982  0.6097 -2.2028
 3332SOL     OW21457   2.525   0.779  15.658  0.4309  0.1661 -0.1047
 3332SOL    HW121458   2.482   0.842  15.600  0.0630  0.4919  0.5283
 3332SOL    HW221459   2.578   0.723  15.600 -1.2162 -0.7341 -0.7207
 3333SOL     OW21460   1.966   4.209   8.868 -0.5412  0.0529 -0.1273
 3333SOL    HW121461   2.017   4.290   8.872 -2.3054  1.1001  1.2430
 3333SOL    HW221462   1.995   4.157   8.942  0.0706  0.1837 -0.2770
 3334SOL     OW21463   3.136   3.595   1.677  0.6724 -0.2898 -0.4010
 3334SOL    HW121464   3.164   3.685   1.664  0.1825 -0.1442 -0.4494
 3334SOL    HW221465   3.222   3.553   1.686  1.0642  0.5804 -0.0800
 3335SOL     OW21466   0.435   2.725   6.769 -0.2086  0.3986  0.7587
 3335SOL    HW121467   0.418   2.656   6.705 -1.9150 -0.7393  2.4409
 3335SOL    HW221468   0.424   2.683   6.854 -1.8456 -1.2733 -0.2693
 3336SOL     OW21469   3.803   3.601  13.401  0.4163 -0.2814  0.3357
 3336SOL    HW121470   3.774   3.682  13.357  1.5472 -0.6475 -1.0838
 3336SOL    HW221471   3.719   3.556  13.410  1.1917 -1.2722  2.4385
 3337SOL     OW21472   3.138   0.568  11.704  0.6283  0.1526 -0.6724
 3337SOL    HW121473   3.080   0.619  11.761  1.6498  0.5532  0.0064
 3337SOL    HW221474   3.104   0.576  11.615  1.5540 -1.1605 -1.1458
 3338SOL     OW21475   0.435   4.464   7.327  0.1660  0.0163  0.0848
 3338SOL    HW121476   0.421   4.522   7.402 -0.7729 -2.6554  1.9717
 3338SOL    HW221477   0.450   4.538   7.267 -1.4495 -0.0174 -0.3771
 3339SOL     OW21478   4.381   2.938  12.255 -0.0799 -0.0889 -0.4807
 3339SOL    HW121479   4.470   2.965  12.232  0.1983  1.9367  2.9750
 3339SOL    HW221480   4.330   2.994  12.196 -1.6188  1.6080  2.4889
 3340SOL     OW21481   2.550   3.982   8.626  0.3815 -0.3799  0.5259
 3340SOL    HW121482   2.627   4.004   8.679 -0.9611  1.9976  1.4939
 3340SOL    HW221483   2.492   4.054   8.651  2.6497  2.2150 -1.6740
 3341SOL     OW21484   2.221   1.983   8.744  0.1797 -0.4472  0.0277
 3341SOL    HW121485   2.255   1.958   8.658  1.1724 -1.9718  0.8734
 3341SOL    HW221486   2.137   2.013   8.710  0.9594  1.7790  0.0199
 3342SOL     OW21487   0.014   2.860   5.226  0.0125 -0.1044 -0.4123
 3342SOL    HW121488   4.675   2.842   5.297  0.2774  1.8219  0.3082
 3342SOL    HW221489   4.677   2.904   5.165  0.5303  1.7118  0.3857
 3343SOL     OW21490   0.391   2.606   9.860  0.1575  0.7265  0.2243
 3343SOL    HW121491   0.331   2.674   9.890 -1.3137 -0.4809 -0.0264
 3343SOL    HW221492   0.422   2.639   9.776  0.0517  2.2859  0.7870
 3344SOL     OW21493   2.772   0.755   3.363  0.3700  0.0149 -0.3264
 3344SOL    HW121494   2.681   0.783   3.355  0.6477  0.8972 -0.3994
 3344SOL    HW221495   2.776   0.743   3.458  2.0842  0.0196 -0.3886
 3345SOL     OW21496   0.659   1.169  11.619 -0.2735 -0.2814  0.3103
 3345SOL    HW121497   0.695   1.106  11.682 -0.5200 -1.5657 -0.8343
 3345SOL    HW221498   0.697   1.250  11.654  2.5839 -1.1972 -0.7061
 3346SOL     OW21499   4.009   0.442   0.674  0.1430 -0.0376 -0.1170
 3346SOL    HW121500   4.058   0.369   0.636  1.9419  0.3272  1.5126
 3346SOL    HW221501   3.920   0.430   0.640 -0.2408  3.0903 -0.2475
 3347SOL     OW21502   4.560   0.403   1.567 -0.7489 -0.6352 -0.2203
 3347SOL    HW121503   4.534   0.420   1.657  1.5039 -0.9820  0.5112
 3347SOL    HW221504   4.480   0.389   1.516  0.1197  0.5507 -1.9019
 3348SOL     OW21505   2.238   3.684   3.768  0.2016 -0.2688  0.2499
 3348SOL    HW121506   2.262   3.659   3.679 -1.2155  0.7156 -0.4258
 3348SOL    HW221507   2.217   3.776   3.755  1.2111 -0.1703 -0.6017
 3349SOL     OW21508   2.759   0.442   2.831 -0.3083 -0.0025  0.1444
 3349SOL    HW121509   2.700   0.441   2.755  0.6794 -1.2156 -0.6079
 3349SOL    HW221510   2.806   0.360   2.815 -0.1604 -0.3089  2.2177
 3350SOL     OW21511   2.542   3.054   0.586 -0.2907 -0.4062  0.2279
 3350SOL    HW121512   2.545   3.095   0.499  1.7973  0.6167  0.7679
 3350SOL    HW221513   2.451   3.077   0.603 -0.1536 -2.5910  3.8579
 3351SOL     OW21514   2.775   1.492   8.006 -0.0016 -0.1396 -0.2811
 3351SOL    HW121515   2.802   1.483   7.914  0.8085 -1.3317  0.0659
 3351SOL    HW221516   2.686   1.526   7.996  0.2787  0.7178  0.1534
 3352SOL     OW21517   4.479   1.456   9.419 -0.7107  0.3424 -0.1826
 3352SOL    HW121518   4.450   1.506   9.495 -0.9510  1.0026 -0.7102
 3352SOL    HW221519   4.574   1.468   9.423 -0.6538 -0.6581  1.4939
 3353SOL     OW21520   1.792   2.901  17.229  0.2169 -0.9013  0.5039
 3353SOL    HW121521   1.820   2.931  17.316  0.3370  1.5202 -0.3700
 3353SOL    HW221522   1.704   2.866  17.241 -0.6577  0.6555 -1.2839
 3354SOL     OW21523   4.197   1.012   2.931 -0.5600  1.2535  0.1639
 3354SOL    HW121524   4.262   0.963   2.981  0.2253  0.7603 -1.3377
 3354SOL    HW221525   4.149   1.063   2.996 -0.0245  1.2571  0.5610
 3355SOL     OW21526   3.218   1.399   7.810  0.3203  0.8044 -0.0902
 3355SOL    HW121527   3.283   1.385   7.742  0.7333  1.2206  0.2164
 3355SOL    HW221528   3.172   1.471   7.767 -1.6161 -1.2287 -1.4097
 3356SOL     OW21529   3.066   0.430   3.608 -0.2725  0.9093 -0.0868
 3356SOL    HW121530   3.027   0.480   3.680 -0.7423  1.5029 -0.7438
 3356SOL    HW221531   3.103   0.353   3.649 -2.2396  0.1442  0.2743
 3357SOL     OW21532   2.824   4.689   2.052 -0.0189  0.3066  0.3288
 3357SOL    HW121533   2.828   4.711   2.145 -0.0346 -0.7751  0.5932
 3357SOL    HW221534   2.794   0.048   2.012 -0.2357  0.3342  0.5491
 3358SOL     OW21535   2.329   1.164   4.331 -0.5009 -0.0170 -0.3991
 3358SOL    HW121536   2.369   1.089   4.375  1.3915  1.8164  1.0003
 3358SOL    HW221537   2.251   1.135   4.282 -0.3444  0.8215 -1.1506
 3359SOL     OW21538   1.792   3.234  11.283 -0.4176 -0.1138  0.1154
 3359SOL    HW121539   1.790   3.206  11.191  2.5634  1.5256 -0.4327
 3359SOL    HW221540   1.844   3.160  11.314 -2.1474 -0.2026  2.7701
 3360SOL     OW21541   0.140   0.231   9.022 -0.4877 -0.7829 -0.3041
 3360SOL    HW121542   0.228   0.224   8.985 -0.1541  0.4311  0.2311
 3360SOL    HW221543   0.142   0.148   9.069  2.0966 -0.6255 -0.1208
 3361SOL     OW21544   2.555   1.050   1.124 -0.6811 -0.4733 -0.4979
 3361SOL    HW121545   2.589   1.032   1.211 -0.5552  0.8098 -0.2830
 3361SOL    HW221546   2.461   1.069   1.133 -0.6590 -1.5320  1.8285
 3362SOL     OW21547   3.907   2.208   3.155  0.0013 -0.1743 -0.5623
 3362SOL    HW121548   3.818   2.234   3.135  0.3233 -0.7366 -2.7020
 3362SOL    HW221549   3.939   2.277   3.213  0.1660 -0.5366 -0.2183
 3363SOL     OW21550   0.451   0.737   3.039  0.5783 -0.2724  0.0489
 3363SOL    HW121551   0.512   0.810   3.047 -1.0675  0.9601  1.2022
 3363SOL    HW221552   0.506   0.673   2.992  0.7896 -0.6265  0.7758
 3364SOL     OW21553   4.142   1.681   7.610  0.8604  0.0112  0.3297
 3364SOL    HW121554   4.213   1.693   7.547  0.3704 -2.0944 -0.6227
 3364SOL    HW221555   4.172   1.601   7.652 -1.0555 -0.7301  0.2713
 3365SOL     OW21556   2.559   3.538   4.986 -0.0837 -0.5965  0.6648
 3365SOL    HW121557   2.544   3.487   4.906  0.1304  1.6223 -0.8119
 3365SOL    HW221558   2.501   3.487   5.041 -0.1348 -0.5878  0.6195
 3366SOL     OW21559   3.017   3.336   6.698  0.3126  0.7749  0.4020
 3366SOL    HW121560   3.031   3.243   6.719  0.8610  0.8760  0.5051
 3366SOL    HW221561   3.011   3.370   6.788  2.6901  0.5456  0.6520
 3367SOL     OW21562   3.039   4.262   6.825  0.0338 -0.1797  0.5332
 3367SOL    HW121563   2.956   4.242   6.869  0.0614 -0.5525  0.4176
 3367SOL    HW221564   3.095   4.254   6.902 -0.2807 -0.0127  0.7823
 3368SOL     OW21565   0.100   1.561   4.893 -0.3925 -0.4733 -0.1851
 3368SOL    HW121566   0.120   1.514   4.811  1.4105  1.0608 -0.6264
 3368SOL    HW221567   0.019   1.511   4.906 -0.6653  0.0729  0.1938
 3369SOL     OW21568   2.453   0.599   1.546 -0.6957  0.5117 -0.2413
 3369SOL    HW121569   2.465   0.601   1.451  1.3581 -2.3649 -0.0507
 3369SOL    HW221570   2.420   0.511   1.566  1.8147  0.0112  1.6456
 3370SOL     OW21571   3.899   1.214   5.033  0.2563  0.2318 -0.6191
 3370SOL    HW121572   3.986   1.227   4.995  0.4689  1.0364  0.1247
 3370SOL    HW221573   3.912   1.224   5.128  0.2311 -0.6619 -0.5191
 3371SOL     OW21574   3.403   0.096   3.804 -0.1027  1.0182 -0.5356
 3371SOL    HW121575   3.312   0.087   3.833 -0.3579  0.1297 -1.6216
 3371SOL    HW221576   3.406   0.185   3.769 -1.7464  1.1330 -0.4099
 3372SOL     OW21577   4.631   1.427   0.795 -0.1704 -0.2825  0.1100
 3372SOL    HW121578   4.618   1.498   0.858  0.2904 -0.1804  0.0889
 3372SOL    HW221579   4.548   1.380   0.792  0.9586 -2.1591 -1.7093
 3373SOL     OW21580   3.026   0.375   9.524  0.1471  0.7510  0.3145
 3373SOL    HW121581   3.072   0.319   9.587 -0.6697 -0.4281 -0.1426
 3373SOL    HW221582   2.951   0.320   9.503  0.9631 -0.3607  0.2869
 3374SOL     OW21583   3.570   1.417   6.199  0.4157 -0.8228 -0.3998
 3374SOL    HW121584   3.523   1.494   6.229 -1.1849 -1.5845 -0.9611
 3374SOL    HW221585   3.662   1.443   6.206  0.3693  0.4115 -4.1835
 3375SOL     OW21586   2.718   1.279   5.379 -0.4391 -0.3536  0.2366
 3375SOL    HW121587   2.652   1.343   5.354  1.2193  1.0231 -0.6396
 3375SOL    HW221588   2.791   1.324   5.337  0.1459 -0.0283  1.6241
 3376SOL     OW21589   4.109   0.013   2.435  0.4328  0.0991 -0.0285
 3376SOL    HW121590   4.099   0.024   2.341 -1.9599 -1.8877  0.0039
 3376SOL    HW221591   4.200   0.042   2.439 -0.0781  1.7874 -0.7825
 3377SOL     OW21592   1.093   4.471   5.392  0.3055  0.1375 -0.0589
 3377SOL    HW121593   1.083   4.554   5.437 -3.3570 -0.5906  0.4820
 3377SOL    HW221594   1.164   4.488   5.329 -0.6411 -1.1655 -1.4786
 3378SOL     OW21595   3.622   0.178   7.310  0.0183  0.1661  0.0707
 3378SOL    HW121596   3.659   0.123   7.240  0.6178  1.2525 -0.4678
 3378SOL    HW221597   3.556   0.125   7.354  0.2298 -0.1649 -0.0101
 3379SOL     OW21598   3.668   2.090   2.100  0.2917 -0.1784 -0.4194
 3379SOL    HW121599   3.744   2.146   2.089  0.6672 -0.7304 -0.6113
 3379SOL    HW221600   3.638   2.082   2.009 -2.2409 -1.1032  0.4800
 3380SOL     OW21601   3.662   0.275   6.377  0.1908  0.0442 -0.1196
 3380SOL    HW121602   3.738   0.267   6.320 -1.1306  1.7171 -2.0988
 3380SOL    HW221603   3.635   0.183   6.380  0.3069  0.0459  0.9052
 3381SOL     OW21604   4.374   2.237   2.997 -0.6076 -0.4523 -0.1216
 3381SOL    HW121605   4.356   2.176   2.925 -2.2501 -0.3074  0.1672
 3381SOL    HW221606   4.284   2.259   3.019 -0.9519  0.4005 -2.3365
 3382SOL     OW21607   0.151   0.904   4.926 -0.1935  0.3700  0.0136
 3382SOL    HW121608   0.128   0.865   5.010  0.8503 -0.0065  0.1188
 3382SOL    HW221609   0.180   0.989   4.960 -2.8799  0.9419  0.8701
 3383SOL     OW21610   4.211   0.442   8.799 -0.0681  0.2001 -0.0173
 3383SOL    HW121611   4.174   0.366   8.753 -1.1852 -0.0669  1.2991
 3383SOL    HW221612   4.222   0.403   8.886  1.9802  0.4561 -0.1669
 3384SOL     OW21613   1.727   3.665   3.207 -0.3599  0.4914 -0.2013
 3384SOL    HW121614   1.702   3.688   3.118  2.2908  0.4811 -0.9307
 3384SOL    HW221615   1.718   3.750   3.251  2.0215  0.1394  0.9921
 3385SOL     OW21616   4.542   4.153  14.758 -0.3924 -0.1908 -0.3399
 3385SOL    HW121617   4.615   4.204  14.722 -0.1690  0.3888  0.9431
 3385SOL    HW221618   4.560   4.068  14.716  0.1258 -0.1082 -0.2808
 3386SOL     OW21619   2.226   3.410   1.377 -0.4907 -0.0098 -0.0952
 3386SOL    HW121620   2.190   3.498   1.363 -2.1237 -0.5731  0.4983
 3386SOL    HW221621   2.318   3.421   1.356 -0.2786 -2.3600 -0.4279
 3387SOL     OW21622   3.692   4.180   7.627  0.0445  0.0375 -0.3596
 3387SOL    HW121623   3.738   4.221   7.700 -0.4320  2.0189 -1.1648
 3387SOL    HW221624   3.619   4.241   7.627 -0.0460 -0.0883  1.8101
 3388SOL     OW21625   0.004   2.309   6.709 -0.3588  0.5739 -0.1722
 3388SOL    HW121626   0.060   2.386   6.712 -1.8154  1.6017  0.5514
 3388SOL    HW221627   4.715   2.285   6.802  4.9352  0.6305  0.4769
 3389SOL     OW21628   3.501   3.901   5.617 -0.6302  0.7481  0.2612
 3389SOL    HW121629   3.541   3.925   5.701 -0.6536 -0.2066  0.5425
 3389SOL    HW221630   3.477   3.809   5.624 -2.2449  1.2810  1.7365
 3390SOL     OW21631   3.836   3.977   7.839  0.0365 -0.0977  0.3167
 3390SOL    HW121632   3.773   3.991   7.768  1.6440 -2.4701 -1.5788
 3390SOL    HW221633   3.858   4.069   7.853 -1.0227  0.1130  0.5697
 3391SOL     OW21634   3.809   0.517   8.368  0.1264 -0.0448 -0.6123
 3391SOL    HW121635   3.877   0.472   8.417 -1.1990 -2.2286 -0.8003
 3391SOL    HW221636   3.732   0.471   8.402  0.0375  2.0945  2.1388
 3392SOL     OW21637   4.083   4.298   7.580 -0.1272 -0.1448 -0.0354
 3392SOL    HW121638   4.069   4.347   7.499  1.7233  0.8709  0.2688
 3392SOL    HW221639   4.072   4.373   7.639 -2.0946 -0.8265  0.4641
 3393SOL     OW21640   2.450   2.870   3.908  0.0951 -0.1160  0.0548
 3393SOL    HW121641   2.540   2.897   3.925  0.3552 -1.5499  0.9731
 3393SOL    HW221642   2.422   2.842   3.995  1.0850 -0.8451  0.1434
 3394SOL     OW21643   2.889   1.614   6.403 -0.4345 -0.4634  0.7796
 3394SOL    HW121644   2.866   1.695   6.449 -1.0658  1.0194 -2.1369
 3394SOL    HW221645   2.931   1.555   6.466  1.3675  0.1498  0.1556
 3395SOL     OW21646   2.115   1.440   0.574  0.0746 -0.2261 -0.4911
 3395SOL    HW121647   2.091   1.355   0.539 -0.2007  0.2862 -1.5468
 3395SOL    HW221648   2.115   1.413   0.666 -0.4986 -0.6699 -0.6240
 3396SOL     OW21649   1.415   3.464  12.403  0.2915  0.2506 -0.1806
 3396SOL    HW121650   1.360   3.536  12.373  1.6043  0.6319 -1.6611
 3396SOL    HW221651   1.434   3.473  12.496 -0.5774 -2.1481  0.2361
 3397SOL     OW21652   3.549   0.990   0.231  0.2677 -0.5684  0.0660
 3397SOL    HW121653   3.472   0.941   0.259 -0.4534  0.3617 -0.3413
 3397SOL    HW221654   3.501   1.070   0.211  0.5194 -0.9522 -2.0779
 3398SOL     OW21655   3.521   2.860   7.847  0.6266 -0.1528  0.2001
 3398SOL    HW121656   3.570   2.790   7.804  1.7520  0.1238  1.0184
 3398SOL    HW221657   3.437   2.819   7.868 -0.3667  2.7678  1.9626
 3399SOL     OW21658   1.645   2.294   8.139 -0.7762  0.0789 -0.0639
 3399SOL    HW121659   1.599   2.212   8.123 -0.1633 -0.4113  0.6926
 3399SOL    HW221660   1.602   2.362   8.087  1.6417  1.4069 -0.3245
 3400SOL     OW21661   3.590   4.322   7.310  0.6336 -0.1042  0.2026
 3400SOL    HW121662   3.635   4.245   7.275  3.0284  0.4472  2.0147
 3400SOL    HW221663   3.592   4.372   7.228  0.2433 -0.6188 -0.1175
 3401SOL     OW21664   2.268   3.898   7.735 -0.4003 -0.2688  0.4460
 3401SOL    HW121665   2.328   3.823   7.737  2.1848  1.7487 -0.9557
 3401SOL    HW221666   2.208   3.895   7.810  0.5852  1.9230  1.3293
 3402SOL     OW21667   0.782   2.695  15.640 -0.7615  0.6071  0.3433
 3402SOL    HW121668   0.786   2.750  15.563  0.3785  2.0807  1.4557
 3402SOL    HW221669   0.859   2.640  15.624 -0.9065  0.8195 -1.0193
 3403SOL     OW21670   1.101   1.466   6.937 -0.6397  0.0420  0.0113
 3403SOL    HW121671   1.130   1.387   6.982 -2.1570  1.1341  2.8909
 3403SOL    HW221672   1.186   1.482   6.897 -1.6855  1.5057 -1.5999
 3404SOL     OW21673   1.256   3.774  12.642  0.4518  0.6846 -1.0193
 3404SOL    HW121674   1.318   3.788  12.570 -0.7018 -0.9832 -2.3547
 3404SOL    HW221675   1.278   3.680  12.646 -0.2760  0.4466 -2.7911
 3405SOL     OW21676   0.764   3.728   9.055 -0.4312 -0.1071  0.1082
 3405SOL    HW121677   0.846   3.771   9.081  0.9723 -0.0141 -4.3866
 3405SOL    HW221678   0.761   3.651   9.112 -0.8757  1.8341  2.6842
 3406SOL     OW21679   3.682   1.604   3.554  0.2845  0.1066  0.0713
 3406SOL    HW121680   3.776   1.603   3.534  0.3893 -2.2766  0.6540
 3406SOL    HW221681   3.662   1.529   3.498  0.4064  0.0847  0.0556
 3407SOL     OW21682   2.007   1.582  13.927  0.1643  0.4639  0.1480
 3407SOL    HW121683   1.945   1.654  13.917  1.7884  1.9652  0.7774
 3407SOL    HW221684   2.084   1.637  13.945  1.1574 -0.6378 -0.7193
 3408SOL     OW21685   2.894   4.162   7.029 -0.0952 -0.5047 -0.0645
 3408SOL    HW121686   2.873   4.069   7.016  0.2224 -0.4762 -0.7540
 3408SOL    HW221687   2.830   4.163   7.100  0.6294  0.2446  0.5769
 3409SOL     OW21688   0.477   1.689  14.647 -0.5975  0.2642 -0.4493
 3409SOL    HW121689   0.525   1.608  14.665  0.8311  1.2638  0.2333
 3409SOL    HW221690   0.457   1.678  14.554 -2.7290  2.3810 -0.2212
 3410SOL     OW21691   0.719   3.008  14.079  0.3194  0.0152  0.3034
 3410SOL    HW121692   0.658   3.029  14.008 -0.9199 -1.4607  0.9153
 3410SOL    HW221693   0.796   2.987  14.027 -0.6204 -0.0680 -1.0555
 3411SOL     OW21694   4.253   4.260   2.327 -0.0520  0.2547 -0.3503
 3411SOL    HW121695   4.170   4.220   2.351 -0.4108  1.0466 -0.2746
 3411SOL    HW221696   4.236   4.273   2.233 -0.6247 -0.1678 -0.3080
 3412SOL     OW21697   1.724   4.471   4.951 -0.2614 -0.2065 -0.0545
 3412SOL    HW121698   1.732   4.393   5.007 -1.9446 -0.0967  0.3357
 3412SOL    HW221699   1.816   4.491   4.934 -0.5293  0.8858 -0.2057
 3413SOL     OW21700   1.748   2.774   7.735  0.1148  0.3678  0.4143
 3413SOL    HW121701   1.803   2.810   7.666 -0.3762  0.4004  0.0415
 3413SOL    HW221702   1.668   2.824   7.716  0.3389  0.6330  0.1766
 3414SOL     OW21703   4.620   1.108   6.617  0.2843 -0.6004  0.1738
 3414SOL    HW121704   4.616   1.037   6.681 -0.9421 -1.5010 -0.8922
 3414SOL    HW221705   4.701   1.078   6.577  0.3512 -1.1942  0.7537
 3415SOL     OW21706   0.560   3.102   5.187 -0.0663 -0.2233  0.6699
 3415SOL    HW121707   0.522   3.174   5.238  0.7762 -0.2670  1.3623
 3415SOL    HW221708   0.485   3.043   5.185  0.7131 -1.0750 -2.0328
 3416SOL     OW21709   1.766   3.637   6.094 -0.1972 -0.6875  0.9509
 3416SOL    HW121710   1.730   3.720   6.064  1.7606  0.8239  2.7731
 3416SOL    HW221711   1.817   3.666   6.170  1.2894  3.2994 -1.5590
 3417SOL     OW21712   4.653   2.182   9.967 -0.3944 -0.0950  0.7606
 3417SOL    HW121713   4.718   2.210  10.031 -1.5323 -1.5530  2.5470
 3417SOL    HW221714   4.671   2.088   9.963 -1.7126 -0.2293 -2.8033
 3418SOL     OW21715   0.672   3.289   1.678  0.1481 -0.0993 -0.0172
 3418SOL    HW121716   0.638   3.376   1.659  0.2866 -0.2959 -1.1347
 3418SOL    HW221717   0.643   3.249   1.596 -0.8484 -0.2630  0.4102
 3419SOL     OW21718   3.342   1.645  11.044 -0.9067 -0.2580 -0.6529
 3419SOL    HW121719   3.252   1.663  11.070 -1.6222 -1.5498 -2.2386
 3419SOL    HW221720   3.332   1.559  11.004  0.8974 -1.0875  0.6730
 3420SOL     OW21721   3.132   4.270   5.439  0.4684  0.0056  0.2777
 3420SOL    HW121722   3.114   4.185   5.479 -0.0042 -0.0081  0.0321
 3420SOL    HW221723   3.135   4.249   5.346  1.7038 -1.9711  0.7592
 3421SOL     OW21724   3.493   1.092   3.732 -0.2132 -0.2834 -0.3419
 3421SOL    HW121725   3.556   1.163   3.719 -0.6243  0.1041 -0.2482
 3421SOL    HW221726   3.411   1.138   3.713 -0.2988 -1.2737 -2.3121
 3422SOL     OW21727   4.378   3.731   6.167 -0.7741 -0.4153  0.5125
 3422SOL    HW121728   4.340   3.736   6.079  1.0144  0.4205 -0.2142
 3422SOL    HW221729   4.332   3.804   6.208 -0.2613 -0.7729  1.7206
 3423SOL     OW21730   1.922   0.484  12.675 -0.3677 -0.3227 -0.6300
 3423SOL    HW121731   1.936   0.478  12.770  0.0089 -0.2279 -0.6802
 3423SOL    HW221732   2.012   0.506  12.649  0.2889 -1.5090  0.5880
 3424SOL     OW21733   2.333   1.790  12.747  0.3722  0.4480  0.4608
 3424SOL    HW121734   2.288   1.840  12.815 -0.6991  0.8221 -0.5327
 3424SOL    HW221735   2.354   1.710  12.796  0.2144  0.2806  0.2546
 3425SOL     OW21736   2.396   2.392   6.916 -0.3590 -0.0933  0.9218
 3425SOL    HW121737   2.484   2.385   6.953  1.0029  3.4666 -1.6876
 3425SOL    HW221738   2.414   2.388   6.822 -0.0213  1.0665  0.9453
 3426SOL     OW21739   2.680   1.338  12.526 -0.6360  0.4352  0.0584
 3426SOL    HW121740   2.722   1.424  12.527  1.4974 -0.6063  0.2935
 3426SOL    HW221741   2.705   1.302  12.612  1.3610  0.0325 -0.6876
 3427SOL     OW21742   3.005   4.304  15.699 -0.0546 -0.0126 -0.3850
 3427SOL    HW121743   3.084   4.327  15.749 -0.1085  1.6450 -1.0667
 3427SOL    HW221744   3.038   4.302  15.609  1.2461 -1.0581  0.1110
 3428SOL     OW21745   3.550   3.778  13.058 -0.5581  0.0741 -0.3626
 3428SOL    HW121746   3.586   3.742  12.977  0.5186  3.1773 -1.2454
 3428SOL    HW221747   3.455   3.785  13.045 -0.0987  1.4305 -2.8575
 3429SOL     OW21748   3.087   0.026  12.181 -0.3105  0.3962  0.2825
 3429SOL    HW121749   3.007   0.050  12.227 -0.0500  0.1386  0.8636
 3429SOL    HW221750   3.143   0.104  12.190 -1.7829  1.6353 -1.1522
 3430SOL     OW21751   4.174   0.163   7.994  0.5103  0.3101  0.0643
 3430SOL    HW121752   4.184   0.104   7.919  0.5046  0.7998 -0.3197
 3430SOL    HW221753   4.133   0.241   7.956 -0.9731  0.4197  1.9420
 3431SOL     OW21754   2.303   0.744   8.249  0.5616  0.4290 -0.1299
 3431SOL    HW121755   2.328   0.744   8.341  1.3751 -0.1082 -0.3513
 3431SOL    HW221756   2.229   0.684   8.244  0.2350  0.6862  1.6585
 3432SOL     OW21757   3.896   0.356   6.528  0.8048 -0.5449  0.2745
 3432SOL    HW121758   3.833   0.287   6.511 -1.2234  1.2723  0.4845
 3432SOL    HW221759   3.965   0.332   6.465 -0.6674 -0.6510 -1.2928
 3433SOL     OW21760   1.674   2.722   4.322 -0.0239 -0.1109  0.1261
 3433SOL    HW121761   1.756   2.773   4.323 -0.6384  0.9321 -2.2270
 3433SOL    HW221762   1.618   2.778   4.269 -0.6120 -0.1201  0.7384
 3434SOL     OW21763   2.646   1.982   2.719  0.0524  0.1657  0.0346
 3434SOL    HW121764   2.733   1.953   2.693  0.2111  0.9251 -0.3026
 3434SOL    HW221765   2.620   2.044   2.650  1.3162  1.9460  1.1507
 3435SOL     OW21766   1.686   1.539   6.563  0.3147 -0.1035  0.3345
 3435SOL    HW121767   1.696   1.622   6.515 -2.5635  0.3319  0.4613
 3435SOL    HW221768   1.776   1.520   6.590  0.6167 -0.4156 -0.8868
 3436SOL     OW21769   2.712   1.999  14.669 -0.2486 -0.2217 -0.2424
 3436SOL    HW121770   2.722   1.991  14.574 -1.1630 -1.4503 -0.2290
 3436SOL    HW221771   2.756   1.916  14.687  1.0107 -0.0554 -2.5424
 3437SOL     OW21772   3.480   3.456   4.160 -0.1055  0.2936  0.6849
 3437SOL    HW121773   3.553   3.513   4.136 -2.4110  3.0571  0.0920
 3437SOL    HW221774   3.420   3.475   4.088  1.5827  3.6224  0.1489
 3438SOL     OW21775   2.692   4.335  13.607 -0.2430  0.7177  0.1666
 3438SOL    HW121776   2.602   4.365  13.599  0.5024  3.5568  2.5326
 3438SOL    HW221777   2.735   4.350  13.523  1.4753 -0.9971  0.7255
 3439SOL     OW21778   0.631   4.248  11.498 -0.2407  0.1645 -0.3238
 3439SOL    HW121779   0.639   4.306  11.422 -0.1601  0.8488  0.2157
 3439SOL    HW221780   0.719   4.212  11.487 -0.4669 -1.1020  1.9866
 3440SOL     OW21781   1.565   3.883   4.169 -0.1023  0.1225  0.4365
 3440SOL    HW121782   1.643   3.936   4.149 -1.6414  2.0568 -0.4194
 3440SOL    HW221783   1.505   3.903   4.098  0.0084 -0.8126  0.0784
 3441SOL     OW21784   3.640   2.184   8.831 -0.1395 -0.1682  0.2419
 3441SOL    HW121785   3.671   2.100   8.798  2.2004  1.0606 -0.6606
 3441SOL    HW221786   3.653   2.232   8.749 -3.1124  2.8910  1.5365
 3442SOL     OW21787   4.538   3.302   4.938 -0.3616  0.3605 -0.2497
 3442SOL    HW121788   4.481   3.229   4.914  2.0724 -1.4383 -0.5954
 3442SOL    HW221789   4.546   3.349   4.855  1.0359  2.6013  1.1615
 3443SOL     OW21790   4.533   2.890   0.142 -0.0462  0.0687 -0.1265
 3443SOL    HW121791   4.450   2.910   0.099 -1.0278  0.8243  2.1357
 3443SOL    HW221792   4.560   2.804   0.109  1.1972  0.0165  1.0263
 3444SOL     OW21793   1.790   1.922   5.838 -0.0942 -1.1832  0.7375
 3444SOL    HW121794   1.853   1.992   5.822  0.4668 -1.7054  0.6864
 3444SOL    HW221795   1.712   1.977   5.833  0.9290  0.1879 -0.2970
 3445SOL     OW21796   3.625   2.178   2.633 -0.0226 -0.3675 -0.5843
 3445SOL    HW121797   3.678   2.099   2.644 -0.0252 -0.4786 -1.3885
 3445SOL    HW221798   3.672   2.235   2.572  0.6264 -0.5732 -0.2760
 3446SOL     OW21799   4.489   2.751  17.479  0.0594 -0.2728 -0.0415
 3446SOL    HW121800   4.528   2.669  17.510  2.8704  1.1475  0.2027
 3446SOL    HW221801   4.478   2.729  17.387  0.2712 -2.9816  0.5867
 3447SOL     OW21802   0.462   3.556   5.900  0.3780 -0.7515 -0.5504
 3447SOL    HW121803   0.434   3.467   5.921  2.2677 -0.9499  1.0503
 3447SOL    HW221804   0.382   3.609   5.901 -0.0095 -1.3427 -0.0588
 3448SOL     OW21805   3.700   2.318  17.570  0.0207  0.0117 -0.2826
 3448SOL    HW121806   3.681   2.226  17.557 -1.8438  0.2763  0.6764
 3448SOL    HW221807   3.674   2.343  17.482  0.8932 -0.1052 -0.5794
 3449SOL     OW21808   2.328   1.342   2.761 -0.8109 -0.0389 -0.6136
 3449SOL    HW121809   2.315   1.248   2.749 -1.4728 -0.1060  0.6469
 3449SOL    HW221810   2.340   1.370   2.671 -2.6586  0.0047 -0.8573
 3450SOL     OW21811   1.569   1.310  17.675 -0.1087 -0.1692 -0.4412
 3450SOL    HW121812   1.633   1.285  17.607 -0.8582  0.4016 -1.3610
 3450SOL    HW221813   1.623   1.366   0.040  0.9813  0.2085 -1.8574
 3451SOL     OW21814   0.027   2.919  11.290 -0.2176  0.0243 -0.3378
 3451SOL    HW121815   4.681   2.933  11.225 -1.5116 -1.5034  0.6878
 3451SOL    HW221816   0.084   2.989  11.259 -2.1872  2.3467  1.2691
 3452SOL     OW21817   3.813   4.366   4.244  0.7830 -0.3640 -0.0595
 3452SOL    HW121818   3.841   4.432   4.307  0.7056 -0.4550  0.0704
 3452SOL    HW221819   3.877   4.391   4.177  1.8051 -0.3641  0.9231
 3453SOL     OW21820   1.242   0.476   4.879 -0.1215  0.3158  0.1551
 3453SOL    HW121821   1.202   0.554   4.838  0.0019  0.2581 -0.0757
 3453SOL    HW221822   1.210   0.407   4.821  0.0991  1.7592 -1.6906
 3454SOL     OW21823   1.328   0.631   2.891 -0.6111 -0.3200 -0.8313
 3454SOL    HW121824   1.284   0.546   2.896 -1.3797  0.3236  2.9598
 3454SOL    HW221825   1.344   0.631   2.796 -0.1633  0.0414 -0.7558
 3455SOL     OW21826   1.504   1.568   9.580  0.3256 -0.5117 -0.6763
 3455SOL    HW121827   1.420   1.526   9.564 -1.0889  0.8207  3.0882
 3455SOL    HW221828   1.538   1.506   9.644 -0.3005 -1.3031 -1.1210
 3456SOL     OW21829   1.106   3.378   5.927 -0.7600  0.4193  0.1823
 3456SOL    HW121830   1.059   3.440   5.983 -1.9864  1.7090 -2.2393
 3456SOL    HW221831   1.071   3.403   5.841  0.1166  2.8155  0.5139
 3457SOL     OW21832   3.745   1.840  16.889  0.0765 -0.7951 -0.3512
 3457SOL    HW121833   3.752   1.915  16.831 -1.8959 -0.7364 -0.5030
 3457SOL    HW221834   3.716   1.884  16.969  0.1792 -0.4810 -0.4889
 3458SOL     OW21835   0.903   0.097   6.793 -0.0941  0.7985  0.3701
 3458SOL    HW121836   0.836   0.033   6.768  0.0036  0.9896 -0.3681
 3458SOL    HW221837   0.901   0.079   6.887 -0.4150  0.7278  0.3493
 3459SOL     OW21838   0.999   2.464   2.332  0.3679 -0.3348  0.0899
 3459SOL    HW121839   1.092   2.438   2.333  0.4357 -0.0582  0.8237
 3459SOL    HW221840   1.009   2.556   2.308  2.4760 -0.6226 -0.1595
 3460SOL     OW21841   4.555   2.289   8.077 -0.2327  0.2507  0.1512
 3460SOL    HW121842   4.574   2.374   8.116 -1.1597 -0.3148  1.8599
 3460SOL    HW221843   4.542   2.315   7.986  1.7498  1.2195  0.1398
 3461SOL     OW21844   3.035   3.931   7.358  0.4877 -0.0881  0.3378
 3461SOL    HW121845   3.025   4.002   7.422 -0.2450  0.9574 -0.9213
 3461SOL    HW221846   2.956   3.945   7.306  1.0703 -0.9849 -0.7595
 3462SOL     OW21847   1.672   1.081   3.789 -0.9394 -0.1941  0.1202
 3462SOL    HW121848   1.761   1.056   3.816 -1.2815 -1.5791 -0.0046
 3462SOL    HW221849   1.689   1.169   3.756 -3.0140 -0.4669 -1.6516
 3463SOL     OW21850   0.838   3.139   3.353 -0.2816 -0.0334 -0.4003
 3463SOL    HW121851   0.837   3.232   3.331 -2.1145  0.4098  1.6338
 3463SOL    HW221852   0.889   3.151   3.433 -0.1969  2.9069 -0.8773
 3464SOL     OW21853   3.476   0.492   1.690 -0.2453  0.0542 -0.0247
 3464SOL    HW121854   3.477   0.417   1.750  0.4296  0.4806  0.4995
 3464SOL    HW221855   3.455   0.567   1.747 -0.5121  0.7775 -1.0683
 3465SOL     OW21856   0.668   0.889   8.188 -0.1488 -0.0863  0.2094
 3465SOL    HW121857   0.702   0.881   8.100  1.7387  0.8193  0.8739
 3465SOL    HW221858   0.704   0.809   8.226 -0.2405 -1.4997 -2.6847
 3466SOL     OW21859   0.433   3.390   4.373 -0.1897 -0.0360  0.6757
 3466SOL    HW121860   0.427   3.300   4.405  0.4489 -0.6068 -0.8288
 3466SOL    HW221861   0.510   3.421   4.421  0.1144  1.0583 -0.5105
 3467SOL     OW21862   2.487   1.769   7.013 -0.2761 -0.3836 -0.2444
 3467SOL    HW121863   2.451   1.856   7.001 -0.8178 -0.4984  0.5874
 3467SOL    HW221864   2.561   1.774   6.953 -1.1524 -0.2849 -1.3265
 3468SOL     OW21865   2.729   2.208   8.869 -0.3114  0.0184  0.0631
 3468SOL    HW121866   2.816   2.183   8.838  0.0822  0.7515  0.5587
 3468SOL    HW221867   2.740   2.227   8.962  0.6961 -0.3125  0.0168
 3469SOL     OW21868   2.682   3.948   7.768  0.1155 -0.7521  0.0796
 3469SOL    HW121869   2.732   3.945   7.850  0.0025  2.1224  0.2709
 3469SOL    HW221870   2.590   3.954   7.795 -0.0471  0.3827 -0.7146
 3470SOL     OW21871   0.883   1.269   3.049  0.2106  0.4049 -0.3190
 3470SOL    HW121872   0.886   1.183   3.006  1.8309 -0.9096  2.3389
 3470SOL    HW221873   0.961   1.254   3.103 -1.5413 -1.7074  1.6651
 3471SOL     OW21874   1.048   2.635   1.255  0.6790  0.5397 -0.3412
 3471SOL    HW121875   1.011   2.723   1.250 -1.0563 -0.1369  0.5756
 3471SOL    HW221876   0.980   2.576   1.288  0.7362  0.5288 -0.2437
 3472SOL     OW21877   4.127   3.132   2.235 -0.3326  0.1962  0.4113
 3472SOL    HW121878   4.038   3.162   2.216  0.7225  2.8165 -0.2730
 3472SOL    HW221879   4.119   3.131   2.331 -0.7051 -1.5456  0.3609
 3473SOL     OW21880   4.188   0.374   2.598  0.2558  0.5614 -0.1253
 3473SOL    HW121881   4.198   0.469   2.602  1.2745  0.3389  2.4494
 3473SOL    HW221882   4.267   0.371   2.544  1.9694 -2.4337  2.5648
 3474SOL     OW21883   1.392   1.981  15.707  0.1946 -0.6627 -0.3284
 3474SOL    HW121884   1.321   1.917  15.716  1.0196 -1.5697 -0.2892
 3474SOL    HW221885   1.419   1.947  15.621  3.1027 -1.8143  1.0495
 3475SOL     OW21886   3.313   1.649   1.177 -0.2498  0.4405 -0.4287
 3475SOL    HW121887   3.379   1.694   1.126  0.6126  0.8997  1.1111
 3475SOL    HW221888   3.242   1.710   1.158 -0.3197  0.3078 -0.5972
 3476SOL     OW21889   3.592   1.091   5.035 -0.2248  0.2018 -0.3312
 3476SOL    HW121890   3.639   1.060   4.958 -0.8902  1.0916 -1.1066
 3476SOL    HW221891   3.517   1.125   4.986 -0.6163  0.3194  0.3504
 3477SOL     OW21892   1.597   2.385   0.381  0.0527  0.7860  0.7791
 3477SOL    HW121893   1.649   2.437   0.443 -1.5406  1.4988  1.5170
 3477SOL    HW221894   1.560   2.323   0.445 -1.3935  0.5111 -0.3306
 3478SOL     OW21895   1.384   1.153   6.508  0.0800  0.2068 -0.2050
 3478SOL    HW121896   1.445   1.218   6.542  0.4609 -1.5938  2.5443
 3478SOL    HW221897   1.418   1.132   6.421  0.7421 -0.6220  0.2652
 3479SOL     OW21898   3.913   4.304   2.483  0.4133 -0.0627  0.0254
 3479SOL    HW121899   3.871   4.218   2.484 -0.6330  0.4275 -1.0191
 3479SOL    HW221900   3.888   4.346   2.400  0.8598 -0.6389 -0.3984
 3480SOL     OW21901   2.280   2.489   5.555  0.1952  0.0129  0.6749
 3480SOL    HW121902   2.329   2.486   5.473  2.3842 -0.3824  1.9709
 3480SOL    HW221903   2.300   2.403   5.594 -0.3557 -0.4910 -0.1514
 3481SOL     OW21904   2.544   0.064   1.358  0.1109  0.2573 -0.3278
 3481SOL    HW121905   2.603   4.711   1.365 -1.4688 -1.0285 -0.8228
 3481SOL    HW221906   2.461   0.030   1.324  0.7115 -2.0890  0.5899
 3482SOL     OW21907   2.095   1.648  15.762 -0.5098  0.1716 -0.4184
 3482SOL    HW121908   2.084   1.611  15.849 -1.1707  1.1417 -0.0981
 3482SOL    HW221909   2.125   1.573  15.711  1.1875 -0.6371  1.7881
 3483SOL     OW21910   4.212   0.723   5.313  0.1991  0.7620  0.6755
 3483SOL    HW121911   4.155   0.701   5.240  0.7993 -0.4568  0.5722
 3483SOL    HW221912   4.210   0.818   5.302 -1.4586  0.4767 -1.3482
 3484SOL     OW21913   4.146   2.922  14.597  0.6198 -0.3176 -0.2103
 3484SOL    HW121914   4.108   2.951  14.680 -0.0195  1.1325 -1.0119
 3484SOL    HW221915   4.126   2.828  14.596  0.0257 -0.1976  0.8695
 3485SOL     OW21916   4.381   1.387  12.213  0.2577 -0.0288 -0.2591
 3485SOL    HW121917   4.425   1.369  12.129  0.1695  1.7312 -0.6826
 3485SOL    HW221918   4.402   1.480  12.220  0.1192  0.0238 -0.5176
 3486SOL     OW21919   4.679   0.114  16.433  0.1061  0.8687  0.4010
 3486SOL    HW121920   4.623   0.037  16.424  0.3170  0.6989  0.5401
 3486SOL    HW221921   4.640   0.171  16.368 -2.5982 -1.3307  0.0786
 3487SOL     OW21922   3.402   1.803   6.044  0.1987 -0.4567 -0.7658
 3487SOL    HW121923   3.354   1.883   6.068 -0.8187 -1.7660  1.5652
 3487SOL    HW221924   3.337   1.750   5.997 -0.2423 -0.6200  0.0235
 3488SOL     OW21925   3.622   3.489   8.358 -0.0768 -0.0061 -0.2932
 3488SOL    HW121926   3.690   3.528   8.302 -0.7632  2.5636  0.6870
 3488SOL    HW221927   3.548   3.493   8.297 -0.4375 -0.3387  0.1244
 3489SOL     OW21928   2.475   2.091  16.953  0.6718 -0.1444 -0.2811
 3489SOL    HW121929   2.496   2.043  17.033 -0.6818 -0.5707 -0.1882
 3489SOL    HW221930   2.495   2.028  16.883  0.4178 -0.9077  0.3406
 3490SOL     OW21931   0.054   1.336   1.861  0.1547 -0.0100 -0.1857
 3490SOL    HW121932   0.091   1.336   1.949  1.1818  1.2841 -0.6121
 3490SOL    HW221933   4.717   1.412   1.856  0.1778  0.1475  1.8636
 3491SOL     OW21934   0.259   1.268   8.690 -0.8464  0.1102 -0.5101
 3491SOL    HW121935   0.354   1.253   8.683 -0.9876 -2.2055  2.4874
 3491SOL    HW221936   0.240   1.285   8.598  1.3987 -1.2829 -1.2374
 3492SOL     OW21937   4.518   3.290   6.251 -0.4451 -0.2357  0.3962
 3492SOL    HW121938   4.604   3.279   6.292 -0.6267  0.2618  0.9107
 3492SOL    HW221939   4.543   3.300   6.159  1.3574  1.2019  1.0456
 3493SOL     OW21940   0.959   2.978   6.862  0.3104  0.2573 -0.2714
 3493SOL    HW121941   0.897   2.905   6.866 -0.0500  0.4799 -1.7382
 3493SOL    HW221942   0.971   2.991   6.768 -2.9776  2.6089 -0.4012
 3494SOL     OW21943   2.785   0.352   3.819  0.5106 -0.3437  0.0264
 3494SOL    HW121944   2.837   0.326   3.895 -1.1924  0.2522  1.4001
 3494SOL    HW221945   2.823   0.436   3.794 -1.6059  0.7457  0.4471
 3495SOL     OW21946   3.546   2.049   7.191  0.2382  0.5525  0.5928
 3495SOL    HW121947   3.637   2.066   7.166 -0.0974  0.4162 -0.7217
 3495SOL    HW221948   3.546   2.128   7.244  1.8040 -0.5886  2.3137
 3496SOL     OW21949   0.245   3.385   5.666 -0.1493  0.0140  0.0219
 3496SOL    HW121950   0.192   3.319   5.621  0.0900  0.2086 -0.5390
 3496SOL    HW221951   0.334   3.354   5.650 -1.1591 -1.2039 -3.2248
 3497SOL     OW21952   0.254   0.929   2.828  0.8300  0.1988  0.1434
 3497SOL    HW121953   0.283   0.838   2.822  0.9148  0.2740 -0.5485
 3497SOL    HW221954   0.264   0.952   2.736 -1.4774  0.0894 -0.1340
 3498SOL     OW21955   4.141   3.306   3.919 -0.0172 -0.1726  0.3880
 3498SOL    HW121956   4.098   3.360   3.853 -0.5401  0.5670  1.3290
 3498SOL    HW221957   4.097   3.221   3.911 -1.7432  0.8705 -1.0295
 3499SOL     OW21958   1.053   1.187  15.047 -0.1575  0.5003  0.0025
 3499SOL    HW121959   1.148   1.178  15.038  0.3463  3.3242  2.5346
 3499SOL    HW221960   1.024   1.128  14.978 -1.1059 -0.0704  0.8819
 3500SOL     OW21961   4.466   1.503   5.381  0.4916  0.0151 -0.7215
 3500SOL    HW121962   4.483   1.535   5.469 -0.8556 -0.9474 -0.1131
 3500SOL    HW221963   4.422   1.583   5.351 -2.2665 -1.6707 -1.1407
 3501SOL     OW21964   0.795   1.890  13.325  0.1126  0.0643  0.3917
 3501SOL    HW121965   0.886   1.875  13.351 -0.7118  0.4868  3.5720
 3501SOL    HW221966   0.742   1.887  13.405 -1.1057  1.3521 -0.3565
 3502SOL     OW21967   2.293   4.122   1.230  0.4512 -0.0908  0.3539
 3502SOL    HW121968   2.377   4.136   1.274  0.5938 -0.9410  0.3535
 3502SOL    HW221969   2.322   4.149   1.143  0.7131  0.9634  0.7678
 3503SOL     OW21970   0.202   0.001  10.240 -0.0098 -0.2585 -0.8180
 3503SOL    HW121971   0.289   4.685  10.230  1.5956  3.0534  0.6449
 3503SOL    HW221972   0.159   4.697  10.158  0.2197  0.0073 -1.0264
 3504SOL     OW21973   0.481   1.109  14.643 -0.3444  0.3095 -0.3914
 3504SOL    HW121974   0.465   1.199  14.673 -1.5383  0.2241 -0.7370
 3504SOL    HW221975   0.418   1.105  14.570  1.7612 -1.5904 -2.0800
 3505SOL     OW21976   4.069   4.676   5.388  0.8238 -0.4294 -0.2404
 3505SOL    HW121977   4.029   4.602   5.342  1.3734 -0.8632 -0.0222
 3505SOL    HW221978   4.122   4.717   5.319 -0.5409 -0.2345 -1.1607
 3506SOL     OW21979   3.231   0.515   3.379 -0.0162 -0.6091 -0.4856
 3506SOL    HW121980   3.312   0.554   3.410 -1.9608  2.3906  0.8804
 3506SOL    HW221981   3.207   0.477   3.464 -1.6583  1.3373 -0.0790
 3507SOL     OW21982   3.091   0.043  13.106 -0.9409 -0.7617 -0.1124
 3507SOL    HW121983   3.077   0.037  13.011 -1.4896 -2.2225  0.0653
 3507SOL    HW221984   3.059   0.131  13.127 -0.9759 -0.8704  0.2845
 3508SOL     OW21985   0.915   0.165   3.743  0.1693  0.1141 -0.4431
 3508SOL    HW121986   0.962   0.200   3.668  0.6629  0.6488  0.1096
 3508SOL    HW221987   0.911   0.071   3.725  1.8530 -0.2661  1.1039
 3509SOL     OW21988   1.223   3.218   0.493 -0.1898  0.0673  0.5031
 3509SOL    HW121989   1.146   3.174   0.528  0.5508 -0.2458  1.7205
 3509SOL    HW221990   1.200   3.305   0.525 -2.9316 -0.2427 -0.6023
 3510SOL     OW21991   2.695   4.664   8.756 -0.1525 -0.3524 -0.0564
 3510SOL    HW121992   2.648   0.016   8.718 -0.8480  0.1110  1.7278
 3510SOL    HW221993   2.668   4.592   8.698  1.7729 -1.3003  0.2226
 3511SOL     OW21994   1.704   2.573   0.562 -0.3672 -0.6138 -0.3225
 3511SOL    HW121995   1.666   2.579   0.650 -0.3208 -2.8704 -0.1492
 3511SOL    HW221996   1.664   2.643   0.511 -0.3591  1.6112  2.7152
 3512SOL     OW21997   1.696   3.984   2.930  0.1559  0.0280 -0.2735
 3512SOL    HW121998   1.679   4.019   2.843 -0.1272  0.2717 -0.1193
 3512SOL    HW221999   1.693   4.068   2.975 -0.6699  0.3704 -0.9838
 3513SOL     OW22000   1.031   1.843   5.851  0.3014 -0.1982  0.4772
 3513SOL    HW122001   1.012   1.752   5.874 -2.0150 -0.0728 -0.8979
 3513SOL    HW222002   1.042   1.884   5.937 -0.1209 -1.5335  1.1660
 3514SOL     OW22003   3.228   3.467   9.521 -0.8093  0.0074  0.2795
 3514SOL    HW122004   3.221   3.437   9.612 -2.2516 -0.7532 -0.0743
 3514SOL    HW222005   3.169   3.404   9.479 -1.5353  0.1423  1.0899
 3515SOL     OW22006   3.624   3.963   8.764  0.2871  0.0210  0.1212
 3515SOL    HW122007   3.626   3.872   8.733 -2.0556  0.4537 -1.3863
 3515SOL    HW222008   3.532   3.985   8.749  0.0850 -1.0231 -0.1956
 3516SOL     OW22009   0.324   4.487  12.795  0.0722 -0.2218  0.1199
 3516SOL    HW122010   0.267   4.468  12.870 -2.2327 -1.1889 -1.8699
 3516SOL    HW222011   0.402   4.435  12.816  0.6784  0.9926  0.8891
 3517SOL     OW22012   0.969   0.227   5.773  0.5006 -0.1485 -0.2643
 3517SOL    HW122013   0.879   0.241   5.744  0.1930 -1.4012  0.0713
 3517SOL    HW222014   1.005   0.305   5.731  0.5803 -0.2359 -0.3609
 3518SOL     OW22015   2.828   2.242  11.833  0.6490  0.6489 -0.5893
 3518SOL    HW122016   2.762   2.285  11.777 -1.0089  0.6481  1.3621
 3518SOL    HW222017   2.911   2.267  11.793  0.8863  0.3669 -0.2693
 3519SOL     OW22018   4.619   3.922  16.139  0.1572  0.1279 -0.6306
 3519SOL    HW122019   4.569   3.978  16.080 -1.6328 -0.5535  0.2704
 3519SOL    HW222020   4.606   3.970  16.221  0.7547 -1.0459  0.1551
 3520SOL     OW22021   3.979   2.900  13.267 -0.6500  0.2880 -0.3377
 3520SOL    HW122022   4.018   2.917  13.352 -1.7414 -0.1697  0.2602
 3520SOL    HW222023   4.054   2.914  13.209 -0.1001 -2.3759 -0.2861
 3521SOL     OW22024   2.017   4.121   9.151  0.3577 -0.8850 -0.0492
 3521SOL    HW122025   1.998   4.051   9.213 -0.6508 -0.5752 -0.0152
 3521SOL    HW222026   2.032   4.190   9.216  1.9395  0.1383 -1.4908
 3522SOL     OW22027   1.829   1.444   4.983 -0.4089  0.0208 -0.5860
 3522SOL    HW122028   1.809   1.520   5.038 -0.2008  1.2719 -2.2468
 3522SOL    HW222029   1.919   1.437   5.015 -0.2127  0.6043 -1.0112
 3523SOL     OW22030   4.032   0.136  11.803  0.0054 -0.0498  0.1454
 3523SOL    HW122031   4.117   0.172  11.826  0.7536 -0.7133 -1.5847
 3523SOL    HW222032   4.053   0.043  11.789  0.6706  0.1258  0.0242
 3524SOL     OW22033   3.017   2.396   4.177  0.1185 -0.0762 -0.3457
 3524SOL    HW122034   3.070   2.317   4.173 -0.7873 -0.6814 -0.3233
 3524SOL    HW222035   3.027   2.420   4.270  1.7695 -0.4882 -0.4142
 3525SOL     OW22036   2.428   0.369   0.556  0.2159 -0.3082 -0.5971
 3525SOL    HW122037   2.485   0.363   0.480 -0.5700  1.3438 -1.3130
 3525SOL    HW222038   2.397   0.279   0.570  0.9365 -0.3415  0.8618
 3526SOL     OW22039   4.567   2.587   3.820  0.4047 -0.0615  0.3973
 3526SOL    HW122040   4.529   2.549   3.899  1.4453 -2.2159 -0.1213
 3526SOL    HW222041   4.593   2.507   3.775  1.7668 -0.4707  1.9085
 3527SOL     OW22042   0.159   3.687   4.053  0.1845  0.8176  0.0730
 3527SOL    HW122043   0.207   3.769   4.040 -1.3936  2.2040  2.8832
 3527SOL    HW222044   0.075   3.729   4.070 -1.0275 -1.5090 -0.1379
 3528SOL     OW22045   0.051   4.090   5.466  0.1704  0.4712  0.5078
 3528SOL    HW122046   4.717   4.167   5.469  2.0007  1.8411 -0.7514
 3528SOL    HW222047   0.024   4.036   5.541 -1.3750  1.2940  0.5396
 3529SOL     OW22048   4.476   0.386   9.471  0.9417 -0.1387 -0.5411
 3529SOL    HW122049   4.548   0.396   9.408 -0.0420  0.7530 -1.5193
 3529SOL    HW222050   4.529   0.396   9.551 -0.2407 -0.7169  0.3147
 3530SOL     OW22051   0.584   1.661   4.894  0.1093  0.5058  0.0313
 3530SOL    HW122052   0.556   1.752   4.906 -0.9079  0.3372 -1.1319
 3530SOL    HW222053   0.521   1.615   4.949 -0.9268  2.3674  0.4253
 3531SOL     OW22054   0.296   3.635   2.302 -0.1169 -0.9247  0.2422
 3531SOL    HW122055   0.215   3.662   2.345 -1.5716 -3.5563 -0.8607
 3531SOL    HW222056   0.267   3.613   2.213 -0.1928  0.7761 -0.1605
 3532SOL     OW22057   4.531   0.567  11.175 -0.0722  0.2434 -0.2174
 3532SOL    HW122058   4.585   0.572  11.253  0.8938 -1.5878 -0.7602
 3532SOL    HW222059   4.600   0.554  11.110  0.0206  1.5489 -0.3751
 3533SOL     OW22060   2.866   4.610   4.928 -0.1411  0.1316  0.1839
 3533SOL    HW122061   2.942   4.558   4.902 -1.1721 -1.8427  1.1185
 3533SOL    HW222062   2.858   4.597   5.022 -0.3189 -0.7759  0.0418
 3534SOL     OW22063   4.191   0.504   7.101  0.0733  0.2605  0.0910
 3534SOL    HW122064   4.174   0.424   7.050 -0.4424  0.4081  0.0294
 3534SOL    HW222065   4.107   0.528   7.139  0.6602  0.6876  1.1186
 3535SOL     OW22066   2.148   1.099   0.724  0.3956 -0.3636 -0.0313
 3535SOL    HW122067   2.111   1.172   0.674 -1.6189 -1.6214 -0.4023
 3535SOL    HW222068   2.062   1.064   0.747  0.3941 -0.2980  0.0596
 3536SOL     OW22069   1.816   4.387  11.228 -0.6819 -0.1401  0.6388
 3536SOL    HW122070   1.739   4.391  11.285  0.3421 -1.0073  2.1135
 3536SOL    HW222071   1.780   4.401  11.141 -2.0629  1.0631  1.4021
 3537SOL     OW22072   0.274   2.894   9.355  0.2114  0.8657  0.2765
 3537SOL    HW122073   0.370   2.891   9.362  0.2185 -2.5979 -1.2689
 3537SOL    HW222074   0.256   2.881   9.448 -2.8716 -2.2947 -0.7944
 3538SOL     OW22075   0.188   2.729  14.087  0.1514 -0.2196 -0.0165
 3538SOL    HW122076   0.184   2.697  13.997  1.2780 -0.0070 -0.1367
 3538SOL    HW222077   0.116   2.792  14.082 -0.8243 -1.2963  0.5997
 3539SOL     OW22078   2.575   0.537   3.593 -0.3744  0.1483  0.2651
 3539SOL    HW122079   2.517   0.535   3.669  1.8379  0.9486  1.9810
 3539SOL    HW222080   2.622   0.456   3.611  0.3123 -0.0609 -2.4800
 3540SOL     OW22081   1.878   1.097  16.716 -0.3110 -0.0391  0.1466
 3540SOL    HW122082   1.858   1.077  16.624  1.4641 -1.5630  0.0697
 3540SOL    HW222083   1.881   1.192  16.720 -0.8087 -0.0488  0.7784
 3541SOL     OW22084   0.109   1.626   5.560  0.6263  0.0335  0.6220
 3541SOL    HW122085   0.096   1.637   5.654  1.8856 -0.3526  0.8328
 3541SOL    HW222086   0.098   1.716   5.529 -3.5607 -1.2360 -1.6464
 3542SOL     OW22087   2.078   3.001   8.347 -0.1929 -0.5290  0.0925
 3542SOL    HW122088   2.125   3.057   8.286 -2.6227  1.0536 -0.3177
 3542SOL    HW222089   2.065   3.055   8.425 -0.5614 -0.3579 -0.0863
 3543SOL     OW22090   3.412   2.141  14.201 -0.3277  0.0912 -0.2568
 3543SOL    HW122091   3.354   2.211  14.170  2.7195  2.7901  0.0747
 3543SOL    HW222092   3.488   2.159  14.145 -2.4549  1.3293 -2.7839
 3544SOL     OW22093   0.418   3.336   3.874  0.1707  0.1164 -0.5202
 3544SOL    HW122094   0.384   3.387   3.948 -0.1712 -0.1475 -0.4970
 3544SOL    HW222095   0.443   3.255   3.919 -1.6149 -0.0236  0.2225
 3545SOL     OW22096   4.365   3.645   8.040  0.5039  0.0513 -0.3459
 3545SOL    HW122097   4.378   3.702   8.115  2.4256 -0.4577 -0.3087
 3545SOL    HW222098   4.446   3.665   7.993  0.5089 -0.2269 -0.4574
 3546SOL     OW22099   1.304   3.232   6.062 -0.5429  0.1351  0.4233
 3546SOL    HW122100   1.399   3.233   6.052 -0.5291 -1.3999  0.3542
 3546SOL    HW222101   1.273   3.235   5.972  0.5692 -1.3040 -0.0192
 3547SOL     OW22102   0.985   0.264  12.556 -0.0191 -0.3882 -0.0467
 3547SOL    HW122103   0.976   0.331  12.623 -2.1964 -2.3437  1.6220
 3547SOL    HW222104   1.055   0.297  12.500 -0.7227 -0.8120 -1.1608
 3548SOL     OW22105   2.151   1.630   6.037  0.6199 -0.7234 -0.1568
 3548SOL    HW122106   2.094   1.575   6.091  0.1177 -0.4431 -0.4006
 3548SOL    HW222107   2.127   1.719   6.063  0.1927 -1.3955  1.7557
 3549SOL     OW22108   0.519   1.887  14.428  0.1343 -0.4950  0.0197
 3549SOL    HW122109   0.501   1.882  14.522 -2.8547 -2.8205 -0.6642
 3549SOL    HW222110   0.479   1.808  14.391 -1.0827  0.7514 -1.3186
 3550SOL     OW22111   2.360   2.576   2.690  0.0956 -0.3660 -0.0083
 3550SOL    HW122112   2.265   2.588   2.687  0.0433  0.0679  3.0203
 3550SOL    HW222113   2.390   2.663   2.716  0.4342 -0.3788 -0.3585
 3551SOL     OW22114   2.250   3.535  12.670 -0.1112  0.5025 -0.4258
 3551SOL    HW122115   2.174   3.575  12.713 -0.5886 -0.0608 -0.7299
 3551SOL    HW222116   2.265   3.577  12.585  0.1014 -0.1329 -0.7047
 3552SOL     OW22117   1.712   2.439   5.846  0.5051  0.5770  1.2639
 3552SOL    HW122118   1.700   2.362   5.902 -2.6627  0.7801  0.8945
 3552SOL    HW222119   1.807   2.433   5.842  0.4326  0.8088 -0.9658
 3553SOL     OW22120   2.197   2.856   1.901 -0.3694  0.4005 -0.5243
 3553SOL    HW122121   2.278   2.842   1.951 -1.4371 -1.1284  0.7751
 3553SOL    HW222122   2.219   2.832   1.811 -0.5890 -0.2306 -0.4131
 3554SOL     OW22123   2.547   3.208   0.368  0.0069  0.2026 -0.5240
 3554SOL    HW122124   2.505   3.212   0.282  2.1644  0.4184 -1.5881
 3554SOL    HW222125   2.509   3.287   0.406  0.7496 -0.2110  1.0821
 3555SOL     OW22126   3.257   0.125   6.941 -0.2256 -0.0751 -0.0130
 3555SOL    HW122127   3.342   0.161   6.966  0.7809 -2.6565  0.2695
 3555SOL    HW222128   3.218   0.119   7.028  0.5712 -2.1233  0.1974
 3556SOL     OW22129   1.125   4.060   3.205  0.0700  0.3816  0.2834
 3556SOL    HW122130   1.115   4.155   3.215  1.3103  0.5273  0.1399
 3556SOL    HW222131   1.032   4.039   3.192  0.8706 -1.5802 -2.2120
 3557SOL     OW22132   2.537   1.238   2.338 -0.2872  0.2849  0.4177
 3557SOL    HW122133   2.549   1.180   2.262 -1.6557  2.0473 -1.1226
 3557SOL    HW222134   2.542   1.322   2.292  1.6691 -0.2816 -0.4368
 3558SOL     OW22135   2.705   2.707   3.133 -0.4300  0.1023 -0.5632
 3558SOL    HW122136   2.735   2.650   3.203  0.0710  0.2458 -0.6630
 3558SOL    HW222137   2.688   2.787   3.183 -1.9521  0.9416 -2.3978
 3559SOL     OW22138   0.443   0.571   3.547  0.0391 -0.5817  0.2206
 3559SOL    HW122139   0.404   0.598   3.630 -4.2164  0.2953 -2.1168
 3559SOL    HW222140   0.362   0.563   3.497  0.1553  1.0946 -0.2422
 3560SOL     OW22141   3.570   2.890   1.953  0.3053  0.2663 -0.4420
 3560SOL    HW122142   3.600   2.955   2.015 -3.2451  0.3726  1.1846
 3560SOL    HW222143   3.652   2.848   1.929  0.1766 -0.5897  0.6104
 3561SOL     OW22144   1.841   0.321   7.975  0.5635  0.7008 -0.6829
 3561SOL    HW122145   1.811   0.347   7.888 -1.5937 -0.9672 -0.4333
 3561SOL    HW222146   1.889   0.244   7.944 -0.8406  0.8037 -3.1302
 3562SOL     OW22147   2.590   2.177  14.306  0.2274  0.1253  0.1642
 3562SOL    HW122148   2.649   2.112  14.343  1.2490 -1.2859 -3.9526
 3562SOL    HW222149   2.540   2.195  14.385 -2.1515  1.1212 -1.5547
 3563SOL     OW22150   2.208   0.957   8.511  0.3265 -0.3749 -0.6331
 3563SOL    HW122151   2.161   1.010   8.576  0.3769 -0.0542 -0.8568
 3563SOL    HW222152   2.261   0.903   8.569 -1.0898 -1.4212 -0.3116
 3564SOL     OW22153   3.774   0.241   5.810  0.0650 -0.0326  0.0055
 3564SOL    HW122154   3.749   0.312   5.869 -0.6626  0.6546 -1.1210
 3564SOL    HW222155   3.764   0.290   5.729  0.7862  0.0811 -0.0062
 3565SOL     OW22156   2.593   3.108   2.097  0.1366  0.6641 -0.9082
 3565SOL    HW122157   2.604   3.015   2.076 -0.2308  0.3240  0.4179
 3565SOL    HW222158   2.573   3.133   2.007 -2.5186 -0.2194 -0.5652
 3566SOL     OW22159   1.159   0.402  12.395 -0.4290  0.6544 -0.4169
 3566SOL    HW122160   1.223   0.363  12.454 -1.0433  0.3251  0.0387
 3566SOL    HW222161   1.162   0.496  12.407  0.7161  0.6722 -0.9039
 3567SOL     OW22162   1.865   0.836  11.563  0.6722  0.4491 -0.1005
 3567SOL    HW122163   1.837   0.880  11.483  1.9290 -1.4818 -1.5956
 3567SOL    HW222164   1.917   0.905  11.604  1.7341 -1.6565  2.0642
 3568SOL     OW22165   3.604   3.372   3.463 -0.0289  0.8072 -0.2191
 3568SOL    HW122166   3.615   3.362   3.558 -4.9748 -0.9681  0.1225
 3568SOL    HW222167   3.510   3.357   3.462  0.2601 -1.0960  0.7024
 3569SOL     OW22168   0.589   1.336  10.596  0.3152 -0.1637 -0.4359
 3569SOL    HW122169   0.572   1.402  10.663  2.3767 -1.2328  1.1193
 3569SOL    HW222170   0.502   1.331  10.556  0.0966 -0.1614  0.0425
 3570SOL     OW22171   4.390   4.667   2.270  0.4710  0.2649  0.4576
 3570SOL    HW122172   4.333   4.631   2.202  1.0998  0.4604 -0.1642
 3570SOL    HW222173   4.480   4.648   2.244  0.0653 -1.9113  0.6550
 3571SOL     OW22174   3.654   2.329   1.650  0.4670  0.2340 -0.2714
 3571SOL    HW122175   3.612   2.353   1.567 -0.5828  0.8787  0.4397
 3571SOL    HW222176   3.680   2.417   1.677  1.2311 -0.2738  0.6029
 3572SOL     OW22177   4.180   3.417  17.561  0.3516  0.2369 -0.4995
 3572SOL    HW122178   4.166   3.461  17.477  3.1543 -0.2428 -1.2214
 3572SOL    HW222179   4.220   3.335  17.533 -2.1126 -1.5290  1.1666
 3573SOL     OW22180   4.630   0.863   5.434 -0.6899 -0.2855 -0.2208
 3573SOL    HW122181   4.619   0.929   5.502  0.6962 -0.4743  0.1885
 3573SOL    HW222182   4.671   0.790   5.481  0.5052 -0.8552 -2.1511
 3574SOL     OW22183   1.881   0.121  13.130  0.1465 -0.0490 -0.0677
 3574SOL    HW122184   1.944   0.134  13.060 -1.6936 -1.2584 -1.9846
 3574SOL    HW222185   1.865   0.209  13.164 -0.9067 -1.1498  2.3122
 3575SOL     OW22186   4.423   3.065   4.824 -0.1540 -0.3014 -0.4063
 3575SOL    HW122187   4.462   3.050   4.738 -2.4074 -1.3763 -1.2596
 3575SOL    HW222188   4.361   2.992   4.815  0.4834 -0.8579 -0.2280
 3576SOL     OW22189   3.011   4.314   7.255 -0.2896 -0.5097 -0.3638
 3576SOL    HW122190   2.975   4.243   7.203  0.8050 -3.1323  2.4415
 3576SOL    HW222191   3.078   4.353   7.199 -2.4367  2.0887 -1.1055
 3577SOL     OW22192   0.598   1.579   8.294  0.7967  0.0749 -0.6028
 3577SOL    HW122193   0.573   1.492   8.264 -2.2626  1.3588 -1.7728
 3577SOL    HW222194   0.635   1.550   8.377 -0.1323 -2.1915 -0.9812
 3578SOL     OW22195   2.935   0.655  16.397 -0.2955  0.7246 -0.3915
 3578SOL    HW122196   2.938   0.742  16.437 -0.5096 -0.0698  1.3649
 3578SOL    HW222197   2.866   0.618  16.453  0.7964 -0.9579 -0.1571
 3579SOL     OW22198   2.150   1.946   1.258 -0.5788 -0.2118  0.0338
 3579SOL    HW122199   2.186   1.883   1.320 -0.2155 -0.7871 -0.7607
 3579SOL    HW222200   2.173   1.913   1.171  1.5297  1.2198  0.0576
 3580SOL     OW22201   0.185   1.514   5.240 -0.4062 -0.1397 -0.0126
 3580SOL    HW122202   0.213   1.586   5.296 -0.3297 -0.6902  0.6598
 3580SOL    HW222203   0.140   1.568   5.175 -0.8469  0.0969  0.4903
 3581SOL     OW22204   0.158   1.246   5.276 -0.9411 -0.1630 -0.5384
 3581SOL    HW122205   0.182   1.333   5.245  1.4265  0.0269  1.7757
 3581SOL    HW222206   0.096   1.217   5.209  0.6749 -1.3595 -1.5526
 3582SOL     OW22207   2.274   4.127   8.417  0.1669 -0.3205 -0.4724
 3582SOL    HW122208   2.199   4.067   8.413  0.2124 -0.4995  1.3217
 3582SOL    HW222209   2.285   4.128   8.512  0.8058 -2.9692 -0.5314
 3583SOL     OW22210   0.488   3.254   2.806  0.0840  0.3576 -0.0136
 3583SOL    HW122211   0.571   3.296   2.828  0.0496  0.4851 -0.1310
 3583SOL    HW222212   0.466   3.204   2.884  2.7942 -0.8887 -0.0171
 3584SOL     OW22213   4.335   0.565  16.136  0.2990 -0.1854 -0.2453
 3584SOL    HW122214   4.332   0.622  16.213 -2.5457  0.9583 -1.2077
 3584SOL    HW222215   4.314   0.618  16.059 -0.1716  1.3730  0.9455
 3585SOL     OW22216   3.998   3.346   0.786 -0.0856 -0.4087  0.4804
 3585SOL    HW122217   4.074   3.322   0.731 -0.6090 -0.1847 -0.3444
 3585SOL    HW222218   4.014   3.439   0.798  3.7150 -0.9600 -0.2608
 3586SOL     OW22219   2.480   0.103  16.827 -0.3014 -0.1128 -0.6060
 3586SOL    HW122220   2.501   0.025  16.879  1.2519  0.5973 -0.1611
 3586SOL    HW222221   2.471   0.057  16.744  2.0216 -0.1548 -0.8346
 3587SOL     OW22222   4.641   3.066   1.626 -0.3619 -0.1742  0.0684
 3587SOL    HW122223   4.688   3.119   1.691  0.7359 -0.0243 -0.8538
 3587SOL    HW222224   4.604   3.128   1.563 -0.1555 -0.2898 -0.1644
 3588SOL     OW22225   2.364   3.382   6.310 -0.2849 -0.0069  0.1922
 3588SOL    HW122226   2.363   3.311   6.245  2.0683  0.1561 -0.0402
 3588SOL    HW222227   2.281   3.424   6.290 -1.3086 -2.7152 -1.3148
 3589SOL     OW22228   1.883   3.372   7.922 -0.2797 -0.0215  0.4947
 3589SOL    HW122229   1.900   3.430   7.996 -1.1586  0.5361  0.2480
 3589SOL    HW222230   1.790   3.388   7.910  0.0180  1.0385 -0.3759
 3590SOL     OW22231   1.698   1.828   8.731 -0.2557 -0.0485  0.5793
 3590SOL    HW122232   1.624   1.782   8.692  0.1491  0.4485 -0.7607
 3590SOL    HW222233   1.740   1.757   8.780 -1.0309 -1.8415 -1.3548
 3591SOL     OW22234   4.301   4.118   7.028  0.5020 -0.5881 -0.7427
 3591SOL    HW122235   4.227   4.101   6.969  1.7460  0.5488 -2.6228
 3591SOL    HW222236   4.255   4.158   7.101 -1.0016 -1.3034 -1.2956
 3592SOL     OW22237   4.522   2.854   3.315 -0.2119  0.2450 -0.0349
 3592SOL    HW122238   4.495   2.932   3.267 -2.1776 -0.2122  0.3471
 3592SOL    HW222239   4.443   2.829   3.362 -0.0904  0.9129  0.5146
 3593SOL     OW22240   1.224   1.230   7.023 -0.5163 -0.1899 -0.1075
 3593SOL    HW122241   1.234   1.218   7.117  0.0570 -1.8616 -0.3844
 3593SOL    HW222242   1.316   1.232   6.997 -0.4174 -0.1734  0.2435
 3594SOL     OW22243   0.201   2.996   2.108  0.3474  0.7201 -0.0340
 3594SOL    HW122244   0.261   2.991   2.183  0.5434  0.4607 -0.2052
 3594SOL    HW222245   0.126   2.947   2.141 -0.4361  0.0632 -2.8002
 3595SOL     OW22246   2.649   0.900  13.323 -0.3285  0.7357 -0.7349
 3595SOL    HW122247   2.614   0.811  13.328  1.9807 -0.1416 -0.3500
 3595SOL    HW222248   2.570   0.951  13.303 -0.9020  1.3047  2.9315
 3596SOL     OW22249   0.172   1.163   5.817  0.3739  0.0849 -0.4858
 3596SOL    HW122250   0.261   1.153   5.852 -0.4689  0.7565  1.8049
 3596SOL    HW222251   0.188   1.224   5.745 -0.2137  0.1997 -0.5189
 3597SOL     OW22252   2.152   2.990  11.495  0.0338 -0.1722  0.2879
 3597SOL    HW122253   2.149   3.077  11.534  0.6778  0.8149 -1.8243
 3597SOL    HW222254   2.232   2.997  11.442  0.1421  1.2020  0.6310
 3598SOL     OW22255   0.627   3.235   2.430 -0.0455 -0.6833 -0.1728
 3598SOL    HW122256   0.557   3.302   2.429  2.4967  1.9484 -1.1882
 3598SOL    HW222257   0.640   3.223   2.337  0.0570  2.4154 -0.5772
 3599SOL     OW22258   3.321   4.147  10.749 -0.3826  0.1717 -0.6378
 3599SOL    HW122259   3.240   4.198  10.749 -0.2054  0.4522 -0.5963
 3599SOL    HW222260   3.324   4.113  10.659 -1.1112 -0.9487 -0.2438
 3600SOL     OW22261   0.401   3.185   0.822  0.3517  0.4687  0.7946
 3600SOL    HW122262   0.355   3.177   0.738  2.4890  2.6251 -0.6075
 3600SOL    HW222263   0.323   3.202   0.875 -0.3805 -0.6534  0.0896
 3601SOL     OW22264   1.938   4.291  10.514 -0.0433 -0.2813  0.5980
 3601SOL    HW122265   1.887   4.243  10.579 -1.3611  1.3182  0.7456
 3601SOL    HW222266   1.888   4.281  10.433 -1.4457 -2.0711  1.6847
 3602SOL     OW22267   2.068   4.705   9.415 -0.2230 -0.2098  0.0875
 3602SOL    HW122268   1.992   4.661   9.452 -2.0974  2.3203 -0.8152
 3602SOL    HW222269   2.122   4.627   9.399 -1.7668 -1.3675  0.5558
 3603SOL     OW22270   3.951   0.319  12.189  0.7098 -0.4163  0.1637
 3603SOL    HW122271   3.922   0.272  12.111  0.8425 -0.4664  0.1443
 3603SOL    HW222272   3.912   0.403  12.163 -1.1053 -1.1051  0.6604
 3604SOL     OW22273   1.025   2.376   0.333  0.3102  0.0502  0.0977
 3604SOL    HW122274   1.058   2.351   0.247  0.0859 -1.0638  0.3352
 3604SOL    HW222275   1.067   2.303   0.378 -3.2437 -1.2319  1.3992
 3605SOL     OW22276   2.760   4.534   0.883 -0.1914 -0.7198 -0.2600
 3605SOL    HW122277   2.809   4.616   0.875 -1.3790  0.1211  1.2280
 3605SOL    HW222278   2.825   4.464   0.880  0.8750  0.1584  2.0206
 3606SOL     OW22279   0.667   3.624   7.188 -0.3487 -0.0048 -0.1409
 3606SOL    HW122280   0.757   3.596   7.172 -1.1391 -1.9420 -1.2167
 3606SOL    HW222281   0.618   3.558   7.139  0.9578 -0.7948 -0.3806
 3607SOL     OW22282   1.490   3.971   3.169  0.3259  0.0676  0.1462
 3607SOL    HW122283   1.470   4.049   3.118  0.3448  0.2255  0.3839
 3607SOL    HW222284   1.549   3.931   3.104 -0.4905  0.1021 -0.6146
 3608SOL     OW22285   4.272   1.909   6.868  0.0185 -0.3964  0.5158
 3608SOL    HW122286   4.361   1.908   6.834 -0.0577 -0.3505  0.3119
 3608SOL    HW222287   4.261   2.003   6.855  1.6304 -0.0122  1.9046
 3609SOL     OW22288   1.329   4.659  12.949  0.4708  0.0507  0.4345
 3609SOL    HW122289   1.334   4.579  12.896  0.2556  0.6901 -0.5511
 3609SOL    HW222290   1.309   0.008  12.888 -0.9616 -1.2134 -0.5770
 3610SOL     OW22291   1.474   2.124   3.223 -0.0089  0.3136  0.3933
 3610SOL    HW122292   1.538   2.054   3.233  0.7660  1.1091  1.0727
 3610SOL    HW222293   1.415   2.089   3.157  1.6670  0.5226 -1.2331
 3611SOL     OW22294   1.192   0.369   2.931 -0.1844 -0.5674  0.0091
 3611SOL    HW122295   1.103   0.364   2.965 -0.1371  0.3593  0.2644
 3611SOL    HW222296   1.199   0.275   2.916  0.5644 -0.3855 -0.8082
 3612SOL     OW22297   2.781   3.596  17.447 -0.8805 -0.5207 -0.0513
 3612SOL    HW122298   2.690   3.615  17.473  0.1009  0.6732  2.5146
 3612SOL    HW222299   2.770   3.503  17.426  2.2292 -0.4921 -1.7753
 3613SOL     OW22300   4.621   1.785   7.585  0.4389  0.1879 -0.2431
 3613SOL    HW122301   4.597   1.693   7.586 -1.1650  0.6198  1.2839
 3613SOL    HW222302   4.643   1.798   7.677 -0.6050  4.5372 -0.5976
 3614SOL     OW22303   2.659   3.510   3.103 -0.4872  0.5129  0.2664
 3614SOL    HW122304   2.573   3.506   3.144  0.3319 -0.6226  1.8896
 3614SOL    HW222305   2.661   3.605   3.088 -1.0263  0.1211 -2.3482
 3615SOL     OW22306   2.918   4.360   0.527 -0.0080  0.4085 -0.6269
 3615SOL    HW122307   2.998   4.363   0.475  0.8008 -1.1979  0.5415
 3615SOL    HW222308   2.885   4.276   0.495  1.1665  0.0470 -0.8633
 3616SOL     OW22309   4.672   0.531   7.321 -0.3793  0.2165  0.3047
 3616SOL    HW122310   4.598   0.518   7.262 -0.6229  0.7404  0.4970
 3616SOL    HW222311   0.020   0.472   7.292 -0.3891 -0.0854  0.8990
 3617SOL     OW22312   1.704   1.026   7.996  0.4117 -0.2108 -0.1123
 3617SOL    HW122313   1.653   0.982   8.064 -0.6675 -0.0049 -0.7850
 3617SOL    HW222314   1.629   1.068   7.954 -0.4088 -0.7458  0.8283
 3618SOL     OW22315   4.494   1.774   9.497  0.1826  0.0921 -0.5458
 3618SOL    HW122316   4.520   1.823   9.575 -0.8514 -2.1206  1.2116
 3618SOL    HW222317   4.502   1.688   9.539  1.5587  0.3639 -0.2480
 3619SOL     OW22318   0.394   0.064   3.367 -0.4865 -0.0533 -0.9131
 3619SOL    HW122319   0.370   0.156   3.357 -1.7174 -0.3068 -0.1689
 3619SOL    HW222320   0.395   0.046   3.273 -0.4184 -1.3653 -0.6672
 3620SOL     OW22321   2.579   1.937   3.409 -0.3612  0.4566  0.0765
 3620SOL    HW122322   2.665   1.910   3.376 -0.0416  0.7758  0.6627
 3620SOL    HW222323   2.581   2.032   3.399 -1.5453  0.5673  0.8839
 3621SOL     OW22324   3.192   4.087  13.064 -0.2378  0.3324 -0.2435
 3621SOL    HW122325   3.116   4.083  13.123 -1.2319  0.3223 -1.5208
 3621SOL    HW222326   3.224   3.997  13.069 -1.3710 -0.0315  0.4313
 3622SOL     OW22327   1.062   3.234   4.050 -0.3386  0.2071  0.1902
 3622SOL    HW122328   1.150   3.230   4.086  0.2564  2.6980 -0.9836
 3622SOL    HW222329   1.076   3.315   4.001 -1.8860 -0.7547 -1.8707
 3623SOL     OW22330   1.074   2.136   8.259  0.8293 -0.2119  0.3060
 3623SOL    HW122331   1.169   2.143   8.247  0.4847  0.5417 -2.0129
 3623SOL    HW222332   1.050   2.177   8.342 -1.0840 -1.7526  0.5123
 3624SOL     OW22333   3.466   0.873   6.033  0.4510 -0.1702  0.0312
 3624SOL    HW122334   3.410   0.798   6.010  0.6910 -0.7090  1.1925
 3624SOL    HW222335   3.518   0.864   5.953  1.7098  1.3042  0.6922
 3625SOL     OW22336   0.660   3.061  15.015 -0.4933  0.4769 -0.1226
 3625SOL    HW122337   0.689   2.989  15.071  0.6607 -0.3084 -1.7603
 3625SOL    HW222338   0.572   3.079  15.047 -1.0036 -3.2321  0.6110
 3626SOL     OW22339   1.669   3.201  15.504  0.0001 -0.5129  0.2004
 3626SOL    HW122340   1.694   3.152  15.582 -1.2981  2.1570  2.2868
 3626SOL    HW222341   1.591   3.156  15.472  0.6243  0.9246 -3.3411
 3627SOL     OW22342   1.811   1.721   1.599  0.2586 -0.4129 -0.4272
 3627SOL    HW122343   1.810   1.625   1.595 -1.7767 -0.4863  1.6291
 3627SOL    HW222344   1.825   1.749   1.509  0.9451 -1.5139 -0.6633
 3628SOL     OW22345   0.778   2.640   0.618  0.0783  0.0879  0.4543
 3628SOL    HW122346   0.711   2.692   0.663 -1.8392 -0.4264 -1.8471
 3628SOL    HW222347   0.796   2.577   0.688 -0.1007 -0.3578  0.0980
 3629SOL     OW22348   1.582   3.986   9.036  0.2474 -0.2192  0.3421
 3629SOL    HW122349   1.499   3.945   9.061  0.5904 -0.7148  0.6667
 3629SOL    HW222350   1.590   3.980   8.941 -0.2315 -0.1125  0.2951
 3630SOL     OW22351   2.272   2.891  17.631  0.2228  0.7416  0.2185
 3630SOL    HW122352   2.333   2.872   0.011  1.3096  1.2724 -0.5837
 3630SOL    HW222353   2.288   2.985  17.620  0.4304  0.8884  1.8080
 3631SOL     OW22354   2.303   4.109   1.842  0.3482  0.2111 -0.1944
 3631SOL    HW122355   2.367   4.094   1.912  0.4280 -1.0397 -0.5502
 3631SOL    HW222356   2.223   4.103   1.893 -0.9213  2.9358 -1.8324
 3632SOL     OW22357   0.547   0.344   5.221 -0.5217  0.1069  0.4070
 3632SOL    HW122358   0.528   0.287   5.146 -1.7315 -0.0577  0.8455
 3632SOL    HW222359   0.636   0.322   5.247  0.3328  1.1969 -1.5227
 3633SOL     OW22360   0.223   2.657   2.078 -0.9527  0.4284  0.1694
 3633SOL    HW122361   0.297   2.687   2.024 -0.1087 -2.3271 -0.1898
 3633SOL    HW222362   0.257   2.569   2.093 -2.4354  0.0848  1.4493
 3634SOL     OW22363   2.803   0.473   6.290 -0.1192 -0.5550  0.0710
 3634SOL    HW122364   2.835   0.518   6.367  0.8307 -2.5042  0.8111
 3634SOL    HW222365   2.796   0.382   6.320  0.0494 -1.6677 -3.1656
 3635SOL     OW22366   0.465   2.123   7.375  0.3924  0.4317 -0.1792
 3635SOL    HW122367   0.392   2.090   7.324 -0.5223  0.5470  1.0593
 3635SOL    HW222368   0.430   2.207   7.405 -2.1821 -0.4778 -0.6328
 3636SOL     OW22369   2.936   4.643  14.042 -0.0359  0.3278  0.2001
 3636SOL    HW122370   2.970   0.009  14.055  0.9350  0.1143 -0.8818
 3636SOL    HW222371   2.857   4.651  14.096  0.4677 -0.3358  1.0391
 3637SOL     OW22372   0.005   3.610  16.259 -0.2967 -0.2909  0.5794
 3637SOL    HW122373   0.089   3.624  16.302 -0.6478  2.0672  0.4773
 3637SOL    HW222374   4.673   3.658  16.322 -0.7045  0.8667 -0.6701
 3638SOL     OW22375   1.112   0.595  10.462  0.1209  0.1096  0.0560
 3638SOL    HW122376   1.187   0.616  10.517 -0.0980 -0.7008  0.6693
 3638SOL    HW222377   1.063   0.676  10.477  0.8554  0.4830  0.4327
 3639SOL     OW22378   1.617   1.610   1.041 -0.1317 -0.0008  0.2056
 3639SOL    HW122379   1.559   1.588   1.115 -1.1964 -0.0585 -0.6406
 3639SOL    HW222380   1.677   1.536   1.048  2.9570  2.5515  0.8343
 3640SOL     OW22381   1.869   4.622  10.828  0.4291 -0.1147 -0.4599
 3640SOL    HW122382   1.925   4.683  10.874  0.6913 -0.2136 -0.6504
 3640SOL    HW222383   1.811   4.596  10.900  0.5343 -1.2300 -0.7736
 3641SOL     OW22384   0.694   0.789   2.779  0.6670 -0.2898  0.0753
 3641SOL    HW122385   0.784   0.774   2.808  0.4141 -1.9439  0.0016
 3641SOL    HW222386   0.654   0.704   2.797  0.3146 -0.5793 -2.0425
 3642SOL     OW22387   3.256   2.711   1.314  0.8093  0.1837 -0.3551
 3642SOL    HW122388   3.338   2.742   1.276  0.2836  1.9327 -0.0769
 3642SOL    HW222389   3.279   2.716   1.407 -1.2592  0.1447  0.1572
 3643SOL     OW22390   3.473   2.837   7.528  0.3519 -0.1635 -0.1477
 3643SOL    HW122391   3.448   2.767   7.589 -1.0754  0.3494 -0.1322
 3643SOL    HW222392   3.392   2.887   7.513  1.6670  1.5696 -1.4179
 3644SOL     OW22393   0.059   3.874   7.115 -0.1822  0.3036  0.1849
 3644SOL    HW122394   0.078   3.797   7.061  0.6723  0.0038  0.9174
 3644SOL    HW222395   4.707   3.914   7.069 -0.7612 -2.3545 -1.1800
 3645SOL     OW22396   2.907   2.131   2.617 -0.7152  0.3791 -0.6411
 3645SOL    HW122397   2.866   2.090   2.540  0.9476 -0.8203 -0.8862
 3645SOL    HW222398   2.929   2.218   2.583  2.0548 -0.4687 -1.0513
 3646SOL     OW22399   0.407   4.354   2.913 -0.1514  0.3574  0.5907
 3646SOL    HW122400   0.433   4.338   2.822 -1.4508 -1.5525  0.5715
 3646SOL    HW222401   0.451   4.292   2.971  0.4202  1.6129  1.4960
 3647SOL     OW22402   3.385   4.219   5.918  0.0036  0.0697  0.1988
 3647SOL    HW122403   3.452   4.283   5.939 -0.2079  0.6469 -0.9183
 3647SOL    HW222404   3.350   4.248   5.833  0.0476 -0.2532  0.0705
 3648SOL     OW22405   0.604   3.534   6.559 -0.5290  0.2437  0.3468
 3648SOL    HW122406   0.548   3.557   6.634 -1.1004 -0.0982  0.0284
 3648SOL    HW222407   0.542   3.524   6.487  0.0802  0.0150 -0.1422
 3649SOL     OW22408   3.211   1.082   7.355 -0.1500 -0.1006  0.2600
 3649SOL    HW122409   3.193   1.162   7.307 -0.4474  0.3012  1.0392
 3649SOL    HW222410   3.162   1.017   7.305  2.0807 -2.4493  1.0876
 3650SOL     OW22411   1.531   3.897   7.149  0.0748  0.3728 -0.1351
 3650SOL    HW122412   1.555   3.819   7.198 -0.9847  0.5277  0.6374
 3650SOL    HW222413   1.465   3.937   7.206 -0.7360  0.3693 -1.0726
 3651SOL     OW22414   2.008   0.232   6.129 -0.3950 -0.0959  0.2837
 3651SOL    HW122415   1.982   0.313   6.086 -1.8851 -0.8347 -0.2083
 3651SOL    HW222416   2.064   0.266   6.199 -0.5029  0.2413  0.2083
 3652SOL     OW22417   1.517   1.272   8.117 -0.1757  1.0749 -0.2265
 3652SOL    HW122418   1.466   1.191   8.113  0.8443  0.5261 -2.2556
 3652SOL    HW222419   1.450   1.336   8.142 -0.0027  1.2405 -0.1820
 3653SOL     OW22420   1.532   3.314   7.442 -0.1674 -0.1800 -0.2659
 3653SOL    HW122421   1.574   3.234   7.474  0.6393 -0.7875 -2.8872
 3653SOL    HW222422   1.573   3.321   7.356 -0.8759 -0.0597 -0.6007
 3654SOL     OW22423   0.758   4.179   9.115  0.3367  0.1114 -0.5232
 3654SOL    HW122424   0.840   4.227   9.131  1.2548 -1.6457  0.0289
 3654SOL    HW222425   0.766   4.122   9.191  0.0581 -0.0920 -0.6474
 3655SOL     OW22426   0.877   4.710  12.826  0.1167  0.5536  0.2025
 3655SOL    HW122427   0.895   0.080  12.842 -0.4899  1.1139 -2.2452
 3655SOL    HW222428   0.868   4.681  12.917  0.4299 -0.6183 -0.1394
 3656SOL     OW22429   4.474   4.031   8.668  0.0340 -0.8546 -0.0204
 3656SOL    HW122430   4.393   4.024   8.616  0.7665 -1.0716 -1.1385
 3656SOL    HW222431   4.502   3.943   8.690 -0.6641 -1.0798 -0.0468
 3657SOL     OW22432   4.487   3.095  10.335  0.2752  0.0189 -0.5323
 3657SOL    HW122433   4.392   3.090  10.351  0.4322 -2.3682 -0.3867
 3657SOL    HW222434   4.517   3.162  10.397  0.9694 -1.8561  1.1577
 3658SOL     OW22435   1.726   0.269   5.930 -0.1441 -0.0310  0.0626
 3658SOL    HW122436   1.796   0.335   5.929  1.3243 -1.6598 -3.0246
 3658SOL    HW222437   1.776   0.189   5.945 -1.5389 -0.9565 -0.2299
 3659SOL     OW22438   0.098   0.477  14.670 -0.3022  0.2662 -1.1868
 3659SOL    HW122439   0.014   0.497  14.628 -0.4293  4.4373  1.0817
 3659SOL    HW222440   0.149   0.439  14.599  1.1619 -0.4218  0.2355
 3660SOL     OW22441   4.393   1.776   1.152  0.2732 -0.9219 -0.2322
 3660SOL    HW122442   4.372   1.766   1.245 -0.5984  1.4394 -0.1691
 3660SOL    HW222443   4.311   1.800   1.108  0.8070  0.6444 -0.3632
 3661SOL     OW22444   1.693   3.785   3.800 -0.2259 -0.4016 -0.3522
 3661SOL    HW122445   1.688   3.853   3.867 -0.2665 -0.8125  0.0645
 3661SOL    HW222446   1.632   3.721   3.835  0.7718 -0.5163  1.1831
 3662SOL     OW22447   4.409   0.694  17.067  0.2028 -0.7080 -0.1789
 3662SOL    HW122448   4.373   0.717  17.153 -2.1806 -0.2587 -1.2850
 3662SOL    HW222449   4.447   0.607  17.076  0.2547 -0.7318 -0.6406
 3663SOL     OW22450   3.444   1.479   3.675 -0.1386 -0.2151 -0.5615
 3663SOL    HW122451   3.487   1.474   3.590  1.8093 -0.6138  0.4565
 3663SOL    HW222452   3.415   1.387   3.679 -0.5978 -0.0219  0.6476
 3664SOL     OW22453   1.110   1.158   4.450  0.3304 -0.0051 -0.6559
 3664SOL    HW122454   1.196   1.201   4.456 -0.1224  0.7934  0.1148
 3664SOL    HW222455   1.057   1.218   4.398 -0.2886  0.0468  0.0358
 3665SOL     OW22456   4.433   4.007   3.423  0.6279 -0.4565 -0.3164
 3665SOL    HW122457   4.368   4.061   3.376  1.0034  0.3862  0.1436
 3665SOL    HW222458   4.440   4.048   3.509  0.5126  0.4224 -0.7233
 3666SOL     OW22459   0.613   3.249  15.292  0.1944  0.2437  0.0718
 3666SOL    HW122460   0.547   3.190  15.255  0.2280  1.1915 -1.4847
 3666SOL    HW222461   0.635   3.219  15.380 -0.6231  3.4262  1.3670
 3667SOL     OW22462   0.024   0.263   6.656 -0.3272  0.5883  0.0307
 3667SOL    HW122463   0.029   0.191   6.593 -0.4772 -2.5425  3.5523
 3667SOL    HW222464   0.110   0.301   6.670  0.0730 -0.6587  1.0182
 3668SOL     OW22465   2.505   3.243   2.355  0.2773 -0.4908 -0.6358
 3668SOL    HW122466   2.521   3.258   2.262  0.3336  1.6201 -0.2847
 3668SOL    HW222467   2.580   3.192   2.386  0.5630  1.0935  1.2668
 3669SOL     OW22468   1.385   0.793   4.313 -0.1080  0.2024 -0.3280
 3669SOL    HW122469   1.412   0.724   4.374  1.2595 -1.6545 -3.0101
 3669SOL    HW222470   1.328   0.750   4.249  0.3488 -2.5606  1.1055
 3670SOL     OW22471   2.872   4.631   3.100 -0.5355  0.6826  0.0295
 3670SOL    HW122472   2.896   4.575   3.026 -0.4783  1.0850 -0.2547
 3670SOL    HW222473   2.953   4.678   3.121  0.2572 -0.7361  0.2002
 3671SOL     OW22474   0.360   4.319   8.062  0.8826  0.2737 -0.0040
 3671SOL    HW122475   0.427   4.323   7.994  1.4504  1.2139  0.6087
 3671SOL    HW222476   0.321   4.233   8.050  1.9699 -0.1788 -0.2750
 3672SOL     OW22477   4.524   0.384  16.332 -0.0251  0.6666 -0.4700
 3672SOL    HW122478   4.463   0.414  16.264 -2.7708 -1.8899  0.8254
 3672SOL    HW222479   4.485   0.425  16.408 -3.4847 -0.3902 -1.6334
 3673SOL     OW22480   2.038   0.005   6.708  0.3830  0.2635 -0.2800
 3673SOL    HW122481   2.056   4.670   6.782 -0.4373 -0.2220 -0.4566
 3673SOL    HW222482   2.030   0.097   6.735 -0.2222 -0.3437  1.6170
 3674SOL     OW22483   1.033   3.937   2.036 -0.3229  0.3067  0.5938
 3674SOL    HW122484   1.108   3.906   2.087 -0.6580  1.0484  1.5442
 3674SOL    HW222485   1.056   3.926   1.944  1.3282 -2.3569  1.3131
 3675SOL     OW22486   4.016   4.492   4.088 -0.1819  0.3107  0.1168
 3675SOL    HW122487   4.106   4.521   4.070 -0.5399  0.9081 -0.7041
 3675SOL    HW222488   3.984   4.446   4.011  0.4523 -0.3849  0.2622
 3676SOL     OW22489   3.210   3.483   5.705  0.1423  0.1218 -0.2957
 3676SOL    HW122490   3.152   3.429   5.759 -4.0299  3.0031 -1.9105
 3676SOL    HW222491   3.265   3.517   5.776  0.4850  0.8824 -0.9241
 3677SOL     OW22492   3.769   1.197   6.566  0.0433 -0.2061 -0.5383
 3677SOL    HW122493   3.792   1.243   6.647  1.6567  1.0151 -1.6777
 3677SOL    HW222494   3.781   1.104   6.585  0.2912  0.4159  2.3446
 3678SOL     OW22495   0.134   2.510   3.767 -0.4539  0.0795  0.5643
 3678SOL    HW122496   0.125   2.604   3.778 -1.5746 -0.1382  1.4731
 3678SOL    HW222497   0.055   2.482   3.721 -1.3383 -1.4072  2.9434
 3679SOL     OW22498   0.932   1.173   4.078 -0.3835  0.1997  0.1187
 3679SOL    HW122499   1.018   1.172   4.119  0.2174 -1.4092 -1.1793
 3679SOL    HW222500   0.950   1.241   4.013  0.2271 -0.7703 -0.7310
 3680SOL     OW22501   2.004   2.124   1.427  0.1982 -0.3071 -0.0668
 3680SOL    HW122502   1.917   2.086   1.438  0.8108 -1.6927 -0.0601
 3680SOL    HW222503   2.049   2.046   1.396 -1.6892 -0.1498 -3.2080
 3681SOL     OW22504   3.787   0.378  11.422  0.2125 -0.0386 -0.5283
 3681SOL    HW122505   3.709   0.433  11.426  1.0312  1.1475 -1.0482
 3681SOL    HW222506   3.806   0.357  11.331 -4.2650  0.7896 -1.6352
 3682SOL     OW22507   0.279   1.855   8.952 -0.5676  0.1718 -0.1069
 3682SOL    HW122508   0.278   1.951   8.944  1.4108  0.3933  2.3094
 3682SOL    HW222509   0.186   1.836   8.964 -0.2777 -1.2410 -0.1370
 3683SOL     OW22510   0.834   2.198   3.431  0.2067 -0.7687 -0.8888
 3683SOL    HW122511   0.754   2.189   3.379  0.2524  0.4533 -1.1759
 3683SOL    HW222512   0.866   2.109   3.415  0.0077 -0.9870 -0.0907
 3684SOL     OW22513   4.552   4.287  17.673 -0.2426  0.1380  0.5808
 3684SOL    HW122514   4.495   4.364  17.676  0.9121  0.9659  1.1915
 3684SOL    HW222515   4.541   4.267   0.075 -1.9537 -1.9180 -0.0810
 3685SOL     OW22516   0.684   1.350   8.111  0.0282 -0.0948  0.1726
 3685SOL    HW122517   0.678   1.279   8.047 -1.6114 -0.6905  0.9917
 3685SOL    HW222518   0.742   1.416   8.073  0.5215 -0.0385  1.0198
 3686SOL     OW22519   1.441   3.437  10.841  0.0981 -0.4541 -0.0692
 3686SOL    HW122520   1.347   3.441  10.823  0.1223 -1.3580 -0.4195
 3686SOL    HW222521   1.433   3.382  10.918 -2.9170  0.3729  0.2110
 3687SOL     OW22522   3.279   4.464   6.539  0.1890  0.6393  0.3785
 3687SOL    HW122523   3.268   4.504   6.625  0.2027  0.3131  0.5318
 3687SOL    HW222524   3.373   4.446   6.546 -0.0070 -1.0658 -1.3761
 3688SOL     OW22525   2.654   1.307   1.707 -0.0456 -0.1440  0.8863
 3688SOL    HW122526   2.619   1.226   1.745  0.6331 -0.6490  0.4307
 3688SOL    HW222527   2.619   1.364   1.775 -1.6108 -1.6154  1.3270
 3689SOL     OW22528   2.653   3.880   6.044  0.2018 -0.0392  0.7752
 3689SOL    HW122529   2.732   3.862   6.095 -0.4102 -0.4840  1.5545
 3689SOL    HW222530   2.589   3.820   6.081  0.2134 -2.4903 -3.1520
 3690SOL     OW22531   3.816   2.979   2.798  0.5591 -0.5322  0.5625
 3690SOL    HW122532   3.845   3.000   2.709 -1.2200  2.1951  0.6503
 3690SOL    HW222533   3.901   2.962   2.839  1.0952 -1.3250 -0.8471
 3691SOL     OW22534   2.839   1.478   0.582 -0.2617 -0.2802 -0.6357
 3691SOL    HW122535   2.898   1.510   0.650 -2.1638 -0.5235  1.1446
 3691SOL    HW222536   2.894   1.466   0.505 -0.1034 -0.1114 -0.5471
 3692SOL     OW22537   2.761   3.359  13.322 -0.2295 -0.1748  0.1751
 3692SOL    HW122538   2.678   3.406  13.329  0.8992  1.5837  1.6774
 3692SOL    HW222539   2.729   3.286  13.268  1.2041 -0.9509  0.3909
 3693SOL     OW22540   1.755   1.167   5.281 -0.6954  0.2660 -0.5894
 3693SOL    HW122541   1.687   1.219   5.324 -0.2326  0.5437 -0.2013
 3693SOL    HW222542   1.700   1.106   5.232  0.3042 -0.8372 -0.3192
 3694SOL     OW22543   1.681   1.171   8.792  0.1752  0.2340  0.0169
 3694SOL    HW122544   1.736   1.190   8.868  0.4184  1.7791 -0.5581
 3694SOL    HW222545   1.727   1.097   8.751 -1.5106 -1.3975  1.0677
 3695SOL     OW22546   1.667   4.606   3.219  0.0916  0.0865 -0.2973
 3695SOL    HW122547   1.711   4.579   3.299 -1.7487 -0.9461  0.3662
 3695SOL    HW222548   1.581   4.570   3.240  0.5282 -0.7260  0.1083
 3696SOL     OW22549   4.395   3.201   1.407  0.5186  0.6141 -0.3272
 3696SOL    HW122550   4.333   3.223   1.338 -1.0242 -0.8603  0.5923
 3696SOL    HW222551   4.331   3.185   1.475 -0.0818 -1.1208 -1.2958
 3697SOL     OW22552   2.084   3.967   6.705 -0.5231  0.2944 -0.1399
 3697SOL    HW122553   2.090   3.901   6.774  1.9751 -1.4606 -2.0322
 3697SOL    HW222554   2.099   4.042   6.762 -0.4826 -0.1647  0.4506
 3698SOL     OW22555   2.871   3.017   4.865 -0.2058  0.2237  0.0603
 3698SOL    HW122556   2.895   2.986   4.953 -0.0817 -0.9929 -0.4029
 3698SOL    HW222557   2.834   3.098   4.901  0.2292  0.0425  0.9209
 3699SOL     OW22558   3.328   1.634  17.414  0.3571 -0.0668  0.0102
 3699SOL    HW122559   3.252   1.671  17.370 -0.5115  0.0755  1.6208
 3699SOL    HW222560   3.294   1.553  17.452  0.1600  0.4634  0.9521
 3700SOL     OW22561   0.351   0.965   5.750 -0.0594 -0.5102  0.5273
 3700SOL    HW122562   0.288   0.895   5.772  1.7760 -2.4499 -0.4147
 3700SOL    HW222563   0.328   0.983   5.659  0.0093 -0.9770  0.4156
 3701SOL     OW22564   1.563   3.384   9.105  0.0764  0.1082  0.4525
 3701SOL    HW122565   1.628   3.314   9.116  0.1895 -0.1253 -1.7863
 3701SOL    HW222566   1.489   3.339   9.144 -0.1789 -0.4870 -0.7163
 3702SOL     OW22567   0.058   1.166  10.959  0.3952  0.7245  0.0931
 3702SOL    HW122568   4.710   1.223  10.989 -0.0478 -0.1074  0.6288
 3702SOL    HW222569   0.015   1.081  10.957  2.0105 -0.0946  0.3424
 3703SOL     OW22570   0.477   2.284  12.945 -0.2605 -0.5295 -0.3791
 3703SOL    HW122571   0.558   2.293  12.894 -1.8065  0.3842 -2.6342
 3703SOL    HW222572   0.462   2.375  12.971  0.3392  0.1477 -2.4354
 3704SOL     OW22573   4.243   2.493  14.915 -0.4226  0.0643 -0.4234
 3704SOL    HW122574   4.284   2.508  15.000 -0.8400  0.7311 -0.3403
 3704SOL    HW222575   4.154   2.524  14.930 -0.0788  0.4236  0.8633
 3705SOL     OW22576   3.823   2.564   0.183 -0.2504  0.2326 -0.0623
 3705SOL    HW122577   3.805   2.656   0.204 -1.0805  0.0500  0.0121
 3705SOL    HW222578   3.735   2.531   0.201  0.0604 -1.0987 -1.0123
 3706SOL     OW22579   4.320   0.241  16.971 -0.3945  0.4870  0.3217
 3706SOL    HW122580   4.355   0.225  16.884 -2.0547  2.7323 -0.7822
 3706SOL    HW222581   4.229   0.269  16.958 -1.2136 -1.9237  0.8748
 3707SOL     OW22582   2.455   4.618   5.550 -0.6502  0.5661  0.3790
 3707SOL    HW122583   2.442   4.695   5.495  0.3251 -1.1277 -2.2329
 3707SOL    HW222584   2.374   4.611   5.600 -1.6686 -0.4978 -1.4655
 3708SOL     OW22585   0.178   1.638   8.542 -0.0326  0.0289  0.5412
 3708SOL    HW122586   0.115   1.631   8.614  0.1685 -2.9003  0.4283
 3708SOL    HW222587   0.229   1.557   8.547  0.7993  0.4634 -0.9533
 3709SOL     OW22588   1.542   2.626  17.540 -0.1160 -0.2078  0.1697
 3709SOL    HW122589   1.552   2.662  17.627 -0.7487  0.6328 -0.1091
 3709SOL    HW222590   1.447   2.635  17.527  0.2323  1.1457 -1.4088
 3710SOL     OW22591   3.514   4.168  11.373 -0.3076  0.1459  0.3161
 3710SOL    HW122592   3.528   4.134  11.284  1.9362  0.1790  0.6525
 3710SOL    HW222593   3.426   4.198  11.354 -1.3702 -3.0511  0.1454
 3711SOL     OW22594   4.085   3.414   6.692 -0.2338  0.5582  0.2003
 3711SOL    HW122595   3.997   3.452   6.682  0.6962  1.9072 -2.9382
 3711SOL    HW222596   4.084   3.363   6.611  1.1792  0.4120  0.2871
 3712SOL     OW22597   3.480   0.922   7.437  0.1327 -0.1556  0.5534
 3712SOL    HW122598   3.516   0.851   7.490  1.3507  0.7945  0.9841
 3712SOL    HW222599   3.388   0.922   7.465 -0.3897 -0.0318 -1.1524
 3713SOL     OW22600   4.591   0.796   6.319  0.4141 -0.1773  0.4496
 3713SOL    HW122601   4.635   0.802   6.403  0.1392 -0.4785  0.6155
 3713SOL    HW222602   4.513   0.753   6.354  0.4292 -0.6789 -0.1331
 3714SOL     OW22603   0.878   2.914  10.083 -0.1692 -0.3559  0.6043
 3714SOL    HW122604   0.843   2.949  10.165  1.5724 -1.5979  1.8844
 3714SOL    HW222605   0.915   2.832  10.118 -0.3164 -1.2006 -1.2048
 3715SOL     OW22606   0.655   0.508   4.588 -0.0161  0.0419 -0.0609
 3715SOL    HW122607   0.621   0.424   4.620 -1.1880  0.3110 -0.5888
 3715SOL    HW222608   0.710   0.487   4.513  0.1009  2.0140 -0.5020
 3716SOL     OW22609   1.640   0.568  11.624  0.3708 -0.0969  0.3694
 3716SOL    HW122610   1.602   0.481  11.613  2.7364 -0.8457 -1.9640
 3716SOL    HW222611   1.731   0.547  11.645  0.4013  0.5955  0.9142
 3717SOL     OW22612   4.702   3.727   0.801  0.0645  0.7146  0.6140
 3717SOL    HW122613   4.693   3.798   0.737 -0.8653 -0.3062 -0.3932
 3717SOL    HW222614   4.702   3.657   0.735  0.6864  0.5953  0.7418
 3718SOL     OW22615   2.397   3.087   5.064  0.2970  0.0581 -0.5123
 3718SOL    HW122616   2.490   3.096   5.082  0.6119 -3.3151 -0.4011
 3718SOL    HW222617   2.392   2.994   5.085  1.1273 -0.1944 -1.4509
 3719SOL     OW22618   1.879   0.807  12.184  0.4521  0.1981  0.1111
 3719SOL    HW122619   1.957   0.758  12.159  1.7312  3.0027 -1.3698
 3719SOL    HW222620   1.890   0.804  12.279  3.2771  2.4171 -0.1553
 3720SOL     OW22621   3.458   2.418   6.693 -0.0539 -0.5435 -0.2153
 3720SOL    HW122622   3.523   2.479   6.659 -1.8684  3.0408  2.7131
 3720SOL    HW222623   3.511   2.360   6.747  0.1225 -0.2597 -0.0811
 3721SOL     OW22624   4.615   4.202   7.875 -0.5256 -0.5546 -0.5255
 3721SOL    HW122625   4.630   4.294   7.852 -1.4475  0.0719  1.3610
 3721SOL    HW222626   4.588   4.171   7.789 -0.6913 -1.4902 -0.1247
 3722SOL     OW22627   0.913   2.100   8.058 -0.4109  0.2279  0.4211
 3722SOL    HW122628   0.940   2.037   7.990 -2.7150  0.2002 -0.4470
 3722SOL    HW222629   0.979   2.088   8.127  0.3487  1.9499 -0.0001
 3723SOL     OW22630   1.060   4.559   3.983  0.1684 -0.2197  0.0588
 3723SOL    HW122631   1.106   4.504   4.047  0.1082  0.3159  0.5593
 3723SOL    HW222632   1.121   4.628   3.956 -0.3011 -0.4013 -1.4569
 3724SOL     OW22633   3.347   0.815   0.407  0.0894 -0.5405 -0.2992
 3724SOL    HW122634   3.261   0.849   0.433  0.5381  0.5717 -0.2501
 3724SOL    HW222635   3.338   0.742   0.346 -1.9466  0.6417 -1.4327
 3725SOL     OW22636   1.537   0.865   7.408 -0.2902 -0.0205  0.1537
 3725SOL    HW122637   1.494   0.816   7.338  0.4685 -0.1016 -0.2537
 3725SOL    HW222638   1.517   0.950   7.369 -0.7306  0.7075  1.9350
 3726SOL     OW22639   4.091   3.578   0.856 -0.3813  0.3011  0.0124
 3726SOL    HW122640   4.150   3.588   0.781  0.7311  1.2863  1.0103
 3726SOL    HW222641   4.144   3.595   0.935  0.5458 -0.0485 -0.5336
 3727SOL     OW22642   1.216   2.797   7.465 -0.2951  0.2917  0.0846
 3727SOL    HW122643   1.269   2.725   7.432 -0.4429  1.1940 -2.0724
 3727SOL    HW222644   1.237   2.866   7.402 -1.9942  0.0284 -0.7593
 3728SOL     OW22645   2.836   0.800  12.675  0.0727 -0.2173 -0.5488
 3728SOL    HW122646   2.752   0.756  12.686  0.0392 -0.5123 -2.0309
 3728SOL    HW222647   2.822   0.894  12.662 -1.3187  0.2649  4.4140
 3729SOL     OW22648   2.647   2.931  11.328  0.1420  0.3340 -0.1811
 3729SOL    HW122649   2.669   2.849  11.284 -0.5681  0.5335 -0.8976
 3729SOL    HW222650   2.693   2.907  11.408  1.2060  3.7119  0.2296
 3730SOL     OW22651   1.270   0.928  12.378  0.8220 -0.2207 -0.3696
 3730SOL    HW122652   1.245   0.902  12.467  3.5446  2.6297  1.2593
 3730SOL    HW222653   1.274   0.838  12.348 -0.1679 -1.0385  1.9074
 3731SOL     OW22654   1.949   3.924   4.544  0.3072 -0.4949 -0.1473
 3731SOL    HW122655   2.004   3.856   4.583  0.4093 -0.4040 -0.1330
 3731SOL    HW222656   1.863   3.895   4.574  0.0846 -1.8316 -2.0825
 3732SOL     OW22657   4.350   1.081   4.937 -0.2166  0.1170 -0.1476
 3732SOL    HW122658   4.392   1.055   5.019 -0.7866  2.9754  1.0609
 3732SOL    HW222659   4.308   1.002   4.903  0.7422 -0.3773 -0.1814
 3733SOL     OW22660   1.607   4.238   1.825 -0.0175 -0.2480 -0.4690
 3733SOL    HW122661   1.604   4.283   1.741 -1.3773 -0.4915 -0.5447
 3733SOL    HW222662   1.531   4.181   1.814 -0.8582  0.9177 -0.5808
 3734SOL     OW22663   2.574   4.614  17.052  0.7340 -0.2783 -0.7610
 3734SOL    HW122664   2.506   4.565  17.005  2.2934 -1.1295 -2.1512
 3734SOL    HW222665   2.626   4.539  17.081 -0.1254 -0.0778  1.2541
 3735SOL     OW22666   3.714   1.087  12.268  0.0030 -0.1180 -0.3844
 3735SOL    HW122667   3.685   1.148  12.336 -0.0047 -1.8391  1.1777
 3735SOL    HW222668   3.772   1.147  12.223 -0.0960 -1.6867 -2.5935
 3736SOL     OW22669   3.415   2.533  15.170 -0.0510  0.4936  0.1256
 3736SOL    HW122670   3.329   2.576  15.169 -0.6656 -0.7743 -2.3818
 3736SOL    HW222671   3.383   2.444  15.187 -2.2071  0.6502 -3.1023
 3737SOL     OW22672   3.384   1.231   4.909  0.5159 -0.1844  0.2223
 3737SOL    HW122673   3.322   1.243   4.980 -1.2579  0.6930 -1.4569
 3737SOL    HW222674   3.402   1.324   4.890 -0.3185  0.2025  1.3127
 3738SOL     OW22675   0.881   1.539  14.387 -0.3922 -0.1871 -0.3870
 3738SOL    HW122676   0.912   1.615  14.437  0.9030 -0.9267 -0.0865
 3738SOL    HW222677   0.969   1.512  14.362  0.1919 -0.4289  1.8945
 3739SOL     OW22678   1.414   2.020  10.336 -0.6345  0.4358 -0.2924
 3739SOL    HW122679   1.496   2.009  10.288  1.3969 -0.5886  3.4516
 3739SOL    HW222680   1.441   2.078  10.407 -2.0961  1.7402 -0.7850
 3740SOL     OW22681   0.390   2.924   2.277  0.1816 -0.1116  0.2937
 3740SOL    HW122682   0.436   2.933   2.360  1.7527  0.5078 -0.6649
 3740SOL    HW222683   0.456   2.868   2.236 -0.2289  0.2490 -0.8743
 3741SOL     OW22684   0.566   3.542   1.668  0.5703 -0.2852 -0.7191
 3741SOL    HW122685   0.518   3.589   1.600 -0.5764 -1.7765 -0.9400
 3741SOL    HW222686   0.641   3.596   1.692  0.1320 -0.3790  0.8926
 3742SOL     OW22687   4.293   3.276   4.599  0.2715 -0.3570  0.0061
 3742SOL    HW122688   4.385   3.251   4.611  0.1854 -0.3270  0.7547
 3742SOL    HW222689   4.284   3.348   4.662  0.6978 -0.5690  0.3103
 3743SOL     OW22690   4.457   1.270   0.417 -0.6510 -0.1869 -0.2280
 3743SOL    HW122691   4.507   1.197   0.453 -0.0417  0.4515  0.2336
 3743SOL    HW222692   4.528   1.325   0.384 -1.1268  1.2233  1.0904
 3744SOL     OW22693   3.430   0.549   6.779 -0.5826  0.7678 -0.4353
 3744SOL    HW122694   3.496   0.531   6.712  1.0215 -1.2033  1.6338
 3744SOL    HW222695   3.350   0.538   6.728  0.6500 -1.6126 -1.9099
 3745SOL     OW22696   2.125   2.115   4.930  0.0402 -0.6811  0.2902
 3745SOL    HW122697   2.058   2.177   4.901  1.6994  0.6049 -0.7999
 3745SOL    HW222698   2.088   2.101   5.017 -1.3033  0.5239 -0.0833
 3746SOL     OW22699   0.519   3.406   8.942  0.0833 -0.3054  0.4920
 3746SOL    HW122700   0.493   3.362   8.861  0.2532  1.7528 -0.6963
 3746SOL    HW222701   0.612   3.413   8.918  0.2213 -0.1670  1.0738
 3747SOL     OW22702   2.971   4.305  11.737 -0.1121  0.0637 -0.1174
 3747SOL    HW122703   3.008   4.383  11.695 -0.3826 -1.1191 -2.5942
 3747SOL    HW222704   2.995   4.234  11.677 -0.5086 -0.7871  0.7364
 3748SOL     OW22705   0.302   3.089  13.008 -0.6153  0.1917  0.6385
 3748SOL    HW122706   0.395   3.098  13.026 -1.2743  0.9848  3.7232
 3748SOL    HW222707   0.284   3.013  13.064  0.4462  1.7929  3.1634
 3749SOL     OW22708   3.097   3.152   0.714 -0.4048 -0.1561  0.4414
 3749SOL    HW122709   3.192   3.142   0.720 -0.5103 -0.3592  1.7657
 3749SOL    HW222710   3.094   3.130   0.620  2.0550 -0.8108  0.5119
 3750SOL     OW22711   1.041   3.235   7.248 -0.8674  0.0318 -0.3632
 3750SOL    HW122712   1.073   3.147   7.227  2.2298  1.8596 -3.2459
 3750SOL    HW222713   0.981   3.226   7.322 -0.5869 -0.4772 -0.1975
 3751SOL     OW22714   4.487   3.650   1.225  0.6373  0.6266 -0.2156
 3751SOL    HW122715   4.452   3.730   1.265 -2.2024 -0.0297 -1.3432
 3751SOL    HW222716   4.569   3.671   1.182  1.2404 -0.2236  0.5304
 3752SOL     OW22717   2.304   4.174   8.092  0.2363 -0.1565 -0.4682
 3752SOL    HW122718   2.397   4.152   8.093  0.5760  1.0742 -3.5294
 3752SOL    HW222719   2.283   4.184   8.184 -1.0701 -1.1668 -0.6515
 3753SOL     OW22720   3.524   1.964  15.416  0.4602 -0.8502 -0.1745
 3753SOL    HW122721   3.599   1.960  15.475 -0.1125 -0.3979  0.5921
 3753SOL    HW222722   3.550   2.033  15.355  1.1142  0.5435  1.6843
 3754SOL     OW22723   1.002   4.289   9.152  0.2535 -0.1791 -0.2730
 3754SOL    HW122724   1.091   4.299   9.186 -0.0044  1.5056 -0.1175
 3754SOL    HW222725   0.980   4.381   9.138 -0.1826 -0.2426  0.0090
 3755SOL     OW22726   0.707   2.828   1.858  0.8411 -0.3734  0.2895
 3755SOL    HW122727   0.717   2.769   1.933  0.3786  0.4678  1.0067
 3755SOL    HW222728   0.801   2.845   1.846  0.4523  1.0295 -0.7062
 3756SOL     OW22729   2.196   0.587   7.908  0.2300  0.3590  0.6248
 3756SOL    HW122730   2.228   0.645   7.838 -0.1085  1.5763  1.4747
 3756SOL    HW222731   2.172   0.509   7.859 -1.0318  1.6466 -0.7985
 3757SOL     OW22732   0.179   2.302   1.461  0.3575 -0.1125 -0.0882
 3757SOL    HW122733   0.124   2.274   1.388 -0.7233 -1.9125  1.4250
 3757SOL    HW222734   0.152   2.391   1.485  0.4275 -0.0987 -0.0593
 3758SOL     OW22735   2.121   0.544   8.296  0.3422  0.1311 -0.5298
 3758SOL    HW122736   2.091   0.568   8.384  0.7803  0.6860 -0.5300
 3758SOL    HW222737   2.056   0.478   8.271  1.5544 -2.0628  2.0831
 3759SOL     OW22738   0.810   2.108   3.106  0.5631  0.0666 -0.4017
 3759SOL    HW122739   0.804   2.013   3.093  1.4338 -0.2257  1.3633
 3759SOL    HW222740   0.738   2.127   3.167  2.1217  1.6270  0.9642
 3760SOL     OW22741   0.057   2.470  17.423 -0.1542  0.0874 -0.1360
 3760SOL    HW122742   0.060   2.376  17.445 -0.6328  0.3291  0.9570
 3760SOL    HW222743   0.109   2.516  17.489 -0.3391 -1.0647  0.8324
 3761SOL     OW22744   0.998   2.898   6.299  0.8984  0.4148 -0.3201
 3761SOL    HW122745   1.032   2.904   6.210 -0.8731 -1.6178 -1.1226
 3761SOL    HW222746   1.018   2.805   6.308  1.0358  0.3373 -1.4068
 3762SOL     OW22747   1.553   4.410  12.956  0.3652  0.2174  0.9073
 3762SOL    HW122748   1.555   4.452  13.042  2.4475 -0.6501  1.2633
 3762SOL    HW222749   1.635   4.436  12.914  1.9448 -2.2119  2.5469
 3763SOL     OW22750   2.802   1.094  12.306 -0.1234  0.3933  0.2307
 3763SOL    HW122751   2.782   1.066  12.216  0.1872 -0.8453  0.5397
 3763SOL    HW222752   2.895   1.114  12.296  0.1582 -0.0534  2.0302
 3764SOL     OW22753   4.156   2.336   1.680  0.3970  0.7813 -0.3815
 3764SOL    HW122754   4.236   2.293   1.710 -1.8257 -2.5227  0.7958
 3764SOL    HW222755   4.157   2.417   1.730 -1.7745  1.1390 -0.9026
 3765SOL     OW22756   3.346   1.330   2.982  0.4533  0.0165 -0.2303
 3765SOL    HW122757   3.261   1.341   2.938 -0.2987 -0.1483  1.1667
 3765SOL    HW222758   3.363   1.236   2.978  0.9787  0.0651  0.9049
 3766SOL     OW22759   3.954   4.704   2.783 -0.3680  0.0268 -0.2407
 3766SOL    HW122760   3.903   0.005   2.705  0.0755 -1.0704 -0.8566
 3766SOL    HW222761   4.015   4.641   2.746 -0.7248  0.0333 -0.8552
 3767SOL     OW22762   4.081   0.879  14.304 -0.4278  0.8438 -0.4345
 3767SOL    HW122763   4.147   0.888  14.374 -0.9349 -2.0484  0.4131
 3767SOL    HW222764   4.063   0.786  14.314 -0.6838  0.8873 -0.4964
 3768SOL     OW22765   0.344   0.440  17.012  0.0337 -0.2316 -0.3049
 3768SOL    HW122766   0.394   0.431  17.093  0.8366 -1.0401 -0.8888
 3768SOL    HW222767   0.355   0.352  16.975  0.2385 -0.8209  1.1494
 3769SOL     OW22768   0.451   2.599   7.622  0.1851 -0.4274  0.2690
 3769SOL    HW122769   0.361   2.568   7.616  0.1996  0.0775 -2.3997
 3769SOL    HW222770   0.434   2.689   7.597  2.1654 -0.6548 -1.8600
 3770SOL     OW22771   4.380   3.626   2.137  0.0310 -0.6253  0.4820
 3770SOL    HW122772   4.295   3.601   2.173 -0.3133 -1.6022 -1.0352
 3770SOL    HW222773   4.429   3.550   2.167 -1.7002 -2.1234 -0.5404
 3771SOL     OW22774   3.131   2.177   3.007 -0.1409  0.1599  0.0821
 3771SOL    HW122775   3.165   2.229   2.933  1.1424 -0.2000  0.4233
 3771SOL    HW222776   3.157   2.229   3.083 -0.7498 -1.7753  1.5786
 3772SOL     OW22777   2.552   1.960   3.684 -0.0299 -0.4323 -0.1850
 3772SOL    HW122778   2.571   1.939   3.592  1.0160  2.6207 -0.6476
 3772SOL    HW222779   2.470   2.009   3.673  0.6211  0.4965 -0.8562
 3773SOL     OW22780   0.917   1.001  10.184  0.0414  0.0158 -0.0816
 3773SOL    HW122781   0.851   1.013  10.253  2.7179 -0.0142  2.5073
 3773SOL    HW222782   0.858   1.021  10.112  0.7941 -1.2749 -1.0539
 3774SOL     OW22783   0.038   0.967   3.172 -0.7719 -0.5378  0.7806
 3774SOL    HW122784   4.694   0.971   3.241  0.9353  1.2681  2.3101
 3774SOL    HW222785   4.711   0.909   3.114  0.0227  0.6396 -1.0422
 3775SOL     OW22786   3.900   1.831   5.234  0.1691  0.2987  0.2604
 3775SOL    HW122787   3.904   1.839   5.329 -1.7455  0.7197  0.3061
 3775SOL    HW222788   3.806   1.829   5.218  0.3517 -1.9498 -0.4312
 3776SOL     OW22789   3.540   0.822   2.938  0.4709 -0.0101  0.5593
 3776SOL    HW122790   3.483   0.745   2.932  2.1924 -1.3732  1.6912
 3776SOL    HW222791   3.558   0.827   3.032  0.7292 -0.6356  0.5449
 3777SOL     OW22792   3.367   3.859  13.335 -0.4015  0.0479 -0.2718
 3777SOL    HW122793   3.367   3.849  13.240 -0.3960  2.4184 -0.5247
 3777SOL    HW222794   3.272   3.852  13.345 -0.8007  0.7763 -3.4302
 3778SOL     OW22795   3.952   2.103   2.473  0.1504  0.0680  0.4154
 3778SOL    HW122796   4.014   2.176   2.483  0.4279 -0.0616 -0.4128
 3778SOL    HW222797   4.004   2.042   2.422  0.2808  1.6878 -1.3886
 3779SOL     OW22798   2.381   3.461   2.054  0.5281 -0.1486 -0.0717
 3779SOL    HW122799   2.351   3.420   1.973 -4.0433  2.4262  0.3322
 3779SOL    HW222800   2.332   3.414   2.122 -2.2692 -1.0857 -2.7533
 3780SOL     OW22801   1.531   3.732  13.475  0.2456 -0.3585 -0.1696
 3780SOL    HW122802   1.617   3.714  13.512  1.2932  1.9084 -1.4521
 3780SOL    HW222803   1.556   3.788  13.401  2.0328 -1.4633 -0.3872
 3781SOL     OW22804   3.898   1.705   1.906 -0.3865 -0.3002 -0.1664
 3781SOL    HW122805   3.855   1.786   1.877 -2.8604 -0.2965  3.4497
 3781SOL    HW222806   3.915   1.727   1.998  0.3755  2.5281 -0.9808
 3782SOL     OW22807   0.492   4.078   7.489  0.0349 -0.0863 -0.5227
 3782SOL    HW122808   0.437   4.000   7.484  0.4092 -0.4416  0.8088
 3782SOL    HW222809   0.434   4.132   7.543  1.8700  1.1795  0.1782
 3783SOL     OW22810   2.807   2.382   7.227  0.4732 -0.4952  0.3141
 3783SOL    HW122811   2.778   2.414   7.142  0.0988  0.4532  0.7930
 3783SOL    HW222812   2.896   2.418   7.235  0.1114  0.3331  0.6380
 3784SOL     OW22813   0.438   3.398   4.752  1.0597 -0.3940  0.5069
 3784SOL    HW122814   0.400   3.312   4.733  0.4826  0.1337 -0.6726
 3784SOL    HW222815   0.437   3.403   4.848  1.0483  1.6006  0.4015
 3785SOL     OW22816   0.653   0.180   3.824 -0.0275 -0.4899 -0.1580
 3785SOL    HW122817   0.687   0.257   3.869  0.0670 -0.9322  0.5247
 3785SOL    HW222818   0.733   0.156   3.778  0.8138  0.9079  0.5891
 3786SOL     OW22819   2.540   2.818   6.667  0.1358 -0.2427 -0.4755
 3786SOL    HW122820   2.612   2.837   6.608 -1.9605  1.4690 -2.4875
 3786SOL    HW222821   2.487   2.896   6.650  0.6801 -0.0881 -1.4973
 3787SOL     OW22822   4.420   4.658   0.368 -0.3328  0.2014  0.0907
 3787SOL    HW122823   4.371   4.666   0.287 -1.6243 -2.1634  0.6275
 3787SOL    HW222824   4.475   0.014   0.373  1.5018 -0.9444 -2.1751
 3788SOL     OW22825   0.480   2.756  13.810 -0.2275  0.2850  0.4110
 3788SOL    HW122826   0.389   2.728  13.799 -0.0864 -0.3620  0.9320
 3788SOL    HW222827   0.497   2.710  13.892  2.0701 -2.1155 -1.4182
 3789SOL     OW22828   3.803   1.298   3.204 -0.2301 -0.0478 -0.2912
 3789SOL    HW122829   3.784   1.204   3.204 -0.9109  0.0839  0.2940
 3789SOL    HW222830   3.716   1.332   3.183 -1.1348 -2.0807  0.1936
 3790SOL     OW22831   1.870   4.451   4.097  0.3788  0.0199  0.5960
 3790SOL    HW122832   1.789   4.454   4.047  0.6257 -2.6144  0.0612
 3790SOL    HW222833   1.927   4.473   4.023 -0.5924 -0.1733 -0.1947
 3791SOL     OW22834   1.973   0.742  11.207  1.2169  0.0615  0.4105
 3791SOL    HW122835   2.059   0.742  11.250  0.7924  2.1563  1.2997
 3791SOL    HW222836   1.951   0.833  11.230  4.1417  1.0770 -0.8130
 3792SOL     OW22837   4.170   3.631   2.884 -0.0030 -0.4944 -0.0627
 3792SOL    HW122838   4.093   3.644   2.828 -0.4685  0.2407  0.7695
 3792SOL    HW222839   4.233   3.697   2.856 -0.9952  0.0178 -1.1089
 3793SOL     OW22840   3.142   2.014  16.289 -0.1862 -0.4857  0.3554
 3793SOL    HW122841   3.144   2.038  16.197  2.5636 -0.8735  0.3108
 3793SOL    HW222842   3.142   2.106  16.314  2.0472 -0.2906 -0.4097
 3794SOL     OW22843   1.760   2.055  15.486  0.2871 -0.4274  0.2995
 3794SOL    HW122844   1.703   1.978  15.485  0.8424 -0.8088 -1.7014
 3794SOL    HW222845   1.842   2.014  15.515 -0.0876 -0.5704  1.1455
 3795SOL     OW22846   0.781   0.930   6.522  0.1248 -0.1245  0.0363
 3795SOL    HW122847   0.863   0.906   6.565 -0.0252 -0.3287  0.2083
 3795SOL    HW222848   0.729   0.851   6.533 -1.9313  1.2934  0.6592
 3796SOL     OW22849   1.629   2.017   2.902  0.5197  0.3573  0.2129
 3796SOL    HW122850   1.714   2.004   2.945  0.8049 -0.4826 -0.6182
 3796SOL    HW222851   1.646   2.110   2.887 -2.4442  0.5814 -1.6089
 3797SOL     OW22852   4.524   0.685   9.527  0.2411 -0.2927  0.5328
 3797SOL    HW122853   4.553   0.649   9.443 -0.8441 -1.0334  0.4839
 3797SOL    HW222854   4.462   0.746   9.488  0.5579 -0.2371  0.1192
 3798SOL     OW22855   1.597   4.067  12.136  0.8226 -0.3315  0.3069
 3798SOL    HW122856   1.668   4.089  12.196  1.6096  0.9075 -1.0867
 3798SOL    HW222857   1.590   4.146  12.082 -1.8899 -0.4948  0.4217
 3799SOL     OW22858   1.631   3.381   6.489  0.3341 -0.6611 -0.5725
 3799SOL    HW122859   1.586   3.367   6.572  2.9469  0.5820  1.0228
 3799SOL    HW222860   1.616   3.297   6.446 -1.3908 -1.8695  2.4303
 3800SOL     OW22861   3.144   1.660   3.891 -0.4596  0.3271  0.0585
 3800SOL    HW122862   3.234   1.642   3.918 -0.7323 -0.2793  0.5619
 3800SOL    HW222863   3.154   1.637   3.798 -0.2844  2.5156 -0.4667
 3801SOL     OW22864   2.773   1.874   6.516 -0.2530 -0.0033  0.6905
 3801SOL    HW122865   2.782   1.930   6.593  0.1591  0.2748  0.4430
 3801SOL    HW222866   2.695   1.905   6.470 -0.1160 -1.9330 -0.8744
 3802SOL     OW22867   2.635   0.447   2.058  0.2892  0.4360  0.8499
 3802SOL    HW122868   2.664   0.524   2.106 -0.4188  0.9241  0.4957
 3802SOL    HW222869   2.578   0.490   1.995  0.8289  0.4299  0.3624
 3803SOL     OW22870   2.721   4.125  16.701  0.0008 -0.1766 -0.0556
 3803SOL    HW122871   2.785   4.188  16.667  0.6001 -1.4850 -1.3749
 3803SOL    HW222872   2.760   4.099  16.785 -0.1210 -0.3994 -0.0701
 3804SOL     OW22873   1.201   1.226   4.949  0.4590  0.1606  0.5790
 3804SOL    HW122874   1.279   1.206   5.000  0.9173 -0.9299 -0.5496
 3804SOL    HW222875   1.165   1.137   4.944  0.2193  0.1399  2.6518
 3805SOL     OW22876   3.563   4.097  11.109 -0.5242 -0.3468 -0.1132
 3805SOL    HW122877   3.548   4.095  11.015  0.9392  0.9195 -0.3635
 3805SOL    HW222878   3.654   4.065  11.111  0.0315  1.1187 -2.2950
 3806SOL     OW22879   3.701   3.880   7.441  0.6089 -0.3168 -0.2945
 3806SOL    HW122880   3.691   3.845   7.530 -0.9185 -1.5275 -0.9299
 3806SOL    HW222881   3.607   3.882   7.424  0.3210 -0.7023  1.2654
 3807SOL     OW22882   1.477   0.229   7.988  0.0829 -0.2543 -0.1532
 3807SOL    HW122883   1.482   0.150   8.041  0.1786 -1.2247 -1.6125
 3807SOL    HW222884   1.571   0.246   7.974 -0.5583  2.3984 -1.3791
 3808SOL     OW22885   0.684   3.604  16.740 -0.4732 -0.4638  0.2227
 3808SOL    HW122886   0.664   3.639  16.653  0.4549 -2.7423 -0.9187
 3808SOL    HW222887   0.606   3.630  16.788 -0.6089  0.6485 -0.6051
 3809SOL     OW22888   2.725   3.101   1.821  0.9082  0.5372  0.4891
 3809SOL    HW122889   2.761   3.179   1.865 -1.1947  2.2339 -0.7904
 3809SOL    HW222890   2.669   3.145   1.757  0.2085 -0.5142  0.3812
 3810SOL     OW22891   4.462   1.576  10.633 -0.0700 -0.1164  0.0393
 3810SOL    HW122892   4.487   1.595  10.723 -0.2244 -0.4723  0.1584
 3810SOL    HW222893   4.406   1.500  10.653 -1.2927  1.1877  1.6244
 3811SOL     OW22894   1.544   1.257   7.523  0.3137  0.1795  0.4334
 3811SOL    HW122895   1.566   1.345   7.555 -1.5940  0.6033  0.6008
 3811SOL    HW222896   1.510   1.222   7.606  0.5102 -0.8217  0.0842
 3812SOL     OW22897   2.962   2.454   1.333  0.3159 -0.4216  0.2067
 3812SOL    HW122898   2.996   2.487   1.416 -0.5477  2.7497 -0.7382
 3812SOL    HW222899   2.998   2.513   1.267 -0.9927 -1.6447 -1.5799
 3813SOL     OW22900   3.973   0.316   7.875  0.3110 -0.1035 -0.3143
 3813SOL    HW122901   3.900   0.256   7.858 -1.0202  1.3483  0.2518
 3813SOL    HW222902   3.931   0.400   7.891 -1.2374 -1.3257  2.1122
 3814SOL     OW22903   0.053   0.987   3.785  0.3986  0.1379  0.2390
 3814SOL    HW122904   0.100   1.070   3.789 -2.4305  1.8212 -1.6029
 3814SOL    HW222905   0.081   0.954   3.870 -1.1111  0.5299  0.8826
 3815SOL     OW22906   0.629   2.874   3.448  0.4533  0.4085 -0.1307
 3815SOL    HW122907   0.675   2.831   3.376  0.8974 -0.4500  0.6606
 3815SOL    HW222908   0.604   2.943   3.387 -1.6107 -0.3453 -0.1333
 3816SOL     OW22909   2.900   0.092   2.303  0.4287  0.5322 -0.2483
 3816SOL    HW122910   2.930   0.144   2.228 -0.5147  1.1448 -0.1919
 3816SOL    HW222911   2.852   0.162   2.347  1.2875 -0.3938  2.2032
 3817SOL     OW22912   0.223   3.959  13.516 -0.0238  0.1507 -0.2722
 3817SOL    HW122913   0.213   3.868  13.542 -0.9760  0.6550  1.0855
 3817SOL    HW222914   0.199   3.948  13.424  2.2913 -0.3239 -0.8159
 3818SOL     OW22915   0.097   4.405   9.082 -0.5266  0.4762  0.7168
 3818SOL    HW122916   0.170   4.395   9.020  0.0703  1.1716  1.3014
 3818SOL    HW222917   0.030   4.356   9.035  0.7783 -0.0497 -0.6207
 3819SOL     OW22918   4.554   0.803  12.900  0.3651  0.1116 -0.3684
 3819SOL    HW122919   4.552   0.811  12.805  1.4535 -1.2371 -0.5062
 3819SOL    HW222920   4.481   0.861  12.924 -0.4766 -0.7816 -0.7661
 3820SOL     OW22921   0.803   2.054   5.306  0.5682 -0.1249 -0.2630
 3820SOL    HW122922   0.857   2.009   5.371 -0.5250 -0.1701  0.6034
 3820SOL    HW222923   0.747   1.984   5.272  0.9140 -0.3172 -0.4356
 3821SOL     OW22924   3.180   0.836   2.881 -0.3938  0.1149  0.3304
 3821SOL    HW122925   3.179   0.743   2.858  1.2952  0.3490 -0.6748
 3821SOL    HW222926   3.098   0.842   2.930 -0.0520 -3.2411  1.3145
 3822SOL     OW22927   0.597   0.356   4.188 -0.1073  0.5393  0.1071
 3822SOL    HW122928   0.651   0.388   4.115  1.2869  2.5773  2.0290
 3822SOL    HW222929   0.520   0.412   4.173 -0.3330  0.2037  0.0113
 3823SOL     OW22930   0.099   0.354  17.224 -0.0623 -0.3212  0.0991
 3823SOL    HW122931   0.093   0.349  17.129 -0.5898 -1.0497  0.1727
 3823SOL    HW222932   0.161   0.287  17.250 -0.6866 -0.8421  0.2479
 3824SOL     OW22933   0.289   2.999  11.213 -0.3139  0.0253 -0.0947
 3824SOL    HW122934   0.283   2.935  11.284  1.4066  0.9011  0.8579
 3824SOL    HW222935   0.373   2.969  11.177 -0.3339  0.5638 -0.5982
 3825SOL     OW22936   1.490   0.461  12.516  0.2317  0.2477  0.4025
 3825SOL    HW122937   1.570   0.471  12.465 -1.7623  1.3106 -2.5081
 3825SOL    HW222938   1.529   0.475  12.602 -2.2795 -0.7334  1.7005
 3826SOL     OW22939   2.311   4.036   1.574 -0.2995 -0.3593 -0.7589
 3826SOL    HW122940   2.329   4.051   1.667  0.1041 -2.9977 -0.3883
 3826SOL    HW222941   2.232   4.089   1.564  0.2733  1.4051  3.8728
 3827SOL     OW22942   2.020   2.104   8.107 -0.3525 -0.0046 -0.1537
 3827SOL    HW122943   2.006   2.134   8.017 -1.7136  2.2294  0.8008
 3827SOL    HW222944   1.975   2.176   8.151  0.0228  0.4433 -0.4990
 3828SOL     OW22945   3.226   3.837   1.589  0.5526  0.9231 -0.0063
 3828SOL    HW122946   3.193   3.924   1.610 -2.1119  0.1360 -0.9641
 3828SOL    HW222947   3.182   3.828   1.504  0.2487  2.3138  0.0076
 3829SOL     OW22948   3.570   1.572  12.962  0.6065 -0.3775  0.2532
 3829SOL    HW122949   3.485   1.607  12.989  1.0694  2.1088 -1.6044
 3829SOL    HW222950   3.628   1.634  13.006  0.5257  0.2554 -0.5343
 3830SOL     OW22951   1.465   2.984   2.536  0.4173 -0.1095  0.3889
 3830SOL    HW122952   1.515   3.064   2.520  1.3789 -0.9639 -0.8868
 3830SOL    HW222953   1.386   3.022   2.498  0.6994 -2.0333 -2.1400
 3831SOL     OW22954   1.541   1.334   9.296 -0.0948 -0.1407  0.5603
 3831SOL    HW122955   1.502   1.284   9.224  0.2958  0.0029  0.2410
 3831SOL    HW222956   1.556   1.422   9.262  1.6584 -0.8045 -0.4234
 3832SOL     OW22957   1.840   1.096   8.285  0.2610 -0.6172 -0.0256
 3832SOL    HW122958   1.835   1.063   8.195  3.4576  0.4771 -0.6259
 3832SOL    HW222959   1.870   1.021   8.336  0.2254 -1.1190 -0.7355
 3833SOL     OW22960   4.197   3.887  16.951  0.2589 -0.5567  0.1136
 3833SOL    HW122961   4.133   3.951  16.919 -0.6146 -1.4791  0.0095
 3833SOL    HW222962   4.258   3.890  16.877 -0.8914  0.5033 -0.8080
 3834SOL     OW22963   4.190   0.040   3.507  0.3670  0.5120 -0.6830
 3834SOL    HW122964   4.241   0.037   3.425 -0.7778  0.6330 -1.4041
 3834SOL    HW222965   4.110   0.084   3.477 -0.4911 -0.8216 -0.3346
 3835SOL     OW22966   2.764   1.632   8.614 -0.3905  0.5658  0.6889
 3835SOL    HW122967   2.674   1.628   8.580 -0.0796 -3.1818  0.3705
 3835SOL    HW222968   2.815   1.599   8.541 -1.7073 -1.3103  0.6251
 3836SOL     OW22969   2.718   3.610   6.687  0.2550 -0.8413  0.1127
 3836SOL    HW122970   2.721   3.671   6.760  2.1004 -0.1956 -0.4932
 3836SOL    HW222971   2.642   3.642   6.639 -0.5864 -1.7490  0.8411
 3837SOL     OW22972   3.154   4.659   5.174 -0.1698 -0.0576  0.6428
 3837SOL    HW122973   3.197   0.007   5.223  0.0092  1.3472 -1.5256
 3837SOL    HW222974   3.152   4.589   5.238  0.7074  0.1167  0.8621
 3838SOL     OW22975   3.209   1.845   2.268  0.4364  0.0458  0.1236
 3838SOL    HW122976   3.166   1.809   2.345 -0.4422 -0.5002 -0.6197
 3838SOL    HW222977   3.153   1.906   2.221  0.1215  1.2079  2.0379
 3839SOL     OW22978   2.993   1.976  14.451  0.3849  0.1276 -0.5502
 3839SOL    HW122979   3.019   1.896  14.406  0.1464 -0.1451 -0.1978
 3839SOL    HW222980   3.074   2.023  14.433  0.3417 -0.7188 -2.9192
 3840SOL     OW22981   0.463   1.363   3.346 -0.1939 -0.6966 -0.0817
 3840SOL    HW122982   0.441   1.270   3.339  0.9005 -0.8038 -2.0124
 3840SOL    HW222983   0.541   1.357   3.291  0.6642 -2.0513  1.2824
 3841SOL     OW22984   4.585   4.632   4.223 -0.2730  0.2217 -0.0851
 3841SOL    HW122985   4.609   4.720   4.252  0.2518 -0.0442  0.2861
 3841SOL    HW222986   4.653   4.587   4.273 -0.0853  1.1464  0.4905
 3842SOL     OW22987   2.412   0.776  12.698  0.8979 -0.0317 -0.2561
 3842SOL    HW122988   2.502   0.754  12.672  1.1537  0.0972  0.5246
 3842SOL    HW222989   2.426   0.860  12.742  1.3657 -0.0134 -0.4362
 3843SOL     OW22990   1.814   0.899   5.912  0.2854  0.6561 -0.3168
 3843SOL    HW122991   1.775   0.971   5.864  0.8528 -0.0870 -1.8846
 3843SOL    HW222992   1.899   0.892   5.868 -0.0586  2.5697 -1.2591
 3844SOL     OW22993   2.717   1.071   4.613 -0.1168 -0.2447 -1.0209
 3844SOL    HW122994   2.677   1.157   4.628 -1.0841 -0.6261 -1.3652
 3844SOL    HW222995   2.801   1.080   4.658 -0.1067  1.2160 -1.3598
 3845SOL     OW22996   2.477   3.360  12.607  0.0381 -0.1679 -0.2618
 3845SOL    HW122997   2.461   3.450  12.578  0.4513  0.2301  0.7602
 3845SOL    HW222998   2.450   3.360  12.699 -1.3522  1.6176 -0.6752
 3846SOL     OW22999   3.790   1.367  12.630 -0.5412 -0.1934 -0.3006
 3846SOL    HW123000   3.816   1.366  12.722  2.1022 -0.9801 -1.0518
 3846SOL    HW223001   3.859   1.414  12.581 -1.4015  2.3367  0.9161
 3847SOL     OW23002   4.687   1.987  12.509  0.0117 -0.4877  0.2787
 3847SOL    HW123003   4.685   1.901  12.550  1.3977 -0.0819  1.1670
 3847SOL    HW223004   4.665   2.041  12.585  1.5222  0.2085  0.2253
 3848SOL     OW23005   4.307   2.087   8.266 -0.0824 -0.3663  0.1712
 3848SOL    HW123006   4.403   2.081   8.257  0.0637  1.4269  0.5984
 3848SOL    HW223007   4.275   2.053   8.183  0.3682 -0.6999  0.1304
 3849SOL     OW23008   4.313   2.185   8.940  0.2282 -0.0332 -0.4210
 3849SOL    HW123009   4.372   2.231   9.001 -0.1218 -1.2132  0.8083
 3849SOL    HW223010   4.231   2.197   8.989 -0.2249 -1.6371 -0.8153
 3850SOL     OW23011   3.714   1.982   3.637  0.5227  0.2634  0.0744
 3850SOL    HW123012   3.687   1.953   3.551  0.3144  0.3149  0.1226
 3850SOL    HW223013   3.681   2.072   3.638 -0.7260 -0.1799 -2.9437
 3851SOL     OW23014   3.780   2.597   6.989 -0.3917  0.3486 -0.2201
 3851SOL    HW123015   3.698   2.645   6.992 -0.9138 -0.5836  0.3130
 3851SOL    HW223016   3.842   2.667   7.013 -1.3819  0.7353  1.2360
 3852SOL     OW23017   0.391   2.149   1.998  0.5786  0.3727  0.0222
 3852SOL    HW123018   0.358   2.086   2.062  1.9586 -0.8650 -0.4868
 3852SOL    HW223019   0.360   2.120   1.912 -0.7989  1.0565  0.2836
 3853SOL     OW23020   3.515   4.489  12.942 -0.2396  0.5519  0.0429
 3853SOL    HW123021   3.463   4.569  12.938 -0.4946  0.5254  2.6612
 3853SOL    HW223022   3.587   4.506  12.882 -1.1582 -2.2109 -1.8474
 3854SOL     OW23023   4.307   2.898   9.904 -0.0624  0.0468 -0.4520
 3854SOL    HW123024   4.242   2.921   9.971  1.5541 -2.1793  1.8933
 3854SOL    HW223025   4.376   2.904   9.970  1.0050  1.2073 -1.6699
 3855SOL     OW23026   0.087   1.245   4.895 -0.0904 -0.3648 -0.5879
 3855SOL    HW123027   0.038   1.202   4.965  0.1339  1.0521  0.4323
 3855SOL    HW223028   0.048   1.207   4.816 -1.1439  3.2594 -1.8127
 3856SOL     OW23029   1.472   1.131   7.818  0.8863  0.3737  0.1813
 3856SOL    HW123030   1.382   1.126   7.848  1.6182 -2.1563  1.9977
 3856SOL    HW223031   1.481   1.062   7.752 -1.1793  1.0609 -0.8122
 3857SOL     OW23032   1.253   0.812   5.916  0.5318 -0.1382  0.0841
 3857SOL    HW123033   1.183   0.861   5.960  2.2625  1.2873  1.2466
 3857SOL    HW223034   1.235   0.835   5.825  0.0646  1.4412  0.5814
 3858SOL     OW23035   4.285   3.378   1.190  0.4252  0.4184 -0.6007
 3858SOL    HW123036   4.324   3.456   1.151 -2.3898  1.4160 -1.4000
 3858SOL    HW223037   4.275   3.317   1.116 -1.1377 -0.4153  0.3062
 3859SOL     OW23038   0.392   1.300   5.612 -0.2580 -0.3647 -0.0230
 3859SOL    HW123039   0.407   1.382   5.564  1.5986 -0.3184  0.6359
 3859SOL    HW223040   0.426   1.322   5.698 -2.9087  0.8466  0.7065
 3860SOL     OW23041   2.004   0.453  15.269 -0.0962 -0.5939 -0.1059
 3860SOL    HW123042   1.924   0.498  15.240 -0.6119 -2.7835 -2.0712
 3860SOL    HW223043   2.037   0.508  15.340  1.7406 -2.5213  0.5221
 3861SOL     OW23044   1.789   1.704  15.694  0.3266  0.4709  0.1549
 3861SOL    HW123045   1.829   1.688  15.779  0.3988  2.2305  0.4401
 3861SOL    HW223046   1.701   1.736  15.713  0.4581  0.4321  0.8261
 3862SOL     OW23047   2.838   2.278  14.826 -0.1421 -0.6449 -0.1452
 3862SOL    HW123048   2.829   2.331  14.747  0.2362 -0.5036 -0.0943
 3862SOL    HW223049   2.807   2.334  14.898  0.6838 -1.3899  0.7905
 3863SOL     OW23050   2.326   2.584   6.654 -0.2009 -0.3441 -0.6503
 3863SOL    HW123051   2.241   2.603   6.694 -0.0229 -0.7351 -0.0833
 3863SOL    HW223052   2.367   2.659   6.698 -2.3395 -0.4220  1.4980
 3864SOL     OW23053   4.031   3.738  13.884 -0.6488 -0.0494 -0.0736
 3864SOL    HW123054   3.985   3.660  13.915 -2.2019 -0.6338 -3.8497
 3864SOL    HW223055   4.025   3.719  13.790 -0.1012 -1.8077  0.2475
 3865SOL     OW23056   2.785   1.843   3.281  0.6127 -0.2549 -0.0817
 3865SOL    HW123057   2.860   1.852   3.223  0.3637 -1.5531 -0.6051
 3865SOL    HW223058   2.738   1.780   3.226 -1.9185  1.5651 -0.0213
 3866SOL     OW23059   1.063   0.986   0.366  0.0368  0.0624  0.2466
 3866SOL    HW123060   1.137   1.032   0.405  0.8895 -1.0355 -0.0737
 3866SOL    HW223061   1.106   0.922   0.309 -1.0707  1.4537 -2.1872
 3867SOL     OW23062   3.538   4.437  10.930  0.2127 -0.1012 -0.0978
 3867SOL    HW123063   3.623   4.477  10.951 -0.1328  0.2683  0.5841
 3867SOL    HW223064   3.564   4.368  10.868 -1.3157 -1.2037  0.5086
 3868SOL     OW23065   1.818   2.093   0.384  0.5670 -0.3093 -0.0464
 3868SOL    HW123066   1.850   2.184   0.384 -1.4958  0.3991  1.4372
 3868SOL    HW223067   1.899   2.043   0.391  0.2283 -0.7068  0.9202
 3869SOL     OW23068   4.677   1.442   3.613  0.0651 -0.0881 -0.3401
 3869SOL    HW123069   4.646   1.437   3.522 -0.6928 -3.3404  0.1208
 3869SOL    HW223070   4.599   1.481   3.652 -0.6592 -0.1435 -1.7510
 3870SOL     OW23071   2.217   4.180   9.648  0.0699 -0.1550  0.6706
 3870SOL    HW123072   2.249   4.213   9.732 -0.7555  0.7476  0.6309
 3870SOL    HW223073   2.164   4.103   9.668 -1.2114  0.3042 -0.9961
 3871SOL     OW23074   2.658   2.238  10.156 -0.2097  0.2145 -0.1728
 3871SOL    HW123075   2.654   2.155  10.202 -0.0016 -0.3261 -1.1372
 3871SOL    HW223076   2.600   2.289  10.213  1.1969  0.2788  1.2007
 3872SOL     OW23077   1.203   3.983   5.969 -0.3691  0.6702 -0.9689
 3872SOL    HW123078   1.119   3.947   5.939 -1.3316  1.4842  0.7402
 3872SOL    HW223079   1.226   3.934   6.048 -0.0503  2.3444 -0.0400
 3873SOL     OW23080   3.625   2.779   2.296  0.5038 -0.0990  0.0622
 3873SOL    HW123081   3.662   2.764   2.209  1.0248 -0.2032  0.3047
 3873SOL    HW223082   3.535   2.809   2.282  0.2251 -0.5185  0.9216
 3874SOL     OW23083   1.522   4.606   5.276 -0.1185 -0.0117  0.3490
 3874SOL    HW123084   1.608   4.646   5.257 -0.7771  0.8029 -0.8895
 3874SOL    HW223085   1.476   4.687   5.300  0.0456  0.5253 -1.1208
 3875SOL     OW23086   0.280   2.649   7.360 -0.2328 -0.0348  0.2401
 3875SOL    HW123087   0.314   2.732   7.326 -0.2417  0.0066  0.3336
 3875SOL    HW223088   0.193   2.681   7.384  0.3439  2.0838 -0.4677
 3876SOL     OW23089   3.881   0.196   8.853 -0.2786 -0.5045 -0.0744
 3876SOL    HW123090   3.964   0.197   8.805 -0.3230  1.4870 -0.1010
 3876SOL    HW223091   3.845   0.111   8.829  1.0931  0.1252 -4.4094
 3877SOL     OW23092   1.993   3.479   7.530 -0.5393  0.1277  0.3291
 3877SOL    HW123093   2.001   3.398   7.579  2.4882 -1.2719 -2.4595
 3877SOL    HW223094   1.898   3.485   7.520 -0.5147  1.0906  0.6884
 3878SOL     OW23095   1.034   1.221   2.786 -0.1864  0.1397 -0.7515
 3878SOL    HW123096   0.985   1.153   2.833  0.5435  0.7859  0.9522
 3878SOL    HW223097   1.049   1.180   2.701  1.7657 -1.7638  0.5191
 3879SOL     OW23098   4.250   2.630   8.607 -0.0443  0.1823  0.2937
 3879SOL    HW123099   4.170   2.628   8.660 -0.0337  2.8045  0.3991
 3879SOL    HW223100   4.279   2.539   8.608 -3.4444 -0.9002  0.1065
 3880SOL     OW23101   2.266   2.099   2.753  0.5642 -0.1304  0.3428
 3880SOL    HW123102   2.328   2.160   2.794  1.2096 -0.5647  0.0194
 3880SOL    HW223103   2.291   2.018   2.798  1.3646  0.1614  0.4379
 3881SOL     OW23104   3.914   3.544  16.049  0.3211 -0.1255  0.2833
 3881SOL    HW123105   3.905   3.591  15.966 -1.7263 -1.5012 -0.2788
 3881SOL    HW223106   3.941   3.455  16.029 -1.2473 -0.4200 -0.4856
 3882SOL     OW23107   1.937   3.008   4.887 -0.0767 -0.3332 -0.7104
 3882SOL    HW123108   1.957   2.924   4.845 -3.0492 -0.2900 -2.1498
 3882SOL    HW223109   1.917   3.070   4.817  0.9403  3.5454  2.4114
 3883SOL     OW23110   0.002   4.270  15.005 -0.2088 -0.3887 -1.1919
 3883SOL    HW123111   4.673   4.329  14.949 -1.4980 -0.3129  0.0824
 3883SOL    HW223112   0.036   4.323  15.078  0.0323 -1.2176 -0.7087
 3884SOL     OW23113   1.549   2.861  14.384 -0.3909  0.2825  0.0375
 3884SOL    HW123114   1.607   2.894  14.316 -0.8147  0.8485 -0.0520
 3884SOL    HW223115   1.508   2.924  14.444 -0.5407  0.0060  0.2243
 3885SOL     OW23116   2.190   0.733   4.544 -0.2786 -0.0929 -0.0182
 3885SOL    HW123117   2.165   0.646   4.575  0.3149  0.0882  0.9638
 3885SOL    HW223118   2.245   0.711   4.469 -1.3694 -0.6441 -0.6547
 3886SOL     OW23119   4.418   3.511  11.719  0.1217 -0.2114  0.3908
 3886SOL    HW123120   4.490   3.575  11.717  0.0893 -0.2041 -0.3935
 3886SOL    HW223121   4.338   3.562  11.713  0.8872  0.8631 -0.7766
 3887SOL     OW23122   1.079   4.533  13.142 -0.1519 -1.0544 -0.2005
 3887SOL    HW123123   1.124   4.602  13.094  1.6733 -1.1175  1.4230
 3887SOL    HW223124   1.152   4.471  13.139 -0.9553 -2.0776  1.1727
 3888SOL     OW23125   3.904   0.452   4.919 -0.0025  0.0376  0.1821
 3888SOL    HW123126   3.898   0.366   4.961 -1.5037  0.8001  1.5367
 3888SOL    HW223127   3.998   0.463   4.903  0.1054 -0.9042  0.1897
 3889SOL     OW23128   1.207   2.406   5.458 -0.1130  0.1019 -0.2474
 3889SOL    HW123129   1.200   2.332   5.518  2.7989 -0.1400 -0.1661
 3889SOL    HW223130   1.282   2.453   5.494  1.4651 -2.1704 -0.5457
 3890SOL     OW23131   2.657   0.108   4.523  0.2500  0.6228  0.4431
 3890SOL    HW123132   2.692   0.020   4.508 -0.8119  0.3005 -0.1504
 3890SOL    HW223133   2.563   0.100   4.535  0.0542  1.6201 -0.4106
 3891SOL     OW23134   4.264   1.390  10.714  0.4643  0.8426 -0.4050
 3891SOL    HW123135   4.186   1.344  10.681  0.3472 -1.1132  2.6705
 3891SOL    HW223136   4.229   1.403  10.802  1.9443 -0.4817  0.3782
 3892SOL     OW23137   3.562   0.058   5.731  0.2792 -0.2467 -0.0855
 3892SOL    HW123138   3.645   0.095   5.761  0.5899 -0.4124 -0.7333
 3892SOL    HW223139   3.498   0.081   5.798  0.0485 -0.2820 -0.2958
 3893SOL     OW23140   2.375   2.332  16.884 -0.1797  0.6201 -0.2326
 3893SOL    HW123141   2.392   2.241  16.909 -0.7793  0.1677 -1.4702
 3893SOL    HW223142   2.379   2.373  16.970  1.0004  2.4224 -1.1519
 3894SOL     OW23143   4.049   1.346   8.156 -0.1503 -0.2410  0.3422
 3894SOL    HW123144   4.036   1.309   8.244 -1.6393  0.5312  0.4543
 3894SOL    HW223145   4.131   1.301   8.135 -1.4491 -1.4854 -2.0657
 3895SOL     OW23146   1.771   3.937   1.688 -0.0326 -0.3966 -0.3912
 3895SOL    HW123147   1.852   3.982   1.663 -0.1384  0.0712  0.1150
 3895SOL    HW223148   1.803   3.847   1.698 -0.4694 -0.8287 -2.7599
 3896SOL     OW23149   2.629   2.173   4.317 -0.1876 -0.2508  0.3983
 3896SOL    HW123150   2.661   2.157   4.228 -2.2158  0.3082 -0.4393
 3896SOL    HW223151   2.699   2.226   4.355 -2.6245  2.0609  1.6798
 3897SOL     OW23152   3.464   3.589   2.447  1.0764 -0.1794 -0.2940
 3897SOL    HW123153   3.558   3.578   2.433  1.3813  0.1372  1.5682
 3897SOL    HW223154   3.440   3.497   2.442 -2.8234  0.8876 -1.7969
 3898SOL     OW23155   3.717   2.884   4.821  0.1237  0.0175 -0.4307
 3898SOL    HW123156   3.685   2.973   4.805  1.8698  0.9521  1.2453
 3898SOL    HW223157   3.725   2.857   4.730 -1.6963  0.0622 -0.6147
 3899SOL     OW23158   0.058   2.627   5.626  0.6355  0.0498 -0.5185
 3899SOL    HW123159   0.060   2.562   5.555 -0.3325 -0.3866 -0.1388
 3899SOL    HW223160   0.139   2.598   5.669  0.5977 -1.0743 -1.1894
 3900SOL     OW23161   0.164   4.502   2.677 -0.0058 -0.7133  0.3135
 3900SOL    HW123162   0.096   4.533   2.736 -0.1373  2.6131 -1.5955
 3900SOL    HW223163   0.237   4.554   2.712 -0.2971 -0.1496  0.0782
 3901SOL     OW23164   1.344   1.824  14.781 -0.4601 -0.5666 -0.2293
 3901SOL    HW123165   1.382   1.763  14.843 -0.6430  0.5821  0.9982
 3901SOL    HW223166   1.351   1.905  14.831  0.5524  0.5399 -2.1256
 3902SOL     OW23167   2.693   4.126   4.062  0.2692  0.3683  0.4579
 3902SOL    HW123168   2.716   4.074   3.985  0.9205  1.8065 -0.3281
 3902SOL    HW223169   2.747   4.074   4.121  0.2867  2.3680  2.1891
 3903SOL     OW23170   0.414   2.292  12.430 -0.2872 -0.2897  0.5673
 3903SOL    HW123171   0.430   2.246  12.512  1.1057  0.0969  0.5132
 3903SOL    HW223172   0.433   2.381  12.459  0.0215  0.4012 -1.6844
 3904SOL     OW23173   3.964   2.757   5.521  0.6865  0.5428  0.2654
 3904SOL    HW123174   3.914   2.682   5.491  2.4804 -1.0915  1.3720
 3904SOL    HW223175   3.918   2.772   5.604  0.8110  1.6051  0.1416
 3905SOL     OW23176   2.207   1.973   1.850  0.2283  0.2180  0.8127
 3905SOL    HW123177   2.187   2.067   1.856  2.0535  0.6576  0.2352
 3905SOL    HW223178   2.156   1.953   1.771  0.5137  3.5943 -0.2369
 3906SOL     OW23179   0.789   3.700   8.429  0.1138 -0.3877  0.1008
 3906SOL    HW123180   0.814   3.608   8.426  0.2402 -0.3264 -0.5322
 3906SOL    HW223181   0.852   3.730   8.495 -0.4054  1.5500 -0.2718
 3907SOL     OW23182   4.226   2.682   4.421 -0.2672  0.3108  0.0491
 3907SOL    HW123183   4.254   2.733   4.497 -0.1976  1.7991 -0.9853
 3907SOL    HW223184   4.291   2.695   4.352  1.7411 -0.3763  1.7954
 3908SOL     OW23185   0.791   0.073   2.875  0.4411  0.2392  0.1520
 3908SOL    HW123186   0.862   0.033   2.925  0.0210  0.0862  0.6360
 3908SOL    HW223187   0.758   0.141   2.934  0.6873  1.4028 -1.0647
 3909SOL     OW23188   4.692   0.243  16.673 -0.4378 -0.4134  0.5163
 3909SOL    HW123189   0.058   0.277  16.662 -0.2036 -1.4996 -0.9846
 3909SOL    HW223190   4.687   0.216  16.582 -0.9738 -0.4332  0.5528
 3910SOL     OW23191   4.399   2.887  16.454  0.3155  0.0868  0.1975
 3910SOL    HW123192   4.330   2.948  16.428  0.7651  0.6827  0.3954
 3910SOL    HW223193   4.356   2.804  16.471 -0.3343  0.1261 -1.2628
 3911SOL     OW23194   0.142   3.235   4.993 -0.1102 -0.3849 -1.2209
 3911SOL    HW123195   0.064   3.281   4.960  0.6615  1.4397 -0.4851
 3911SOL    HW223196   0.155   3.291   5.069 -2.3951 -0.5172 -0.7115
 3912SOL     OW23197   2.796   0.336   5.459 -0.4897  0.6985  0.6923
 3912SOL    HW123198   2.835   0.376   5.537  0.0536  0.5195  0.5108
 3912SOL    HW223199   2.829   0.246   5.468 -1.5958  0.3453  1.3281
 3913SOL     OW23200   3.027   2.306  14.459 -0.0011  0.2907 -0.3817
 3913SOL    HW123201   2.932   2.299  14.460  0.3612 -4.4182  1.5909
 3913SOL    HW223202   3.054   2.378  14.515  2.1248  0.4586 -1.5855
 3914SOL     OW23203   4.054   1.882   8.445 -0.8139 -0.2921  0.3219
 3914SOL    HW123204   3.963   1.884   8.474 -0.9356 -1.8483  0.0199
 3914SOL    HW223205   4.056   1.978   8.443  1.5187 -0.3819 -1.8296
 3915SOL     OW23206   3.817   3.953   0.213  0.1377 -0.3239 -0.3546
 3915SOL    HW123207   3.822   3.873   0.266 -0.9666 -0.8142 -1.0029
 3915SOL    HW223208   3.799   3.916   0.127 -0.3180 -1.1040  0.0720
 3916SOL     OW23209   1.802   1.597   4.270 -0.4868  0.3426  0.8427
 3916SOL    HW123210   1.748   1.674   4.289 -1.2168 -0.4470  1.9488
 3916SOL    HW223211   1.751   1.533   4.320 -0.9627 -0.9944 -1.3705
 3917SOL     OW23212   1.044   3.761   7.947  1.0929 -0.1106 -0.0488
 3917SOL    HW123213   1.008   3.756   8.035 -0.4889 -0.9901 -0.7365
 3917SOL    HW223214   1.063   3.669   7.931 -0.1471 -0.4324  0.2994
 3918SOL     OW23215   1.568   0.170  13.421  0.0840  0.3402  1.2291
 3918SOL    HW123216   1.483   0.125  13.419  0.7386 -0.7880 -1.0134
 3918SOL    HW223217   1.626   0.107  13.379  0.0672  1.7912 -0.9746
 3919SOL     OW23218   2.654   3.105   5.141 -0.1613 -0.2314 -0.3298
 3919SOL    HW123219   2.684   3.043   5.208  0.0926  0.0877 -0.1513
 3919SOL    HW223220   2.718   3.176   5.147 -0.1511 -0.5426  3.2331
 3920SOL     OW23221   1.453   3.081  16.880  0.0399  0.0893  0.1807
 3920SOL    HW123222   1.537   3.127  16.879 -0.6106  1.2620  0.0710
 3920SOL    HW223223   1.385   3.149  16.877 -0.0077 -0.0061 -0.9309
 3921SOL     OW23224   1.482   2.781   1.224 -0.1122 -0.5884 -0.1744
 3921SOL    HW123225   1.539   2.856   1.241  1.7058 -2.3357  1.3795
 3921SOL    HW223226   1.401   2.832   1.223  1.1787  1.4346 -1.7908
 3922SOL     OW23227   4.174   1.520  15.123 -0.2894 -0.4780 -1.0128
 3922SOL    HW123228   4.116   1.450  15.093 -1.4778 -0.0892  0.3588
 3922SOL    HW223229   4.181   1.497  15.216  3.0512  3.5795 -0.2613
 3923SOL     OW23230   1.635   0.855  11.343 -0.6274  0.1570  0.1249
 3923SOL    HW123231   1.671   0.870  11.256 -0.6395 -1.7453 -0.2054
 3923SOL    HW223232   1.600   0.941  11.367  0.5177  0.4930  0.5886
 3924SOL     OW23233   2.110   2.482  17.612  0.1358 -0.6615  0.3512
 3924SOL    HW123234   2.111   2.577  17.613  1.1350 -0.6165 -4.0756
 3924SOL    HW223235   2.094   2.458  17.521 -1.0809 -0.2769  0.4626
 3925SOL     OW23236   2.104   4.140   1.418  0.6368  0.0675 -0.1582
 3925SOL    HW123237   2.162   4.131   1.342  1.2989 -0.8965  0.4696
 3925SOL    HW223238   2.084   4.234   1.418 -3.0274 -0.7163  1.7311
 3926SOL     OW23239   2.718   4.438  11.935 -0.3525  0.3355 -0.5214
 3926SOL    HW123240   2.658   4.490  11.989  0.7891  0.3242  0.7380
 3926SOL    HW223241   2.793   4.496  11.942 -1.7599  2.0327  0.6448
 3927SOL     OW23242   3.693   1.864   2.226 -0.4314  0.0382 -0.4326
 3927SOL    HW123243   3.782   1.873   2.195 -0.4263 -0.7351 -0.6344
 3927SOL    HW223244   3.655   1.948   2.199 -0.6599 -0.6219 -2.1593
 3928SOL     OW23245   2.340   1.276   5.924  0.2013  0.1216  0.5311
 3928SOL    HW123246   2.418   1.221   5.922 -0.2989 -0.6329  1.4301
 3928SOL    HW223247   2.365   1.346   5.985  0.5379  1.0555 -0.6839
 3929SOL     OW23248   0.713   0.767   3.678  0.0302  0.0725 -0.4139
 3929SOL    HW123249   0.741   0.785   3.589  1.4684 -0.1354 -0.0053
 3929SOL    HW223250   0.799   0.742   3.711 -0.8220  0.3458  2.0129
 3930SOL     OW23251   3.027   0.122   8.811  0.3975  0.0617  0.2727
 3930SOL    HW123252   3.015   0.032   8.781 -1.4910  0.6839 -0.8418
 3930SOL    HW223253   2.981   0.117   8.894  0.2245 -1.4340  0.0923
 3931SOL     OW23254   3.025   0.762   8.941 -0.7835  0.3364 -0.3303
 3931SOL    HW123255   3.088   0.786   9.010 -0.9285 -1.9677  0.5910
 3931SOL    HW223256   3.081   0.787   8.867 -2.3481  0.0757 -1.6089
 3932SOL     OW23257   0.640   2.362   0.721  0.6028 -0.2126 -0.2896
 3932SOL    HW123258   0.606   2.310   0.793  0.5773 -1.4627 -1.1957
 3932SOL    HW223259   0.588   2.316   0.655  1.2207 -0.8878 -0.3096
 3933SOL     OW23260   1.740   1.414  13.953  0.2709  0.2033  0.3784
 3933SOL    HW123261   1.821   1.454  13.921  0.3336 -0.3823 -0.1853
 3933SOL    HW223262   1.700   1.388  13.870  0.3953 -1.0574  0.7077
 3934SOL     OW23263   3.597   0.692  13.875  0.0424  0.6256  0.3312
 3934SOL    HW123264   3.586   0.743  13.794 -1.3571  1.0546  0.7910
 3934SOL    HW223265   3.683   0.714  13.910 -0.1047  0.2417  0.9312
 3935SOL     OW23266   2.367   0.183  11.383 -0.5953 -0.0578 -0.3792
 3935SOL    HW123267   2.421   0.169  11.305 -1.7507 -2.4133 -0.7620
 3935SOL    HW223268   2.295   0.123  11.361 -0.6677  0.2120 -0.8687
 3936SOL     OW23269   2.716   3.370  11.996  0.1281 -0.0642 -0.3718
 3936SOL    HW123270   2.706   3.283  12.034  1.4086  0.5938  1.5063
 3936SOL    HW223271   2.797   3.357  11.947 -0.4486  0.0470 -1.3483
 3937SOL     OW23272   0.046   4.078   6.891  0.1343 -0.0447  0.5033
 3937SOL    HW123273   0.139   4.061   6.881 -0.0949  0.4769 -2.4286
 3937SOL    HW223274   0.047   4.144   6.961  1.4505  0.6753 -0.2012
 3938SOL     OW23275   0.807   0.415   5.937  0.3113  0.2623  0.7615
 3938SOL    HW123276   0.730   0.407   5.882  0.9100  1.7490 -0.2858
 3938SOL    HW223277   0.870   0.443   5.870 -0.7166  1.9895  0.5066
 3939SOL     OW23278   2.385   4.244  15.630  0.2126 -0.1001  0.2129
 3939SOL    HW123279   2.362   4.311  15.694  2.0699  1.1931 -0.4654
 3939SOL    HW223280   2.349   4.279  15.548  0.3129 -2.1164 -0.7030
 3940SOL     OW23281   4.096   1.628  12.163  0.0738  0.0383 -0.6687
 3940SOL    HW123282   4.188   1.629  12.134  0.2518 -1.3714 -0.1574
 3940SOL    HW223283   4.102   1.700  12.225  1.2443 -0.2405 -0.4471
 3941SOL     OW23284   0.780   0.438   8.806 -0.2798 -0.3031  0.4880
 3941SOL    HW123285   0.710   0.464   8.746 -0.7650 -1.2995  0.6199
 3941SOL    HW223286   0.765   0.502   8.876 -2.2237 -1.0918  0.8001
 3942SOL     OW23287   1.551   3.602   3.555 -0.1269  0.5537 -0.0262
 3942SOL    HW123288   1.537   3.597   3.649 -2.3393 -1.5968 -0.4902
 3942SOL    HW223289   1.646   3.597   3.551 -0.0533  0.3469  2.3178
 3943SOL     OW23290   2.442   0.696   4.878 -0.4514  0.5262 -0.2324
 3943SOL    HW123291   2.512   0.663   4.934  0.2839  2.1211 -0.1993
 3943SOL    HW223292   2.493   0.737   4.807 -2.3366 -0.5488 -2.2076
 3944SOL     OW23293   1.375   1.207   2.972  0.3343  0.6845 -0.1342
 3944SOL    HW123294   1.407   1.280   2.920 -1.3370  1.7606  0.3460
 3944SOL    HW223295   1.320   1.261   3.029  0.7625  0.6486  0.3173
 3945SOL     OW23296   1.787   0.757   3.950  0.0342 -0.3900  0.4958
 3945SOL    HW123297   1.834   0.680   3.918  1.6847  0.4768  0.8160
 3945SOL    HW223298   1.815   0.759   4.041 -2.3704  2.8556  1.1879
 3946SOL     OW23299   3.813   0.992   5.196 -0.2001  0.0401 -0.0225
 3946SOL    HW123300   3.737   0.993   5.138 -1.5395 -0.4194  1.7318
 3946SOL    HW223301   3.881   1.005   5.130 -1.4924  2.9291 -0.7689
 3947SOL     OW23302   2.017   0.076   5.203  0.8719 -0.5164 -0.4152
 3947SOL    HW123303   2.105   0.080   5.165  1.0769  1.2357  0.2564
 3947SOL    HW223304   2.046   0.027   5.280  1.0643 -1.6163 -1.1918
 3948SOL     OW23305   2.435   4.314   4.447 -0.4446  0.1341  0.1150
 3948SOL    HW123306   2.394   4.235   4.413  1.6439 -1.7062  1.8657
 3948SOL    HW223307   2.488   4.338   4.371 -0.7356  2.2784  0.5729
 3949SOL     OW23308   4.252   0.269   8.232  0.0421  0.0722 -0.4720
 3949SOL    HW123309   4.245   0.360   8.202 -1.4244 -0.0416 -0.4803
 3949SOL    HW223310   4.237   0.219   8.152  1.4244  1.4450 -1.5974
 3950SOL     OW23311   2.334   4.673   1.202 -0.1772  0.0494 -0.1480
 3950SOL    HW123312   2.361   4.583   1.218  3.5238  1.0148 -0.9571
 3950SOL    HW223313   2.270   4.650   1.134 -1.8326  1.4213  0.9542
 3951SOL     OW23314   0.083   2.298  10.569 -0.0782  0.9041 -0.4295
 3951SOL    HW123315   0.103   2.380  10.524  2.2318  1.0750  0.8890
 3951SOL    HW223316   4.713   2.291  10.544 -0.2634  0.4403  0.3822
 3952SOL     OW23317   1.592   2.925  15.799 -0.0088  0.7176 -0.3236
 3952SOL    HW123318   1.511   2.974  15.815 -0.1815 -0.0695  1.2448
 3952SOL    HW223319   1.654   2.995  15.818 -1.0379  1.7317 -0.7315
 3953SOL     OW23320   2.245   0.696  10.819 -0.0606 -0.8694  0.2482
 3953SOL    HW123321   2.257   0.762  10.887  0.0536 -1.1552  0.5048
 3953SOL    HW223322   2.325   0.649  10.841  2.1016  1.6191 -2.2236
 3954SOL     OW23323   4.224   1.952   3.653  0.1069 -0.2251  0.8099
 3954SOL    HW123324   4.163   2.014   3.693  0.5081  0.4764  0.3325
 3954SOL    HW223325   4.283   1.936   3.727  1.1566 -0.4324 -0.0711
 3955SOL     OW23326   2.880   0.863   3.057 -0.0140  0.1755  0.1075
 3955SOL    HW123327   2.850   0.772   3.051  0.6783 -0.1443  1.4247
 3955SOL    HW223328   2.816   0.899   3.119  3.4116  2.8747  2.0559
 3956SOL     OW23329   2.042   3.464  17.292  0.3736 -0.1563 -0.1493
 3956SOL    HW123330   2.092   3.536  17.331 -0.1402 -0.6295  1.3873
 3956SOL    HW223331   2.118   3.407  17.279  1.8169  1.7802 -0.2719
 3957SOL     OW23332   1.514   1.334  12.240 -0.6792 -0.7850 -0.3316
 3957SOL    HW123333   1.495   1.241  12.227  0.8525 -0.7449 -2.7945
 3957SOL    HW223334   1.595   1.333  12.290  1.5856 -1.6967 -4.0655
 3958SOL     OW23335   1.355   4.377   9.585 -0.8989  0.5842  0.0870
 3958SOL    HW123336   1.317   4.310   9.641  0.1100  1.7767  2.2149
 3958SOL    HW223337   1.279   4.391   9.528 -1.6932 -0.1832  0.9839
 3959SOL     OW23338   0.643   0.669   5.811  0.1047  0.0268  0.6100
 3959SOL    HW123339   0.614   0.654   5.721 -0.2025 -0.9851  0.8740
 3959SOL    HW223340   0.562   0.658   5.861  1.1868 -0.8119  2.1724
 3960SOL     OW23341   1.833   3.360   6.000  0.6384  0.1542  0.3698
 3960SOL    HW123342   1.866   3.441   6.040  0.4965  0.2839  0.2240
 3960SOL    HW223343   1.868   3.292   6.057  1.8845  0.9807  0.5949
 3961SOL     OW23344   1.680   1.445   1.422  0.0128 -0.2963  0.1694
 3961SOL    HW123345   1.730   1.383   1.475  0.0947 -2.6174 -2.6147
 3961SOL    HW223346   1.737   1.467   1.348  0.2580  1.7674  0.9923
 3962SOL     OW23347   3.400   2.931  13.144  0.2967 -0.0828  0.2464
 3962SOL    HW123348   3.337   2.913  13.214  0.2756  2.3872  0.8783
 3962SOL    HW223349   3.484   2.914  13.187 -0.4537 -0.8162  1.4266
 3963SOL     OW23350   0.071   3.067   1.024 -0.2701 -0.6832 -0.7940
 3963SOL    HW123351   0.082   3.160   1.041  2.7036 -1.1311 -0.3635
 3963SOL    HW223352   4.708   3.055   1.066 -0.8100  3.5496 -0.6442
 3964SOL     OW23353   4.076   4.606   6.789 -0.2998 -0.0210  0.1997
 3964SOL    HW123354   4.163   4.627   6.757  0.7599  0.1832  3.2839
 3964SOL    HW223355   4.061   4.674   6.854 -0.7796 -1.4292  1.5784
 3965SOL     OW23356   1.178   0.034   5.137  0.9900 -0.0690  0.0358
 3965SOL    HW123357   1.238   0.093   5.183  0.3810  1.7491 -1.4993
 3965SOL    HW223358   1.093   0.055   5.175  1.4154  0.2685  0.7998
 3966SOL     OW23359   4.405   1.876  17.520  0.0590 -0.3935  0.7026
 3966SOL    HW123360   4.394   1.802  17.460 -1.4837  1.1093 -0.8733
 3966SOL    HW223361   4.480   1.841  17.569 -0.4456  1.2114  2.6255
 3967SOL     OW23362   3.041   2.286   0.866  0.3377 -0.3351  0.5895
 3967SOL    HW123363   2.982   2.213   0.882  0.5765 -0.3734  1.3170
 3967SOL    HW223364   3.049   2.268   0.773 -1.8283 -2.1536  0.7693
 3968SOL     OW23365   3.904   3.957  16.028 -0.1163  0.1479  0.5672
 3968SOL    HW123366   3.864   3.874  16.002  0.0586 -0.3677  1.9231
 3968SOL    HW223367   3.997   3.954  16.006 -0.3121  0.5620 -0.3266
 3969SOL     OW23368   4.229   1.406   1.627  0.0076 -0.4293  0.0478
 3969SOL    HW123369   4.212   1.460   1.549  0.0348  0.7508  0.8707
 3969SOL    HW223370   4.158   1.427   1.687 -1.4928 -1.8337 -1.2344
 3970SOL     OW23371   2.296   1.164   1.768 -0.3629 -0.3755 -0.0117
 3970SOL    HW123372   2.293   1.069   1.783  1.3869 -0.1685  1.6891
 3970SOL    HW223373   2.211   1.183   1.807  0.4829  1.1780  1.0654
 3971SOL     OW23374   2.766   3.497  16.416  0.2024  0.3344 -0.0620
 3971SOL    HW123375   2.787   3.501  16.509 -0.0181  2.1046 -0.0994
 3971SOL    HW223376   2.690   3.440  16.410 -0.0832  0.5016  2.1230
 3972SOL     OW23377   4.561   4.542   6.902 -0.3912 -0.3948  0.1394
 3972SOL    HW123378   4.556   4.453   6.937 -1.1051 -1.2742 -2.1872
 3972SOL    HW223379   4.544   4.590   6.983  0.4270  0.6680 -0.3225
 3973SOL     OW23380   2.253   4.510   4.574  0.1602  0.2089  0.3008
 3973SOL    HW123381   2.302   4.455   4.513 -1.5725 -0.2724 -0.6432
 3973SOL    HW223382   2.235   4.449   4.646 -3.5351 -1.0813 -1.7701
 3974SOL     OW23383   4.522   3.285   1.910  0.3861  0.4090  0.0191
 3974SOL    HW123384   4.531   3.368   1.863 -0.0273 -0.2110 -1.1508
 3974SOL    HW223385   4.438   3.248   1.882 -0.5476  0.8241  2.2809
 3975SOL     OW23386   4.565   2.860   6.377  0.1411 -0.4237  0.1226
 3975SOL    HW123387   4.619   2.891   6.449 -0.2590 -0.8847  0.6214
 3975SOL    HW223388   4.639   2.854   6.317  0.5130  0.2616  0.5197
 3976SOL     OW23389   4.624   1.815   1.610 -0.4702 -0.4475  0.0168
 3976SOL    HW123390   4.700   1.841   1.558  0.8547 -2.8574  0.7071
 3976SOL    HW223391   4.616   1.898   1.658  2.3803  0.2150 -0.6744
 3977SOL     OW23392   4.214   4.531   7.397 -0.0986  0.2116  0.1006
 3977SOL    HW123393   4.122   4.506   7.398  0.5921 -2.4534 -1.1978
 3977SOL    HW223394   4.242   4.513   7.307 -0.2930 -1.3536  0.3426
 3978SOL     OW23395   2.852   0.218  12.889 -0.1114 -0.1855  0.7608
 3978SOL    HW123396   2.899   0.143  12.853 -1.4469 -0.4389 -0.4834
 3978SOL    HW223397   2.916   0.243  12.955 -0.7918  0.7761  1.0450
 3979SOL     OW23398   4.718   2.577   5.933 -0.1086 -0.3948 -0.4841
 3979SOL    HW123399   0.076   2.595   5.982 -0.3996  2.6510 -1.1646
 3979SOL    HW223400   0.035   2.510   5.876 -0.1417  0.3772 -1.4088
 3980SOL     OW23401   0.709   3.016   3.671  0.1838  0.3560  0.0277
 3980SOL    HW123402   0.797   3.045   3.648  0.0196 -0.4235 -1.5748
 3980SOL    HW223403   0.690   2.955   3.599  2.3929 -1.7119  1.2031
 3981SOL     OW23404   4.119   2.150   8.429 -0.2673  0.4926  1.0792
 3981SOL    HW123405   4.188   2.139   8.364 -2.2388 -0.5125 -0.8389
 3981SOL    HW223406   4.166   2.187   8.504 -0.7327  2.7651  0.2730
 3982SOL     OW23407   0.252   4.170  15.376  0.4438  0.5075  0.2251
 3982SOL    HW123408   0.181   4.206  15.323 -0.2081 -4.2833 -2.1176
 3982SOL    HW223409   0.250   4.075  15.367  0.8412  0.6647 -1.3782
 3983SOL     OW23410   2.306   4.429   0.343  0.1416 -0.3174  0.1204
 3983SOL    HW123411   2.270   4.370   0.277 -1.0433 -0.0266  0.5202
 3983SOL    HW223412   2.315   4.516   0.304  1.8263  0.5209  2.3321
 3984SOL     OW23413   0.281   4.071   7.998  0.2914  0.6874 -0.0216
 3984SOL    HW123414   0.324   3.991   7.967 -2.7222 -1.3003  0.8783
 3984SOL    HW223415   0.224   4.027   8.061 -1.3462  0.0103 -1.9745
 3985SOL     OW23416   0.385   1.799  10.977 -0.3592  0.4856 -0.3692
 3985SOL    HW123417   0.298   1.777  11.010 -0.4194  0.8402 -0.2902
 3985SOL    HW223418   0.440   1.726  11.004 -0.3461  0.8598  0.5889
 3986SOL     OW23419   2.102   3.923   8.540  0.2435 -0.3434  0.3314
 3986SOL    HW123420   2.047   3.997   8.566  1.3399  0.0553  1.5249
 3986SOL    HW223421   2.061   3.905   8.455 -2.6601  0.4459  1.5847
 3987SOL     OW23422   2.522   3.144   3.096  0.2132  0.6514 -1.3354
 3987SOL    HW123423   2.511   3.195   3.177 -2.0463  1.3650 -2.0723
 3987SOL    HW223424   2.455   3.078   3.116 -1.1983  2.2402 -0.8254
 3988SOL     OW23425   3.776   1.924   9.908 -0.7629  0.1222  0.0209
 3988SOL    HW123426   3.795   2.015   9.882 -2.2470  0.4459  0.0247
 3988SOL    HW223427   3.837   1.913   9.980 -1.1536  0.1441  0.3598
 3989SOL     OW23428   2.452   3.251   8.802 -0.0767 -0.2547 -0.3932
 3989SOL    HW123429   2.425   3.259   8.893  0.2375  3.4623 -0.6360
 3989SOL    HW223430   2.372   3.234   8.752  1.1275 -1.0904 -2.0643
 3990SOL     OW23431   1.018   3.295   2.633 -0.5798 -0.0441  0.1829
 3990SOL    HW123432   0.931   3.259   2.615 -0.5365 -0.9424  1.7222
 3990SOL    HW223433   1.000   3.382   2.598 -1.1337 -0.4600 -0.5686
 3991SOL     OW23434   0.838   0.343   8.290 -0.2313  0.5871 -0.0531
 3991SOL    HW123435   0.809   0.268   8.343 -2.3584  1.3228 -0.1997
 3991SOL    HW223436   0.755   0.384   8.266 -0.0328  0.0771 -1.5749
 3992SOL     OW23437   1.765   4.704   5.241 -0.0625  0.0417 -0.0286
 3992SOL    HW123438   1.792   4.708   5.333  0.7545 -0.3877 -0.2575
 3992SOL    HW223439   1.845   0.017   5.202 -0.5023  1.7951  0.6320
 3993SOL     OW23440   0.099   2.833   8.603 -0.9682 -0.6171  0.6743
 3993SOL    HW123441   0.138   2.918   8.584  0.1954 -1.5881 -1.2931
 3993SOL    HW223442   0.064   2.843   8.692 -1.6719 -1.9385  0.5433
 3994SOL     OW23443   1.112   1.272   6.548 -0.2702  0.4201  0.1771
 3994SOL    HW123444   1.107   1.221   6.629 -1.1316 -0.0711 -0.1913
 3994SOL    HW223445   1.192   1.230   6.516  0.0081  0.5676  0.6752
 3995SOL     OW23446   0.432   3.117   4.408  0.1147  0.0565 -0.3097
 3995SOL    HW123447   0.476   3.040   4.372 -0.8611  0.2720 -1.9450
 3995SOL    HW223448   0.347   3.080   4.430  0.9253 -2.2900 -1.1634
 3996SOL     OW23449   1.898   1.233   9.013  0.3331 -0.0021 -0.1727
 3996SOL    HW123450   1.939   1.300   9.068 -0.8662  1.2423 -0.7919
 3996SOL    HW223451   1.971   1.171   9.013  0.8837  0.6519  2.4720
 3997SOL     OW23452   3.498   0.026   2.155 -0.2606  0.1579 -0.2629
 3997SOL    HW123453   3.440   0.015   2.230  0.4717  0.6963  0.3903
 3997SOL    HW223454   3.551   0.100   2.183 -1.7691  0.4769  1.7316
 3998SOL     OW23455   1.509   2.550   4.916 -0.8130  0.2009 -0.2416
 3998SOL    HW123456   1.434   2.573   4.862 -1.2628 -0.8037 -0.0329
 3998SOL    HW223457   1.467   2.490   4.977  0.5593 -1.5967 -1.0729
 3999SOL     OW23458   1.722   2.855   7.192 -0.6142 -0.0854  0.2207
 3999SOL    HW123459   1.744   2.778   7.244 -1.0020 -0.1479  0.2938
 3999SOL    HW223460   1.811   2.882   7.168 -0.2859 -0.3031  1.1965
 4000SOL     OW23461   4.056   2.985  10.021 -0.8610 -0.3123  0.5866
 4000SOL    HW123462   4.004   2.904  10.021 -0.6929 -0.4222 -0.0190
 4000SOL    HW223463   4.027   3.032  10.099 -1.8629 -0.0259  0.0477
 4001SOL     OW23464   2.856   1.509   7.711 -0.4711 -0.4881 -0.8185
 4001SOL    HW123465   2.882   1.600   7.725 -0.0171 -0.6952 -0.3268
 4001SOL    HW223466   2.897   1.486   7.628  1.1982 -0.6097  0.0335
 4002SOL     OW23467   0.327   0.908   1.131  0.3727 -0.0716  0.9904
 4002SOL    HW123468   0.251   0.883   1.078  0.5838 -0.1679  0.7304
 4002SOL    HW223469   0.391   0.929   1.063 -1.4673  1.8850 -0.1129
 4003SOL     OW23470   3.228   3.344   4.265  0.0363 -0.2425  0.3948
 4003SOL    HW123471   3.192   3.411   4.323 -0.6445 -0.4238  0.1849
 4003SOL    HW223472   3.204   3.382   4.180 -3.4996  0.4023  1.6944
 4004SOL     OW23473   3.083   0.799   7.720 -0.2273 -0.7711  0.6598
 4004SOL    HW123474   3.063   0.879   7.768  0.6246  0.3333 -0.8186
 4004SOL    HW223475   3.051   0.728   7.775 -0.7544  0.8770  2.4830
 4005SOL     OW23476   2.686   0.256   3.361  0.1348 -0.2050  0.8986
 4005SOL    HW123477   2.722   0.227   3.445  2.1809 -1.0067 -0.2488
 4005SOL    HW223478   2.720   0.345   3.353 -0.4068 -0.1201 -0.3709
 4006SOL     OW23479   2.999   1.067   4.680  0.1555  0.5046  0.1500
 4006SOL    HW123480   3.094   1.068   4.677  0.1850  1.9461  1.2583
 4006SOL    HW223481   2.978   0.974   4.680 -0.9137  0.7345 -1.5458
 4007SOL     OW23482   3.333   1.035   6.484 -0.3021 -0.0864  0.1395
 4007SOL    HW123483   3.391   0.961   6.469  0.3443  0.9141 -2.2769
 4007SOL    HW223484   3.268   1.032   6.413 -1.3106 -3.6516  1.2009
 4008SOL     OW23485   2.924   2.343   8.528 -0.1155 -0.0953 -0.0588
 4008SOL    HW123486   2.874   2.397   8.589 -2.2298 -1.2165 -0.7742
 4008SOL    HW223487   2.925   2.269   8.589  0.0481  0.0529  0.1180
 4009SOL     OW23488   1.813   3.839  12.454  0.1774 -0.0935  0.0823
 4009SOL    HW123489   1.883   3.784  12.421 -0.1558 -0.1245 -0.5821
 4009SOL    HW223490   1.858   3.898  12.513  1.0538 -0.6634 -0.0236
 4010SOL     OW23491   1.327   1.091   2.081  0.3655 -0.0919 -0.3589
 4010SOL    HW123492   1.420   1.078   2.062 -0.0305 -0.5486 -2.0379
 4010SOL    HW223493   1.307   1.006   2.041  1.1409 -0.1196 -0.6949
 4011SOL     OW23494   0.626   4.295   5.712  0.1380  0.0460  0.2208
 4011SOL    HW123495   0.707   4.245   5.699  0.5568  1.2331 -1.8214
 4011SOL    HW223496   0.573   4.222   5.744  2.3340 -1.9501 -0.6686
 4012SOL     OW23497   3.803   4.029   2.831 -0.5510 -0.3419 -0.5432
 4012SOL    HW123498   3.807   3.980   2.913 -0.5102  1.9088  0.7877
 4012SOL    HW223499   3.803   4.122   2.852 -0.8862 -0.8099  1.5302
 4013SOL     OW23500   3.490   2.179   8.157  0.6551 -0.5443 -0.7510
 4013SOL    HW123501   3.427   2.235   8.112  0.8663  0.9904  0.8802
 4013SOL    HW223502   3.549   2.142   8.092  0.7840  0.9195 -1.4638
 4014SOL     OW23503   3.578   3.131   7.945 -0.5447  0.2256 -0.3964
 4014SOL    HW123504   3.561   3.040   7.919 -1.5003  0.3350 -0.1452
 4014SOL    HW223505   3.666   3.121   7.983 -0.3055  1.7222 -0.5422
 4015SOL     OW23506   2.069   0.253   2.813 -0.1437  0.5140  0.3160
 4015SOL    HW123507   2.022   0.320   2.764 -1.3048 -1.6153 -1.4916
 4015SOL    HW223508   2.154   0.297   2.805  0.3956 -0.1716  2.3542
 4016SOL     OW23509   3.756   3.983  14.470  0.0541 -0.3711 -0.0952
 4016SOL    HW123510   3.768   3.896  14.430 -1.6641 -0.6132 -0.0916
 4016SOL    HW223511   3.797   3.971  14.555 -0.5112 -1.3466  0.0386
 4017SOL     OW23512   3.896   0.835   6.042  0.6924  0.1274 -0.4833
 4017SOL    HW123513   3.878   0.928   6.055 -0.7207 -0.2631  0.2770
 4017SOL    HW223514   3.828   0.805   6.102 -0.5823  2.1679 -0.9056
 4018SOL     OW23515   3.867   4.549   0.964 -0.4469 -0.0166 -0.7343
 4018SOL    HW123516   3.878   4.569   1.057  3.6562 -0.6032 -1.1106
 4018SOL    HW223517   3.843   4.635   0.929  0.1091  1.2103  1.9027
 4019SOL     OW23518   3.277   3.835  13.061 -0.0332 -0.2405  0.0498
 4019SOL    HW123519   3.289   3.835  12.966 -0.3420  1.5359  0.0160
 4019SOL    HW223520   3.201   3.776  13.060  1.2707 -1.9776  5.6220
 4020SOL     OW23521   1.147   3.111   7.554  0.4619  0.3654 -0.2434
 4020SOL    HW123522   1.166   3.072   7.469  0.1258 -0.0417 -0.1281
 4020SOL    HW223523   1.090   3.047   7.596  1.4103  0.1462  0.6964
 4021SOL     OW23524   1.093   4.522   8.213  0.1940 -0.5880  0.1863
 4021SOL    HW123525   1.047   4.522   8.298 -1.3573  2.5435 -0.6505
 4021SOL    HW223526   1.138   4.606   8.219  0.4875 -0.5617 -2.5643
 4022SOL     OW23527   1.058   3.631   2.781 -0.2611 -0.0994 -0.2544
 4022SOL    HW123528   1.143   3.588   2.792  0.0587  1.0734  1.8471
 4022SOL    HW223529   1.023   3.578   2.709  0.3028 -1.1635  0.2556
 4023SOL     OW23530   1.618   0.629   8.337  0.4616  0.4267 -0.2342
 4023SOL    HW123531   1.680   0.618   8.264  0.5402  0.3863 -0.1626
 4023SOL    HW223532   1.643   0.710   8.380  0.2006  1.3256 -1.7880
 4024SOL     OW23533   4.296   2.371  12.024  0.3185 -0.3465  0.0070
 4024SOL    HW123534   4.318   2.432  11.954 -4.3594 -0.3200 -1.4417
 4024SOL    HW223535   4.208   2.344  11.999  0.9450 -2.2958 -0.1217
 4025SOL     OW23536   3.996   4.666   5.659 -0.0470  0.2455  0.7440
 4025SOL    HW123537   3.965   4.648   5.570  2.7221 -1.6346  0.1400
 4025SOL    HW223538   4.036   0.030   5.653 -2.6743  1.2972 -1.9389
 4026SOL     OW23539   1.082   2.382  14.980  0.3273 -0.4552 -0.5181
 4026SOL    HW123540   1.103   2.420  14.894 -1.3591 -0.6189 -1.0072
 4026SOL    HW223541   1.003   2.333  14.956 -1.8110  2.0159  1.4424
 4027SOL     OW23542   4.115   2.705  11.097 -0.0914  0.1421 -0.4123
 4027SOL    HW123543   4.025   2.673  11.104 -0.8309  1.8935 -2.1717
 4027SOL    HW223544   4.120   2.715  11.002  0.0812  2.3148 -0.1595
 4028SOL     OW23545   0.125   2.746   3.407 -0.0220  0.0934  0.6375
 4028SOL    HW123546   0.140   2.655   3.433 -0.6520 -0.4730 -0.9796
 4028SOL    HW223547   0.079   2.782   3.482  0.2792  0.4467  0.6585
 4029SOL     OW23548   1.720   3.901   3.338 -1.0182  0.0017 -0.2484
 4029SOL    HW123549   1.664   3.922   3.413  1.8816 -0.1658  2.0004
 4029SOL    HW223550   1.670   3.954   3.276 -1.8609 -1.4283 -0.7696
 4030SOL     OW23551   3.611   1.602   7.485  0.1569 -0.2033 -0.3602
 4030SOL    HW123552   3.706   1.598   7.495  0.2269 -2.5218 -1.7924
 4030SOL    HW223553   3.586   1.511   7.467 -0.1579 -0.2546  0.3646
 4031SOL     OW23554   3.126   3.356   0.458 -0.6207  0.0886 -0.4275
 4031SOL    HW123555   3.181   3.409   0.400  0.5018  0.4630  0.9895
 4031SOL    HW223556   3.136   3.403   0.541  3.9253  0.6581 -1.3015
 4032SOL     OW23557   1.698   0.139   6.532  0.3175 -0.0011 -0.2380
 4032SOL    HW123558   1.688   0.188   6.614 -2.5704 -0.7780 -0.1236
 4032SOL    HW223559   1.648   0.182   6.463  1.5961  0.5318 -0.8226
 4033SOL     OW23560   2.118   3.780   8.181  0.0652 -0.0908 -0.4903
 4033SOL    HW123561   2.195   3.799   8.234 -0.8225  0.6069  0.5540
 4033SOL    HW223562   2.062   3.745   8.250 -0.2192  3.2616  0.9399
 4034SOL     OW23563   1.629   1.763   3.676 -0.0224  0.1168  0.9229
 4034SOL    HW123564   1.697   1.719   3.726 -0.3376 -0.8741  0.4749
 4034SOL    HW223565   1.565   1.693   3.689  0.2939 -0.8658 -2.6702
 4035SOL     OW23566   3.619   2.748  15.082  0.2369  0.4559  0.7255
 4035SOL    HW123567   3.649   2.839  15.084  0.0582  0.5584 -1.5984
 4035SOL    HW223568   3.531   2.763  15.048  0.4513  2.4524  1.0224
 4036SOL     OW23569   3.395   3.608   7.179  0.0668  0.0855  0.2996
 4036SOL    HW123570   3.400   3.562   7.095 -0.0533 -0.8794  0.8138
 4036SOL    HW223571   3.302   3.632   7.177  0.4488  1.6299  1.4968
 4037SOL     OW23572   4.493   0.048   3.195 -0.2847  0.0126 -0.2083
 4037SOL    HW123573   4.400   0.067   3.195  0.0009  1.4090  2.8092
 4037SOL    HW223574   4.498   4.689   3.246 -0.5921 -1.0826 -1.9182
 4038SOL     OW23575   4.343   3.175  17.602 -0.6441  0.5461 -0.0009
 4038SOL    HW123576   4.308   3.140  17.520 -1.8667  1.2037  0.2441
 4038SOL    HW223577   4.352   3.102  17.663  0.6420  1.3113  0.7430
 4039SOL     OW23578   0.143   2.238   9.229 -0.2302 -0.2013  0.1599
 4039SOL    HW123579   0.156   2.313   9.171 -1.0406 -0.7020 -0.6588
 4039SOL    HW223580   0.130   2.168   9.165  3.2130 -0.7118 -0.0017
 4040SOL     OW23581   0.876   2.957   9.773  0.4711  0.2849  0.3262
 4040SOL    HW123582   0.907   2.988   9.858  0.7966  0.1969  0.2387
 4040SOL    HW223583   0.903   2.866   9.781  0.4392  0.0767 -1.9255
 4041SOL     OW23584   1.548   0.268   4.568  0.0731 -0.3596 -0.3083
 4041SOL    HW123585   1.590   0.231   4.490  0.6672 -0.2174 -0.0552
 4041SOL    HW223586   1.464   0.296   4.532 -0.0166 -0.5064 -0.2123
 4042SOL     OW23587   0.130   0.921   7.561 -0.4052  0.0738 -0.3613
 4042SOL    HW123588   0.206   0.863   7.563  0.9360  1.8548  1.8008
 4042SOL    HW223589   0.065   0.856   7.534 -0.0421 -0.7256  0.6887
 4043SOL     OW23590   3.612   4.017   8.230 -0.0619 -0.3470 -0.0781
 4043SOL    HW123591   3.586   4.082   8.165 -1.5468  0.5333  1.4221
 4043SOL    HW223592   3.681   3.973   8.180 -0.1879 -0.1830 -0.4012
 4044SOL     OW23593   0.652   1.188   6.481  0.2204 -0.0920  0.8120
 4044SOL    HW123594   0.734   1.139   6.472 -0.5218 -1.1680 -0.0641
 4044SOL    HW223595   0.668   1.244   6.557 -0.2031  0.7896  0.2524
 4045SOL     OW23596   0.681   1.692   7.172  0.2387 -0.3434  0.3542
 4045SOL    HW123597   0.659   1.620   7.114  1.4301  0.0657 -0.5933
 4045SOL    HW223598   0.617   1.685   7.244 -0.3727  0.7824 -0.0739
 4046SOL     OW23599   0.924   3.483  11.096  0.3177  0.0394  0.0573
 4046SOL    HW123600   0.955   3.456  11.010  1.5651  2.2634 -0.1864
 4046SOL    HW223601   0.986   3.429  11.145 -1.1576 -2.0250 -0.3012
 4047SOL     OW23602   4.296   1.861   5.581  0.1334 -0.1778 -0.0363
 4047SOL    HW123603   4.390   1.859   5.601  0.0217  2.3493  0.7939
 4047SOL    HW223604   4.256   1.836   5.664 -0.7674 -4.0118 -1.6242
 4048SOL     OW23605   3.104   1.511   6.087  0.0971  0.1040 -0.5990
 4048SOL    HW123606   3.115   1.572   6.015  4.6103  0.6863  0.5988
 4048SOL    HW223607   3.181   1.458   6.068  0.5277  0.0809  1.1774
 4049SOL     OW23608   1.549   1.079   9.926 -0.0142 -0.0672  0.0396
 4049SOL    HW123609   1.580   0.992   9.900 -1.8929 -1.5520  2.7503
 4049SOL    HW223610   1.458   1.054   9.941 -0.2059  1.5572  1.5332
 4050SOL     OW23611   4.241   0.717   1.766  0.4282 -0.1799  0.0086
 4050SOL    HW123612   4.335   0.735   1.773  0.2711 -0.3532  2.5249
 4050SOL    HW223613   4.213   0.796   1.812 -1.6018 -0.4900 -0.6801
 4051SOL     OW23614   0.678   4.220   6.912 -0.0298  0.4570 -0.0390
 4051SOL    HW123615   0.761   4.173   6.906 -0.3308  0.0314 -0.9496
 4051SOL    HW223616   0.701   4.256   6.997  0.4645  0.4753 -0.1800
 4052SOL     OW23617   4.260   2.900   8.638  0.1089 -0.5291  0.3874
 4052SOL    HW123618   4.265   2.813   8.599 -0.1632  0.5820 -2.1579
 4052SOL    HW223619   4.302   2.892   8.724 -0.2212  0.4785  0.6394
 4053SOL     OW23620   2.818   1.575   2.417  0.4561  0.4092  0.5453
 4053SOL    HW123621   2.831   1.596   2.324  0.6244 -0.1978  0.4343
 4053SOL    HW223622   2.745   1.631   2.443 -1.2193 -0.1326 -3.0528
 4054SOL     OW23623   2.864   2.709  16.056 -0.8463 -0.2169  0.7418
 4054SOL    HW123624   2.844   2.626  16.100  3.7103 -1.1054  1.0923
 4054SOL    HW223625   2.782   2.757  16.069 -0.7650  0.3277 -0.8858
 4055SOL     OW23626   1.406   0.710   8.787 -0.1135 -0.3658 -0.0418
 4055SOL    HW123627   1.465   0.721   8.862 -2.0330  0.8312  1.3087
 4055SOL    HW223628   1.376   0.801   8.793 -0.4527 -0.3544 -1.8556
 4056SOL     OW23629   3.201   0.276  12.757 -0.3742  0.0191  0.3868
 4056SOL    HW123630   3.266   0.337  12.790  1.6536 -1.4145 -0.9862
 4056SOL    HW223631   3.225   0.288  12.665 -1.9146 -1.2011 -0.1932
 4057SOL     OW23632   3.357   2.527  11.822  0.0837  0.3789  0.1265
 4057SOL    HW123633   3.370   2.544  11.729 -3.3705  2.3796 -0.0127
 4057SOL    HW223634   3.445   2.535  11.858 -0.8133  0.5644  2.3307
 4058SOL     OW23635   3.996   3.820   8.374  0.2546  0.1065 -0.2979
 4058SOL    HW123636   4.019   3.731   8.402  1.8865  0.9822  1.1917
 4058SOL    HW223637   4.019   3.817   8.282  2.4314  1.9184  0.1582
 4059SOL     OW23638   0.086   1.502   8.765 -0.2587  0.2541  0.1740
 4059SOL    HW123639   0.054   1.516   8.853  0.9285 -2.4463  1.0415
 4059SOL    HW223640   0.138   1.422   8.763  1.5158  1.2938  4.4498
 4060SOL     OW23641   2.598   2.466   8.132 -0.0915 -0.1242 -0.4435
 4060SOL    HW123642   2.590   2.371   8.139  0.6132 -0.2000 -0.6003
 4060SOL    HW223643   2.619   2.495   8.221  1.2229 -0.6360 -0.5823
 4061SOL     OW23644   0.096   0.272   0.929  0.4254 -0.6955  0.8294
 4061SOL    HW123645   0.082   0.179   0.947  2.6862 -1.0571  0.6972
 4061SOL    HW223646   0.080   0.316   1.013  0.1953  0.4337  0.1886
 4062SOL     OW23647   4.450   0.991   5.187 -0.0689 -0.0864  0.4053
 4062SOL    HW123648   4.480   0.921   5.245  2.4632  0.2968 -0.4562
 4062SOL    HW223649   4.356   1.001   5.205 -0.4526  1.0980 -2.3393
 4063SOL     OW23650   0.555   1.204   8.529 -0.5648  0.2060 -0.3203
 4063SOL    HW123651   0.578   1.158   8.609 -0.2235 -1.7129 -1.5271
 4063SOL    HW223652   0.628   1.181   8.472 -0.4679  0.6762 -0.3859
 4064SOL     OW23653   3.541   2.145   0.573  0.0567 -0.3466  0.1757
 4064SOL    HW123654   3.563   2.159   0.481  0.6362  0.1117  0.3879
 4064SOL    HW223655   3.578   2.226   0.607  0.5156 -1.2752  1.8783
 4065SOL     OW23656   2.165   4.579   6.508  0.1863  0.1052  0.5246
 4065SOL    HW123657   2.234   4.641   6.482 -0.0548  0.9762  1.9972
 4065SOL    HW223658   2.099   4.637   6.546  2.5210  2.1927  1.4412
 4066SOL     OW23659   3.888   0.179   4.981  0.1062  0.1591  0.0327
 4066SOL    HW123660   3.961   0.148   5.034 -0.2223 -0.0653  0.3480
 4066SOL    HW223661   3.835   0.204   5.056  0.1532 -1.7234  0.6824
 4067SOL     OW23662   1.344   2.402  14.223  0.2596  0.4882  0.1927
 4067SOL    HW123663   1.267   2.415  14.168  0.5410  2.0470  0.1645
 4067SOL    HW223664   1.404   2.346  14.173 -0.0795  0.2246  0.0782
 4068SOL     OW23665   3.496   1.237   1.201  0.4146 -0.1090 -0.3358
 4068SOL    HW123666   3.516   1.205   1.289 -0.0411  0.5938  0.0207
 4068SOL    HW223667   3.584   1.243   1.162  1.6623 -1.3735  2.3064
 4069SOL     OW23668   0.195   1.710   1.790 -0.5281  0.0723  0.0754
 4069SOL    HW123669   0.204   1.805   1.800 -1.0547  0.0165  1.1125
 4069SOL    HW223670   0.285   1.679   1.795 -0.4685 -0.1986 -3.1720
 4070SOL     OW23671   4.613   2.255  16.418  0.2507  0.0875  0.5672
 4070SOL    HW123672   4.580   2.344  16.411  0.2125 -0.1644 -2.4596
 4070SOL    HW223673   4.590   2.227  16.506 -0.7378  0.1488  0.3363
 4071SOL     OW23674   4.085   2.163   6.167  0.1573  0.5163  0.4167
 4071SOL    HW123675   4.166   2.214   6.179  0.1158  0.8796 -0.8599
 4071SOL    HW223676   4.040   2.214   6.101  2.4890  2.4347  0.2930
 4072SOL     OW23677   1.220   4.304   0.630  0.4468  0.0824  0.2983
 4072SOL    HW123678   1.285   4.367   0.661  1.5337 -0.3577 -1.1077
 4072SOL    HW223679   1.151   4.317   0.696  1.6571 -3.3089  2.2568
 4073SOL     OW23680   1.469   1.536   3.723  0.5879 -0.4827  0.1747
 4073SOL    HW123681   1.449   1.443   3.734 -1.9390  0.4437  3.4464
 4073SOL    HW223682   1.383   1.576   3.737  1.4482  0.7348  1.9722
 4074SOL     OW23683   2.694   1.606  17.646 -0.3837 -0.2788 -0.6770
 4074SOL    HW123684   2.785   1.577  17.640 -0.5016 -0.8683  0.5367
 4074SOL    HW223685   2.691   1.636   0.045  2.0479  1.0742 -1.0334
 4075SOL     OW23686   1.887   0.750  12.466  0.3949  0.1762 -0.0443
 4075SOL    HW123687   1.864   0.662  12.495 -0.3353  0.1540 -0.7084
 4075SOL    HW223688   1.806   0.797  12.485 -0.2619 -0.8797 -0.2994
 4076SOL     OW23689   1.218   1.247   7.282 -0.0348 -0.2056  0.0789
 4076SOL    HW123690   1.311   1.250   7.306  0.0934 -0.4854 -0.3910
 4076SOL    HW223691   1.177   1.301   7.350 -1.1577 -0.5976 -0.2907
 4077SOL     OW23692   2.967   1.248   6.784 -0.6756  0.0055 -0.3952
 4077SOL    HW123693   2.941   1.171   6.834  0.7015  1.1682  2.1017
 4077SOL    HW223694   2.965   1.220   6.692  3.5947 -2.7735  0.3836
 4078SOL     OW23695   3.344   4.072  10.490 -0.0095  0.3704 -0.0630
 4078SOL    HW123696   3.263   4.028  10.518  0.2985 -0.2567 -0.1601
 4078SOL    HW223697   3.325   4.072  10.396 -0.3546 -2.2191  0.0081
 4079SOL     OW23698   1.152   4.212  12.790 -0.3167 -0.2653 -0.1285
 4079SOL    HW123699   1.140   4.244  12.701  0.5438 -1.3635 -0.6420
 4079SOL    HW223700   1.199   4.129  12.784  4.3678  2.2617  1.4899
 4080SOL     OW23701   1.101   2.729   4.966 -0.1338  0.0797  0.5018
 4080SOL    HW123702   1.176   2.737   5.025 -0.0428 -1.5582  0.6059
 4080SOL    HW223703   1.040   2.694   5.031 -1.1278  2.3836  0.8190
 4081SOL     OW23704   0.305   3.661  12.360  0.5871  0.4157  0.4034
 4081SOL    HW123705   0.304   3.710  12.277  0.8547  1.0906  0.7978
 4081SOL    HW223706   0.356   3.586  12.331  1.3250  1.4018 -0.8563
 4082SOL     OW23707   4.021   2.710   9.554 -0.1038  0.0689  0.0062
 4082SOL    HW123708   3.980   2.730   9.470  0.6875  0.2769 -0.3342
 4082SOL    HW223709   4.085   2.780   9.567  1.9910 -2.3193  2.3224
 4083SOL     OW23710   4.663   4.582   5.630 -0.1223 -0.0324  0.3551
 4083SOL    HW123711   0.021   4.622   5.598  0.1647 -0.3682  0.6571
 4083SOL    HW223712   4.607   4.657   5.650 -1.7276 -0.6417 -1.8744
 4084SOL     OW23713   2.991   3.723   2.570 -0.0376  0.8512  0.1380
 4084SOL    HW123714   3.070   3.726   2.624  1.7302  0.7099 -2.4322
 4084SOL    HW223715   3.029   3.687   2.490 -0.3226 -0.6958  0.6993
 4085SOL     OW23716   4.527   1.549   4.584  0.4580 -0.1763 -0.2854
 4085SOL    HW123717   4.620   1.529   4.593 -0.1174 -2.1354  1.4021
 4085SOL    HW223718   4.528   1.627   4.529 -0.3864 -0.4095 -0.6425
 4086SOL     OW23719   0.926   3.057   8.158  0.2845  0.6243 -0.5454
 4086SOL    HW123720   0.920   3.011   8.074  0.3222 -0.5327  0.0843
 4086SOL    HW223721   1.002   3.112   8.138  1.2340 -1.2216 -2.0558
 4087SOL     OW23722   0.285   1.295  14.888 -0.0942 -0.0617  0.7475
 4087SOL    HW123723   0.295   1.231  14.958  0.6440 -1.5872 -0.7222
 4087SOL    HW223724   0.220   1.348  14.934 -0.7699 -0.7354  0.5903
 4088SOL     OW23725   4.238   3.633   5.237 -0.0361 -0.2334 -0.3425
 4088SOL    HW123726   4.302   3.632   5.166  2.1756 -2.3430  1.6793
 4088SOL    HW223727   4.151   3.660   5.207  0.0479  1.1008  0.6440
 4089SOL     OW23728   4.709   1.353  13.178 -0.5903 -0.0951 -0.1340
 4089SOL    HW123729   4.651   1.382  13.107  1.1095  3.8564  0.1117
 4089SOL    HW223730   4.661   1.387  13.254  1.6225  1.6269  0.5074
 4090SOL     OW23731   1.879   1.588   2.618 -0.5028  0.5563  0.3192
 4090SOL    HW123732   1.955   1.575   2.675 -0.4169 -1.4325 -0.2545
 4090SOL    HW223733   1.922   1.605   2.534 -0.2158  0.9813  0.5472
 4091SOL     OW23734   2.983   3.039   7.849 -0.8889  0.1324 -0.0544
 4091SOL    HW123735   2.975   3.115   7.906 -1.3717 -0.1656  0.2728
 4091SOL    HW223736   3.075   3.018   7.862 -1.4654 -2.8588 -0.9649
 4092SOL     OW23737   1.346   0.839   1.944 -0.3064 -0.0290  0.4829
 4092SOL    HW123738   1.382   0.753   1.961 -0.5217 -0.1205  0.4737
 4092SOL    HW223739   1.264   0.826   1.896  1.3106  0.0426 -2.3575
 4093SOL     OW23740   3.994   1.248   6.379 -0.2181  0.9499 -0.2330
 4093SOL    HW123741   4.011   1.342   6.391 -0.6335  1.0344 -0.3062
 4093SOL    HW223742   3.915   1.243   6.432 -1.0764 -0.7729 -1.6726
 4094SOL     OW23743   0.980   1.419   3.672 -0.2200  0.3723  0.3122
 4094SOL    HW123744   0.930   1.484   3.622  1.0386  1.2753  0.2244
 4094SOL    HW223745   0.948   1.332   3.648  1.3326  0.3351 -1.5866
 4095SOL     OW23746   4.039   0.224   5.582 -0.0857 -0.2417 -0.5417
 4095SOL    HW123747   3.971   0.249   5.645  0.7929  0.4927  0.1145
 4095SOL    HW223748   4.009   0.271   5.504 -0.2212  1.0022  0.2514
 4096SOL     OW23749   4.635   2.328   2.296  0.3789  0.2360  0.3819
 4096SOL    HW123750   4.601   2.337   2.385 -2.6701 -0.5372 -0.6959
 4096SOL    HW223751   4.677   2.413   2.288 -1.1230  0.7601 -1.9294
 4097SOL     OW23752   0.218   3.027   9.825 -0.3648 -0.3710 -0.2419
 4097SOL    HW123753   0.252   3.112   9.853  1.1958 -0.8204 -0.7569
 4097SOL    HW223754   0.241   2.971   9.898 -1.4756 -1.0663 -0.4307
 4098SOL     OW23755   2.785   3.360   5.148  0.3624  0.3601 -0.2008
 4098SOL    HW123756   2.724   3.428   5.177  1.2282  0.8336  0.5371
 4098SOL    HW223757   2.864   3.409   5.122  1.3460  0.1521  2.3217
 4099SOL     OW23758   1.162   1.646   8.013 -0.7255  0.5849 -0.3518
 4099SOL    HW123759   1.129   1.622   7.926  0.6626 -0.7543 -0.5124
 4099SOL    HW223760   1.179   1.556   8.042 -1.9933  0.1427 -0.9946
 4100SOL     OW23761   0.004   3.077   6.792 -0.4075  0.6152 -0.2098
 4100SOL    HW123762   4.653   3.132   6.765 -0.5230  0.7487  0.3799
 4100SOL    HW223763   4.713   3.079   6.887  0.3993 -1.7739 -0.0515
 4101SOL     OW23764   0.435   2.106   4.654  0.0505 -0.1734 -0.4391
 4101SOL    HW123765   0.404   2.190   4.686 -0.2628 -0.7456  0.7556
 4101SOL    HW223766   0.383   2.093   4.575  0.0224 -0.3703 -0.3901
 4102SOL     OW23767   3.612   0.807   6.591 -0.1098 -0.1437  0.1241
 4102SOL    HW123768   3.527   0.767   6.571 -1.2112  1.7648  0.9839
 4102SOL    HW223769   3.621   0.876   6.526  0.6962 -1.0612 -0.7385
 4103SOL     OW23770   1.111   0.705   9.033  0.1170  0.5697  0.0315
 4103SOL    HW123771   1.151   0.622   9.006  0.5066  0.8485 -0.2478
 4103SOL    HW223772   1.050   0.716   8.961 -2.4817  0.8522  2.2548
 4104SOL     OW23773   2.381   3.008  11.342  0.0291  0.2661  0.4765
 4104SOL    HW123774   2.446   2.942  11.369 -1.2175 -1.0053  0.3696
 4104SOL    HW223775   2.440   3.073  11.303 -0.5173  0.6256  0.2519
 4105SOL     OW23776   1.217   3.672   2.134 -0.3056 -0.5831 -0.1169
 4105SOL    HW123777   1.146   3.620   2.097  1.5491 -2.7583 -0.5786
 4105SOL    HW223778   1.275   3.662   2.058 -0.1668  3.0367 -0.4835
 4106SOL     OW23779   2.579   0.621  17.435 -0.5163  0.1874  0.2418
 4106SOL    HW123780   2.667   0.652  17.414 -1.5061  3.0093  0.2609
 4106SOL    HW223781   2.548   0.682  17.502 -0.4900 -1.9149  2.1465
 4107SOL     OW23782   0.549   4.527   3.115 -0.4634 -0.5208 -0.5043
 4107SOL    HW123783   0.540   4.622   3.123 -1.8349 -0.7621  0.6997
 4107SOL    HW223784   0.478   4.492   3.062 -0.8400 -1.0575  0.3537
 4108SOL     OW23785   0.700   1.367  16.492  0.0857  0.5011  0.1339
 4108SOL    HW123786   0.752   1.436  16.453 -0.7414  1.3695  0.5652
 4108SOL    HW223787   0.759   1.313  16.545 -0.8931  1.7874  2.5674
 4109SOL     OW23788   2.511   0.165  16.278  0.5549  0.4504 -0.1900
 4109SOL    HW123789   2.575   0.093  16.278  0.4726  0.3752 -0.8498
 4109SOL    HW223790   2.558   0.243  16.249 -1.2737  2.2296  1.6381
 4110SOL     OW23791   4.359   2.352   1.416  0.2615  0.2924 -0.3907
 4110SOL    HW123792   4.437   2.336   1.468  0.0166 -0.8243 -0.3779
 4110SOL    HW223793   4.285   2.341   1.477  0.6368  0.4297  0.0875
 4111SOL     OW23794   3.224   3.638   3.177 -0.0560 -0.8823  0.0363
 4111SOL    HW123795   3.142   3.631   3.128 -0.5993  0.4602  0.7527
 4111SOL    HW223796   3.192   3.674   3.260 -2.0971 -2.3917 -0.0753
 4112SOL     OW23797   1.558   2.232   2.295 -0.3094  0.4025 -0.3281
 4112SOL    HW123798   1.556   2.144   2.332 -1.0830  0.4222 -0.3274
 4112SOL    HW223799   1.645   2.245   2.257  0.2199 -3.0425 -0.2431
 4113SOL     OW23800   4.279   1.397  14.780 -0.0788 -0.1885  0.2941
 4113SOL    HW123801   4.225   1.474  14.801 -1.2697  0.0513 -3.5679
 4113SOL    HW223802   4.362   1.441  14.760 -0.5945  0.7582  0.2155
 4114SOL     OW23803   4.544   1.208  10.731  0.0918  0.1387 -0.0045
 4114SOL    HW123804   4.474   1.263  10.765 -0.2023 -0.6799  0.7045
 4114SOL    HW223805   4.611   1.241  10.790  0.3250 -0.9239  0.3364
 4115SOL     OW23806   4.499   0.317   6.589 -0.4528 -0.3813  0.5172
 4115SOL    HW123807   4.537   0.336   6.503 -1.9077  0.7987  0.1260
 4115SOL    HW223808   4.579   0.293   6.634  0.2136  1.4313  0.3173
 4116SOL     OW23809   1.880   2.418   7.444  0.1566  0.0783  0.1346
 4116SOL    HW123810   1.959   2.371   7.470 -0.3400 -0.8218  0.0256
 4116SOL    HW223811   1.808   2.355   7.455  1.1466 -1.2315 -0.8862
 4117SOL     OW23812   2.944   3.567   4.822  0.4383 -0.6623 -0.5528
 4117SOL    HW123813   3.023   3.617   4.801  0.6858 -0.4026  1.0449
 4117SOL    HW223814   2.879   3.636   4.808  0.9945 -0.4726 -2.1626
 4118SOL     OW23815   2.190   2.829  17.394 -0.5845  0.5547  0.1256
 4118SOL    HW123816   2.122   2.765  17.414  0.2691 -0.6457 -0.8800
 4118SOL    HW223817   2.221   2.839  17.484  0.4147 -0.5844 -0.1104
 4119SOL     OW23818   4.361   4.168   9.015 -0.4538  0.6368  0.0736
 4119SOL    HW123819   4.287   4.110   8.996  0.5047 -0.5343 -0.1218
 4119SOL    HW223820   4.329   4.214   9.092  0.9118 -0.0859  1.0885
 4120SOL     OW23821   2.068   2.685  15.019 -0.0581 -0.2775  0.3311
 4120SOL    HW123822   2.147   2.696  15.072 -0.6989 -0.4858  1.3304
 4120SOL    HW223823   2.064   2.591  15.001 -1.6641  0.0754 -1.0513
 4121SOL     OW23824   1.093   2.649   5.893  0.6198 -0.4662 -0.0191
 4121SOL    HW123825   1.072   2.625   5.803 -0.7713  1.7270 -0.2743
 4121SOL    HW223826   1.188   2.644   5.893  0.6408  0.0020  0.6475
 4122SOL     OW23827   4.365   2.077  16.339 -0.3102  0.3183  0.2648
 4122SOL    HW123828   4.358   2.026  16.419 -1.7862  1.7613  1.0496
 4122SOL    HW223829   4.283   2.125  16.349 -1.0417 -0.6069 -1.3380
 4123SOL     OW23830   1.979   2.925   1.594 -0.2164 -0.3922  0.5835
 4123SOL    HW123831   1.995   2.851   1.536  0.6306 -0.0432  0.3628
 4123SOL    HW223832   2.061   2.972   1.576 -0.6494  0.4510  0.7703
 4124SOL     OW23833   4.167   0.812   6.767 -0.1592 -0.2320 -0.0870
 4124SOL    HW123834   4.240   0.787   6.824  0.1840  4.1910  1.4666
 4124SOL    HW223835   4.210   0.871   6.706 -0.8766 -0.1807 -0.5348
 4125SOL     OW23836   2.128   1.186   4.809 -0.5542 -0.2448 -0.1243
 4125SOL    HW123837   2.079   1.136   4.744  1.9154 -1.2577 -1.1946
 4125SOL    HW223838   2.151   1.123   4.877  0.1284 -0.6997 -0.7758
 4126SOL     OW23839   2.079   2.016   2.552  0.0131 -0.5566  0.0292
 4126SOL    HW123840   2.134   2.092   2.534  3.0440 -2.2367  2.1566
 4126SOL    HW223841   2.102   2.012   2.645 -0.7551 -0.4172  0.2272
 4127SOL     OW23842   4.148   3.746   5.778 -0.3712  0.2155 -0.2605
 4127SOL    HW123843   4.123   3.826   5.733 -2.6853 -1.2855 -1.6592
 4127SOL    HW223844   4.193   3.778   5.856 -2.3409  2.9428 -0.2524
 4128SOL     OW23845   1.460   1.600  10.871 -0.0480 -0.6492  0.5650
 4128SOL    HW123846   1.410   1.558  10.940 -2.5245 -2.2711 -2.2147
 4128SOL    HW223847   1.545   1.604  10.914 -0.3913 -0.8318  1.2540
 4129SOL     OW23848   1.529   1.453   6.105 -0.3591  0.1254  0.3747
 4129SOL    HW123849   1.535   1.473   6.012 -1.6172  0.6552  0.4045
 4129SOL    HW223850   1.592   1.512   6.147  1.5111 -1.8563  0.3122
 4130SOL     OW23851   3.709   1.661   8.189  0.1803  0.2556  0.0475
 4130SOL    HW123852   3.719   1.617   8.274  4.4146  0.8715 -0.0985
 4130SOL    HW223853   3.771   1.613   8.134  0.7958  2.0796 -0.8447
 4131SOL     OW23854   2.343   2.964   8.646 -0.4257  0.4248 -0.0971
 4131SOL    HW123855   2.300   3.040   8.683  1.6855  1.0977  1.0171
 4131SOL    HW223856   2.436   2.983   8.663 -0.2137 -0.4236 -0.2580
 4132SOL     OW23857   3.925   0.301   4.013  0.2563  0.3209  0.2634
 4132SOL    HW123858   3.830   0.293   4.005  0.1476  2.0941 -0.2652
 4132SOL    HW223859   3.939   0.207   4.011 -1.9891  0.0046 -0.8070
 4133SOL     OW23860   1.001   2.207   5.640  0.2529  0.3419  0.6614
 4133SOL    HW123861   0.923   2.208   5.584  0.8248 -0.0174 -0.1299
 4133SOL    HW223862   1.070   2.176   5.582 -1.3190 -1.2282 -0.3838
 4134SOL     OW23863   3.750   3.559   2.428 -0.4807 -0.5468  0.1437
 4134SOL    HW123864   3.831   3.609   2.436 -1.8731  2.3954 -4.1166
 4134SOL    HW223865   3.741   3.572   2.333 -2.2249  0.3448  0.4355
 4135SOL     OW23866   2.092   4.519   3.467 -0.0090 -0.3214 -0.4066
 4135SOL    HW123867   2.061   4.431   3.490  0.7580 -0.6997 -0.8361
 4135SOL    HW223868   2.021   4.579   3.445 -1.9511 -2.4419  0.0047
 4136SOL     OW23869   2.441   4.419   1.238 -0.0901  0.1852 -0.0457
 4136SOL    HW123870   2.527   4.411   1.197 -0.7392  0.1052 -1.4134
 4136SOL    HW223871   2.427   4.336   1.283  1.2908  0.4851  0.9359
 4137SOL     OW23872   4.683   2.760  14.936  0.1154  0.3373  0.3976
 4137SOL    HW123873   4.594   2.734  14.959  0.3458 -1.2228 -0.4874
 4137SOL    HW223874   4.680   2.761  14.840  0.8428 -0.7609  0.3549
 4138SOL     OW23875   2.780   3.997  13.621  0.2345 -0.1085 -0.3645
 4138SOL    HW123876   2.726   4.037  13.553 -0.2721 -0.0851  0.0531
 4138SOL    HW223877   2.803   3.909  13.590 -0.3690 -0.1001 -0.8233
 4139SOL     OW23878   3.663   1.680  15.670 -0.0801 -0.7372  0.0971
 4139SOL    HW123879   3.607   1.609  15.700 -0.0716  0.3602  2.7696
 4139SOL    HW223880   3.592   1.742  15.652  0.6433 -0.1889 -0.8834
 4140SOL     OW23881   3.718   2.514  17.143  0.1081  0.4812 -0.0905
 4140SOL    HW123882   3.774   2.570  17.197  1.3091 -0.4060 -0.4140
 4140SOL    HW223883   3.699   2.574  17.071 -1.6907 -0.2866 -0.2595
 4141SOL     OW23884   3.258   1.702   8.610  0.2858  0.1040 -0.6073
 4141SOL    HW123885   3.297   1.717   8.524  2.8254 -0.1163  0.4970
 4141SOL    HW223886   3.195   1.631   8.600 -1.5696  1.8784 -1.5774
 4142SOL     OW23887   4.218   2.509   7.105 -0.0194 -0.0946  0.2465
 4142SOL    HW123888   4.250   2.587   7.150  2.1511 -0.9414  0.1889
 4142SOL    HW223889   4.272   2.518   7.026 -1.4280  2.1215 -0.4508
 4143SOL     OW23890   0.626   2.064   8.982 -0.0893  0.2396  0.1727
 4143SOL    HW123891   0.537   2.089   8.956  0.5636  0.3263 -1.9273
 4143SOL    HW223892   0.599   2.023   9.064 -0.9874 -0.2736 -0.3717
 4144SOL     OW23893   0.085   0.253  10.098  0.4755  0.5772 -0.2247
 4144SOL    HW123894   4.717   0.227  10.085  0.7302 -2.3796  3.6701
 4144SOL    HW223895   0.124   0.233  10.013  2.1690 -0.0705  0.7101
 4145SOL     OW23896   1.221   1.545   9.616  0.3451 -0.5119 -0.0862
 4145SOL    HW123897   1.153   1.483   9.590 -1.2805  0.7439  1.2239
 4145SOL    HW223898   1.262   1.498   9.689 -1.2887  0.4506  1.4459
 4146SOL     OW23899   0.252   4.645   5.831  0.0981  0.2399 -0.0528
 4146SOL    HW123900   0.308   4.568   5.831 -0.0632  0.1281  0.5635
 4146SOL    HW223901   0.245   4.663   5.737 -1.9148 -1.4001 -0.2190
 4147SOL     OW23902   0.423   0.406   9.057  0.1969  0.2933 -0.3139
 4147SOL    HW123903   0.435   0.314   9.034 -0.6745 -0.1273  0.9630
 4147SOL    HW223904   0.425   0.447   8.970  0.0282  1.7323  0.3591
 4148SOL     OW23905   1.207   0.667   9.571  0.0762 -0.3759 -0.5972
 4148SOL    HW123906   1.224   0.708   9.486 -2.3412  2.5304  0.3308
 4148SOL    HW223907   1.115   0.645   9.554  0.0183  0.2071 -1.0382
 4149SOL     OW23908   2.400   0.033   3.815 -0.4534 -0.3592  0.5309
 4149SOL    HW123909   2.321   0.001   3.771 -1.7848 -2.1448  4.2630
 4149SOL    HW223910   2.364   0.072   3.894 -0.1953 -0.8950  0.9097
 4150SOL     OW23911   4.257   1.428   2.303  0.2990  0.1110 -0.0396
 4150SOL    HW123912   4.314   1.427   2.226  0.8164  2.3657  0.3315
 4150SOL    HW223913   4.325   1.411   2.367 -0.6233  2.8912  1.6998
 4151SOL     OW23914   0.360   3.565  13.665  0.0232  0.2119 -0.2139
 4151SOL    HW123915   0.338   3.600  13.751  0.8312 -0.8917  0.4387
 4151SOL    HW223916   0.283   3.581  13.609  0.6395  3.2934 -0.1847
 4152SOL     OW23917   3.374   3.169   0.772  0.2072  0.1427 -0.4055
 4152SOL    HW123918   3.460   3.142   0.804 -0.9164 -4.1396 -1.0190
 4152SOL    HW223919   3.407   3.223   0.701 -1.3387  1.1383 -0.3728
 4153SOL     OW23920   4.115   0.062  17.493 -0.1772 -0.2142 -0.8078
 4153SOL    HW123921   4.189   0.115  17.464 -0.6840  0.0620 -1.6218
 4153SOL    HW223922   4.148   0.053  17.582 -0.4469  2.0651 -0.4719
 4154SOL     OW23923   1.227   1.900   6.312  0.0190  0.3668  0.0251
 4154SOL    HW123924   1.298   1.946   6.268  1.2752 -1.2891  0.3020
 4154SOL    HW223925   1.265   1.812   6.302  0.4836  0.8051 -1.9200
 4155SOL     OW23926   0.095   4.129  16.004 -0.1094  0.0286 -0.1195
 4155SOL    HW123927   0.002   4.129  16.030 -0.0625 -0.2312  0.0434
 4155SOL    HW223928   0.093   4.178  15.921 -0.0237  0.4491  0.1237
 4156SOL     OW23929   2.480   2.950   3.534 -0.2860 -0.3569 -0.0184
 4156SOL    HW123930   2.503   2.863   3.500  0.8374 -0.6925  1.5737
 4156SOL    HW223931   2.483   3.002   3.454 -0.8834  0.2278  0.3433
 4157SOL     OW23932   3.417   2.680   5.035  0.1039  0.0558 -0.3064
 4157SOL    HW123933   3.430   2.595   4.993 -2.9161  0.4923 -2.1634
 4157SOL    HW223934   3.508   2.704   5.052 -0.3085  2.0347 -0.8472
 4158SOL     OW23935   4.229   1.785   0.752 -0.0735  0.1182  0.5584
 4158SOL    HW123936   4.323   1.785   0.772 -0.0671 -0.4094  0.5398
 4158SOL    HW223937   4.207   1.696   0.779 -0.4999  0.5235  1.5180
 4159SOL     OW23938   2.205   3.311  10.721  0.5669  0.3068  0.2106
 4159SOL    HW123939   2.291   3.338  10.754  0.3290 -1.1480  1.9505
 4159SOL    HW223940   2.166   3.387  10.678  0.2325  0.1091  0.1683
 4160SOL     OW23941   1.344   0.314   4.272  0.2580  0.3882  0.2599
 4160SOL    HW123942   1.275   0.376   4.248  0.3299  0.2298 -0.3475
 4160SOL    HW223943   1.419   0.361   4.234 -0.1805 -0.0219 -1.1146
 4161SOL     OW23944   3.226   4.463  16.335  0.3176 -0.6143 -0.1739
 4161SOL    HW123945   3.266   4.439  16.418 -1.6704 -1.7060  0.4718
 4161SOL    HW223946   3.283   4.531  16.299  0.8387 -0.9782 -0.0216
 4162SOL     OW23947   1.400   0.605  10.886  0.0331 -0.0889  0.2246
 4162SOL    HW123948   1.436   0.556  10.960  0.3394  1.1670  0.8978
 4162SOL    HW223949   1.404   0.530  10.827 -0.6164 -0.8984  1.2003
 4163SOL     OW23950   0.017   0.598  11.907  0.4261  0.7397  0.0922
 4163SOL    HW123951   4.700   0.566  11.826 -0.5213  0.4113  0.6778
 4163SOL    HW223952   4.716   0.531  11.971  1.0284  1.0557  0.6455
 4164SOL     OW23953   3.265   1.865   0.065 -0.0571  0.1435  0.0311
 4164SOL    HW123954   3.311   1.878  17.673  0.2025  0.0721  0.1621
 4164SOL    HW223955   3.188   1.921   0.057 -0.3128 -0.4358 -1.7226
 4165SOL     OW23956   4.370   3.424  10.333  0.6321  0.1338  0.2302
 4165SOL    HW123957   4.412   3.495  10.381 -3.8636  0.9407  3.0141
 4165SOL    HW223958   4.421   3.409  10.254  0.1253 -0.3315 -0.0044
 4166SOL     OW23959   3.231   0.346   2.924  0.0500  0.6586  0.2609
 4166SOL    HW123960   3.306   0.349   2.983  0.0742 -1.7033  0.3449
 4166SOL    HW223961   3.237   0.253   2.902 -1.3976 -0.0829  2.9843
 4167SOL     OW23962   0.284   2.333   7.112 -0.1691  0.2334  0.4895
 4167SOL    HW123963   0.304   2.249   7.154  2.0990 -0.8710 -2.7487
 4167SOL    HW223964   0.277   2.309   7.019 -1.0296  1.3775  0.2607
 4168SOL     OW23965   3.222   0.544   2.539 -0.0122 -0.4123  0.2816
 4168SOL    HW123966   3.157   0.524   2.607  1.7819  1.1582  2.4572
 4168SOL    HW223967   3.310   0.521   2.569  0.3039  1.2125  0.6081
 4169SOL     OW23968   4.508   3.760   8.704  0.7026  0.3242  0.0701
 4169SOL    HW123969   4.501   3.671   8.668  0.3406 -1.0200  3.4448
 4169SOL    HW223970   4.429   3.760   8.758  0.8060  1.9890  0.2273
 4170SOL     OW23971   2.807   1.961   2.416  0.0007  0.2269 -0.1652
 4170SOL    HW123972   2.824   1.934   2.326  1.7280  0.7070  0.0157
 4170SOL    HW223973   2.711   1.957   2.417  0.0588 -0.8814  1.5549
 4171SOL     OW23974   4.468   3.444   5.641 -0.4849 -0.2835 -0.0389
 4171SOL    HW123975   4.409   3.472   5.711 -1.0129  0.2606 -0.6911
 4171SOL    HW223976   4.438   3.506   5.574 -0.2231 -2.6718 -2.3532
 4172SOL     OW23977   0.750   1.851  16.887  0.6005  0.4490 -0.2338
 4172SOL    HW123978   0.758   1.811  16.800  2.6665 -0.3302  0.3285
 4172SOL    HW223979   0.713   1.774  16.931 -1.5544  0.9321 -1.1697
 4173SOL     OW23980   2.753   0.377   0.506 -0.4198 -0.0066 -0.0740
 4173SOL    HW123981   2.673   0.353   0.458  0.6271 -0.9785 -1.3090
 4173SOL    HW223982   2.731   0.468   0.523 -0.3088 -0.0311  0.2023
 4174SOL     OW23983   3.959   4.132   0.375  0.0576  0.3460  0.3356
 4174SOL    HW123984   3.923   4.059   0.324 -4.3252  3.1902 -0.6593
 4174SOL    HW223985   3.893   4.197   0.349 -0.1898  0.0526  0.2222
 4175SOL     OW23986   1.389   3.941  11.962  0.4814  0.0350 -0.1858
 4175SOL    HW123987   1.471   3.975  11.996 -2.1563  2.5620  3.7208
 4175SOL    HW223988   1.334   3.970  12.035 -0.1850 -3.0734  0.5606
 4176SOL     OW23989   0.160   1.171   3.463 -0.1054  0.1278 -0.4471
 4176SOL    HW123990   0.083   1.115   3.447 -0.3458  0.8388 -1.8022
 4176SOL    HW223991   0.226   1.135   3.403  0.2257  1.2247 -0.7455
 4177SOL     OW23992   3.953   0.523   3.261  0.1421  0.1792 -0.2515
 4177SOL    HW123993   3.979   0.458   3.196  0.2374 -0.7256  0.6807
 4177SOL    HW223994   4.015   0.517   3.334  0.4913  1.7815 -0.4307
 4178SOL     OW23995   2.320   2.858   4.716  0.2869  0.0309  0.0016
 4178SOL    HW123996   2.347   2.792   4.780 -2.9273  0.0904  1.3950
 4178SOL    HW223997   2.228   2.874   4.739  0.0276 -0.3516 -0.7433
 4179SOL     OW23998   3.244   2.048  11.951 -0.5399 -0.2226  0.3315
 4179SOL    HW123999   3.212   1.958  11.950  1.5855 -0.9815 -0.0919
 4179SOL    HW224000   3.194   2.092  12.020  0.4981  2.1720 -0.4445
 4180SOL     OW24001   0.073   1.854   6.708 -0.5782 -0.1263 -0.6412
 4180SOL    HW124002   0.133   1.783   6.731  2.3272  2.8455  0.9710
 4180SOL    HW224003   0.059   1.832   6.616  1.2451 -0.9711 -0.7344
 4181SOL     OW24004   2.202   0.291   8.063  0.0310  0.1054 -0.1655
 4181SOL    HW124005   2.288   0.268   8.099  0.3664 -1.6792 -2.0463
 4181SOL    HW224006   2.144   0.302   8.138  0.0477  0.2635 -0.1776
 4182SOL     OW24007   2.648   1.654   0.652  0.1768 -0.0004  0.1512
 4182SOL    HW124008   2.684   1.574   0.612  2.0159  0.7333  0.3063
 4182SOL    HW224009   2.733   1.696   0.665 -0.6915  2.1310 -1.0782
 4183SOL     OW24010   4.359   0.350   4.344 -0.3941 -0.4933 -0.1109
 4183SOL    HW124011   4.376   0.280   4.408  1.8435 -1.7021 -2.0401
 4183SOL    HW224012   4.281   0.307   4.309 -0.8121  1.1505 -1.1574
 4184SOL     OW24013   0.748   3.507  12.170  0.4195 -0.3512 -0.6721
 4184SOL    HW124014   0.794   3.541  12.247 -3.7199  0.1399  1.5850
 4184SOL    HW224015   0.807   3.434  12.151  0.4240  0.0248 -2.0384
 4185SOL     OW24016   3.947   2.240   7.370  0.4776 -0.4253 -0.4221
 4185SOL    HW124017   3.927   2.306   7.303 -1.5866 -3.5736 -2.9128
 4185SOL    HW224018   3.862   2.232   7.413 -0.1115  1.0077 -1.3109
 4186SOL     OW24019   1.640   2.356   4.749 -0.1628  1.0029  0.3659
 4186SOL    HW124020   1.636   2.377   4.656 -0.2083  1.6149  0.5104
 4186SOL    HW224021   1.625   2.438   4.795 -1.6839  0.9338 -0.0083
 4187SOL     OW24022   1.702   0.761   5.273  0.4044  0.1809  0.2278
 4187SOL    HW124023   1.642   0.740   5.202  0.1148  1.8099 -0.0036
 4187SOL    HW224024   1.766   0.694   5.247  0.9342  1.5153 -1.8247
 4188SOL     OW24025   4.003   1.634  13.233 -0.1043  0.2550  0.1459
 4188SOL    HW124026   4.007   1.634  13.328  1.9830  0.1597  0.0506
 4188SOL    HW224027   3.941   1.566  13.208  0.1460  0.8268 -2.0528
 4189SOL     OW24028   1.165   4.314   6.935  0.0953  0.1356  0.1702
 4189SOL    HW124029   1.128   4.402   6.946  0.0361 -0.0469  1.4945
 4189SOL    HW224030   1.242   4.327   6.879 -0.6918  1.8054 -0.5213
 4190SOL     OW24031   0.037   0.289   3.517 -0.1861 -0.4167 -0.4716
 4190SOL    HW124032   4.687   0.287   3.453 -1.5681 -0.5672  1.0923
 4190SOL    HW224033   0.044   0.381   3.542 -0.4735 -0.7901  0.9779
 4191SOL     OW24034   1.087   3.135  10.414  0.2029  0.1535  0.0222
 4191SOL    HW124035   1.012   3.095  10.457  1.3630 -1.6006  0.4270
 4191SOL    HW224036   1.053   3.120  10.326 -0.9661  0.0354  0.4932
 4192SOL     OW24037   1.490   3.318   8.747  0.4328  0.0877 -0.2513
 4192SOL    HW124038   1.555   3.256   8.713  2.1573  2.0590 -0.5187
 4192SOL    HW224039   1.410   3.266   8.761 -0.2493  0.8086 -1.4056
 4193SOL     OW24040   1.091   0.985   9.265 -0.3050 -0.0285 -0.3797
 4193SOL    HW124041   1.099   1.065   9.214 -2.8528  0.1867 -0.4432
 4193SOL    HW224042   1.097   1.023   9.353  0.4745 -0.5155 -0.2187
 4194SOL     OW24043   3.339   1.157   7.589 -0.1369  0.3522  0.2326
 4194SOL    HW124044   3.294   1.130   7.669  0.0136  0.0304  0.2066
 4194SOL    HW224045   3.281   1.123   7.522  0.3195 -2.3974  1.2583
 4195SOL     OW24046   0.050   1.557   7.931  0.2980 -0.1583  0.0484
 4195SOL    HW124047   0.092   1.494   7.872 -1.0880  0.6074 -1.7587
 4195SOL    HW224048   0.089   1.526   8.013  1.2223  0.7333 -0.0508
 4196SOL     OW24049   2.019   1.756   6.502  0.4781 -0.3547 -0.1132
 4196SOL    HW124050   2.001   1.661   6.501 -1.1319 -0.0317 -1.9171
 4196SOL    HW224051   2.026   1.776   6.596 -2.6033  0.8871 -0.1581
 4197SOL     OW24052   1.378   2.782   9.438 -0.5540  0.4719  0.3143
 4197SOL    HW124053   1.324   2.730   9.498 -0.2956 -1.3079 -0.9983
 4197SOL    HW224054   1.318   2.783   9.364  0.3571  2.9036 -0.3722
 4198SOL     OW24055   3.895   3.367  16.649 -0.0660  0.0195 -0.0082
 4198SOL    HW124056   3.949   3.403  16.578  1.2219  1.4211  1.6921
 4198SOL    HW224057   3.863   3.452  16.681 -2.0249 -0.9539  0.6111
 4199SOL     OW24058   0.646   2.219   6.786 -0.2983  0.4481 -0.7263
 4199SOL    HW124059   0.659   2.296   6.731 -1.4821  0.6571 -0.7263
 4199SOL    HW224060   0.714   2.169   6.742  0.7649  2.3873 -1.2729
 4200SOL     OW24061   4.113   3.362   3.070 -0.9351  0.4013 -0.2090
 4200SOL    HW124062   4.038   3.303   3.081 -1.9130  1.5174 -0.9033
 4200SOL    HW224063   4.152   3.343   2.985 -2.0024 -0.0776 -0.5878
 4201SOL     OW24064   1.945   3.808  13.758  0.3034  0.1188  0.0987
 4201SOL    HW124065   1.888   3.880  13.731  0.7763  0.2893 -0.4600
 4201SOL    HW224066   1.931   3.744  13.688 -1.4508  0.6274 -0.0010
 4202SOL     OW24067   3.731   1.307   3.754  0.9848 -0.2857  0.3761
 4202SOL    HW124068   3.804   1.317   3.815  0.4867  1.3472  0.6772
 4202SOL    HW224069   3.775   1.317   3.669  1.1167  1.6534  0.6753
 4203SOL     OW24070   1.245   1.368   8.182 -0.5743  0.2612 -0.2440
 4203SOL    HW124071   1.219   1.276   8.176 -2.9612  0.9237 -0.1421
 4203SOL    HW224072   1.206   1.396   8.265 -1.6290  0.9643 -0.9739
 4204SOL     OW24073   1.527   3.457   6.150 -0.1158  0.3812 -0.0481
 4204SOL    HW124074   1.554   3.372   6.184 -0.2183 -0.3342 -1.7791
 4204SOL    HW224075   1.616   3.489   6.136 -0.0250 -0.2667 -0.8973
 4205SOL     OW24076   2.362   2.093   8.049 -0.6517 -0.0904 -0.6095
 4205SOL    HW124077   2.378   2.031   8.120  0.3060 -0.0863 -0.8289
 4205SOL    HW224078   2.305   2.045   7.988  0.7976 -1.0604 -1.2090
 4206SOL     OW24079   2.268   1.960   5.615 -0.4066  0.1546  0.2031
 4206SOL    HW124080   2.186   1.939   5.572 -0.8274 -0.8327  1.4809
 4206SOL    HW224081   2.258   1.894   5.684  0.4407  0.3448  0.5088
 4207SOL     OW24082   0.705   3.591   9.570 -0.1521 -0.0134 -0.1668
 4207SOL    HW124083   0.693   3.498   9.552 -0.5346  0.3986 -2.0352
 4207SOL    HW224084   0.795   3.602   9.540  0.8473 -0.2322  2.6990
 4208SOL     OW24085   1.611   3.808  12.249 -0.4350 -0.3645  0.4059
 4208SOL    HW124086   1.640   3.872  12.184  1.3174 -1.2816  0.2889
 4208SOL    HW224087   1.686   3.797  12.307 -0.1161  0.0140  0.0714
 4209SOL     OW24088   3.154   4.200   8.650  0.2437  0.0105 -0.0181
 4209SOL    HW124089   3.179   4.112   8.624  0.2122 -0.0338  0.0975
 4209SOL    HW224090   3.238   4.245   8.644  0.0233  0.1856 -1.5797
 4210SOL     OW24091   1.679   3.190   8.608 -0.4189  0.1473  0.3737
 4210SOL    HW124092   1.642   3.141   8.534  1.1222 -1.9490  0.9890
 4210SOL    HW224093   1.768   3.213   8.581 -0.8688  1.3255 -0.1039
 4211SOL     OW24094   0.268   2.134   7.639 -0.0305 -0.2762 -0.0740
 4211SOL    HW124095   0.339   2.093   7.689  0.9322 -1.1109 -2.1230
 4211SOL    HW224096   0.286   2.228   7.636 -2.1789  0.1391  0.3462
 4212SOL     OW24097   1.812   1.441   4.722  0.2519  0.0174  0.4503
 4212SOL    HW124098   1.816   1.435   4.817 -1.0874  3.6104  0.7352
 4212SOL    HW224099   1.789   1.533   4.728  0.0873 -0.0176  0.3668
 4213SOL     OW24100   1.420   4.116   1.144 -0.0382  0.2814  0.0521
 4213SOL    HW124101   1.361   4.123   1.219 -0.1875 -0.3713 -0.0025
 4213SOL    HW224102   1.420   4.021   1.133  0.3032  0.5208 -1.9892
 4214SOL     OW24103   4.122   4.025   4.725  0.5504 -0.0044 -0.8352
 4214SOL    HW124104   4.188   4.092   4.706  0.3214  0.6038  0.4865
 4214SOL    HW224105   4.158   3.949   4.679  2.6402  0.4056  0.1251
 4215SOL     OW24106   0.393   4.585   6.385 -0.0541  0.0289 -0.6910
 4215SOL    HW124107   0.360   4.661   6.433  0.6072  0.3176 -0.6836
 4215SOL    HW224108   0.486   4.608   6.375 -1.0208  4.2043 -0.2537
 4216SOL     OW24109   4.691   3.134   9.649 -0.4848  0.1351  0.0207
 4216SOL    HW124110   0.064   3.126   9.646 -0.4297  0.9113 -0.0695
 4216SOL    HW224111   4.681   3.038   9.650  2.3846 -0.1417  0.2925
 4217SOL     OW24112   0.556   2.513   3.356  0.5207  1.2616  0.1808
 4217SOL    HW124113   0.617   2.548   3.290 -1.6894  3.0175 -0.9190
 4217SOL    HW224114   0.487   2.476   3.302  1.6042 -1.3094  0.5824
 4218SOL     OW24115   1.127   3.803   1.777  0.1547  0.1654 -0.6096
 4218SOL    HW124116   1.120   3.893   1.745 -1.3452  0.2979  0.1126
 4218SOL    HW224117   1.218   3.803   1.807 -0.4927  1.8009  1.3710
 4219SOL     OW24118   0.252   1.553  15.067  0.7102 -0.5735 -0.1052
 4219SOL    HW124119   0.186   1.597  15.120  0.7415 -1.8634  0.9987
 4219SOL    HW224120   0.285   1.622  15.009 -0.6857  0.0772 -0.1237
 4220SOL     OW24121   4.312   4.037  14.845 -0.8346  0.3087  0.6399
 4220SOL    HW124122   4.392   4.075  14.809 -1.3787  0.4540 -0.3948
 4220SOL    HW224123   4.345   3.948  14.852 -2.8625 -0.5679 -1.1782
 4221SOL     OW24124   3.444   0.497   0.729 -0.3493  0.1297 -0.0232
 4221SOL    HW124125   3.381   0.567   0.713 -2.0501 -0.8962  2.1234
 4221SOL    HW224126   3.393   0.416   0.726 -1.4631  0.7487  2.4945
 4222SOL     OW24127   1.857   1.685   8.260  0.2246  0.6586  0.6732
 4222SOL    HW124128   1.762   1.673   8.265  0.4528 -1.6871 -0.3622
 4222SOL    HW224129   1.875   1.635   8.339 -0.2646 -0.2077  0.2289
 4223SOL     OW24130   2.885   4.006   2.278 -0.4098 -0.0490 -0.4910
 4223SOL    HW124131   2.835   3.942   2.329  2.5015 -0.8890  1.3092
 4223SOL    HW224132   2.966   4.006   2.329 -0.7458  0.7325  0.0415
 4224SOL     OW24133   1.489   0.984   8.156  0.3734  0.1086  1.0112
 4224SOL    HW124134   1.407   0.938   8.174  0.9793 -1.5464 -0.4182
 4224SOL    HW224135   1.536   0.977   8.239  0.7083 -1.1817  0.7073
 4225SOL     OW24136   0.521   4.195  15.807  0.4682  0.0324 -0.7842
 4225SOL    HW124137   0.445   4.227  15.757  0.0805  2.5828  1.3965
 4225SOL    HW224138   0.541   4.114  15.761  0.5322 -1.4143  1.8388
 4226SOL     OW24139   3.883   3.905   2.601  0.2241 -0.2737 -0.1571
 4226SOL    HW124140   3.964   3.956   2.607 -0.5462  0.8495  0.6791
 4226SOL    HW224141   3.841   3.935   2.681  0.8991 -0.5773  0.3104
 4227SOL     OW24142   2.618   4.706  11.601 -0.0953  0.5126  0.4397
 4227SOL    HW124143   2.654   0.020  11.520 -2.1771 -0.7201 -1.0333
 4227SOL    HW224144   2.540   4.667  11.562 -0.7903 -0.6295  2.9783
 4228SOL     OW24145   0.288   1.390  10.763 -0.3874  0.0003 -0.0168
 4228SOL    HW124146   0.309   1.358  10.675 -1.9978 -1.3403  0.0994
 4228SOL    HW224147   0.203   1.427  10.742  0.2609 -0.5656 -3.7915
 4229SOL     OW24148   2.603   0.982   8.707  0.2683 -0.0154 -0.0624
 4229SOL    HW124149   2.660   0.958   8.780  2.3552  4.3158 -0.2885
 4229SOL    HW224150   2.670   1.007   8.643 -1.1337  2.0077 -0.7545
 4230SOL     OW24151   3.652   2.148   6.357  0.3550  0.4848  0.1206
 4230SOL    HW124152   3.732   2.119   6.312  0.9914  1.2475  0.7716
 4230SOL    HW224153   3.612   2.211   6.297 -1.0186  0.5896  1.1410
 4231SOL     OW24154   2.973   1.287  14.256 -0.5491  0.5968  0.5860
 4231SOL    HW124155   2.895   1.326  14.296  0.3959  0.5188  2.5258
 4231SOL    HW224156   3.039   1.350  14.283  1.8685 -1.5222 -0.3415
 4232SOL     OW24157   3.535   1.369   3.454 -0.3504 -0.1444  0.2628
 4232SOL    HW124158   3.459   1.384   3.398 -1.8104 -2.0800  1.7590
 4232SOL    HW224159   3.536   1.273   3.452 -1.5804 -0.0907 -2.0423
 4233SOL     OW24160   3.130   3.428   4.567 -0.3758  0.2147  0.2996
 4233SOL    HW124161   3.059   3.432   4.503 -1.8533  0.0637  1.9300
 4233SOL    HW224162   3.109   3.349   4.617  0.5845  0.5515  1.2371
 4234SOL     OW24163   4.406   0.520  11.822  0.0267  0.4529 -0.5234
 4234SOL    HW124164   4.382   0.613  11.823 -0.4934  0.3094  0.3757
 4234SOL    HW224165   4.319   0.493  11.794 -0.2445  0.2772  0.5060
 4235SOL     OW24166   0.740   2.755  12.272  0.8384 -0.1139 -0.1784
 4235SOL    HW124167   0.766   2.683  12.330  0.5933 -0.3645 -0.3788
 4235SOL    HW224168   0.682   2.708  12.212 -2.4483  1.9954  1.3275
 4236SOL     OW24169   3.027   2.330   4.491  0.1266 -0.1735  0.9529
 4236SOL    HW124170   3.117   2.332   4.522  0.7632  1.3768 -1.0343
 4236SOL    HW224171   3.025   2.238   4.464 -0.5789  0.4727 -1.1606
 4237SOL     OW24172   0.303   1.149  15.118 -0.2189 -0.4292  0.3644
 4237SOL    HW124173   0.384   1.105  15.143  0.9346  0.7352 -1.3715
 4237SOL    HW224174   0.234   1.118  15.177 -0.5128 -1.9044 -0.7608
 4238SOL     OW24175   3.316   3.290   1.617  0.5329  0.2780  0.0852
 4238SOL    HW124176   3.248   3.303   1.684 -0.4530 -0.7878 -0.7045
 4238SOL    HW224177   3.338   3.197   1.627  0.3455  0.1615 -0.5736
 4239SOL     OW24178   0.151   0.341   8.762  0.4944 -0.3242  0.5913
 4239SOL    HW124179   0.220   0.406   8.747 -0.4370  0.1342 -1.7952
 4239SOL    HW224180   0.142   0.344   8.857  0.7753  1.0921  0.5832
 4240SOL     OW24181   4.465   1.299   8.929  0.7919 -0.3354  0.2591
 4240SOL    HW124182   4.430   1.384   8.905  0.0782 -0.7125 -0.0139
 4240SOL    HW224183   4.451   1.254   8.846  1.5072  0.0475 -0.0698
 4241SOL     OW24184   0.895   0.423   3.388 -0.0539 -0.5079 -0.1994
 4241SOL    HW124185   0.891   0.500   3.331 -2.3861 -0.2484  0.3208
 4241SOL    HW224186   0.801   0.407   3.393 -0.5279  2.0672 -0.6627
 4242SOL     OW24187   4.240   0.517   8.108 -0.1260  0.3741 -0.3657
 4242SOL    HW124188   4.253   0.548   8.018  0.1253  2.5719  0.4317
 4242SOL    HW224189   4.148   0.542   8.118 -0.5112 -0.4618 -1.8012
 4243SOL     OW24190   0.640   4.298   7.399  0.2801  0.0656 -0.3843
 4243SOL    HW124191   0.565   4.356   7.392  0.3658  0.5038  2.2474
 4243SOL    HW224192   0.603   4.212   7.417  0.1117  0.6492  2.0329
 4244SOL     OW24193   0.499   0.460  13.395  0.1368  0.4318  0.5514
 4244SOL    HW124194   0.522   0.480  13.304 -1.3649 -0.1283  0.0419
 4244SOL    HW224195   0.571   0.405  13.425  1.2966  2.2041  1.0797
 4245SOL     OW24196   3.156   1.584   7.637  0.1793  0.0634 -0.1691
 4245SOL    HW124197   3.225   1.616   7.579  0.4870  0.1727  0.2579
 4245SOL    HW224198   3.079   1.640   7.624  0.5011  0.8229  1.2477
 4246SOL     OW24199   4.005   0.192   3.336 -0.4545  0.1399 -0.0559
 4246SOL    HW124200   4.030   0.280   3.365  0.7654 -0.6367  1.2268
 4246SOL    HW224201   3.915   0.208   3.309 -0.6547  2.6911  2.1328
 4247SOL     OW24202   0.800   3.872   8.139 -0.0288 -0.4544 -0.0706
 4247SOL    HW124203   0.733   3.869   8.208 -0.6983 -1.2309 -0.7621
 4247SOL    HW224204   0.876   3.867   8.197  0.9928  1.4478 -1.2246
 4248SOL     OW24205   3.289   3.120   4.550 -0.5336  0.2936  0.0126
 4248SOL    HW124206   3.194   3.131   4.548 -0.4916  0.6978  0.2791
 4248SOL    HW224207   3.316   3.201   4.594  1.7214 -1.3343  1.5964
 4249SOL     OW24208   1.006   4.476  10.128  0.0482  0.0738  0.1464
 4249SOL    HW124209   1.028   4.383  10.127  1.0810  0.3150  0.2971
 4249SOL    HW224210   0.960   4.478  10.212  0.6761 -1.0329  0.5247
 4250SOL     OW24211   2.186   1.011  12.648 -0.1013  0.4841  0.2807
 4250SOL    HW124212   2.186   1.027  12.742 -0.4022 -1.6285  0.6363
 4250SOL    HW224213   2.271   1.046  12.619  0.0051 -0.0472 -0.0429
 4251SOL     OW24214   2.454   0.339   6.540 -0.0307  0.0378 -0.0692
 4251SOL    HW124215   2.368   0.381   6.550  0.1273 -0.1286  1.9974
 4251SOL    HW224216   2.466   0.360   6.447  0.0145 -2.1835 -0.5644
 4252SOL     OW24217   2.930   3.034   0.165 -0.5269  0.6809  0.0935
 4252SOL    HW124218   2.861   3.084   0.209 -3.0475 -0.0697 -2.9226
 4252SOL    HW224219   2.983   3.111   0.147  1.1534  0.4967  4.3396
 4253SOL     OW24220   2.846   1.607  14.429 -1.0246 -0.4184  0.1805
 4253SOL    HW124221   2.807   1.529  14.389 -0.6711 -0.7654  0.5066
 4253SOL    HW224222   2.839   1.660  14.349  0.8287  0.8418  0.8515
 4254SOL     OW24223   0.741   0.050  11.887 -0.1232 -0.2032  0.5878
 4254SOL    HW124224   0.655   0.020  11.916  0.2258  0.7621  2.6413
 4254SOL    HW224225   0.759   0.118  11.953  0.8538  1.3254 -1.2691
 4255SOL     OW24226   3.592   2.333  15.305  0.8900  0.1112  0.2522
 4255SOL    HW124227   3.498   2.319  15.293  0.7316 -1.2697  2.8661
 4255SOL    HW224228   3.619   2.251  15.263 -0.7014 -0.9437  1.2686
 4256SOL     OW24229   3.311   1.975   2.828 -0.0396  0.1875  0.3791
 4256SOL    HW124230   3.257   2.027   2.888  1.7666  2.0431  0.3856
 4256SOL    HW224231   3.390   1.959   2.880  0.1760  0.1532  0.0408
 4257SOL     OW24232   0.489   4.384  16.936 -0.1072  0.2550  0.0697
 4257SOL    HW124233   0.531   4.385  16.850 -2.9839 -0.4028 -1.3549
 4257SOL    HW224234   0.516   4.472  16.964  1.7626 -0.2925 -0.0315
 4258SOL     OW24235   4.654   2.076   1.738  0.0130  0.1505 -0.0022
 4258SOL    HW124236   4.626   2.091   1.828  3.5426 -0.8056  1.2742
 4258SOL    HW224237   0.023   2.105   1.744  0.6148 -1.5666 -0.7220
 4259SOL     OW24238   0.252   1.626   6.777  0.4390  0.7470 -0.6254
 4259SOL    HW124239   0.193   1.593   6.844  1.2737 -0.1337 -0.3245
 4259SOL    HW224240   0.224   1.576   6.701 -1.6953  0.2447  0.4850
 4260SOL     OW24241   0.603   4.579   5.215 -0.4334  0.3845 -0.5840
 4260SOL    HW124242   0.674   4.590   5.152 -0.8762  0.5728 -1.0582
 4260SOL    HW224243   0.601   4.483   5.221 -1.8517  0.3188 -1.9506
 4261SOL     OW24244   1.499   1.688  15.670 -0.7064 -0.2966 -0.3770
 4261SOL    HW124245   1.468   1.737  15.747 -2.1507  3.0939 -3.1431
 4261SOL    HW224246   1.483   1.597  15.698 -1.5604 -0.1734 -0.4457
 4262SOL     OW24247   0.497   3.738   6.350  0.1027 -0.1397 -0.5198
 4262SOL    HW124248   0.542   3.673   6.297  0.2976 -0.0077 -0.5182
 4262SOL    HW224249   0.551   3.744   6.429  1.3331  0.9775 -1.4257
 4263SOL     OW24250   4.094   2.098   2.234  0.1787  0.3514 -0.2658
 4263SOL    HW124251   4.067   2.107   2.142 -1.6985  2.2065  0.4807
 4263SOL    HW224252   4.174   2.150   2.230 -0.1199  0.9670  1.9277
 4264SOL     OW24253   3.132   0.275   3.832 -0.3680 -0.4708 -0.4490
 4264SOL    HW124254   3.156   0.349   3.888 -1.4579 -0.0603 -0.5396
 4264SOL    HW224255   3.158   0.203   3.891 -1.6187 -0.8684 -0.3857
 4265SOL     OW24256   3.919   1.353  11.548  0.4897 -0.0181 -0.4694
 4265SOL    HW124257   3.881   1.411  11.614 -0.4028 -0.3410 -0.7013
 4265SOL    HW224258   3.894   1.389  11.463  1.5415  1.8366  0.0175
 4266SOL     OW24259   2.982   2.748  15.807  0.1043 -0.1346 -0.0590
 4266SOL    HW124260   3.054   2.687  15.788  0.1803  0.5671 -1.9935
 4266SOL    HW224261   2.967   2.735  15.901 -0.5693  2.2674  0.1650
 4267SOL     OW24262   1.907   1.969   4.218 -0.2208 -0.2431 -0.4018
 4267SOL    HW124263   1.931   2.018   4.297 -1.4379  2.3361 -1.6421
 4267SOL    HW224264   1.840   1.914   4.258  1.4135 -0.7165  1.7030
 4268SOL     OW24265   1.024   1.790   0.122 -0.2246  1.1111  0.3833
 4268SOL    HW124266   1.029   1.883   0.147 -0.2427  1.0196  0.7336
 4268SOL    HW224267   1.108   1.777   0.079  1.1566  0.1348  3.3345
 4269SOL     OW24268   3.430   3.890  16.094 -0.5005 -0.0726  0.4048
 4269SOL    HW124269   3.362   3.829  16.122 -0.4815 -1.2905 -2.2060
 4269SOL    HW224270   3.506   3.863  16.146 -1.1923 -0.3215  1.2966
 4270SOL     OW24271   2.605   4.126  13.392 -0.4612 -0.2031 -0.2898
 4270SOL    HW124272   2.618   4.133  13.297  3.1526  0.1857  0.2330
 4270SOL    HW224273   2.533   4.189  13.400 -2.3473 -2.3708 -0.2180
 4271SOL     OW24274   3.654   3.497   4.543 -0.5890  0.0193  0.5443
 4271SOL    HW124275   3.562   3.512   4.521  0.2449  2.7612 -1.0797
 4271SOL    HW224276   3.691   3.452   4.467 -0.4869 -0.1832  0.7142
 4272SOL     OW24277   3.533   2.844  17.578 -0.6964  0.5921  0.1641
 4272SOL    HW124278   3.579   2.766  17.609  1.3287  1.4896 -0.5813
 4272SOL    HW224279   3.573   2.878  17.498  0.2583  0.6079  0.6566
 4273SOL     OW24280   0.944   4.213   3.990 -0.8864 -0.6925  0.3573
 4273SOL    HW124281   0.947   4.127   3.949  2.4134  0.6771 -2.3304
 4273SOL    HW224282   0.921   4.262   3.911  1.9798 -0.3638 -0.2773
 4274SOL     OW24283   1.438   1.054   4.228  0.3452  0.7203  0.2425
 4274SOL    HW124284   1.498   1.005   4.172  0.6031  1.5560 -0.2087
 4274SOL    HW224285   1.392   0.979   4.267  0.7440  0.8255  0.9250
 4275SOL     OW24286   1.108   1.035   6.039  0.3092 -0.2317 -0.1581
 4275SOL    HW124287   1.033   1.067   5.988 -0.3282 -0.4119  0.6606
 4275SOL    HW224288   1.120   1.101   6.108 -0.2521  1.0259 -1.2562
 4276SOL     OW24289   2.226   0.690   2.965 -0.4314  0.5318  0.2948
 4276SOL    HW124290   2.280   0.768   2.977  0.0147  0.4838 -1.4319
 4276SOL    HW224291   2.143   0.736   2.955  1.2112  3.3628 -0.3357
 4277SOL     OW24292   2.278   2.411   1.773  0.3122  0.8428  0.5690
 4277SOL    HW124293   2.339   2.338   1.766  0.7696  1.1235  1.5232
 4277SOL    HW224294   2.213   2.371   1.830  2.6813 -2.8489  0.6479
 4278SOL     OW24295   3.913   4.040  14.975  0.8324  0.1047 -0.2805
 4278SOL    HW124296   4.000   4.051  15.013 -0.2328  2.9452  1.2978
 4278SOL    HW224297   3.879   4.128  14.991  1.8590  0.7304 -1.4890
 4279SOL     OW24298   1.402   2.528  16.381  0.0017  0.0430  0.0857
 4279SOL    HW124299   1.322   2.512  16.331 -0.5533  0.1234  0.9459
 4279SOL    HW224300   1.365   2.517  16.469  0.3226  1.2800  0.3762
 4280SOL     OW24301   3.529   4.291   6.790 -0.2431 -0.0944 -0.2157
 4280SOL    HW124302   3.563   4.312   6.703 -4.2637 -0.5917 -1.9158
 4280SOL    HW224303   3.604   4.243   6.827  0.2216  2.0976  1.7027
 4281SOL     OW24304   1.017   1.983   3.873  0.2943  0.2925  0.3603
 4281SOL    HW124305   1.060   1.945   3.949  0.0659  2.3766  1.5449
 4281SOL    HW224306   1.048   2.073   3.881 -0.6632  0.5282  1.4418
 4282SOL     OW24307   2.578   3.188  11.223 -0.1351  0.2289  0.2902
 4282SOL    HW124308   2.648   3.126  11.246 -0.0971  0.4385  0.7292
 4282SOL    HW224309   2.540   3.135  11.153 -0.0940  0.5956 -0.0084
 4283SOL     OW24310   3.986   2.162   4.509 -0.2209  0.0350 -0.4232
 4283SOL    HW124311   4.003   2.075   4.475 -1.5945 -0.5133  0.3054
 4283SOL    HW224312   3.986   2.216   4.430  0.7654  1.9186  0.8359
 4284SOL     OW24313   3.652   2.394   8.630  0.3675  0.7543 -0.1027
 4284SOL    HW124314   3.645   2.409   8.536  0.7318 -1.2292 -0.4327
 4284SOL    HW224315   3.718   2.460   8.652  3.0374 -1.5641 -1.2677
 4285SOL     OW24316   1.155   4.576   0.211 -0.2267  0.7872  0.2952
 4285SOL    HW124317   1.145   4.568   0.306  1.8618 -0.0845  0.4413
 4285SOL    HW224318   1.208   4.655   0.208 -0.5684  1.0278  0.5936
 4286SOL     OW24319   3.103   0.021   7.139 -0.4725 -0.7121 -0.7677
 4286SOL    HW124320   3.072   4.686   7.210 -2.4685  2.2525  0.7492
 4286SOL    HW224321   3.045   4.708   7.072  1.0176  0.9973 -2.9496
 4287SOL     OW24322   2.255   2.063   4.565 -0.2083 -0.2460  0.2665
 4287SOL    HW124323   2.310   2.120   4.619  0.2180 -1.3615  1.0129
 4287SOL    HW224324   2.317   2.010   4.515 -0.1839 -0.4213  0.4801
 4288SOL     OW24325   0.466   3.992  12.866  0.5245  0.2666  0.2361
 4288SOL    HW124326   0.387   3.943  12.842 -0.4336  1.5436  0.7886
 4288SOL    HW224327   0.424   4.063  12.915  0.2380  0.6598 -0.5792
 4289SOL     OW24328   2.417   0.076  15.930  0.1477  0.2097  0.0454
 4289SOL    HW124329   2.466   0.133  15.989 -1.2712 -1.8080  3.1721
 4289SOL    HW224330   2.396   4.718  15.978 -0.2636 -0.8635 -1.9187
 4290SOL     OW24331   0.373   0.484   8.458 -0.4968 -0.5015  0.2598
 4290SOL    HW124332   0.279   0.483   8.471 -0.7646  3.5330 -1.2747
 4290SOL    HW224333   0.381   0.564   8.405  0.7491 -0.6625  0.1924
 4291SOL     OW24334   2.079   0.335   7.245  0.2447  0.0275  0.0645
 4291SOL    HW124335   2.093   0.363   7.335  0.5796  0.7637 -0.2155
 4291SOL    HW224336   2.131   0.255   7.249  0.1330  0.0756  2.1563
 4292SOL     OW24337   1.724   2.922   1.211  0.1960 -0.7793 -0.6710
 4292SOL    HW124338   1.710   2.901   1.119  3.0011 -1.6060 -0.8899
 4292SOL    HW224339   1.742   2.833   1.242  1.1001  0.6667  3.0127
 4293SOL     OW24340   1.363   3.751   2.657 -0.8746  0.0002 -0.0139
 4293SOL    HW124341   1.317   3.773   2.738 -1.7198 -0.9402 -0.2412
 4293SOL    HW224342   1.293   3.767   2.593 -1.3279  0.4135  0.5843
 4294SOL     OW24343   4.549   0.319   7.771  0.5327 -0.4046  0.0235
 4294SOL    HW124344   4.617   0.382   7.749 -1.1709  1.0131 -1.2194
 4294SOL    HW224345   4.499   0.338   7.691 -1.6513 -0.4080  1.3737
 4295SOL     OW24346   3.660   1.894   1.190  0.0546 -0.7046  0.3668
 4295SOL    HW124347   3.687   1.805   1.212  1.2552 -0.0919  1.3657
 4295SOL    HW224348   3.591   1.880   1.125  1.8359  0.5408 -1.8053
 4296SOL     OW24349   0.980   0.643  16.761 -0.2996  0.2903  0.2341
 4296SOL    HW124350   1.052   0.648  16.824  0.6032  0.9364 -0.8586
 4296SOL    HW224351   0.991   0.558  16.718  0.5057  0.2990  0.4323
 4297SOL     OW24352   0.420   1.220   1.965 -0.1339 -0.3069  0.5521
 4297SOL    HW124353   0.342   1.269   1.938 -0.2685 -1.1949 -0.6665
 4297SOL    HW224354   0.491   1.278   1.938  0.1614 -0.3047  1.3614
 4298SOL     OW24355   3.276   1.965   3.741 -0.4550  0.2675 -0.2564
 4298SOL    HW124356   3.326   2.026   3.687 -0.9312 -0.4470 -1.5039
 4298SOL    HW224357   3.331   1.888   3.752 -1.1647 -0.0538  1.0593
 4299SOL     OW24358   4.550   1.258   2.789 -0.6317  0.2514 -0.3916
 4299SOL    HW124359   4.547   1.174   2.743  0.1838 -1.3758  2.5503
 4299SOL    HW224360   4.619   1.229   2.848 -0.9817 -2.6161 -1.3923
 4300SOL     OW24361   3.455   0.631   3.479  0.3387 -0.0914  0.8185
 4300SOL    HW124362   3.460   0.719   3.516 -0.2976 -0.2821  1.3537
 4300SOL    HW224363   3.543   0.605   3.453  0.6324  0.6347  1.0793
 4301SOL     OW24364   0.130   2.967   0.463  0.1624 -0.6543 -0.6391
 4301SOL    HW124365   0.144   3.038   0.400  0.4599 -1.5336 -1.5768
 4301SOL    HW224366   0.044   2.928   0.447 -0.6977  0.6343  0.9337
 4302SOL     OW24367   1.061   0.976   5.009  0.4136  0.2318  0.1297
 4302SOL    HW124368   1.017   1.010   5.087  0.5358  2.5352 -0.7737
 4302SOL    HW224369   1.051   0.883   5.029 -0.2762  0.2319 -0.1932
 4303SOL     OW24370   2.906   4.596   6.947  0.4812  0.4368 -0.9905
 4303SOL    HW124371   2.837   4.656   6.974  1.0237  1.4389 -1.8362
 4303SOL    HW224372   2.886   4.520   7.001  1.5994 -0.2657 -1.5724
 4304SOL     OW24373   2.697   1.951  14.396  0.1468 -0.3444 -0.2960
 4304SOL    HW124374   2.659   1.880  14.344 -1.5232  0.7530 -0.5958
 4304SOL    HW224375   2.790   1.945  14.376  0.6272 -0.6075  2.1104
 4305SOL     OW24376   3.108   2.042  16.012 -0.0539 -0.7110 -0.1219
 4305SOL    HW124377   3.147   2.057  15.926 -0.6979 -1.0941 -0.4767
 4305SOL    HW224378   3.090   1.948  16.019 -1.2010 -0.1922  3.8816
 4306SOL     OW24379   4.265   4.386   4.222 -1.1517  0.1118  0.1368
 4306SOL    HW124380   4.293   4.320   4.286  0.2289  0.0585 -0.5162
 4306SOL    HW224381   4.266   4.331   4.143  0.6185  2.4679 -1.4914
 4307SOL     OW24382   4.089   1.230  13.651 -0.4598  0.4622 -0.4790
 4307SOL    HW124383   4.047   1.265  13.730  0.3437  1.5441 -0.5263
 4307SOL    HW224384   4.146   1.302  13.625 -2.3778  1.7103 -1.2257
 4308SOL     OW24385   3.662   2.056   1.604  0.0642  0.3692  0.2922
 4308SOL    HW124386   3.597   2.058   1.534 -0.6096  1.8817  0.9661
 4308SOL    HW224387   3.688   2.146   1.623  0.9291 -0.2875  2.2302
 4309SOL     OW24388   0.999   4.643  13.385 -0.6904 -0.1436 -0.0759
 4309SOL    HW124389   1.035   4.598  13.308  1.3823  1.4718 -0.0512
 4309SOL    HW224390   0.936   4.700  13.340 -0.1851  1.4887  1.2776
 4310SOL     OW24391   3.052   4.649  15.661  0.0214 -0.1197  0.1427
 4310SOL    HW124392   2.981   4.620  15.605  0.4006 -0.8780  0.0529
 4310SOL    HW224393   3.031   0.017  15.686  0.7915 -0.4146  1.8826
 4311SOL     OW24394   3.118   2.399  14.716 -0.1544 -0.0029  0.4229
 4311SOL    HW124395   3.142   2.431  14.802  1.0944 -0.5441  0.2673
 4311SOL    HW224396   3.024   2.412  14.727 -0.1031  1.0731 -0.3879
 4312SOL     OW24397   0.430   3.997   4.151 -0.3001  0.1049  0.0977
 4312SOL    HW124398   0.512   4.039   4.123  0.5768 -0.8794  1.1724
 4312SOL    HW224399   0.390   4.076   4.188 -3.3064 -0.9793 -0.8818
 4313SOL     OW24400   4.375   1.250   6.584 -0.8967 -0.0471  0.3254
 4313SOL    HW124401   4.453   1.194   6.586  0.0380  1.2129 -0.4609
 4313SOL    HW224402   4.388   1.316   6.652  0.5278 -0.7290  0.7226
 4314SOL     OW24403   0.054   4.527   2.434  0.1207 -0.0816  0.3994
 4314SOL    HW124404   0.097   4.517   2.519  0.9456  0.9602  0.1098
 4314SOL    HW224405   4.707   4.462   2.446 -1.3203  1.8624  2.6242
 4315SOL     OW24406   4.610   1.476   8.532  0.2245  0.3121 -0.7289
 4315SOL    HW124407   4.648   1.486   8.619 -2.6916  3.2046  0.2004
 4315SOL    HW224408   4.534   1.425   8.562  0.0801  1.1067  0.2706
 4316SOL     OW24409   1.312   3.199  11.018 -0.2238 -0.1238  0.3904
 4316SOL    HW124410   1.278   3.271  11.072  0.4641 -2.0259  3.3616
 4316SOL    HW224411   1.239   3.191  10.957  0.2444  0.7797 -0.2951
 4317SOL     OW24412   1.529   4.374   9.134  0.3608  0.1533 -0.3203
 4317SOL    HW124413   1.564   4.421   9.209  1.3648 -2.9495  1.1457
 4317SOL    HW224414   1.617   4.344   9.110  1.0371  2.4602 -0.7588
 4318SOL     OW24415   0.729   3.441   8.501 -0.1573 -0.7201  0.1323
 4318SOL    HW124416   0.673   3.374   8.541 -0.4539 -0.6264 -0.1204
 4318SOL    HW224417   0.813   3.397   8.514  1.2124  1.7613 -0.2397
 4319SOL     OW24418   0.114   3.019   4.602  0.4798  0.0099 -1.0300
 4319SOL    HW124419   0.040   2.958   4.598 -1.1201  1.8974 -0.2389
 4319SOL    HW224420   0.141   3.010   4.694  1.0186  0.8596 -1.1101
 4320SOL     OW24421   1.037   3.187   1.035  0.1408  0.2879  0.1484
 4320SOL    HW124422   1.090   3.173   1.113 -1.1581  0.4691  1.0705
 4320SOL    HW224423   0.973   3.252   1.064 -0.9323 -1.3240  1.3743
 4321SOL     OW24424   2.515   1.892  11.796 -0.1874  0.1631 -0.5498
 4321SOL    HW124425   2.590   1.926  11.845  0.1268  0.6571 -1.3849
 4321SOL    HW224426   2.457   1.873  11.870 -0.0884  2.1043  0.0211
 4322SOL     OW24427   0.538   4.480  15.147 -0.2185  0.0846  0.6804
 4322SOL    HW124428   0.614   4.523  15.110  0.3479  1.0617  3.0006
 4322SOL    HW224429   0.538   4.388  15.120  0.3541 -0.3937  2.2485
 4323SOL     OW24430   1.020   3.383  12.834 -0.1142 -0.8720  0.2415
 4323SOL    HW124431   0.986   3.429  12.911  1.2745 -0.8831  0.8635
 4323SOL    HW224432   1.092   3.330  12.869 -2.4893 -3.7044  0.8619
 4324SOL     OW24433   1.363   0.698   7.764  0.3483  0.4373 -0.1046
 4324SOL    HW124434   1.423   0.768   7.741  0.5887  0.3685  0.3070
 4324SOL    HW224435   1.309   0.738   7.832 -1.3874  0.4733 -1.4925
 4325SOL     OW24436   0.492   4.392   6.881  1.3222  0.1543  0.4030
 4325SOL    HW124437   0.449   4.362   6.801 -0.6002 -0.0406  1.5036
 4325SOL    HW224438   0.558   4.322   6.882 -0.3680 -1.4599 -0.8474
 4326SOL     OW24439   0.292   0.885   3.242  0.3032  0.2140 -0.7848
 4326SOL    HW124440   0.203   0.903   3.213  0.1141 -1.0797 -1.0204
 4326SOL    HW224441   0.314   0.841   3.160 -0.6026 -0.4346 -0.6702
 4327SOL     OW24442   1.902   1.939   2.365  0.2420  0.7860 -0.1906
 4327SOL    HW124443   1.970   1.981   2.418  0.1011  0.5253  0.2037
 4327SOL    HW224444   1.891   1.858   2.416 -2.6511  0.6103 -1.0678
 4328SOL     OW24445   1.728   2.505   5.316  0.1040  0.9121  0.2679
 4328SOL    HW124446   1.788   2.565   5.361  1.4938  1.6891 -2.6206
 4328SOL    HW224447   1.718   2.433   5.377  2.8717 -0.3361 -0.7686
 4329SOL     OW24448   3.539   1.246   1.506  0.2955 -0.6174  0.4839
 4329SOL    HW124449   3.554   1.338   1.483  0.7527 -0.7813  0.1194
 4329SOL    HW224450   3.619   1.236   1.558 -0.5809  0.5961  2.0492
 4330SOL     OW24451   0.843   4.356   4.223 -0.2080  0.2211 -0.5494
 4330SOL    HW124452   0.883   4.283   4.176  1.6129 -1.0586  3.0023
 4330SOL    HW224453   0.832   4.416   4.149  0.6405  1.3994  0.2665
 4331SOL     OW24454   0.592   3.749   3.259 -0.3759 -0.2509  0.8913
 4331SOL    HW124455   0.574   3.659   3.285 -2.1066  0.1444  1.0607
 4331SOL    HW224456   0.649   3.789   3.325 -0.7588  0.0487  1.0411
 4332SOL     OW24457   4.461   1.857   6.097  0.0917 -0.2006  0.2433
 4332SOL    HW124458   4.550   1.862   6.062 -0.4552  2.1640 -0.7781
 4332SOL    HW224459   4.445   1.763   6.094  0.5555 -0.2787  0.2133
 4333SOL     OW24460   0.726   0.871   4.021 -0.8058  0.3200 -0.2176
 4333SOL    HW124461   0.821   0.860   4.009 -0.8210 -0.8142  0.7692
 4333SOL    HW224462   0.727   0.843   4.112  0.1843 -0.3113 -0.4207
 4334SOL     OW24463   3.701   3.000   7.545  0.1716  0.3540  0.6229
 4334SOL    HW124464   3.630   2.962   7.494  0.2066  0.1692  0.7107
 4334SOL    HW224465   3.778   2.955   7.508 -1.7594  0.4541 -3.4765
 4335SOL     OW24466   2.357   4.057   4.358 -0.3914  0.7097 -0.0204
 4335SOL    HW124467   2.326   3.966   4.362 -0.8072  0.8241 -0.6155
 4335SOL    HW224468   2.291   4.093   4.298  0.2418 -2.6522 -2.7748
 4336SOL     OW24469   3.665   3.615   3.747 -0.0838  0.0103  0.6848
 4336SOL    HW124470   3.725   3.668   3.695  0.9963 -1.5096  0.3640
 4336SOL    HW224471   3.725   3.542   3.764  1.0584  1.3159  2.2044
 4337SOL     OW24472   3.853   2.646   4.687  0.0991 -0.2394  0.3311
 4337SOL    HW124473   3.851   2.601   4.602  0.1167  0.4456 -0.0314
 4337SOL    HW224474   3.903   2.726   4.678  0.9702 -0.7140  0.9269
 4338SOL     OW24475   4.241   3.373   8.505 -0.7071  0.2355 -0.4626
 4338SOL    HW124476   4.253   3.305   8.572  3.5457 -2.4478 -3.9282
 4338SOL    HW224477   4.268   3.329   8.424 -0.3715 -0.1439 -0.1439
 4339SOL     OW24478   3.985   0.419   3.770  0.1934 -0.3846  0.0375
 4339SOL    HW124479   3.938   0.489   3.815  0.2685 -0.2972 -0.0199
 4339SOL    HW224480   4.007   0.359   3.841 -0.5188 -0.3814  0.2562
 4340SOL     OW24481   1.136   2.549  14.760  0.3785  0.0266 -0.3006
 4340SOL    HW124482   1.128   2.629  14.707 -1.8755 -1.5614 -2.3667
 4340SOL    HW224483   1.042   2.544  14.774  0.2219  0.0349 -1.2965
 4341SOL     OW24484   3.673   2.149   5.208  0.3379  0.4846 -0.0733
 4341SOL    HW124485   3.762   2.173   5.183 -0.3014  1.5047 -1.3343
 4341SOL    HW224486   3.679   2.180   5.298 -0.1410  3.0898 -0.9456
 4342SOL     OW24487   1.855   0.715   6.614  0.3747  0.5993  0.0053
 4342SOL    HW124488   1.927   0.776   6.632  0.2034  0.3557  1.4816
 4342SOL    HW224489   1.890   0.649   6.553  0.1174  1.5830 -1.1983
 4343SOL     OW24490   3.294   2.798   7.143 -0.8315 -0.3747 -0.0455
 4343SOL    HW124491   3.263   2.751   7.066 -1.7560 -1.0856  0.7581
 4343SOL    HW224492   3.257   2.883   7.120 -0.6719  0.1177  1.5221
 4344SOL     OW24493   0.832   1.897   6.858 -0.2100 -0.6724  0.0660
 4344SOL    HW124494   0.926   1.894   6.874  0.0729 -2.0875 -1.8103
 4344SOL    HW224495   0.805   1.899   6.950  1.3232 -1.0594  0.5219
 4345SOL     OW24496   4.068   1.953  17.241  0.3290  0.6905  0.1206
 4345SOL    HW124497   4.144   1.895  17.252  1.2258  1.4130 -2.3937
 4345SOL    HW224498   4.068   2.004  17.323  2.0055  0.0395  0.5254
 4346SOL     OW24499   3.136   2.132   4.195  0.4110  0.0317 -0.5603
 4346SOL    HW124500   3.101   2.094   4.276 -0.3936  1.1617 -0.3755
 4346SOL    HW224501   3.124   2.062   4.131 -2.1857 -0.3382  0.3104
 4347SOL     OW24502   3.962   4.176   5.144 -0.8416  0.3941 -0.2072
 4347SOL    HW124503   3.957   4.272   5.152  0.9944  0.4682  0.1884
 4347SOL    HW224504   3.883   4.147   5.190  0.7187 -0.8189  1.6791
 4348SOL     OW24505   2.225   2.357  16.042  0.0687  0.1987 -0.1445
 4348SOL    HW124506   2.170   2.376  15.966 -1.0437  0.2874  0.6776
 4348SOL    HW224507   2.270   2.283  16.002 -0.8470 -0.7815  0.6256
 4349SOL     OW24508   3.214   3.960   5.465  0.1001 -0.0127 -0.2896
 4349SOL    HW124509   3.202   3.963   5.560 -0.4295 -1.0699 -0.3329
 4349SOL    HW224510   3.223   3.865   5.464  1.8013  0.1496 -2.3013
 4350SOL     OW24511   3.562   3.117   5.570 -0.5434  0.2168  0.1625
 4350SOL    HW124512   3.571   3.146   5.480  0.6332  1.4213  0.6735
 4350SOL    HW224513   3.640   3.149   5.616 -0.6786  2.2398 -1.0024
 4351SOL     OW24514   4.002   4.605   1.755 -0.2946 -0.3709 -0.2421
 4351SOL    HW124515   4.073   4.668   1.761 -0.8197  0.3065 -1.2659
 4351SOL    HW224516   4.020   4.539   1.822  0.3105  0.2577  0.2134
 4352SOL     OW24517   0.163   4.017  17.557  0.2341 -0.1024 -0.0592
 4352SOL    HW124518   0.100   4.031  17.486 -1.7094 -0.9284  1.5011
 4352SOL    HW224519   0.155   4.096  17.611 -1.4624 -0.0839 -0.3227
 4353SOL     OW24520   2.018   1.013  11.989  0.0846 -0.0228 -0.1597
 4353SOL    HW124521   2.078   0.944  11.960 -0.7721 -0.7526 -0.1644
 4353SOL    HW224522   1.934   0.970  11.972  0.3656 -0.2218 -1.0754
 4354SOL     OW24523   3.620   2.097   3.227  0.4091 -0.0110  0.3709
 4354SOL    HW124524   3.631   2.191   3.244 -1.6697  0.3395 -0.2411
 4354SOL    HW224525   3.638   2.055   3.311  1.8014 -0.0940  0.0465
 4355SOL     OW24526   4.334   3.906   5.500 -0.0970  0.1290 -0.6393
 4355SOL    HW124527   4.370   3.980   5.549  2.0159 -1.6038  0.4271
 4355SOL    HW224528   4.240   3.917   5.513  0.0960  0.1938  0.7574
 4356SOL     OW24529   3.217   3.060   1.103  0.2557  0.1623 -0.3267
 4356SOL    HW124530   3.263   3.141   1.081 -1.1471  0.8104 -0.9053
 4356SOL    HW224531   3.152   3.100   1.161 -3.5396 -3.7694 -1.8873
 4357SOL     OW24532   0.992   0.715   5.137  0.0666  0.2477  0.1950
 4357SOL    HW124533   0.919   0.663   5.170 -0.1150  0.5784  0.3054
 4357SOL    HW224534   1.000   0.674   5.051 -1.0964  1.1902 -0.3577
 4358SOL     OW24535   3.319   0.132   7.391 -0.6707  0.3442 -1.1106
 4358SOL    HW124536   3.376   0.071   7.344  0.2242 -0.8572  1.4888
 4358SOL    HW224537   3.257   0.074   7.435  1.2169 -1.3155 -0.6085
 4359SOL     OW24538   4.264   3.917   5.992 -0.1751 -0.7899  0.0585
 4359SOL    HW124539   4.276   4.010   5.974 -3.0263 -0.1981  1.2462
 4359SOL    HW224540   4.169   3.911   6.006 -0.1586  1.4024  0.9906
 4360SOL     OW24541   4.632   0.988  16.273 -0.2543 -0.6720 -0.1842
 4360SOL    HW124542   4.700   0.994  16.341  1.0560 -1.0383 -1.4681
 4360SOL    HW224543   4.659   1.061  16.217 -1.3518 -0.8361 -0.9245
 4361SOL     OW24544   0.759   2.677   4.333 -0.0415  0.5045  0.0812
 4361SOL    HW124545   0.824   2.741   4.364  0.4963  0.7280 -1.5400
 4361SOL    HW224546   0.683   2.732   4.314 -0.8088 -0.9429 -1.0002
 4362SOL     OW24547   1.684   1.303   3.596 -0.2286 -0.2916  0.3779
 4362SOL    HW124548   1.620   1.327   3.529  0.2778 -1.1535 -0.4305
 4362SOL    HW224549   1.763   1.291   3.544  0.7226  1.8864  1.3599
 4363SOL     OW24550   0.769   0.788   4.285  0.2551 -0.0736  0.0752
 4363SOL    HW124551   0.682   0.750   4.293  0.4987 -0.5531  0.4371
 4363SOL    HW224552   0.774   0.843   4.363 -0.7039  0.1782 -0.0478
 4364SOL     OW24553   4.658   0.744   7.480  0.3682 -0.0261  0.7226
 4364SOL    HW124554   4.673   0.659   7.439 -0.7860 -0.1579  0.5892
 4364SOL    HW224555   4.570   0.728   7.513 -0.9200  1.4492 -1.9727
 4365SOL     OW24556   0.232   3.881  16.472 -0.2664  0.0054 -0.1523
 4365SOL    HW124557   0.149   3.926  16.462  0.2203  1.5272  2.6277
 4365SOL    HW224558   0.223   3.869  16.567 -0.2568  0.6119 -0.0729
 4366SOL     OW24559   1.420   2.331   2.775  0.2962  0.3720 -0.3630
 4366SOL    HW124560   1.350   2.289   2.825 -0.5994  0.7124 -1.3353
 4366SOL    HW224561   1.383   2.351   2.689  0.8079 -1.3787 -0.9964
 4367SOL     OW24562   3.049   0.319   3.332  0.0481  0.6163 -0.3452
 4367SOL    HW124563   2.975   0.377   3.350 -0.0045  0.3887  0.1920
 4367SOL    HW224564   3.124   0.370   3.363 -0.1388 -0.6948  2.3142
 4368SOL     OW24565   2.634   1.061   2.781  0.4706 -0.0483 -0.0061
 4368SOL    HW124566   2.576   1.072   2.705  1.0563 -3.6506 -0.9564
 4368SOL    HW224567   2.703   1.108   2.734  1.3646 -1.9698 -0.5957
 4369SOL     OW24568   0.714   3.334  16.299  0.4804 -0.7520  0.4472
 4369SOL    HW124569   0.636   3.382  16.328 -0.2507  0.3439 -3.4136
 4369SOL    HW224570   0.769   3.346  16.376 -0.3722  0.4449  0.8653
 4370SOL     OW24571   2.202   3.340   6.713  0.0839 -0.3817 -0.0086
 4370SOL    HW124572   2.206   3.348   6.809  0.2948  1.6255 -0.1726
 4370SOL    HW224573   2.157   3.258   6.694 -0.5198  0.3116 -1.5384
 4371SOL     OW24574   2.406   4.591   3.103  0.1711 -0.5505  0.4557
 4371SOL    HW124575   2.496   4.622   3.093  1.2058 -3.5647  0.5535
 4371SOL    HW224576   2.409   4.522   3.037 -0.8916  0.1147 -0.2812
 4372SOL     OW24577   4.178   1.034  12.070  0.2610  0.2492 -0.3751
 4372SOL    HW124578   4.136   1.072  11.993 -1.3327 -0.2431  0.2538
 4372SOL    HW224579   4.220   0.956  12.034  2.2671  1.0051  0.3079
 4373SOL     OW24580   3.901   1.754   1.532 -0.1058 -0.0847 -0.3201
 4373SOL    HW124581   3.982   1.714   1.565 -0.0275  1.8786  1.7714
 4373SOL    HW224582   3.936   1.836   1.498  1.8143 -0.2487  1.2562
 4374SOL     OW24583   2.451   2.641   1.930 -0.3107  0.8884 -0.9781
 4374SOL    HW124584   2.431   2.585   1.855 -1.3483  0.4897 -0.4097
 4374SOL    HW224585   2.477   2.576   1.994 -1.3177 -1.5087 -3.0142
 4375SOL     OW24586   0.969   1.784  14.166 -0.1895  0.3052  0.5611
 4375SOL    HW124587   1.035   1.744  14.109 -0.0759  0.1678  0.7868
 4375SOL    HW224588   1.006   1.872  14.177 -0.8937  0.7007 -0.2597
 4376SOL     OW24589   3.604   0.790   4.906 -0.0328 -0.3858 -0.1038
 4376SOL    HW124590   3.627   0.823   4.819 -0.3824 -0.2154 -0.1306
 4376SOL    HW224591   3.691   0.795   4.946  0.3479  0.1494 -0.9777
 4377SOL     OW24592   0.850   1.022  12.331  0.6976  0.1773 -0.0635
 4377SOL    HW124593   0.820   0.966  12.403  2.4497  2.3896  2.3767
 4377SOL    HW224594   0.863   1.101  12.384 -1.9126  0.1744  0.5914
 4378SOL     OW24595   0.340   4.454  14.112  0.0536 -0.1078  0.2187
 4378SOL    HW124596   0.426   4.481  14.145  0.4668 -0.3164 -0.6813
 4378SOL    HW224597   0.372   4.402  14.039  0.5863  0.7430 -0.1609
 4379SOL     OW24598   2.617   0.909   5.713 -0.5310 -0.0775 -0.3105
 4379SOL    HW124599   2.692   0.853   5.733 -0.1052  0.9315  0.8727
 4379SOL    HW224600   2.644   0.946   5.629  0.1062  0.1887  0.0209
 4380SOL     OW24601   2.862   0.138   9.502  0.3278  0.6222  0.2922
 4380SOL    HW124602   2.800   0.165   9.435  2.7951  0.1049 -2.1726
 4380SOL    HW224603   2.925   0.094   9.446  1.7540  4.0707 -0.8259
 4381SOL     OW24604   0.668   2.974   8.269 -0.2493  0.4791  0.3421
 4381SOL    HW124605   0.755   3.006   8.245 -0.9113  2.3460  0.4239
 4381SOL    HW224606   0.609   3.045   8.245  0.3280 -0.0157 -2.5763
 4382SOL     OW24607   1.717   3.499   7.550  0.1657 -0.3441  0.6403
 4382SOL    HW124608   1.678   3.544   7.624  0.0386 -1.2629  1.1264
 4382SOL    HW224609   1.651   3.430   7.546 -0.7823  0.6311 -0.5989
 4383SOL     OW24610   0.857   1.092  11.265  0.1885 -0.2112 -0.0533
 4383SOL    HW124611   0.772   1.072  11.304  0.6036 -1.4121  0.2556
 4383SOL    HW224612   0.850   1.178  11.224  0.1916  0.4680  1.3653
 4384SOL     OW24613   3.046   3.921  16.930  0.0451  0.1806  0.4589
 4384SOL    HW124614   3.111   3.925  17.000  0.4325 -2.6686  0.2443
 4384SOL    HW224615   3.081   3.981  16.863  0.5269 -1.2812 -0.6085
 4385SOL     OW24616   0.909   3.088   8.430 -0.5744 -0.3910 -0.4897
 4385SOL    HW124617   0.920   3.053   8.342 -1.0417  1.8102 -1.4202
 4385SOL    HW224618   0.849   3.022   8.465 -2.4946  0.5043 -2.0808
 4386SOL     OW24619   1.095   2.245  14.650  0.0107  0.0627  0.1610
 4386SOL    HW124620   1.035   2.219  14.720  0.3248  0.7877  0.7021
 4386SOL    HW224621   1.040   2.221  14.576 -0.2512 -1.0944  0.7276
 4387SOL     OW24622   4.400   2.851  16.940  0.0168  0.5346  0.4389
 4387SOL    HW124623   4.443   2.766  16.952 -0.6394  0.2166  0.5454
 4387SOL    HW224624   4.460   2.904  16.886  1.7965 -3.5458 -1.6302
 4388SOL     OW24625   1.404   4.084   7.407  1.0741  0.0402  0.1265
 4388SOL    HW124626   1.337   4.063   7.472 -2.0979  0.9795 -2.8739
 4388SOL    HW224627   1.371   4.157   7.355 -0.2278 -0.2123  0.6081
 4389SOL     OW24628   2.895   2.367   2.498 -0.1739 -0.8055 -0.4002
 4389SOL    HW124629   2.988   2.357   2.475 -0.2990 -0.9991 -0.8171
 4389SOL    HW224630   2.870   2.442   2.443 -0.2342  1.2021  2.3833
 4390SOL     OW24631   4.396   0.653   8.823  0.0452 -0.2227 -0.4413
 4390SOL    HW124632   4.346   0.571   8.833 -0.2097  0.0644  0.6489
 4390SOL    HW224633   4.335   0.717   8.787  0.8201  0.7594  0.0022
 4391SOL     OW24634   2.205   3.664   5.413 -0.3761 -0.0082  0.1533
 4391SOL    HW124635   2.285   3.710   5.434 -1.0998  2.6038 -2.8315
 4391SOL    HW224636   2.222   3.653   5.319  0.2255 -1.1614  0.3991
 4392SOL     OW24637   1.696   4.424   4.555  0.0768 -0.3592  0.3505
 4392SOL    HW124638   1.647   4.396   4.633 -2.0461 -0.2348 -0.9387
 4392SOL    HW224639   1.784   4.388   4.565 -1.1008 -3.5969 -0.9459
 4393SOL     OW24640   3.287   4.295  15.105  0.3936 -0.4141  0.0939
 4393SOL    HW124641   3.312   4.270  15.194  0.0025  2.1977  0.9633
 4393SOL    HW224642   3.339   4.229  15.061  0.7290 -0.1717  0.1292
 4394SOL     OW24643   4.512   4.348   2.264  0.5917  0.1892  0.0373
 4394SOL    HW124644   4.510   4.280   2.197  1.1619 -0.9321  1.1738
 4394SOL    HW224645   4.429   4.323   2.304  0.0071  2.4642  0.2403
 4395SOL     OW24646   3.275   1.260   3.761  0.6488  0.3533 -0.0089
 4395SOL    HW124647   3.246   1.303   3.841 -1.4870 -0.4144 -0.3739
 4395SOL    HW224648   3.193   1.227   3.723  2.4067 -1.4736 -2.2320
 4396SOL     OW24649   0.351   2.168   9.409 -0.4772 -0.3901 -0.1030
 4396SOL    HW124650   0.343   2.245   9.466 -1.5904 -0.7600  0.2557
 4396SOL    HW224651   0.279   2.187   9.349 -0.0571  1.2284 -0.0932
 4397SOL     OW24652   0.406   1.255   6.752 -0.1459 -0.3364  0.1219
 4397SOL    HW124653   0.421   1.344   6.783 -1.8359  0.6436 -1.8162
 4397SOL    HW224654   0.333   1.226   6.805 -0.6479  0.6263 -0.0488
 4398SOL     OW24655   3.655   1.973   6.808  0.4427 -0.6799 -0.0036
 4398SOL    HW124656   3.741   1.994   6.845  0.8810 -1.6706 -0.4664
 4398SOL    HW224657   3.662   2.019   6.724 -2.7149  1.5615  0.9721
 4399SOL     OW24658   0.988   4.295  10.712 -0.2273 -0.3307 -0.1667
 4399SOL    HW124659   1.027   4.276  10.797 -0.4654  0.7877  0.1889
 4399SOL    HW224660   1.062   4.321  10.658 -0.4033  0.4063 -0.0519
 4400SOL     OW24661   2.748   2.359  14.432 -0.0507  0.3479 -0.0086
 4400SOL    HW124662   2.713   2.447  14.415 -0.4071  0.4027  1.0051
 4400SOL    HW224663   2.707   2.304  14.365  2.2706 -0.3454 -0.8302
 4401SOL     OW24664   2.717   4.508   0.617  0.3262 -0.3465  0.3230
 4401SOL    HW124665   2.714   4.505   0.713 -1.9280 -1.4139  0.2205
 4401SOL    HW224666   2.784   4.447   0.589  0.1498  0.0032 -0.8490
 4402SOL     OW24667   0.443   0.252   6.882 -0.5471 -0.1057 -0.6910
 4402SOL    HW124668   0.526   0.292   6.856  0.4324 -2.3658 -0.9964
 4402SOL    HW224669   0.476   0.175   6.929  0.5027 -0.0192 -1.2848
 4403SOL     OW24670   1.624   2.421   4.476 -0.1599 -0.1359 -0.1451
 4403SOL    HW124671   1.709   2.446   4.437 -0.7789  1.0036 -0.7646
 4403SOL    HW224672   1.584   2.508   4.484 -0.7336 -0.3303 -0.8852
 4404SOL     OW24673   0.051   3.299   8.443 -0.2383  0.2331 -0.3202
 4404SOL    HW124674   4.689   3.253   8.445  0.1662 -0.3844  2.1665
 4404SOL    HW224675   0.071   3.315   8.535  3.1027 -0.9568 -0.8410
 4405SOL     OW24676   0.146   0.473   3.011 -0.5675 -0.3772  0.4045
 4405SOL    HW124677   0.155   0.534   2.937  1.1394 -0.6809  0.3751
 4405SOL    HW224678   0.051   0.461   3.002 -0.4209 -2.2816  1.4143
 4406SOL     OW24679   4.286   1.806  17.255  0.0622  0.2298  0.5184
 4406SOL    HW124680   4.311   1.733  17.198 -2.4877  1.3096 -1.9879
 4406SOL    HW224681   4.353   1.873  17.241 -1.0068  1.0879 -0.4212
 4407SOL     OW24682   4.564   1.096  13.622  0.1574  0.0098 -0.3598
 4407SOL    HW124683   4.482   1.087  13.573 -1.2224  1.0520  1.7535
 4407SOL    HW224684   4.621   1.094  13.546 -0.2789 -0.6256 -0.6741
 4408SOL     OW24685   2.839   1.488   8.925 -0.1891 -0.0596 -0.8176
 4408SOL    HW124686   2.883   1.409   8.892  0.7836  0.1042  0.0805
 4408SOL    HW224687   2.774   1.520   8.862 -1.0760  0.0076  0.1272
 4409SOL     OW24688   0.515   3.184   8.160 -0.2588  0.0282  0.4223
 4409SOL    HW124689   0.487   3.198   8.070  1.0007 -0.5771 -0.0793
 4409SOL    HW224690   0.544   3.271   8.187 -1.7266  1.2711 -2.1240
 4410SOL     OW24691   4.653   2.445  15.006  0.0590  0.3879  0.1373
 4410SOL    HW124692   0.015   2.426  15.048  1.5600  2.5483 -1.8598
 4410SOL    HW224693   4.689   2.454  14.917 -1.4892  0.5398 -0.4670
 4411SOL     OW24694   2.740   0.342  11.371  0.2226 -0.5348 -0.1419
 4411SOL    HW124695   2.810   0.340  11.305  0.2520 -0.7565 -0.1058
 4411SOL    HW224696   2.691   0.416  11.336  0.8503  0.1710  0.4731
 4412SOL     OW24697   3.212   1.815  17.228  0.0634 -0.3019  0.1070
 4412SOL    HW124698   3.119   1.836  17.224 -0.4181 -2.2836  0.7420
 4412SOL    HW224699   3.245   1.803  17.139  0.1542 -1.1719  0.2530
 4413SOL     OW24700   2.818   2.265   6.072  0.0985  0.7913 -0.3853
 4413SOL    HW124701   2.830   2.282   5.979  0.6468 -0.3047 -0.5179
 4413SOL    HW224702   2.870   2.187   6.091  0.4435  1.3831  1.1578
 4414SOL     OW24703   0.315   3.514   9.156 -0.3564 -0.7180  0.2783
 4414SOL    HW124704   0.365   3.471   9.086  1.0591  0.2500  0.7124
 4414SOL    HW224705   0.371   3.484   9.227 -0.8074 -1.1640  0.4524
 4415SOL     OW24706   0.399   1.991   1.513 -0.0013  0.1791  0.6140
 4415SOL    HW124707   0.360   1.947   1.438 -2.5687 -2.1480  3.3138
 4415SOL    HW224708   0.467   1.928   1.537 -0.9145 -0.9122  0.3281
 4416SOL     OW24709   0.588   0.434   5.492  0.5529  0.3426  0.2118
 4416SOL    HW124710   0.682   0.448   5.489  0.5637  0.0527 -0.7518
 4416SOL    HW224711   0.563   0.407   5.404  3.4139  2.0203 -1.1081
 4417SOL     OW24712   3.434   2.889   4.154 -0.2860 -0.4170  0.2725
 4417SOL    HW124713   3.366   2.946   4.191 -1.8911 -2.8892  1.1478
 4417SOL    HW224714   3.468   2.951   4.090  0.9368 -0.4769  0.8565
 4418SOL     OW24715   0.842   4.653   3.649  0.1095  0.0969  0.4640
 4418SOL    HW124716   0.890   4.575   3.620  0.1589  0.9177 -1.6682
 4418SOL    HW224717   0.767   4.651   3.589 -0.0410  0.5007  0.6425
 4419SOL     OW24718   4.421   3.333  15.364  0.0671 -0.2845 -0.3240
 4419SOL    HW124719   4.475   3.254  15.372 -0.8142 -0.9047 -0.5063
 4419SOL    HW224720   4.358   3.314  15.434  1.0555 -0.0614  0.6205
 4420SOL     OW24721   2.092   0.638   6.447 -0.1169  0.5941 -0.1540
 4420SOL    HW124722   2.107   0.554   6.491 -3.6223 -0.2463 -0.5666
 4420SOL    HW224723   2.182   0.654   6.418  0.1183 -1.3175 -0.4872
 4421SOL     OW24724   2.936   3.160   6.974 -0.0671  0.4459 -0.4788
 4421SOL    HW124725   2.902   3.139   7.061 -1.7178 -0.6329 -1.4069
 4421SOL    HW224726   2.873   3.112   6.921  3.9488 -2.4740 -2.5713
 4422SOL     OW24727   2.620   2.611  17.124 -0.4682 -0.3028 -0.0744
 4422SOL    HW124728   2.614   2.706  17.134  0.1631 -0.1512 -1.0908
 4422SOL    HW224729   2.527   2.590  17.117 -0.3493 -0.8965  0.0790
 4423SOL     OW24730   0.976   3.174  16.644 -0.0545  0.1367 -0.0349
 4423SOL    HW124731   0.926   3.240  16.597  0.0441  0.6544  0.5910
 4423SOL    HW224732   1.028   3.136  16.574  2.2920  0.1984  1.6794
 4424SOL     OW24733   1.981   4.086   7.240  0.5686 -0.0940  0.2276
 4424SOL    HW124734   2.036   4.150   7.283  0.2833  1.5006 -1.7664
 4424SOL    HW224735   1.914   4.142   7.200  0.2102 -1.2539 -0.8274
 4425SOL     OW24736   3.769   4.639   6.815  0.2448  0.3226 -0.1195
 4425SOL    HW124737   3.855   4.622   6.777  0.7470 -3.1393  2.5174
 4425SOL    HW224738   3.795   4.654   6.906  1.8915 -1.6229 -0.2845
 4426SOL     OW24739   1.373   3.322   6.656  0.1769  0.2104 -0.2208
 4426SOL    HW124740   1.322   3.244   6.680  2.1242 -0.7417  0.8216
 4426SOL    HW224741   1.313   3.395   6.675 -1.3852 -0.6497 -1.8493
 4427SOL     OW24742   3.697   1.850   8.882 -1.2470  0.1107  0.1124
 4427SOL    HW124743   3.764   1.918   8.879 -0.0092 -1.0007  2.2420
 4427SOL    HW224744   3.735   1.782   8.937  0.9902 -0.3968 -2.0894
 4428SOL     OW24745   0.202   4.660   8.367  0.0772  0.2509  0.2932
 4428SOL    HW124746   0.117   4.616   8.363 -0.2269  0.8120  0.6924
 4428SOL    HW224747   0.179   0.018   8.412 -3.6193  0.1589 -1.4211
 4429SOL     OW24748   0.622   0.166  16.830  0.1536  0.0291 -0.2435
 4429SOL    HW124749   0.601   0.226  16.758 -1.3918 -0.9590 -0.6179
 4429SOL    HW224750   0.715   0.162  16.808 -0.4876  0.9085 -3.1125
 4430SOL     OW24751   2.612   0.354   1.678  0.3162  0.0468  0.1405
 4430SOL    HW124752   2.540   0.292   1.694 -0.7841  1.2421 -0.1664
 4430SOL    HW224753   2.686   0.294   1.686 -0.0261 -0.2979  0.7673
 4431SOL     OW24754   0.160   4.230   6.514  0.4575 -0.3735 -0.0423
 4431SOL    HW124755   0.118   4.306   6.475  0.5492 -0.0928  0.3982
 4431SOL    HW224756   0.181   4.199   6.426  1.2202 -0.6209  0.2309
 4432SOL     OW24757   3.529   2.952   6.854  0.2574 -0.4793  0.4083
 4432SOL    HW124758   3.553   3.037   6.816 -0.6200 -0.3747  0.0842
 4432SOL    HW224759   3.531   2.979   6.946  0.6230  0.5634  0.0951
 4433SOL     OW24760   0.278   2.439   4.301  0.0272  0.2059 -0.3717
 4433SOL    HW124761   0.333   2.369   4.265 -0.3560 -0.7804  0.9855
 4433SOL    HW224762   0.302   2.511   4.242 -2.2717 -1.1819 -3.0379
 4434SOL     OW24763   2.153   2.071   9.358 -0.7407  0.1136 -0.6463
 4434SOL    HW124764   2.201   2.014   9.418 -3.0530 -0.8309  0.3137
 4434SOL    HW224765   2.202   2.056   9.277  1.0279  0.9443  0.2827
 4435SOL     OW24766   3.566   3.849   7.125 -0.1291 -0.5764  0.1992
 4435SOL    HW124767   3.628   3.809   7.064 -0.2249 -1.1763  0.4872
 4435SOL    HW224768   3.525   3.766   7.150 -0.1831 -0.8810 -0.9165
 4436SOL     OW24769   1.583   1.612   8.152 -0.3012 -0.4575  0.2283
 4436SOL    HW124770   1.552   1.572   8.071 -2.3383  2.0773 -0.2452
 4436SOL    HW224771   1.596   1.699   8.116 -1.0096 -0.6763 -0.5609
 4437SOL     OW24772   2.832   0.329   7.163 -0.1653  0.4554 -0.3630
 4437SOL    HW124773   2.747   0.359   7.195 -0.3672 -0.2231 -0.2783
 4437SOL    HW224774   2.889   0.389   7.212  1.0724 -0.1342 -1.0690
 4438SOL     OW24775   2.131   0.831  10.592  0.0779 -0.5053 -0.3994
 4438SOL    HW124776   2.167   0.817  10.679 -1.0772 -0.0776  0.1544
 4438SOL    HW224777   2.079   0.752  10.576  0.2032 -0.5722 -0.4763
 4439SOL     OW24778   1.236   0.878   1.561 -0.1020 -0.4082  0.0230
 4439SOL    HW124779   1.243   0.914   1.472 -0.3992 -0.9222 -0.2118
 4439SOL    HW224780   1.306   0.906   1.620 -0.3095  0.2476 -0.0482
 4440SOL     OW24781   0.444   0.553   2.162  0.2545  0.0734  0.0165
 4440SOL    HW124782   0.475   0.466   2.138 -1.3968 -0.5882  0.2259
 4440SOL    HW224783   0.373   0.528   2.221 -0.6393  1.6501 -0.3960
 4441SOL     OW24784   1.052   2.514   1.892 -0.1762  0.0939  0.5173
 4441SOL    HW124785   1.086   2.598   1.921 -0.9882  0.8461 -0.7027
 4441SOL    HW224786   1.120   2.459   1.932 -0.8304 -2.9312 -2.4909
 4442SOL     OW24787   2.828   3.415   8.771  0.1783  0.2205 -0.1404
 4442SOL    HW124788   2.871   3.355   8.832 -0.0013 -0.3722 -0.5907
 4442SOL    HW224789   2.782   3.351   8.717 -1.6766  2.2126 -0.8820
 4443SOL     OW24790   2.263   3.429  16.994  0.1529 -0.5707  0.0039
 4443SOL    HW124791   2.241   3.518  17.023  3.2767  0.4170 -0.6351
 4443SOL    HW224792   2.186   3.393  16.952  0.8399 -1.5197 -0.4369
 4444SOL     OW24793   0.533   4.452  15.945 -0.5199 -0.1991 -0.0633
 4444SOL    HW124794   0.518   4.358  15.945  1.1505 -0.4696 -1.8237
 4444SOL    HW224795   0.594   4.460  15.872  0.2343  0.1489  0.6066
 4445SOL     OW24796   4.609   2.437   8.998  0.0051  0.3137  0.6055
 4445SOL    HW124797   4.562   2.354   9.002  0.3917 -0.0420 -2.1503
 4445SOL    HW224798   4.561   2.481   9.068  0.2890  1.5632  0.0128
 4446SOL     OW24799   4.216   4.602   9.356  0.1054  0.5136  0.1403
 4446SOL    HW124800   4.125   4.576   9.371  0.3799 -0.1832  0.6407
 4446SOL    HW224801   4.215   4.578   9.264 -2.5390  0.1823  0.2425
 4447SOL     OW24802   1.727   2.328  14.540  0.1093  0.3213  0.1895
 4447SOL    HW124803   1.706   2.296  14.452  0.0047 -0.6069  0.5440
 4447SOL    HW224804   1.822   2.317  14.540  0.0192 -0.4015 -1.8714
 4448SOL     OW24805   0.491   0.168   5.009  0.0889  0.3085  0.0679
 4448SOL    HW124806   0.440   0.128   4.939 -1.3093 -1.5671  2.1149
 4448SOL    HW224807   0.501   0.093   5.069  0.2725 -1.0017 -1.6130
 4449SOL     OW24808   1.998   1.284   7.010 -0.1577 -0.1926  0.3358
 4449SOL    HW124809   2.058   1.210   7.020 -1.2439 -1.1260 -0.1406
 4449SOL    HW224810   2.048   1.361   7.040 -1.7239  1.4351 -1.2752
 4450SOL     OW24811   2.415   4.183   9.195 -0.4665  0.1211 -0.0752
 4450SOL    HW124812   2.381   4.198   9.283  1.9572  0.7033  0.7493
 4450SOL    HW224813   2.434   4.272   9.163  1.6022 -0.7266 -1.2592
 4451SOL     OW24814   0.630   2.843   6.358 -1.0943 -0.0065  0.6738
 4451SOL    HW124815   0.657   2.898   6.432 -0.0714 -1.6559  1.5144
 4451SOL    HW224816   0.663   2.756   6.383  1.4051  0.4561 -1.0175
 4452SOL     OW24817   2.556   2.511  12.469 -0.3133  0.7847  0.4975
 4452SOL    HW124818   2.603   2.547  12.544 -0.4940  1.1862  0.4190
 4452SOL    HW224819   2.465   2.524  12.497 -0.6821 -0.3541 -0.1523
 4453SOL     OW24820   4.559   4.053   4.159 -0.2071 -0.1288 -0.2687
 4453SOL    HW124821   4.566   4.146   4.181 -1.2437 -0.2642  0.6657
 4453SOL    HW224822   4.486   4.018   4.211  2.2856 -1.1224  2.5577
 4454SOL     OW24823   1.741   1.439   5.507  0.8337  0.2596 -0.1001
 4454SOL    HW124824   1.685   1.369   5.472  0.0382  0.1201  1.4662
 4454SOL    HW224825   1.717   1.519   5.460  2.1103 -0.3273 -1.7606
 4455SOL     OW24826   1.361   4.434   6.773 -0.0071 -0.3247  0.6341
 4455SOL    HW124827   1.412   4.513   6.753 -0.1938 -0.0922  1.0952
 4455SOL    HW224828   1.365   4.381   6.693  3.6295 -1.1363  1.3479
 4456SOL     OW24829   2.030   2.252   2.373 -0.2872 -0.0808  0.1697
 4456SOL    HW124830   2.078   2.335   2.370 -1.3270  0.4461 -2.0642
 4456SOL    HW224831   2.053   2.205   2.293  0.5359  0.4965  0.0609
 4457SOL     OW24832   3.940   3.267   4.123 -0.1378 -0.5177  0.1905
 4457SOL    HW124833   3.897   3.197   4.173  0.6704 -1.4289 -0.3981
 4457SOL    HW224834   3.962   3.223   4.041 -0.4651 -0.8762  0.2955
 4458SOL     OW24835   2.244   3.061   6.352 -0.1966 -0.2018 -0.2309
 4458SOL    HW124836   2.281   3.009   6.281 -1.5479  0.3253 -1.3249
 4458SOL    HW224837   2.283   3.009   6.422  1.2183  1.6431  0.3562
 4459SOL     OW24838   2.173   3.652   0.869  0.0750  0.1898  0.4416
 4459SOL    HW124839   2.145   3.742   0.886 -0.0136  0.0598  0.9588
 4459SOL    HW224840   2.254   3.671   0.822  0.3641  2.1243  1.7196
 4460SOL     OW24841   1.880   4.015   2.584 -0.3867 -0.1341  0.4937
 4460SOL    HW124842   1.844   4.084   2.639  0.3322  2.0646 -1.7765
 4460SOL    HW224843   1.880   4.056   2.497  1.1936 -0.6310  0.2543
 4461SOL     OW24844   1.356   2.163  15.921  0.4271 -0.1139  0.9027
 4461SOL    HW124845   1.313   2.107  15.985  1.3763  0.6795  2.2207
 4461SOL    HW224846   1.375   2.104  15.848 -0.7415  0.2448  0.3071
 4462SOL     OW24847   3.539   3.622  12.131 -0.2820 -0.6706  0.9465
 4462SOL    HW124848   3.503   3.642  12.044 -0.2594  1.0240  1.3145
 4462SOL    HW224849   3.600   3.550  12.115  1.4954  0.4745  2.5546
 4463SOL     OW24850   2.529   0.530  16.377 -0.3509 -0.3442 -0.3412
 4463SOL    HW124851   2.496   0.611  16.337 -1.4782 -0.8667 -0.4784
 4463SOL    HW224852   2.579   0.561  16.453 -0.4943  0.3977 -0.5484
 4464SOL     OW24853   1.316   3.698   8.042  0.3933  0.5857  0.4774
 4464SOL    HW124854   1.306   3.622   8.099  1.7873  0.0732  0.0376
 4464SOL    HW224855   1.258   3.685   7.967  1.7362  0.8858 -0.6247
 4465SOL     OW24856   4.632   0.120   2.956  0.1807 -0.3558  0.0228
 4465SOL    HW124857   4.585   0.122   3.039  2.4603 -2.8865  1.4136
 4465SOL    HW224858   4.714   0.077   2.982 -0.1349 -0.1053  1.3713
 4466SOL     OW24859   1.765   3.968   8.129 -0.3956  0.0668  0.3305
 4466SOL    HW124860   1.785   4.033   8.062 -0.6867 -0.1109  0.0720
 4466SOL    HW224861   1.678   3.936   8.103  0.0964  0.2156 -1.4840
 4467SOL     OW24862   1.540   1.405  14.382  0.2955  0.0960  0.0464
 4467SOL    HW124863   1.531   1.318  14.420  0.5632 -0.0821 -0.2974
 4467SOL    HW224864   1.518   1.456  14.460  1.6175  1.8543 -0.7385
 4468SOL     OW24865   0.709   4.225  14.301  0.4073 -0.2882  0.1092
 4468SOL    HW124866   0.698   4.302  14.245  1.4579  0.1667  0.5271
 4468SOL    HW224867   0.712   4.157  14.233 -0.0598 -1.0033  0.7985
 4469SOL     OW24868   3.783   1.605   0.647 -0.6733  0.0522 -0.1740
 4469SOL    HW124869   3.819   1.518   0.662  0.2979  0.3161 -0.9731
 4469SOL    HW224870   3.794   1.610   0.552  1.4634  1.8283  0.1556
 4470SOL     OW24871   3.427   3.692   2.985 -0.7183 -0.4147  0.1891
 4470SOL    HW124872   3.364   3.666   2.918  0.1743 -3.1296  0.4118
 4470SOL    HW224873   3.392   3.640   3.057 -0.4705 -1.0496 -0.1511
 4471SOL     OW24874   4.139   1.610   4.275  0.3214  0.3901  0.2877
 4471SOL    HW124875   4.216   1.638   4.226 -0.2511  0.0224 -0.8294
 4471SOL    HW224876   4.172   1.618   4.364  1.7692 -0.4545 -0.1736
 4472SOL     OW24877   2.186   3.187   8.711  0.2609 -0.4083  0.0555
 4472SOL    HW124878   2.175   3.279   8.687 -0.9352 -1.2916 -2.7324
 4472SOL    HW224879   2.101   3.149   8.689  0.1918  0.9421 -1.9980
 4473SOL     OW24880   3.022   4.546  13.233 -0.4735 -0.5130 -0.2967
 4473SOL    HW124881   3.058   4.619  13.181  1.4347 -0.7860  0.6584
 4473SOL    HW224882   2.987   4.589  13.311  2.6450  3.1434 -0.8889
 4474SOL     OW24883   2.149   3.587   8.909  0.3911 -0.4912  0.3125
 4474SOL    HW124884   2.171   3.645   8.982 -0.1281 -0.3328  0.3408
 4474SOL    HW224885   2.189   3.617   8.827 -0.8551 -0.9426 -0.4596
 4475SOL     OW24886   1.894   2.067   8.757 -0.1383  0.1693  0.0318
 4475SOL    HW124887   1.860   1.979   8.777 -0.9370  0.5683  0.4135
 4475SOL    HW224888   1.866   2.072   8.666  0.0997 -3.1234 -0.2477
 4476SOL     OW24889   1.225   2.487   1.089  0.0551  0.3441  0.0674
 4476SOL    HW124890   1.138   2.455   1.114  0.0264  0.4131  0.0547
 4476SOL    HW224891   1.277   2.438   1.152  0.0550 -0.7351 -0.7664
 4477SOL     OW24892   0.112   0.766  11.618  0.0296 -0.1770  0.2959
 4477SOL    HW124893   0.023   0.742  11.593  0.3455 -1.1053  0.0777
 4477SOL    HW224894   0.107   0.789  11.711  0.4119  0.4736  0.1604
 4478SOL     OW24895   0.291   2.380   9.583  0.2388 -0.3496 -0.1515
 4478SOL    HW124896   0.350   2.451   9.608 -1.9177  0.0272  3.7785
 4478SOL    HW224897   0.264   2.416   9.499 -1.1087 -0.4564  0.2455
 4479SOL     OW24898   0.062   0.484  11.341  0.3866  0.2331 -0.2983
 4479SOL    HW124899   0.084   0.474  11.249  1.7353 -0.5277  0.1007
 4479SOL    HW224900   0.035   0.396  11.365  3.4234 -0.5461  0.2625
 4480SOL     OW24901   4.358   2.357   8.618  0.1012  0.2764 -0.3541
 4480SOL    HW124902   4.432   2.300   8.640 -1.2689 -0.3173  2.6865
 4480SOL    HW224903   4.359   2.352   8.522  1.1707 -0.2576 -0.3236
 4481SOL     OW24904   3.513   4.478  10.281  0.4845 -0.2818 -0.2205
 4481SOL    HW124905   3.550   4.558  10.318  1.6634 -0.9570  0.0486
 4481SOL    HW224906   3.434   4.513  10.239  0.9997  0.1065 -0.8636
 4482SOL     OW24907   0.140   3.351  11.410 -0.2861  0.0754  0.3794
 4482SOL    HW124908   0.100   3.282  11.463 -2.2361  1.5050  0.7586
 4482SOL    HW224909   0.198   3.311  11.345 -0.4503  0.1914  0.1641
 4483SOL     OW24910   0.416   2.894   8.827 -0.4222 -0.5570 -0.5508
 4483SOL    HW124911   0.388   2.968   8.774  0.2885  1.0923  1.3631
 4483SOL    HW224912   0.412   2.939   8.911  1.3210  0.4019 -0.9807
 4484SOL     OW24913   2.485   0.263   8.171  0.4328 -0.4858 -0.1886
 4484SOL    HW124914   2.580   0.278   8.166  0.3597  0.2139  0.5587
 4484SOL    HW224915   2.485   0.217   8.255  1.4975  1.9065  1.1081
 4485SOL     OW24916   0.786   4.324   7.644 -0.2766 -0.5151  0.1125
 4485SOL    HW124917   0.744   4.345   7.561  0.1214  1.3121  0.3702
 4485SOL    HW224918   0.804   4.231   7.629 -0.1543 -0.1700 -1.9626
 4486SOL     OW24919   3.712   4.154   6.943  0.7804  0.3591  0.4028
 4486SOL    HW124920   3.734   4.063   6.926  0.3350  0.8111 -2.5693
 4486SOL    HW224921   3.724   4.157   7.038 -3.4905  3.3685  0.8429
 4487SOL     OW24922   1.450   3.602   8.380  0.4241  0.6547 -0.0384
 4487SOL    HW124923   1.526   3.591   8.436 -0.2713 -1.0034  0.5542
 4487SOL    HW224924   1.378   3.593   8.441  0.1315  1.9649 -0.1756
 4488SOL     OW24925   2.921   0.523   2.253  0.2057  0.0475 -0.0603
 4488SOL    HW124926   2.997   0.527   2.195 -0.9120  2.9314 -1.3188
 4488SOL    HW224927   2.861   0.575   2.200  2.9852  0.6708 -2.5614
 4489SOL     OW24928   2.972   0.304  13.148 -0.1165  0.7965 -0.6101
 4489SOL    HW124929   2.910   0.343  13.210  1.0759 -0.5743  1.4714
 4489SOL    HW224930   3.037   0.374  13.143 -0.1125  0.7638 -0.9847
 4490SOL     OW24931   1.234   2.622   8.379 -0.8712  0.0440 -0.5974
 4490SOL    HW124932   1.194   2.692   8.328  2.3498  0.9194 -1.9356
 4490SOL    HW224933   1.162   2.583   8.430 -0.3492 -0.4916 -0.2650
 4491SOL     OW24934   0.287   2.999   5.179  0.5370 -0.3240  0.0153
 4491SOL    HW124935   0.208   2.946   5.172 -0.1326  0.2082  3.2318
 4491SOL    HW224936   0.334   2.948   5.246  0.0572  0.2745  0.8068
 4492SOL     OW24937   2.169   1.460  15.983 -0.1494 -0.3635 -0.4621
 4492SOL    HW124938   2.251   1.422  15.952  0.2504  0.6837 -0.6885
 4492SOL    HW224939   2.107   1.410  15.930  2.8850 -2.5957 -1.9144
 4493SOL     OW24940   1.640   0.629  10.613  0.1052  0.2504  0.4656
 4493SOL    HW124941   1.691   0.554  10.644  0.1103 -0.2132 -0.6322
 4493SOL    HW224942   1.699   0.656  10.542  0.7809 -3.1436 -0.2602
 4494SOL     OW24943   3.917   2.534  17.541  0.1810  0.1399 -0.1945
 4494SOL    HW124944   3.877   2.547  17.455 -0.2735  0.0733  0.0088
 4494SOL    HW224945   4.011   2.541  17.527  0.0805  2.4750  0.1955
 4495SOL     OW24946   2.603   2.113   2.197  0.2248 -0.5822 -0.0916
 4495SOL    HW124947   2.689   2.150   2.178  0.1376 -0.7775 -0.8526
 4495SOL    HW224948   2.558   2.119   2.113 -2.2034  0.3899  1.2753
 4496SOL     OW24949   3.855   1.519  12.171  0.5553  0.6281  0.9012
 4496SOL    HW124950   3.785   1.582  12.188 -0.1860  0.7902 -2.7764
 4496SOL    HW224951   3.924   1.586  12.169  0.7229  0.4483  0.7182
 4497SOL     OW24952   0.805   3.189  14.545  0.6345 -1.0693  1.1639
 4497SOL    HW124953   0.820   3.204  14.451  0.8251  0.6351  1.4606
 4497SOL    HW224954   0.728   3.133  14.533  0.7866 -0.6236 -1.9475
 4498SOL     OW24955   4.698   1.060   8.599 -0.9679 -0.1318  0.3796
 4498SOL    HW124956   0.062   1.062   8.641 -1.4206  0.3315  1.2690
 4498SOL    HW224957   4.644   1.019   8.666 -1.8668 -0.2648 -0.4236
 4499SOL     OW24958   4.167   2.947   0.415  0.1439  0.4930 -0.8339
 4499SOL    HW124959   4.193   2.873   0.470 -1.3802  0.7639  0.2630
 4499SOL    HW224960   4.106   2.899   0.358 -0.5363  0.5806 -0.1843
 4500SOL     OW24961   2.594   0.830   4.698 -0.5422 -0.2499 -0.1214
 4500SOL    HW124962   2.666   0.891   4.711 -1.0477  0.4894 -0.8450
 4500SOL    HW224963   2.640   0.764   4.646 -2.0856  0.0801 -1.8786
 4501SOL     OW24964   1.648   3.814   9.930  0.2936 -0.5778  0.1731
 4501SOL    HW124965   1.571   3.818   9.987  0.2158 -0.2246  0.0452
 4501SOL    HW224966   1.704   3.759   9.984 -1.1038 -2.0534  0.1122
 4502SOL     OW24967   1.079   4.655   5.604 -0.4974 -0.4542  0.1226
 4502SOL    HW124968   1.064   4.699   5.687  0.4408  1.3523 -0.6571
 4502SOL    HW224969   1.038   4.572   5.627 -1.3752 -0.3661 -1.1009
 4503SOL     OW24970   4.607   0.067   7.402  0.6087  0.3477 -0.1422
 4503SOL    HW124971   4.572   0.024   7.480  0.1671  3.6115  1.4855
 4503SOL    HW224972   4.696   0.083   7.434  0.5422 -1.0465  0.7440
 4504SOL     OW24973   3.541   0.183   0.315 -0.1943 -0.0762 -0.1965
 4504SOL    HW124974   3.512   0.115   0.376  1.2890  0.4680  1.1017
 4504SOL    HW224975   3.565   0.254   0.374  0.4066  0.4714 -1.1124
 4505SOL     OW24976   3.398   0.009   8.364  0.2480  0.0833 -0.5093
 4505SOL    HW124977   3.316   0.017   8.414  1.4207  0.9722  1.2872
 4505SOL    HW224978   3.454   0.074   8.406 -0.4934 -0.6413  1.5982
 4506SOL     OW24979   3.676   4.165   3.255  0.3413 -0.4283  0.3793
 4506SOL    HW124980   3.671   4.258   3.234 -0.6909 -0.5128  0.2535
 4506SOL    HW224981   3.758   4.173   3.304  0.8647  0.3268 -0.6221
 4507SOL     OW24982   3.484   3.850   1.085 -0.3482  0.5749 -0.1656
 4507SOL    HW124983   3.540   3.785   1.042 -1.3114 -0.4364  0.1039
 4507SOL    HW224984   3.540   3.928   1.085  1.6592 -0.8297 -2.5746
 4508SOL     OW24985   1.061   2.004  17.533 -0.8141 -0.4957  0.1543
 4508SOL    HW124986   1.025   2.015  17.445  1.0714 -0.9313 -0.6681
 4508SOL    HW224987   0.979   2.027  17.577 -0.2436  0.3243  0.8023
 4509SOL     OW24988   4.052   1.120   0.556 -0.5031  0.2821  0.0294
 4509SOL    HW124989   4.134   1.108   0.604  0.5252 -1.2230 -2.0599
 4509SOL    HW224990   4.056   1.044   0.497  0.7871 -0.2779  0.8520
 4510SOL     OW24991   4.430   3.583   5.060 -0.2286  0.1209  0.2892
 4510SOL    HW124992   4.484   3.612   4.986  0.8579 -1.3738  0.5142
 4510SOL    HW224993   4.494   3.526   5.101 -0.2001  0.1362  0.2662
 4511SOL     OW24994   2.024   0.386  12.916  0.1342  0.9092 -0.1712
 4511SOL    HW124995   2.115   0.385  12.947 -0.2754 -0.9250  0.9690
 4511SOL    HW224996   1.979   0.404  12.998  0.1355 -0.7949  0.1934
 4512SOL     OW24997   3.074   0.063  12.839 -0.4824 -0.1269  0.0850
 4512SOL    HW124998   3.118   0.140  12.803 -2.4739  1.3165  0.7160
 4512SOL    HW224999   3.134   0.003  12.793  0.0512  2.6460 -2.8521
 4513SOL     OW25000   4.009   0.084   6.955 -0.7253  0.4587  0.2310
 4513SOL    HW125001   4.020   0.177   6.935  1.3774  0.2146  0.3336
 4513SOL    HW225002   4.055   0.086   7.039  0.1813 -2.1952 -0.2154
 4514SOL     OW25003   4.212   4.010  15.605  0.4251  0.0456  0.2277
 4514SOL    HW125004   4.254   3.925  15.599  0.5774  0.2134 -1.1967
 4514SOL    HW225005   4.121   3.985  15.617  0.1077  1.1764  0.2145
 4515SOL     OW25006   3.786   0.041   8.383 -0.0811 -0.4260  0.0882
 4515SOL    HW125007   3.728   0.103   8.427  0.1322 -0.9579  1.0975
 4515SOL    HW225008   3.761   4.678   8.416 -0.6104  0.2734  1.5033
 4516SOL     OW25009   2.019   4.492   4.935  0.4062  0.6531  0.2466
 4516SOL    HW125010   2.040   4.412   4.888 -0.7299  0.8600 -0.6247
 4516SOL    HW225011   2.000   4.552   4.863 -2.0804  0.5814  0.8457
 4517SOL     OW25012   4.691   0.902  11.983 -0.4995  0.1492  0.3550
 4517SOL    HW125013   0.016   0.886  12.065  0.8962 -0.0584 -0.4783
 4517SOL    HW225014   0.043   0.893  11.922 -1.0473  1.7217 -0.5465
 4518SOL     OW25015   2.095   2.753   5.405 -0.0300 -0.1251  0.5181
 4518SOL    HW125016   2.034   2.694   5.449  0.8458 -2.8951 -2.0314
 4518SOL    HW225017   2.154   2.779   5.476  0.8919 -2.8024  0.7410
 4519SOL     OW25018   2.154   2.435   8.017 -0.8553 -0.3608  0.0547
 4519SOL    HW125019   2.115   2.395   8.095  0.7794 -1.7224  0.1832
 4519SOL    HW225020   2.090   2.503   7.997  1.1843  1.4322 -0.3629
 4520SOL     OW25021   1.452   4.091  10.069 -0.0381 -0.0682 -0.2036
 4520SOL    HW125022   1.384   4.149  10.033  1.0468  1.5205  0.3261
 4520SOL    HW225023   1.453   4.020  10.005 -0.0623 -1.0163  0.8543
 4521SOL     OW25024   0.477   0.290   2.740 -0.0367 -0.4888  0.2648
 4521SOL    HW125025   0.441   0.245   2.663 -1.5306 -1.3089  1.4438
 4521SOL    HW225026   0.570   0.291   2.718  0.1709  2.6918  1.2377
 4522SOL     OW25027   0.910   1.616   4.106  0.0486  0.0501 -0.7786
 4522SOL    HW125028   0.845   1.657   4.163  0.9992 -0.4755  0.6949
 4522SOL    HW225029   0.919   1.690   4.046  2.1076 -1.9597 -2.9429
 4523SOL     OW25030   0.049   4.467   9.543  0.7128  0.2659 -0.0770
 4523SOL    HW125031   0.057   4.381   9.502  1.8608  0.5980 -0.5453
 4523SOL    HW225032   0.073   4.458   9.636  2.1043 -0.5589 -0.5113
 4524SOL     OW25033   0.276   4.406   7.049 -0.6109  1.0381  0.2834
 4524SOL    HW125034   0.341   4.407   6.978 -0.6996  2.4029  0.2069
 4524SOL    HW225035   0.338   4.413   7.121 -0.9196  0.5688  0.5885
 4525SOL     OW25036   2.334   1.258   6.254 -0.1377 -0.3407 -0.1618
 4525SOL    HW125037   2.339   1.353   6.242 -2.4996 -0.3437 -1.1651
 4525SOL    HW225038   2.307   1.259   6.346 -2.4848 -0.2485 -0.8591
 4526SOL     OW25039   3.846   2.574  14.413  0.1016 -0.3824 -0.0141
 4526SOL    HW125040   3.779   2.568  14.345 -0.4191  0.3494  0.4257
 4526SOL    HW225041   3.915   2.516  14.382 -0.3196 -0.6636 -0.4258
 4527SOL     OW25042   4.624   2.054   6.384 -0.5334  0.2410  0.7544
 4527SOL    HW125043   4.554   2.063   6.448 -2.0116 -2.4569 -0.5195
 4527SOL    HW225044   4.580   2.079   6.303 -0.1164 -2.9024 -0.4313
 4528SOL     OW25045   3.084   3.374   5.925 -0.6338  0.3084  0.0910
 4528SOL    HW125046   3.008   3.426   5.896 -1.4552 -0.2677  1.2167
 4528SOL    HW225047   3.086   3.400   6.017 -1.1327  1.7930 -0.3231
 4529SOL     OW25048   2.109   3.155   5.036  0.0260 -0.0435  0.0662
 4529SOL    HW125049   2.047   3.115   4.975  3.3596 -1.4950 -2.3747
 4529SOL    HW225050   2.190   3.104   5.031  1.1689  1.9640 -1.9893
 4530SOL     OW25051   1.349   0.333   6.111 -0.0489  0.4279 -0.2674
 4530SOL    HW125052   1.384   0.391   6.043  0.8039  1.8271  1.3472
 4530SOL    HW225053   1.420   0.274   6.134  0.2314  1.3805  1.3199
 4531SOL     OW25054   1.003   1.356  15.648  0.6311  0.4478 -0.0658
 4531SOL    HW125055   1.056   1.286  15.610  0.5209  1.5120 -2.1933
 4531SOL    HW225056   0.915   1.320  15.641  0.7796  0.2825 -1.0519
 4532SOL     OW25057   2.751   0.545  14.120 -0.3963 -0.6043  0.0273
 4532SOL    HW125058   2.663   0.544  14.158 -0.0481  1.9448  0.8799
 4532SOL    HW225059   2.796   0.530  14.203  0.3523 -0.2001 -0.3004
 4533SOL     OW25060   2.178   2.660   8.907  0.0177  0.2102 -0.2893
 4533SOL    HW125061   2.266   2.634   8.880 -0.2393 -0.0528 -0.8803
 4533SOL    HW225062   2.134   2.575   8.910  1.0074 -0.1968  1.9811
 4534SOL     OW25063   0.857   4.676   5.060  0.5009 -0.5851 -0.0811
 4534SOL    HW125064   0.936   4.633   5.028  0.3507 -0.3369 -0.7811
 4534SOL    HW225065   0.876   0.046   5.076 -2.3104 -0.0322  0.1020
 4535SOL     OW25066   0.142   4.426   3.421  0.1735  0.1436 -0.0007
 4535SOL    HW125067   0.074   4.398   3.483  1.2867  0.6572  1.4484
 4535SOL    HW225068   0.146   4.348   3.365 -1.5674  1.7784 -2.4030
 4536SOL     OW25069   3.888   2.388  16.370  0.4619  0.0682  0.0931
 4536SOL    HW125070   3.941   2.464  16.396  0.4500  0.5231 -1.2253
 4536SOL    HW225071   3.893   2.387  16.275 -0.5236  1.4108  0.0265
 4537SOL     OW25072   4.288   2.501   3.660  0.6688 -0.3599 -0.1717
 4537SOL    HW125073   4.293   2.506   3.564 -1.7618 -2.4473 -0.4234
 4537SOL    HW225074   4.328   2.584   3.685  1.0926 -0.1462 -1.5366
 4538SOL     OW25075   2.939   2.744   5.345 -0.1028  0.1218  0.2051
 4538SOL    HW125076   3.021   2.708   5.313  0.5140 -0.5674  2.5627
 4538SOL    HW225077   2.961   2.780   5.431  0.2866  0.5379 -0.0684
 4539SOL     OW25078   1.046   0.204  13.173  0.1222 -0.2266 -0.7298
 4539SOL    HW125079   1.130   0.159  13.178  0.5368  0.4879 -1.3279
 4539SOL    HW225080   1.079   0.282  13.129  1.5129 -1.0374 -1.0915
 4540SOL     OW25081   0.591   2.512  12.354  0.8601 -0.1901  0.3030
 4540SOL    HW125082   0.546   2.549  12.430  3.0701 -0.4568  1.7272
 4540SOL    HW225083   0.522   2.480  12.295 -0.7694  0.4810  1.8364
 4541SOL     OW25084   2.961   2.049   4.372 -0.1140  0.1378 -0.1559
 4541SOL    HW125085   2.936   1.957   4.372  0.5337 -0.0309  1.2829
 4541SOL    HW225086   2.893   2.078   4.311  0.8073  2.5171 -0.0494
 4542SOL     OW25087   4.521   2.164   0.291  0.2246 -0.1576  0.0230
 4542SOL    HW125088   4.581   2.103   0.333 -1.7313 -2.0505  0.1354
 4542SOL    HW225089   4.438   2.136   0.331  1.1720 -0.9995  1.3729
 4543SOL     OW25090   0.013   2.767   8.893  0.5011 -0.3997 -0.2402
 4543SOL    HW125091   0.011   2.672   8.882  2.7744 -0.5333  0.5450
 4543SOL    HW225092   4.653   2.807   8.864 -0.1822 -1.1323  0.6653
 4544SOL     OW25093   1.605   2.235   0.801 -0.2356 -0.3083  0.7956
 4544SOL    HW125094   1.583   2.234   0.708 -1.2701 -3.7010  1.0762
 4544SOL    HW225095   1.594   2.326   0.829 -0.6962  0.0597 -0.5652
 4545SOL     OW25096   4.671   2.728   6.751  0.5722  0.2257 -0.3058
 4545SOL    HW125097   0.029   2.708   6.798  1.2129 -0.1765 -1.5680
 4545SOL    HW225098   4.600   2.687   6.801  0.4790  2.9110  1.7203
 4546SOL     OW25099   0.449   1.409  15.258 -1.0054 -0.4714 -0.0537
 4546SOL    HW125100   0.420   1.431  15.169  1.4222  1.1679 -0.4411
 4546SOL    HW225101   0.526   1.354  15.249 -1.1785 -0.7499  0.1596
 4547SOL     OW25102   1.576   1.584   6.914 -0.1524 -0.1220 -0.0239
 4547SOL    HW125103   1.635   1.514   6.887  0.4693  0.2004  0.4961
 4547SOL    HW225104   1.640   1.635   6.963 -0.3607  0.3733 -0.2608
 4548SOL     OW25105   4.218   2.423  15.398 -0.1051 -0.1604  0.8206
 4548SOL    HW125106   4.284   2.399  15.463  1.4298  2.5883  0.2505
 4548SOL    HW225107   4.207   2.348  15.339 -1.6466  0.8508 -0.2011
 4549SOL     OW25108   3.731   2.942   6.607  0.2161 -0.5989 -0.0324
 4549SOL    HW125109   3.711   3.027   6.647 -1.4537 -0.4019 -1.2280
 4549SOL    HW225110   3.645   2.900   6.603 -1.3988  2.8718 -1.8782
 4550SOL     OW25111   4.031   0.948   2.214  0.5974  0.9913 -0.5997
 4550SOL    HW125112   4.070   1.035   2.208 -0.4258  1.4632 -0.3101
 4550SOL    HW225113   3.937   0.956   2.196  0.4974  0.3145 -0.3878
 4551SOL     OW25114   0.497   3.919  13.963 -0.7682  0.0953 -0.0531
 4551SOL    HW125115   0.528   3.994  13.912  1.6804 -0.8523  0.0550
 4551SOL    HW225116   0.455   3.961  14.038  3.1041 -0.0344  2.1516
 4552SOL     OW25117   4.470   4.316   1.738 -0.3411  0.2347  0.2601
 4552SOL    HW125118   4.497   4.228   1.713  0.3998  0.6554 -0.4251
 4552SOL    HW225119   4.550   4.358   1.706 -1.5818  2.5344  0.1899
 4553SOL     OW25120   3.458   1.519   9.961  0.1192  0.4433  0.2804
 4553SOL    HW125121   3.446   1.613   9.978 -1.4995  0.2317  0.3170
 4553SOL    HW225122   3.531   1.535   9.902  0.2743  3.5857  1.3167
 4554SOL     OW25123   0.589   1.060   6.858  0.0300  0.3347  0.0873
 4554SOL    HW125124   0.556   1.147   6.837 -2.9290 -0.7372  0.2924
 4554SOL    HW225125   0.681   1.086   6.853  0.2201 -0.7506 -1.9160
 4555SOL     OW25126   0.403   4.639   7.577 -0.0115 -0.1621 -0.4137
 4555SOL    HW125127   0.380   4.624   7.669  0.0653 -2.3712 -0.7396
 4555SOL    HW225128   0.486   4.684   7.581  0.6139 -1.4558  1.1524
 4556SOL     OW25129   1.425   0.894  15.428  0.6259  0.1612  0.6336
 4556SOL    HW125130   1.356   0.830  15.444  0.1881 -0.1107 -2.3401
 4556SOL    HW225131   1.379   0.975  15.450  0.2041  0.2144 -0.4542
 4557SOL     OW25132   4.138   4.198  12.706 -0.0638  0.0911 -0.0172
 4557SOL    HW125133   4.105   4.116  12.742 -0.3073 -0.6233 -1.8444
 4557SOL    HW225134   4.052   4.225  12.674  0.5845  1.8038 -0.2835
 4558SOL     OW25135   2.047   3.657   7.726  0.1460 -0.0258 -0.2114
 4558SOL    HW125136   2.089   3.588   7.777 -0.5812 -0.6179 -0.4022
 4558SOL    HW225137   2.031   3.609   7.645  3.7200 -0.3597 -0.6809
 4559SOL     OW25138   1.939   3.134   8.680 -0.0248  0.0403 -0.1197
 4559SOL    HW125139   1.904   3.046   8.696 -0.4139  0.4447  1.2917
 4559SOL    HW225140   1.904   3.181   8.756  2.1762 -0.8599  1.4578
 4560SOL     OW25141   0.022   3.096   3.189  0.1437  0.2509  0.7778
 4560SOL    HW125142   4.698   3.080   3.271 -0.4780  3.4645  1.0693
 4560SOL    HW225143   0.105   3.053   3.205  0.9638  1.0267 -1.3517
 4561SOL     OW25144   4.542   4.124   6.079  0.0877 -0.0360 -0.6716
 4561SOL    HW125145   4.468   4.174   6.046 -0.5382  1.3787  2.8731
 4561SOL    HW225146   4.618   4.183   6.074 -0.3659  0.4020 -2.4190
 4562SOL     OW25147   4.352   4.041   8.054 -0.1246 -0.3503 -0.4310
 4562SOL    HW125148   4.396   3.990   8.122 -1.4611 -3.6038 -2.0400
 4562SOL    HW225149   4.410   4.116   8.068  1.3168 -1.5360 -0.0774
 4563SOL     OW25150   2.139   0.080   2.255  0.3256  0.4773  0.1632
 4563SOL    HW125151   2.053   0.119   2.270 -0.7830 -0.8604 -2.6637
 4563SOL    HW225152   2.119   0.012   2.190 -1.8607 -0.2129  1.5284
 4564SOL     OW25153   0.189   0.292   6.010  0.0032  0.0376 -0.1840
 4564SOL    HW125154   0.230   0.356   6.068  0.1730  0.0931 -0.3658
 4564SOL    HW225155   0.101   0.325   6.027  0.4426  1.7370 -1.2062
 4565SOL     OW25156   1.527   3.139  14.895  0.2790  0.0461 -0.0355
 4565SOL    HW125157   1.503   3.072  14.960  0.8118 -0.0017  0.1082
 4565SOL    HW225158   1.620   3.137  14.916  0.1249  1.1076  0.7440
 4566SOL     OW25159   0.677   3.758   7.926 -0.3373  0.4691  0.1194
 4566SOL    HW125160   0.738   3.769   7.999  0.0899 -1.6239  0.0834
 4566SOL    HW225161   0.731   3.782   7.850  1.2191 -3.5413 -0.0603
 4567SOL     OW25162   2.480   1.452   3.974  0.3254 -0.0581  0.0543
 4567SOL    HW125163   2.507   1.496   3.894 -0.1893  3.3588  1.7663
 4567SOL    HW225164   2.463   1.519   4.040  2.1454  0.3523  0.1089
 4568SOL     OW25165   2.893   1.605  14.120 -0.2281 -0.0021  0.1339
 4568SOL    HW125166   2.987   1.611  14.108 -0.4879  0.2622 -1.8939
 4568SOL    HW225167   2.870   1.515  14.096 -0.1453 -0.2407  0.9530
 4569SOL     OW25168   0.087   3.928   6.456  0.3106  0.1022  0.0833
 4569SOL    HW125169   0.084   4.020   6.483 -1.0704  0.3641 -0.9694
 4569SOL    HW225170   0.146   3.891   6.522  1.5313  2.3525  0.2563
 4570SOL     OW25171   1.352   1.622   6.283  0.0717  0.3367 -0.0379
 4570SOL    HW125172   1.269   1.625   6.235  0.8540  0.9834 -1.3585
 4570SOL    HW225173   1.405   1.564   6.227 -2.8553 -1.0045 -1.3971
 4571SOL     OW25174   2.433   1.279   1.554 -0.8560 -0.0189 -0.5741
 4571SOL    HW125175   2.424   1.209   1.619  1.4362  0.5133  0.3076
 4571SOL    HW225176   2.515   1.318   1.584 -0.2504 -0.1473 -2.0560
 4572SOL     OW25177   0.602   3.699  13.736 -0.1326 -0.1756  0.2526
 4572SOL    HW125178   0.507   3.691  13.724 -0.4614  2.2720  1.2368
 4572SOL    HW225179   0.614   3.785  13.695  1.2063 -0.8210 -0.7122
 4573SOL     OW25180   1.143   1.133  13.074 -0.9719  0.1450 -0.3110
 4573SOL    HW125181   1.226   1.086  13.072 -1.7066 -1.1466  0.0345
 4573SOL    HW225182   1.134   1.138  12.979  1.2882  0.1503 -0.5051
 4574SOL     OW25183   0.742   4.661   5.448  0.6824  0.0006 -0.2421
 4574SOL    HW125184   0.808   0.006   5.432  0.5414 -0.5458 -3.0372
 4574SOL    HW225185   0.727   4.618   5.364 -0.0084  2.3996 -1.3190
 4575SOL     OW25186   3.091   2.635   3.814  0.0325  0.1092 -0.1735
 4575SOL    HW125187   3.082   2.566   3.748  2.3075 -0.9206  0.5848
 4575SOL    HW225188   3.040   2.706   3.776  0.4238  2.2461  3.3636
 4576SOL     OW25189   0.194   0.438  11.635  0.4634 -0.2740 -0.0948
 4576SOL    HW125190   0.104   0.471  11.647  0.4179  0.0668 -1.4140
 4576SOL    HW225191   0.234   0.516  11.596 -0.3285 -1.3374 -3.0347
 4577SOL     OW25192   1.331   3.469   2.286  0.8707  0.3775  0.1236
 4577SOL    HW125193   1.293   3.544   2.242 -1.5083 -0.4905  0.6828
 4577SOL    HW225194   1.381   3.420   2.221 -1.2060  3.1324 -3.5318
 4578SOL     OW25195   1.579   4.075   8.763  0.6016 -0.5050 -0.4111
 4578SOL    HW125196   1.616   4.160   8.787  2.4196 -1.5904  0.7290
 4578SOL    HW225197   1.498   4.099   8.719 -0.3502 -2.5249  0.2204
 4579SOL     OW25198   0.767   0.283   4.906  0.0989  0.4562 -0.3941
 4579SOL    HW125199   0.700   0.224   4.940 -1.6518  1.0316 -2.8397
 4579SOL    HW225200   0.728   0.370   4.913 -2.0322 -0.4164 -1.3597
 4580SOL     OW25201   0.387   1.718   3.130  0.5264 -0.0337  0.3701
 4580SOL    HW125202   0.392   1.768   3.048 -0.3960  0.4585  0.6085
 4580SOL    HW225203   0.327   1.776   3.178  0.3711  0.8874 -0.9321
 4581SOL     OW25204   4.207   1.225  15.987  0.2010  0.1034  0.1019
 4581SOL    HW125205   4.165   1.202  16.070  0.5166  0.3121  0.3225
 4581SOL    HW225206   4.129   1.239  15.933  0.8206  2.0305 -0.2920
 4582SOL     OW25207   4.474   4.045   4.968  0.4890  0.4628  0.0174
 4582SOL    HW125208   4.397   4.097   4.989  0.3773  0.9589 -1.6121
 4582SOL    HW225209   4.483   3.995   5.049  1.8008  0.7732  0.0622
 4583SOL     OW25210   2.531   2.184   5.916 -0.2554  0.1402 -0.4284
 4583SOL    HW125211   2.609   2.238   5.932 -0.0388 -0.9075  2.0402
 4583SOL    HW225212   2.562   2.138   5.838 -0.4641  1.3444 -1.2195
 4584SOL     OW25213   0.933   1.892  11.330 -0.3615 -0.3441 -0.8172
 4584SOL    HW125214   0.853   1.880  11.280 -1.3313  0.8321  0.4521
 4584SOL    HW225215   0.914   1.984  11.350  1.3350 -0.1113 -0.2889
 4585SOL     OW25216   0.977   2.091  10.162 -0.4585 -0.4689  0.5015
 4585SOL    HW125217   1.038   2.164  10.175 -0.5392 -0.3617  0.2876
 4585SOL    HW225218   0.927   2.091  10.244 -1.9727 -0.2289 -0.4217
 4586SOL     OW25219   1.660   1.642   5.366  0.1363 -0.0542 -0.5304
 4586SOL    HW125220   1.633   1.723   5.408 -0.0732 -0.0308 -0.7115
 4586SOL    HW225221   1.651   1.658   5.273  0.3851  2.6259 -0.0771
 4587SOL     OW25222   3.781   4.439   5.146 -0.6751  0.2998  0.4500
 4587SOL    HW125223   3.800   4.442   5.240 -1.5792 -1.7337  0.7017
 4587SOL    HW225224   3.697   4.394   5.149 -1.3597  1.5586  0.0561
 4588SOL     OW25225   0.480   2.189   5.751  0.3337 -0.1438 -0.0592
 4588SOL    HW125226   0.484   2.269   5.700  0.4805  0.0376  0.2366
 4588SOL    HW225227   0.433   2.225   5.827  1.3155  0.1916  0.3872
 4589SOL     OW25228   2.938   3.634   3.827  0.7181  0.0609 -0.1194
 4589SOL    HW125229   2.977   3.548   3.846  0.6554  0.3794  1.5038
 4589SOL    HW225230   2.885   3.621   3.749 -0.0219  3.0598 -0.1049
 4590SOL     OW25231   2.296   0.688   5.124 -0.1148 -0.1570  0.1767
 4590SOL    HW125232   2.285   0.777   5.158 -0.7198  0.3943 -1.4246
 4590SOL    HW225233   2.353   0.705   5.049  0.8795  0.9946  1.2034
 4591SOL     OW25234   0.525   3.960  11.369  0.1433 -0.5390 -0.2963
 4591SOL    HW125235   0.496   3.893  11.307 -0.1486  1.1595 -1.9832
 4591SOL    HW225236   0.436   3.996  11.381  0.4683  0.0029  0.5401
 4592SOL     OW25237   4.019   1.567   5.333  0.3800  0.0226 -0.6124
 4592SOL    HW125238   4.035   1.605   5.419  2.6058 -0.9170 -0.6251
 4592SOL    HW225239   3.992   1.642   5.281 -2.9644 -1.2620 -0.7476
 4593SOL     OW25240   3.555   4.007  10.850 -0.3282  0.1251  0.6246
 4593SOL    HW125241   3.576   3.914  10.845  1.3642  0.6406 -2.1267
 4593SOL    HW225242   3.473   4.020  10.802  0.5321 -0.6233 -1.0418
 4594SOL     OW25243   4.681   1.135  13.344 -0.5900 -0.5439 -0.3416
 4594SOL    HW125244   4.596   1.100  13.318 -0.2919 -1.1840 -0.4660
 4594SOL    HW225245   4.683   1.197  13.271 -3.6870  0.5330  0.5281
 4595SOL     OW25246   1.362   0.341   1.659  0.7545  0.2251 -0.2945
 4595SOL    HW125247   1.403   0.382   1.583  0.8957  0.5833 -0.0211
 4595SOL    HW225248   1.285   0.296   1.624  0.0020  1.0088  0.3591
 4596SOL     OW25249   0.958   2.840   2.775  0.0637 -0.1668  0.1919
 4596SOL    HW125250   1.008   2.854   2.856 -0.3626 -0.6575  0.5476
 4596SOL    HW225251   0.872   2.863   2.809 -0.5245  0.0761 -1.4810
 4597SOL     OW25252   3.163   2.454  11.468 -0.0711  0.1242 -0.5944
 4597SOL    HW125253   3.208   2.370  11.459 -0.6883 -0.4446  1.5965
 4597SOL    HW225254   3.237   2.508  11.496 -0.4422  0.0587  0.5038
 4598SOL     OW25255   0.548   0.087   3.060 -0.1307  0.5737 -0.0797
 4598SOL    HW125256   0.486   0.143   3.012 -0.8863  2.2582  2.8896
 4598SOL    HW225257   0.610   0.154   3.088  1.3355 -0.3108 -1.2239
 4599SOL     OW25258   1.267   2.092   7.219 -0.1006  0.6924 -0.6294
 4599SOL    HW125259   1.300   2.047   7.142  0.1535 -0.6268  0.2494
 4599SOL    HW225260   1.238   2.011   7.263 -1.0107  0.4082 -1.7646
 4600SOL     OW25261   0.652   4.193   6.495 -0.2848  0.7504 -0.0197
 4600SOL    HW125262   0.623   4.121   6.441 -0.9369  0.4748  0.7087
 4600SOL    HW225263   0.598   4.257   6.448 -0.0231 -0.2315 -1.6808
 4601SOL     OW25264   1.365   3.865   4.392  0.3192  0.0651 -0.3645
 4601SOL    HW125265   1.314   3.945   4.406 -1.6620 -1.4347  0.9688
 4601SOL    HW225266   1.407   3.881   4.307  0.1445 -3.1052 -1.0334
 4602SOL     OW25267   2.846   0.558   6.560  0.0042  0.4106  0.0691
 4602SOL    HW125268   2.921   0.571   6.618 -0.8678 -0.1477  1.3167
 4602SOL    HW225269   2.799   0.496   6.615 -1.2142  1.3677  0.1060
 4603SOL     OW25270   3.253   1.929   5.491  0.3601  0.4720 -0.4294
 4603SOL    HW125271   3.240   1.837   5.469 -0.2141  0.5750 -0.5109
 4603SOL    HW225272   3.330   1.946   5.437  2.3863  2.7038  3.1481
 4604SOL     OW25273   4.365   2.766   1.616  0.2547 -0.0580 -0.2424
 4604SOL    HW125274   4.290   2.825   1.625 -0.4669 -0.6262 -2.5066
 4604SOL    HW225275   4.388   2.783   1.525  1.9957  0.8294  0.3653
 4605SOL     OW25276   3.928   4.614   9.014  0.0375  0.1468 -0.2771
 4605SOL    HW125277   4.002   4.553   9.015  1.5184  1.9431  0.1738
 4605SOL    HW225278   3.914   4.618   8.920 -1.3182  0.4706 -0.0590
 4606SOL     OW25279   3.186   0.654   6.484 -0.5600  0.5691 -0.4301
 4606SOL    HW125280   3.164   0.592   6.554  1.9116 -2.5353 -2.3601
 4606SOL    HW225281   3.137   0.724   6.528 -0.4446  0.2369  0.2385
 4607SOL     OW25282   3.531   1.773  10.371  0.5589 -0.0724  0.0927
 4607SOL    HW125283   3.495   1.858  10.397  2.2161  0.7425 -0.3186
 4607SOL    HW225284   3.530   1.771  10.275  0.9830  2.8312  0.0385
 4608SOL     OW25285   3.298   1.962  14.390 -0.8229 -0.3036  0.5292
 4608SOL    HW125286   3.315   2.014  14.469  0.9235  0.5252 -0.4067
 4608SOL    HW225287   3.345   2.006  14.319 -1.6628 -1.2778 -0.6304
 4609SOL     OW25288   2.686   2.603  11.273  0.1932  0.7136  0.6299
 4609SOL    HW125289   2.770   2.557  11.272  0.3793  1.0226  1.7113
 4609SOL    HW225290   2.630   2.558  11.210 -0.1017  0.6631  0.9244
 4610SOL     OW25291   3.805   1.951   2.630  0.0800  0.5276  0.1332
 4610SOL    HW125292   3.869   1.992   2.572 -0.3075 -0.9127 -1.3135
 4610SOL    HW225293   3.802   1.860   2.600  2.0879  0.8405 -1.0700
 4611SOL     OW25294   4.547   3.149   8.481  0.1369  0.1610  0.6868
 4611SOL    HW125295   4.548   3.058   8.453 -0.5823  0.3754 -0.0457
 4611SOL    HW225296   4.504   3.138   8.566  0.8355  1.5864  1.2291
 4612SOL     OW25297   0.097   2.153  15.696 -0.3225  0.8656  0.0255
 4612SOL    HW125298   0.168   2.117  15.643 -0.5960 -1.3180  1.1579
 4612SOL    HW225299   0.028   2.095  15.662  1.0534  0.4097 -1.9778
 4613SOL     OW25300   4.321   3.100   2.578 -0.4042  0.2109 -0.3527
 4613SOL    HW125301   4.386   3.063   2.638 -0.0971  0.3460 -0.6052
 4613SOL    HW225302   4.381   3.149   2.522  1.1437 -0.4660  0.7147
 4614SOL     OW25303   0.102   2.648   6.968  0.7798 -0.0805 -0.3200
 4614SOL    HW125304   0.064   2.577   7.020  1.7427  2.0049  3.2917
 4614SOL    HW225305   0.161   2.606   6.905  1.1124 -0.3753  0.1776
 4615SOL     OW25306   4.364   0.314   5.398  0.2755 -0.0063 -0.4651
 4615SOL    HW125307   4.428   0.386   5.401  0.8917 -0.5753  0.0463
 4615SOL    HW225308   4.341   0.314   5.491  1.3742 -0.6652 -0.2046
 4616SOL     OW25309   4.178   3.962   0.565 -0.1604 -0.4151  0.7989
 4616SOL    HW125310   4.206   4.038   0.514  0.1540 -1.4435 -0.5792
 4616SOL    HW225311   4.088   3.952   0.534  0.4056 -2.1763 -0.2929
 4617SOL     OW25312   4.162   4.096  15.097 -0.2964 -0.4317 -0.1677
 4617SOL    HW125313   4.196   4.108  15.186 -1.2180 -0.6002  0.2107
 4617SOL    HW225314   4.219   4.023  15.076  1.1378  0.6181  0.1009
 4618SOL     OW25315   2.539   0.063   7.182 -0.2526  0.1746  0.6292
 4618SOL    HW125316   2.455   0.017   7.182  0.3307 -0.8980  1.6152
 4618SOL    HW225317   2.546   0.081   7.276  0.0805 -0.5398  0.7419
 4619SOL     OW25318   2.413   1.435   2.511 -0.5506 -0.0477  0.2514
 4619SOL    HW125319   2.479   1.504   2.514  1.2334 -1.7158 -1.2046
 4619SOL    HW225320   2.464   1.363   2.475  0.9145  0.2812  1.6746
 4620SOL     OW25321   2.132   1.464   2.464 -0.0080 -0.5560  0.1276
 4620SOL    HW125322   2.221   1.497   2.451  0.2862 -1.9886 -1.5037
 4620SOL    HW225323   2.085   1.524   2.406  3.5410 -1.0546 -3.2220
 4621SOL     OW25324   0.039   2.102   2.461 -0.1343 -0.7010 -0.2494
 4621SOL    HW125325   4.690   2.161   2.438 -0.6344 -1.3983 -0.5109
 4621SOL    HW225326   0.072   2.154   2.533 -0.0690 -0.4853 -0.4351
 4622SOL     OW25327   3.359   4.704   4.667  0.1881  0.0114 -0.1281
 4622SOL    HW125328   3.382   4.627   4.719 -0.9613 -0.5260 -0.4166
 4622SOL    HW225329   3.448   0.004   4.638  0.4530 -2.3683 -1.1449
 4623SOL     OW25330   1.767   2.201   2.562 -0.1940  0.3591  0.6740
 4623SOL    HW125331   1.836   2.186   2.497  0.9741  0.6803  1.8307
 4623SOL    HW225332   1.744   2.290   2.535  0.2429  0.5185  0.8159
 4624SOL     OW25333   0.069   1.025   7.303 -0.4362 -0.5464 -0.1270
 4624SOL    HW125334   0.057   1.100   7.362 -1.0036 -0.3341 -0.5087
 4624SOL    HW225335   0.121   0.969   7.361  1.4566  0.6580 -0.6577
 4625SOL     OW25336   0.308   3.450   0.438 -0.4902 -0.1523  0.1128
 4625SOL    HW125337   0.239   3.441   0.371  1.3152  0.0231 -1.7666
 4625SOL    HW225338   0.369   3.385   0.404 -0.2819 -0.4824  1.1488
 4626SOL     OW25339   1.658   3.651   7.290  0.1610 -0.2195  0.2550
 4626SOL    HW125340   1.716   3.637   7.215 -0.9084 -0.5011 -0.5213
 4626SOL    HW225341   1.697   3.595   7.357  0.3301 -1.3047 -0.7483
 4627SOL     OW25342   0.445   3.837  15.239 -0.0768  0.1551  0.1504
 4627SOL    HW125343   0.531   3.815  15.205  0.2837  0.5895  0.7884
 4627SOL    HW225344   0.389   3.855  15.163  0.6444  1.6417 -0.0301
 4628SOL     OW25345   3.406   2.030   3.489  0.5033 -0.0424 -0.0479
 4628SOL    HW125346   3.438   1.942   3.508 -1.4189 -0.9375 -0.9590
 4628SOL    HW225347   3.362   2.018   3.405 -1.1188 -1.7720  1.0469
 4629SOL     OW25348   4.423   4.356  12.830  0.0659  0.0305  0.5532
 4629SOL    HW125349   4.454   4.375  12.919  0.6771  0.3685  0.2668
 4629SOL    HW225350   4.397   4.266  12.849 -0.1590 -0.1445 -0.5809
 4630SOL     OW25351   2.073   4.437  15.238  0.2226 -0.5526  0.8689
 4630SOL    HW125352   2.080   4.431  15.143 -1.0208  3.4898  0.5262
 4630SOL    HW225353   1.991   4.388  15.243 -0.8175  1.3751  2.9343
 4631SOL     OW25354   0.056   3.448   3.937 -0.0605 -0.3132  0.3039
 4631SOL    HW125355   0.102   3.514   3.989  1.2926  0.2482 -1.6141
 4631SOL    HW225356   0.078   3.474   3.848  0.2681 -2.3102 -0.2011
 4632SOL     OW25357   1.503   1.232  14.106  0.0135 -0.9585 -0.0876
 4632SOL    HW125358   1.501   1.167  14.176  2.5552 -0.7490  0.2128
 4632SOL    HW225359   1.581   1.204  14.057 -0.0528 -1.0434 -0.1430
 4633SOL     OW25360   0.938   2.277   3.988  0.0179  0.2077 -0.4285
 4633SOL    HW125361   0.908   2.348   4.044 -1.4867  0.8266 -1.9973
 4633SOL    HW225362   0.908   2.207   4.046  0.3908 -0.1871 -0.7106
 4634SOL     OW25363   3.887   3.194   3.611  0.1083  0.2612  0.4775
 4634SOL    HW125364   3.855   3.217   3.524  2.9379  1.3179 -0.2710
 4634SOL    HW225365   3.980   3.204   3.590  0.4380 -0.6663  1.4585
 4635SOL     OW25366   4.309   0.346   5.669 -0.1619 -0.5915 -0.0654
 4635SOL    HW125367   4.373   0.413   5.692  0.4306 -1.3192  0.3970
 4635SOL    HW225368   4.234   0.375   5.721 -0.5414 -0.6071 -0.6002
 4636SOL     OW25369   0.085   0.249  15.685  0.0033  1.0928 -0.0160
 4636SOL    HW125370   0.175   0.236  15.715  0.3555  0.3191 -1.4464
 4636SOL    HW225371   0.029   0.214  15.755 -0.8624  1.8632 -0.3121
 4637SOL     OW25372   2.218   3.083   9.508  0.1908 -0.2412  0.0273
 4637SOL    HW125373   2.124   3.090   9.521 -0.1577  0.6728 -2.9523
 4637SOL    HW225374   2.241   3.174   9.527  3.1822 -1.2105  1.0987
 4638SOL     OW25375   3.457   3.260   9.196 -0.6038 -0.7010 -0.1600
 4638SOL    HW125376   3.462   3.195   9.266 -1.8928  0.3147  0.8605
 4638SOL    HW225377   3.525   3.325   9.209 -0.5833 -0.1541 -3.0476
 4639SOL     OW25378   0.423   4.050  14.194 -0.7693  0.1346  0.0907
 4639SOL    HW125379   0.450   4.016  14.279  0.4963  1.7727  0.3488
 4639SOL    HW225380   0.352   4.108  14.223 -0.9988 -1.0069  1.8228
 4640SOL     OW25381   2.491   2.110  14.557  0.3047  0.3343  0.5781
 4640SOL    HW125382   2.560   2.059  14.599 -2.1381 -2.9739  0.5743
 4640SOL    HW225383   2.417   2.103  14.618  0.3933  0.2372  0.6743
 4641SOL     OW25384   0.958   2.526   6.087 -0.1681  0.3544 -0.2244
 4641SOL    HW125385   1.021   2.550   6.018  1.2013  2.2276  1.6707
 4641SOL    HW225386   0.872   2.542   6.049  0.2061  1.1350 -0.7469
 4642SOL     OW25387   3.341   4.171   7.783 -0.1955 -0.3191  0.8197
 4642SOL    HW125388   3.390   4.150   7.704  2.7180  1.0277  2.2904
 4642SOL    HW225389   3.253   4.138   7.765  0.0636 -0.1044 -0.8296
 4643SOL     OW25390   2.533   0.102   7.953  0.2678 -0.3160 -0.0923
 4643SOL    HW125391   2.625   0.076   7.948  0.0080 -1.1915 -0.4179
 4643SOL    HW225392   2.526   0.161   8.029 -0.6281  0.2277 -0.5986
 4644SOL     OW25393   0.754   1.523   6.525  0.3187  0.1395 -0.4386
 4644SOL    HW125394   0.754   1.583   6.600 -0.3970  0.2147 -0.5009
 4644SOL    HW225395   0.847   1.522   6.501  0.1133  0.2768 -1.2403
 4645SOL     OW25396   4.516   1.834   9.135 -0.4490 -0.5321  0.4757
 4645SOL    HW125397   4.449   1.895   9.165  0.6983  1.2758 -0.6276
 4645SOL    HW225398   4.481   1.754   9.174 -4.5206  0.1005 -1.9794
 4646SOL     OW25399   0.123   0.375   7.972 -0.2811  0.0018 -0.0371
 4646SOL    HW125400   0.170   0.307   7.923 -2.5336 -0.6319 -1.3377
 4646SOL    HW225401   0.127   0.340   8.061 -0.1077  1.2854  0.4690
 4647SOL     OW25402   0.667   4.392  16.693  0.5738  0.0057  0.2381
 4647SOL    HW125403   0.699   4.481  16.711 -1.2938  0.7891 -0.3224
 4647SOL    HW225404   0.752   4.352  16.674 -0.0777 -0.8196 -0.9045
 4648SOL     OW25405   4.364   2.679  12.097 -0.4400  0.1678 -0.6144
 4648SOL    HW125406   4.324   2.747  12.150 -0.0635  0.5353 -0.7971
 4648SOL    HW225407   4.286   2.641  12.056 -0.3306 -0.4622 -0.2455
 4649SOL     OW25408   2.485   0.101  11.809  0.5539  0.4668 -0.2785
 4649SOL    HW125409   2.502   0.050  11.888 -1.5013  0.2494  0.0254
 4649SOL    HW225410   2.552   0.070  11.748 -1.5289  1.9161 -3.3181
 4650SOL     OW25411   2.357   0.505   1.282 -0.1856  0.4647 -0.8430
 4650SOL    HW125412   2.331   0.492   1.191  0.3159 -4.6664 -0.2112
 4650SOL    HW225413   2.424   0.437   1.287  0.8754  1.5667 -0.0943
 4651SOL     OW25414   3.145   0.832   8.682  0.2584  0.4839 -0.1065
 4651SOL    HW125415   3.118   0.791   8.600  3.5632  0.4648 -1.1740
 4651SOL    HW225416   3.227   0.873   8.654  2.2649 -2.4662  1.4614
 4652SOL     OW25417   3.955   2.662   1.195  0.1953 -0.7605 -0.2173
 4652SOL    HW125418   3.995   2.728   1.252 -0.1914 -0.9883  0.3176
 4652SOL    HW225419   3.936   2.607   1.271  1.5763  0.9653  1.3596
 4653SOL     OW25420   0.398   0.463   6.584  0.0477 -0.1906  0.5750
 4653SOL    HW125421   0.334   0.451   6.654 -1.0013  2.8886  0.1449
 4653SOL    HW225422   0.359   0.537   6.537 -0.6350 -0.1566  1.1812
 4654SOL     OW25423   2.943   1.042   7.787  0.8260  0.5122 -0.3361
 4654SOL    HW125424   2.867   1.100   7.794  0.2548 -0.3250  0.4558
 4654SOL    HW225425   2.939   1.031   7.692 -3.5221  0.7308 -0.1661
 4655SOL     OW25426   0.378   4.510   4.841  0.7702  0.4076 -0.7450
 4655SOL    HW125427   0.472   4.526   4.851  0.4412  2.0036 -0.1197
 4655SOL    HW225428   0.388   4.458   4.762  3.8924  0.0044 -0.1089
 4656SOL     OW25429   1.107   1.183   8.612 -0.1563 -0.1535 -0.3022
 4656SOL    HW125430   1.054   1.184   8.532 -0.7682  4.4721  0.1457
 4656SOL    HW225431   1.050   1.234   8.669  0.1369  0.5997 -0.6844
 4657SOL     OW25432   1.865   3.966   2.284 -0.3739 -0.7560  0.6893
 4657SOL    HW125433   1.855   3.888   2.338  0.8419 -0.8662  0.7479
 4657SOL    HW225434   1.880   3.923   2.199  1.0916 -1.8939  1.5390
 4658SOL     OW25435   4.410   2.841  13.459 -0.0490  0.2498  0.4319
 4658SOL    HW125436   4.377   2.926  13.430 -0.2901 -0.4617 -1.3890
 4658SOL    HW225437   4.329   2.791  13.459 -0.3203  0.6654 -1.1960
 4659SOL     OW25438   0.447   4.432   5.513 -0.3784 -0.0155  0.2551
 4659SOL    HW125439   0.471   4.523   5.529  1.9452 -0.5637 -0.1383
 4659SOL    HW225440   0.496   4.391   5.585 -0.1666 -0.4129 -0.1160
 4660SOL     OW25441   0.261   0.643   1.210 -0.2132 -0.1859 -0.3267
 4660SOL    HW125442   0.288   0.735   1.206 -0.0591 -0.2314 -0.3261
 4660SOL    HW225443   0.261   0.629   1.116  2.2539  0.0568 -0.3722
 4661SOL     OW25444   3.101   1.117   3.556 -0.3329  0.8933 -0.1027
 4661SOL    HW125445   3.084   1.136   3.463  1.6545 -2.7896 -1.2137
 4661SOL    HW225446   3.020   1.150   3.596 -0.6053  2.2309 -1.6964
 4662SOL     OW25447   3.976   2.357   7.748 -0.5576  0.4734  0.6386
 4662SOL    HW125448   4.032   2.297   7.796 -0.8481  0.5947  1.1258
 4662SOL    HW225449   4.013   2.351   7.660 -0.4927  0.6081  0.6568
 4663SOL     OW25450   4.187   1.927   2.547 -0.2417 -0.2187 -0.5509
 4663SOL    HW125451   4.232   1.904   2.465 -0.2150  1.8851 -1.1480
 4663SOL    HW225452   4.118   1.862   2.554 -2.6049  2.3336 -0.3954
 4664SOL     OW25453   4.567   1.587   6.570 -0.0469 -0.0459 -0.5338
 4664SOL    HW125454   4.632   1.534   6.616 -0.0367  0.2754 -0.1776
 4664SOL    HW225455   4.508   1.620   6.638  1.4500  0.3789  0.5519
 4665SOL     OW25456   3.806   1.615   7.166 -0.0753 -0.3011  0.0679
 4665SOL    HW125457   3.891   1.621   7.208  0.5787 -1.7828 -1.0374
 4665SOL    HW225458   3.748   1.620   7.242 -0.4792  1.2080 -0.3398
 4666SOL     OW25459   0.020   0.711   5.618 -0.4763 -0.1392 -0.3124
 4666SOL    HW125460   0.074   0.633   5.634 -3.0090 -1.6661  0.8954
 4666SOL    HW225461   0.067   0.771   5.675  0.1903  0.3154 -1.3319
 4667SOL     OW25462   1.929   2.347   4.282 -0.4530 -0.4170  0.6078
 4667SOL    HW125463   1.992   2.414   4.255  0.6167 -0.9339  1.8585
 4667SOL    HW225464   1.912   2.380   4.370 -0.9196  0.8472  0.0531
 4668SOL     OW25465   3.521   0.859  12.905 -0.4629  0.1565  0.1053
 4668SOL    HW125466   3.489   0.915  12.976  1.7664  0.6226  0.7303
 4668SOL    HW225467   3.605   0.899  12.884 -1.0993 -0.4266 -3.4975
 4669SOL     OW25468   2.082   3.665   4.585  0.5685 -0.2901 -0.0899
 4669SOL    HW125469   2.061   3.618   4.666 -1.4523 -0.1604 -0.5248
 4669SOL    HW225470   2.085   3.594   4.521  2.1219 -0.2341 -0.0560
 4670SOL     OW25471   0.896   0.681   2.935 -0.0332 -0.1845 -0.2382
 4670SOL    HW125472   0.985   0.708   2.911  0.4538  1.1835  3.0277
 4670SOL    HW225473   0.876   0.599   2.891  4.0861  0.0545 -2.5814
 4671SOL     OW25474   2.863   3.873   8.004 -0.6491 -0.0980 -0.2718
 4671SOL    HW125475   2.838   3.802   8.063  0.1345  1.8580  2.3625
 4671SOL    HW225476   2.860   3.957   8.049 -1.6554  0.1784 -0.8393
 4672SOL     OW25477   2.319   3.774  11.010 -0.4115 -0.1454  0.2685
 4672SOL    HW125478   2.329   3.726  10.928  1.7313  0.6623  0.0462
 4672SOL    HW225479   2.292   3.856  10.968  2.3924 -0.5187 -2.2973
 4673SOL     OW25480   2.369   0.846   8.682 -0.3631  0.2852 -0.8724
 4673SOL    HW125481   2.457   0.884   8.677 -0.8689  1.9898  3.5424
 4673SOL    HW225482   2.376   0.780   8.613 -0.5936 -0.3245 -0.3256
 4674SOL     OW25483   3.041   2.145   0.637  0.2205  0.3769 -0.6952
 4674SOL    HW125484   3.121   2.142   0.584  0.6434  0.7619 -0.0837
 4674SOL    HW225485   2.974   2.162   0.571 -0.4465 -3.0440 -0.8859
 4675SOL     OW25486   2.911   2.155  16.517 -0.4712  0.2371  0.2066
 4675SOL    HW125487   2.849   2.200  16.460 -1.6325 -0.6334  0.7927
 4675SOL    HW225488   2.981   2.221  16.523 -1.4445  1.1431  1.6432
 4676SOL     OW25489   4.609   1.376   5.742 -0.5256 -0.1492  0.1411
 4676SOL    HW125490   4.612   1.303   5.803 -3.7462  0.1446  0.6727
 4676SOL    HW225491   4.668   1.346   5.673 -0.6836  0.6970 -0.3555
 4677SOL     OW25492   0.516   0.730   3.873 -1.0328 -0.0542 -0.6365
 4677SOL    HW125493   0.593   0.732   3.929  0.7583  2.4071 -3.2309
 4677SOL    HW225494   0.561   0.742   3.790 -1.6903 -0.1231 -1.0025
 4678SOL     OW25495   3.037   0.483   4.622 -0.1239  0.4976  1.1187
 4678SOL    HW125496   3.072   0.520   4.703 -1.5546  0.3986  1.7800
 4678SOL    HW225497   3.114   0.494   4.565 -1.6319 -0.4544 -1.0686
 4679SOL     OW25498   2.414   2.666  13.003 -0.1232 -0.1666 -0.1983
 4679SOL    HW125499   2.473   2.600  12.967 -0.3031 -0.6542  0.4012
 4679SOL    HW225500   2.330   2.627  12.978 -0.7205  0.6698  0.4794
 4680SOL     OW25501   3.891   4.108   7.449 -0.3259  1.1612  0.0531
 4680SOL    HW125502   3.949   4.161   7.504  1.1440 -2.2663  1.8193
 4680SOL    HW225503   3.820   4.112   7.513 -0.8383  0.5727 -0.4764
 4681SOL     OW25504   2.576   1.435   8.826  0.9430 -0.4087  0.4894
 4681SOL    HW125505   2.638   1.363   8.827  0.5026 -0.8220 -2.8865
 4681SOL    HW225506   2.566   1.450   8.732 -0.3527 -1.7141  0.4165
 4682SOL     OW25507   3.704   3.414  12.105 -0.6875 -0.5849  0.8870
 4682SOL    HW125508   3.730   3.352  12.036 -0.4722  0.3080  0.1604
 4682SOL    HW225509   3.778   3.409  12.166  0.4160  1.7746 -0.2249
 4683SOL     OW25510   2.992   1.493   0.334  0.0458  0.1362 -0.5874
 4683SOL    HW125511   2.984   1.519   0.242  1.7700  2.0621 -0.2184
 4683SOL    HW225512   3.054   1.565   0.353  0.9664 -0.8306  0.0581
 4684SOL     OW25513   1.291   3.198   9.083 -0.2479  0.3467  0.3367
 4684SOL    HW125514   1.229   3.268   9.100  0.5284  1.2443 -0.5564
 4684SOL    HW225515   1.292   3.183   8.989 -1.6634  1.7900  0.1071
 4685SOL     OW25516   3.049   4.344   6.079 -0.4591  0.3651  0.0258
 4685SOL    HW125517   3.130   4.368   6.125 -0.5152  0.3107  0.1512
 4685SOL    HW225518   3.011   4.276   6.133 -3.1590  0.7836 -1.3171
 4686SOL     OW25519   4.213   0.814   0.553  0.1373  0.0195  0.4031
 4686SOL    HW125520   4.158   0.832   0.477  0.5840 -1.0999 -0.1957
 4686SOL    HW225521   4.261   0.896   0.563  0.9077 -0.1676 -1.7518
 4687SOL     OW25522   1.087   3.552   8.218 -0.6536 -0.0116  0.3264
 4687SOL    HW125523   1.085   3.493   8.293  0.5895  1.0828  1.2121
 4687SOL    HW225524   1.076   3.640   8.256  1.3836 -0.9141  2.9651
 4688SOL     OW25525   0.663   1.938   7.425  0.3525 -0.3140  0.1586
 4688SOL    HW125526   0.599   2.008   7.417 -0.9067 -1.2629  2.0898
 4688SOL    HW225527   0.626   1.864   7.472  0.4005 -0.5417 -0.1586
 4689SOL     OW25528   1.743   0.359  16.524 -0.5466  0.2044  0.0615
 4689SOL    HW125529   1.692   0.322  16.452 -0.0607  0.5893 -0.4909
 4689SOL    HW225530   1.708   0.448  16.525 -1.4847 -0.1646 -0.0086
 4690SOL     OW25531   3.347   0.996   1.302 -0.3621  0.0660  0.3651
 4690SOL    HW125532   3.320   1.004   1.210  0.2149 -0.7164  0.1310
 4690SOL    HW225533   3.335   0.901   1.303 -0.6674  0.1077  0.8175
 4691SOL     OW25534   1.186   0.846   6.467  0.2358  0.4036  0.7901
 4691SOL    HW125535   1.210   0.759   6.434  0.3574  0.5532  0.4906
 4691SOL    HW225536   1.110   0.871   6.414  1.2004 -2.7041 -2.1447
 4692SOL     OW25537   4.423   4.403  14.596  0.0760 -0.1566  0.6887
 4692SOL    HW125538   4.448   4.311  14.603 -2.3198 -0.8850 -0.4934
 4692SOL    HW225539   4.348   4.401  14.656 -1.2513  1.1759 -0.9342
 4693SOL     OW25540   2.426   4.539   5.895  0.3224 -0.4412 -0.4462
 4693SOL    HW125541   2.454   4.629   5.910  3.2385 -1.1612 -1.5345
 4693SOL    HW225542   2.346   4.545   5.844 -0.6814  1.4494  1.3773
 4694SOL     OW25543   1.480   3.385   2.058 -0.2780 -1.1359  0.7698
 4694SOL    HW125544   1.408   3.376   1.996  0.5840 -1.5814 -0.1635
 4694SOL    HW225545   1.556   3.353   2.009  0.6805  1.3978  0.5685
 4695SOL     OW25546   3.641   4.418  13.217  0.5700  0.3251 -0.2742
 4695SOL    HW125547   3.606   4.349  13.272  0.3024  1.7877  1.3883
 4695SOL    HW225548   3.616   4.397  13.127 -0.6137 -2.3912  0.6813
 4696SOL     OW25549   3.199   4.702  11.164  0.2620 -0.1888 -0.0186
 4696SOL    HW125550   3.262   0.041  11.126  1.4465 -1.0850  0.4881
 4696SOL    HW225551   3.252   4.623  11.167  1.4326  0.6580  1.7179
 4697SOL     OW25552   4.172   2.740  15.091 -1.0659 -0.0672  0.6761
 4697SOL    HW125553   4.094   2.731  15.145 -1.6999 -2.0707 -0.5910
 4697SOL    HW225554   4.138   2.750  15.002  0.6705 -0.6637 -0.0528
 4698SOL     OW25555   2.152   1.029  11.509 -0.0493 -0.4920 -0.0366
 4698SOL    HW125556   2.087   1.079  11.558  0.5957 -1.4737  1.7980
 4698SOL    HW225557   2.101   1.025  11.428 -0.1374 -1.4859  0.0636
 4699SOL     OW25558   1.931   0.080   2.597  0.1007  0.3588 -0.1571
 4699SOL    HW125559   2.014   0.096   2.642  1.2732  2.3296 -3.0097
 4699SOL    HW225560   1.871   0.099   2.668 -1.0317 -1.0895 -0.7235
 4700SOL     OW25561   2.079   1.730   7.956 -0.2179 -0.0798  0.0503
 4700SOL    HW125562   2.131   1.810   7.960 -0.1477 -0.0819 -0.7671
 4700SOL    HW225563   2.088   1.691   8.043  1.3376  0.2139  0.0192
 4701SOL     OW25564   2.477   2.195  14.065 -0.0060  0.3103  0.0599
 4701SOL    HW125565   2.554   2.169  14.116  0.4849  1.8906  0.1357
 4701SOL    HW225566   2.460   2.281  14.103 -2.0507  0.2215 -0.6452
 4702SOL     OW25567   4.595   3.020  17.515 -0.2506  0.0703  0.4102
 4702SOL    HW125568   4.503   3.043  17.526 -0.2342 -0.6080  2.0252
 4702SOL    HW225569   4.583   2.926  17.499  6.1721 -0.6177 -0.5861
 4703SOL     OW25570   2.780   3.357   1.933  0.5761 -0.2136  0.0118
 4703SOL    HW125571   2.861   3.410   1.932  1.4605 -1.5721  0.1994
 4703SOL    HW225572   2.720   3.421   1.895  0.6287  1.0856  2.1396
 4704SOL     OW25573   4.010   2.411   4.015 -0.1577  0.3790 -0.3846
 4704SOL    HW125574   4.043   2.333   3.970 -0.7170 -1.0013  1.6145
 4704SOL    HW225575   4.082   2.473   4.007 -0.1075  0.3138 -0.4390
 4705SOL     OW25576   4.559   2.271   1.561 -0.0416  0.1525  0.6412
 4705SOL    HW125577   4.586   2.181   1.575 -2.8506 -0.8672 -0.4793
 4705SOL    HW225578   4.619   2.309   1.625  0.5955  1.4019 -0.7130
 4706SOL     OW25579   1.250   4.547   8.689  0.2967 -0.2387  0.0123
 4706SOL    HW125580   1.166   4.508   8.665 -0.0255  0.4337  0.0377
 4706SOL    HW225581   1.224   4.606   8.759 -0.1968 -0.8052  0.3117
 4707SOL     OW25582   0.433   1.914  12.229 -0.2971 -0.4364 -0.3536
 4707SOL    HW125583   0.353   1.927  12.279 -0.2126 -0.0016 -0.3304
 4707SOL    HW225584   0.412   1.833  12.182 -0.1996  0.2307 -1.5642
 4708SOL     OW25585   0.701   4.627   5.762  0.3473 -0.0901  0.2891
 4708SOL    HW125586   0.661   4.691   5.821  1.2537 -1.3822  2.2890
 4708SOL    HW225587   0.665   4.649   5.675 -2.2090 -0.8671  1.1445
 4709SOL     OW25588   0.445   2.794   3.666 -0.0775  0.1613 -0.0519
 4709SOL    HW125589   0.494   2.712   3.673 -1.2554 -0.4096  1.3657
 4709SOL    HW225590   0.488   2.848   3.600 -0.1081  2.4785  1.8400
 4710SOL     OW25591   2.281   0.497  12.352  0.2122  0.2331  0.4533
 4710SOL    HW125592   2.374   0.519  12.350  0.3854 -0.5231  0.0222
 4710SOL    HW225593   2.281   0.440  12.275  0.7807  1.5033 -0.4934
 4711SOL     OW25594   4.200   2.899   5.619 -0.2355  0.1525  0.4878
 4711SOL    HW125595   4.116   2.852   5.619 -0.6552  0.8938  0.3449
 4711SOL    HW225596   4.265   2.829   5.625  0.1430  0.5359  0.8707
 4712SOL     OW25597   4.584   4.144   7.600 -0.1300 -0.0623 -0.2583
 4712SOL    HW125598   4.501   4.112   7.564 -1.3039  0.0665  2.3552
 4712SOL    HW225599   4.584   4.233   7.566 -0.3513  0.4649  1.1310
 4713SOL     OW25600   1.919   2.021   2.905  0.5441  0.6816  0.0946
 4713SOL    HW125601   1.927   2.040   2.999  0.7074 -1.0014  0.4218
 4713SOL    HW225602   2.010   2.000   2.882  0.0930 -1.3500  0.1313
 4714SOL     OW25603   3.577   1.011  10.407  0.4381  0.2584 -0.0864
 4714SOL    HW125604   3.666   1.023  10.375  1.0290 -1.6722  0.8390
 4714SOL    HW225605   3.590   0.956  10.484  3.3120 -0.4647 -1.1144
 4715SOL     OW25606   4.303   4.011   7.563 -0.2771  0.7445 -0.4967
 4715SOL    HW125607   4.354   3.954   7.620 -0.4929  2.2116  1.1434
 4715SOL    HW225608   4.273   4.075   7.627 -0.4267 -0.6458  0.8211
 4716SOL     OW25609   3.916   2.727   6.155  0.2879 -0.1205 -0.3374
 4716SOL    HW125610   3.870   2.660   6.206  0.6211  1.6720  2.2959
 4716SOL    HW225611   3.914   2.687   6.068 -1.5071  2.5845 -1.5543
 4717SOL     OW25612   1.871   1.195   2.264  0.1055 -0.0892 -0.2382
 4717SOL    HW125613   1.865   1.196   2.359  0.5329 -0.5227 -0.2033
 4717SOL    HW225614   1.870   1.101   2.247  3.2237  0.1238 -1.5573
 4718SOL     OW25615   0.558   2.118  10.941 -0.0679  0.1463 -0.2308
 4718SOL    HW125616   0.647   2.085  10.926 -0.2161  1.0120 -2.9998
 4718SOL    HW225617   0.569   2.211  10.920  1.1668 -0.1462 -0.8500
 4719SOL     OW25618   1.750   3.990   5.451  0.1009 -0.2227  0.2649
 4719SOL    HW125619   1.793   4.071   5.476 -1.3919  0.9303 -0.9256
 4719SOL    HW225620   1.779   3.933   5.523  0.3336 -0.7224 -0.2234
 4720SOL     OW25621   4.240   3.832  13.624 -0.3765  0.1139 -0.3049
 4720SOL    HW125622   4.149   3.858  13.606 -0.6209  1.0128  2.1831
 4720SOL    HW225623   4.282   3.909  13.586  1.9732 -0.6016  0.8695
 4721SOL     OW25624   0.698   4.457  10.110  0.4226 -0.5982  0.1209
 4721SOL    HW125625   0.676   4.517  10.038 -3.6064  3.6191  4.8415
 4721SOL    HW225626   0.791   4.441  10.097  0.7084  1.9204 -0.9576
 4722SOL     OW25627   2.397   2.269  17.187 -0.2772 -0.2948 -0.2551
 4722SOL    HW125628   2.488   2.242  17.191 -0.3397 -0.7282 -2.1163
 4722SOL    HW225629   2.353   2.238  17.267 -1.2994 -3.8366 -2.1610
 4723SOL     OW25630   3.064   3.380   9.763 -0.0091  0.5267  0.0950
 4723SOL    HW125631   3.028   3.466   9.786 -0.4722  0.4246 -0.2354
 4723SOL    HW225632   2.998   3.320   9.796  2.6186  0.0325  4.3718
 4724SOL     OW25633   3.493   3.468   9.967 -0.3612  0.0103  0.0436
 4724SOL    HW125634   3.577   3.441  10.004 -0.5917 -0.6947  0.0568
 4724SOL    HW225635   3.527   3.506   9.886 -0.0825  2.0142  1.0841
 4725SOL     OW25636   4.566   2.909   0.422 -0.0283 -0.5185  0.3462
 4725SOL    HW125637   4.518   2.827   0.421 -1.7423  0.4821 -1.8844
 4725SOL    HW225638   4.581   2.905   0.327 -1.6678  0.5334  0.0207
 4726SOL     OW25639   1.737   1.297   4.030 -0.7774  0.1709 -0.4160
 4726SOL    HW125640   1.737   1.209   4.068  1.9050  0.2245 -0.3378
 4726SOL    HW225641   1.641   1.299   4.029 -0.7501  2.2902 -0.1402
 4727SOL     OW25642   3.790   0.891   3.920  0.0153  0.4358 -0.0167
 4727SOL    HW125643   3.844   0.961   3.958  1.8368  0.1359 -2.0628
 4727SOL    HW225644   3.775   0.918   3.830 -2.9380 -0.4133  0.2134
 4728SOL     OW25645   0.095   4.052   7.298  0.4907  0.2566  0.0960
 4728SOL    HW125646   0.112   3.987   7.367 -2.1854 -0.5713 -0.0149
 4728SOL    HW225647   0.095   3.989   7.227  2.8455  0.8094 -0.3761
 4729SOL     OW25648   3.512   3.628   5.624 -0.5454  0.0166 -0.3169
 4729SOL    HW125649   3.566   3.584   5.558 -0.1441 -0.1099  0.0922
 4729SOL    HW225650   3.437   3.569   5.628 -0.8269  0.5256  2.3619
 4730SOL     OW25651   1.273   0.103   4.697  0.6954  0.5892  0.1542
 4730SOL    HW125652   1.300   0.102   4.605 -0.8858  0.1863 -0.3141
 4730SOL    HW225653   1.357   0.096   4.741  1.0005  3.1857 -0.0182
 4731SOL     OW25654   3.034   0.314  12.113 -0.2738  0.6000 -0.2682
 4731SOL    HW125655   3.109   0.298  12.170 -0.5887  0.0935  0.0016
 4731SOL    HW225656   3.065   0.317  12.022  0.1488 -0.7979 -0.1780
 4732SOL     OW25657   3.038   2.443   3.156 -0.0333  0.4425 -0.1696
 4732SOL    HW125658   2.993   2.414   3.077 -1.2842 -1.4774  1.2499
 4732SOL    HW225659   3.116   2.474   3.109 -0.7840  0.6994 -1.2460
 4733SOL     OW25660   1.229   1.037   8.807 -0.2017  0.8687  0.0273
 4733SOL    HW125661   1.151   1.012   8.856 -0.0277 -0.2079 -0.2601
 4733SOL    HW225662   1.191   1.093   8.739 -1.9091  1.4327  1.4532
 4734SOL     OW25663   1.085   2.912  16.768  0.4498  0.3615 -0.1633
 4734SOL    HW125664   1.011   2.926  16.828 -0.2742 -0.2226 -0.9149
 4734SOL    HW225665   1.067   2.990  16.715  1.1930  1.2833  0.9215
 4735SOL     OW25666   2.085   0.488   4.267 -0.6787  0.5827 -0.5496
 4735SOL    HW125667   2.174   0.523   4.268  0.7102 -2.9481 -0.5851
 4735SOL    HW225668   2.064   0.500   4.360  1.9125 -0.8659  0.2443
 4736SOL     OW25669   2.802   3.970   4.250  0.0071 -0.1046  0.4654
 4736SOL    HW125670   2.721   3.962   4.299  0.1547 -0.0045  0.7267
 4736SOL    HW225671   2.862   3.985   4.323  0.0570 -0.0596  0.4160
 4737SOL     OW25672   0.291   2.799  12.283 -0.0782 -0.2185 -0.4326
 4737SOL    HW125673   0.233   2.736  12.327 -0.6779 -1.3618 -2.9104
 4737SOL    HW225674   0.366   2.787  12.343  1.1189  2.4824 -1.3918
 4738SOL     OW25675   3.897   4.208   6.342  0.7553 -0.0521 -0.1043
 4738SOL    HW125676   3.954   4.246   6.409  1.3418  0.7483 -1.0570
 4738SOL    HW225677   3.926   4.117   6.351 -1.8997 -0.8840 -0.0575
 4739SOL     OW25678   3.710   1.215  17.198 -0.1124  0.0060  0.3646
 4739SOL    HW125679   3.623   1.178  17.184 -0.3222  0.8482 -0.5765
 4739SOL    HW225680   3.714   1.242  17.290  0.0989 -0.7512  0.5719
 4740SOL     OW25681   2.113   3.120   1.965 -0.5142 -0.7653  0.4140
 4740SOL    HW125682   2.059   3.119   2.044  0.8663  1.9043  1.4244
 4740SOL    HW225683   2.147   3.030   1.968 -0.6057 -0.7739  1.4218
 4741SOL     OW25684   0.776   3.776   7.683 -0.0188 -0.2003  0.3318
 4741SOL    HW125685   0.857   3.807   7.644  0.6826 -2.0543  0.3250
 4741SOL    HW225686   0.714   3.779   7.610 -0.4723  0.4850  0.7492
 4742SOL     OW25687   0.085   3.419  16.082  0.1315 -0.3879  0.1460
 4742SOL    HW125688   0.040   3.479  16.141 -0.7250 -1.4729  0.6105
 4742SOL    HW225689   0.172   3.415  16.121  0.5846  1.8717 -0.6764
 4743SOL     OW25690   3.386   4.341  12.541  0.1259 -0.2090 -0.0711
 4743SOL    HW125691   3.456   4.403  12.518 -1.6968  1.5698 -0.7592
 4743SOL    HW225692   3.356   4.324  12.453 -1.3375  2.3411 -0.0755
 4744SOL     OW25693   3.810   0.840   3.403  0.0516 -0.4565  0.3274
 4744SOL    HW125694   3.795   0.911   3.466  1.6131  0.6139 -0.4947
 4744SOL    HW225695   3.889   0.806   3.445 -0.1678  0.9719  1.8811
 4745SOL     OW25696   3.373   2.007   9.318 -0.5926  0.6001  0.1120
 4745SOL    HW125697   3.396   1.970   9.403 -2.0371  1.1659  0.7333
 4745SOL    HW225698   3.372   1.922   9.274  1.1507 -0.3549  1.8940
 4746SOL     OW25699   3.807   4.376   9.088  0.0338 -0.5171  0.6227
 4746SOL    HW125700   3.762   4.318   9.027  1.4374  1.7701 -2.5392
 4746SOL    HW225701   3.892   4.333   9.097 -0.8776 -2.8043 -1.7811
 4747SOL     OW25702   2.579   2.204  16.117 -0.4350 -0.0050 -0.6243
 4747SOL    HW125703   2.549   2.180  16.205 -3.8357  0.0622 -1.7339
 4747SOL    HW225704   2.507   2.170  16.064 -1.9210  0.4618  1.0850
 4748SOL     OW25705   4.320   3.491   6.799  0.0831 -0.0818 -0.4295
 4748SOL    HW125706   4.236   3.459   6.766  0.6701 -0.6776 -1.3575
 4748SOL    HW225707   4.329   3.424   6.867 -0.2292 -0.6922 -0.9847
 4749SOL     OW25708   0.097   2.350   5.057  0.8022  0.1897  0.1277
 4749SOL    HW125709   0.099   2.329   4.964 -1.3209 -0.8278  0.3034
 4749SOL    HW225710   0.075   2.443   5.062 -2.2560 -0.4843 -0.7205
 4750SOL     OW25711   2.461   3.652  10.038  0.3983 -0.5269 -0.2583
 4750SOL    HW125712   2.372   3.615  10.046 -0.0547  0.7280  0.4876
 4750SOL    HW225713   2.485   3.616   9.953 -1.2567  0.5437 -1.1778
 4751SOL     OW25714   0.642   2.617   9.940  0.0339  0.5772 -0.0161
 4751SOL    HW125715   0.549   2.598   9.950  0.6865 -2.7056 -0.2577
 4751SOL    HW225716   0.665   2.599  10.031 -0.2519 -0.8341 -0.2205
 4752SOL     OW25717   3.936   2.564   7.462  0.1835  0.4083  0.1927
 4752SOL    HW125718   3.856   2.544   7.510  1.0095 -0.7220  1.0952
 4752SOL    HW225719   3.921   2.539   7.370 -0.2442 -1.6625  0.8125
 4753SOL     OW25720   4.569   0.141   5.573 -0.0926  0.1841  0.2637
 4753SOL    HW125721   4.474   0.132   5.567 -0.1914 -0.6045  2.6826
 4753SOL    HW225722   4.608   0.127   5.487  1.0649 -0.9594  0.9770
 4754SOL     OW25723   0.021   2.423  17.145 -0.0149  0.2180  0.1366
 4754SOL    HW125724   0.033   2.450  17.236  1.8057 -0.3804  0.0716
 4754SOL    HW225725   4.663   2.375  17.166  0.9564 -1.6159 -0.2826
 4755SOL     OW25726   0.108   4.020   3.747  0.1234  0.3038 -0.3484
 4755SOL    HW125727   0.160   4.003   3.826 -1.1521  1.6859  0.7785
 4755SOL    HW225728   0.142   3.966   3.676  1.5945 -1.0217  1.3496
 4756SOL     OW25729   0.065   1.996   3.145 -0.0341 -0.1760  0.8218
 4756SOL    HW125730   0.159   2.002   3.132  0.0096  0.9095  1.6199
 4756SOL    HW225731   0.035   1.910   3.115 -0.8416 -0.2321  1.7859
 4757SOL     OW25732   3.358   4.288  15.393 -0.6718  0.4120  0.1910
 4757SOL    HW125733   3.417   4.357  15.422  1.1843 -1.5484  1.0238
 4757SOL    HW225734   3.415   4.214  15.410 -1.0631 -0.2372 -1.3852
 4758SOL     OW25735   2.186   0.766   9.227  0.3484 -0.1069  0.3148
 4758SOL    HW125736   2.276   0.776   9.194  0.3320 -1.5253 -0.1953
 4758SOL    HW225737   2.147   0.720   9.153  1.5305 -1.2785  0.4058
 4759SOL     OW25738   2.682   0.883   7.550 -0.3217  0.2106 -0.7628
 4759SOL    HW125739   2.706   0.816   7.613 -0.6378  1.0547  0.2493
 4759SOL    HW225740   2.769   0.908   7.517 -0.3008  0.9618 -0.1472
 4760SOL     OW25741   3.268   1.404  10.402  0.4481  0.4418 -0.0369
 4760SOL    HW125742   3.208   1.368  10.336 -0.1041 -0.9318  1.2061
 4760SOL    HW225743   3.333   1.334  10.407  1.9143  1.9711  2.2083
 4761SOL     OW25744   2.057   2.533   7.666  0.0417 -0.0275 -0.0029
 4761SOL    HW125745   2.006   2.563   7.742 -2.0284  0.5758 -1.6350
 4761SOL    HW225746   1.982   2.521   7.608  1.4641  0.3954 -1.9175
 4762SOL     OW25747   3.150   4.523   4.837  0.6804  0.4987 -0.1529
 4762SOL    HW125748   3.195   4.607   4.849  1.7449  0.0303 -0.9274
 4762SOL    HW225749   3.218   4.461   4.863 -1.9692 -2.4184 -0.1608
 4763SOL     OW25750   1.332   3.287   5.493  0.3914 -0.2038  0.5108
 4763SOL    HW125751   1.279   3.208   5.502  0.1481 -0.2479 -1.2851
 4763SOL    HW225752   1.367   3.289   5.582 -0.0332 -1.4244  0.7069
 4764SOL     OW25753   2.309   1.500   5.777  0.0680  0.0759 -0.2379
 4764SOL    HW125754   2.326   1.417   5.820 -1.1097 -0.4798 -0.8435
 4764SOL    HW225755   2.228   1.484   5.729 -0.3535  0.2258  0.4245
 4765SOL     OW25756   4.294   0.806   3.685 -0.6680  0.0982  0.2244
 4765SOL    HW125757   4.388   0.809   3.699 -0.6587  0.0179  0.1762
 4765SOL    HW225758   4.282   0.731   3.743  1.2294 -1.8067 -1.8498
 4766SOL     OW25759   3.978   1.451  12.424 -0.5827 -0.2463 -0.4303
 4766SOL    HW125760   3.942   1.506  12.355 -2.8994  0.5221  1.4060
 4766SOL    HW225761   4.061   1.497  12.435 -1.5376  1.2231  0.6006
 4767SOL     OW25762   3.279   4.442   9.047  0.8552 -0.1721  0.2529
 4767SOL    HW125763   3.299   4.355   9.013  0.6400 -0.4934  0.9431
 4767SOL    HW225764   3.289   4.510   8.981  2.5184  0.8463  1.5670
 4768SOL     OW25765   4.262   3.203   1.926 -0.2970 -0.1277  0.8456
 4768SOL    HW125766   4.173   3.219   1.894  0.3920 -0.3381 -1.1713
 4768SOL    HW225767   4.237   3.141   1.994  2.1120 -1.5135  0.4684
 4769SOL     OW25768   0.565   1.756  15.047 -0.4202 -0.1426  0.0317
 4769SOL    HW125769   0.581   1.662  15.053  0.5171  0.0784  0.9789
 4769SOL    HW225770   0.476   1.764  15.081 -1.1948  1.1667 -2.3148
 4770SOL     OW25771   4.225   2.250  10.969  0.4305 -0.3236  0.0462
 4770SOL    HW125772   4.233   2.346  10.966 -0.9243 -0.1626  1.3287
 4770SOL    HW225773   4.210   2.236  11.062 -1.4206  0.3347 -0.1456
 4771SOL     OW25774   1.441   1.607   5.596 -0.2798  0.0958  0.9230
 4771SOL    HW125775   1.492   1.681   5.567 -0.0259  0.0087  1.1481
 4771SOL    HW225776   1.351   1.629   5.570 -0.0866 -2.0933 -1.5220
 4772SOL     OW25777   0.065   4.232   2.739  0.1611  0.0174 -0.0577
 4772SOL    HW125778   4.696   4.234   2.709 -0.0408  2.0456  0.7540
 4772SOL    HW225779   0.102   4.316   2.711 -0.1784  0.1679 -0.0518
 4773SOL     OW25780   1.870   2.594  15.878 -0.3835  0.4640 -0.2064
 4773SOL    HW125781   1.798   2.554  15.831  0.6722 -2.1398  0.4144
 4773SOL    HW225782   1.873   2.688  15.857  0.9588  0.5516  0.3257
 4774SOL     OW25783   2.797   4.442   3.353  0.0787  0.8392 -0.1038
 4774SOL    HW125784   2.725   4.417   3.295  2.4412  0.0114 -2.6629
 4774SOL    HW225785   2.780   4.536   3.348 -1.1930  0.5603 -1.0973
 4775SOL     OW25786   4.645   2.596  15.970 -0.1293  0.1549  0.5647
 4775SOL    HW125787   4.676   2.513  15.934 -1.2810 -0.8931  1.9840
 4775SOL    HW225788   0.009   2.637  15.981  0.2721 -0.4514 -0.3435
 4776SOL     OW25789   2.202   4.666   8.034  0.1071 -0.0903 -0.2610
 4776SOL    HW125790   2.132   4.607   8.063  1.0330  0.6866  3.4976
 4776SOL    HW225791   2.207   4.714   8.116  1.9660 -0.8515  0.0601
 4777SOL     OW25792   2.130   2.016   8.476  0.0132  0.1384 -0.1532
 4777SOL    HW125793   2.125   1.921   8.488  3.0778 -0.1339 -1.0559
 4777SOL    HW225794   2.039   2.039   8.496 -0.5038 -1.3687 -0.6780
 4778SOL     OW25795   0.358   1.429   7.993 -0.0096 -0.4596 -0.5670
 4778SOL    HW125796   0.416   1.481   7.936  0.5921  0.1932  0.6275
 4778SOL    HW225797   0.301   1.381   7.934  1.7328 -1.3830 -1.5006
 4779SOL     OW25798   1.301   4.349   0.110 -0.3173 -0.1459 -0.2900
 4779SOL    HW125799   1.238   4.417   0.135 -0.7744 -0.2195 -1.2669
 4779SOL    HW225800   1.249   4.287   0.060  0.1204  0.2566 -1.2504
 4780SOL     OW25801   2.897   1.408   1.550  0.1613  0.3599  0.3869
 4780SOL    HW125802   2.866   1.347   1.617 -0.9412  0.9232  0.3723
 4780SOL    HW225803   2.869   1.367   1.468 -0.4227  0.2027  0.6716
 4781SOL     OW25804   4.713   2.291   7.267 -0.0587 -0.0232  0.0123
 4781SOL    HW125805   0.072   2.242   7.257  0.1256 -0.6445  4.1855
 4781SOL    HW225806   4.715   2.319   7.359 -2.2988 -2.0872  0.6930
 4782SOL     OW25807   2.793   0.383   4.902 -0.0593 -0.8262  0.1252
 4782SOL    HW125808   2.789   0.433   4.984  0.5860 -2.4072  1.1245
 4782SOL    HW225809   2.829   0.300   4.935  2.0112  0.1242  0.2693
 4783SOL     OW25810   1.279   1.637   7.430  0.1679  0.3567  0.1893
 4783SOL    HW125811   1.335   1.700   7.476 -0.0747  2.0849 -1.8617
 4783SOL    HW225812   1.344   1.619   7.362 -0.5971  0.4737 -0.5624
 4784SOL     OW25813   4.534   0.930   8.782  0.8156  0.4515  0.0346
 4784SOL    HW125814   4.577   0.845   8.779  0.1859  0.1647 -0.6681
 4784SOL    HW225815   4.457   0.900   8.831  0.2809  3.0758  0.8224
 4785SOL     OW25816   1.650   1.979   6.295  0.5526  0.3667  0.0876
 4785SOL    HW125817   1.712   2.047   6.269  0.6226  0.6515  0.9994
 4785SOL    HW225818   1.610   1.962   6.209  1.8702 -0.5469 -0.3505
 4786SOL     OW25819   4.183   2.753   2.239 -0.2619  0.5288 -0.2364
 4786SOL    HW125820   4.105   2.748   2.294  0.5668  0.0380  0.8827
 4786SOL    HW225821   4.165   2.676   2.184 -1.9912  2.3008 -2.1943
 4787SOL     OW25822   4.529   1.841   8.815  0.1279 -0.4250 -0.4917
 4787SOL    HW125823   4.594   1.802   8.756 -0.9791 -2.3954 -0.3742
 4787SOL    HW225824   4.580   1.845   8.895  0.3852 -2.4283 -0.5594
 4788SOL     OW25825   2.799   2.609   2.362 -0.1943 -0.7455  0.1635
 4788SOL    HW125826   2.720   2.604   2.415  0.1335  0.8998  0.8133
 4788SOL    HW225827   2.808   2.703   2.347 -0.7087 -1.0334 -1.9302
 4789SOL     OW25828   4.470   1.428  13.536  0.2919  0.2367 -0.2843
 4789SOL    HW125829   4.445   1.338  13.516  3.4250 -0.8144  0.5326
 4789SOL    HW225830   4.554   1.449  13.493 -0.0975 -1.2571 -1.7826
 4790SOL     OW25831   4.006   1.522   6.407  0.8520 -0.9269 -0.1792
 4790SOL    HW125832   4.069   1.538   6.478  0.9053  0.2396 -0.4950
 4790SOL    HW225833   4.039   1.574   6.334  0.1429 -2.0321 -1.2646
 4791SOL     OW25834   2.762   1.449   2.689 -0.1559  0.2867 -0.3807
 4791SOL    HW125835   2.759   1.356   2.665 -2.7525  0.2456  0.1255
 4791SOL    HW225836   2.819   1.489   2.625  0.8232 -0.2696  0.1389
 4792SOL     OW25837   0.809   2.468   4.143  0.2483 -0.2880 -0.7136
 4792SOL    HW125838   0.818   2.531   4.215 -0.4339  0.5602 -1.3697
 4792SOL    HW225839   0.737   2.502   4.090  2.3906  1.3056 -2.6114
 4793SOL     OW25840   4.517   3.185   9.284  0.1633 -0.0762 -0.1744
 4793SOL    HW125841   4.552   3.248   9.347  0.0273 -0.9850  0.7923
 4793SOL    HW225842   4.543   3.220   9.198  2.5281 -1.0522  0.1389
 4794SOL     OW25843   3.241   2.682   8.706  0.0886 -0.1149 -0.1072
 4794SOL    HW125844   3.256   2.727   8.623  1.1841 -1.8782 -0.8465
 4794SOL    HW225845   3.304   2.611   8.699 -0.6586 -0.8478  0.5708
 4795SOL     OW25846   2.246   4.630  15.150 -0.0989  0.3100 -0.5915
 4795SOL    HW125847   2.323   4.578  15.130 -0.4524 -0.2751 -0.4444
 4795SOL    HW225848   2.182   4.562  15.174 -0.5324  0.5598 -1.0399
 4796SOL     OW25849   4.199   0.195  12.535 -0.5667  0.0314 -0.1470
 4796SOL    HW125850   4.266   0.255  12.501 -1.4820  0.6272 -0.9148
 4796SOL    HW225851   4.245   0.178  12.617  1.0639  1.5662 -0.7249
 4797SOL     OW25852   3.993   3.925   6.042 -0.2839  0.4097 -0.3873
 4797SOL    HW125853   3.909   3.971   6.036  0.7671  2.3322 -0.5599
 4797SOL    HW225854   3.990   3.914   6.137 -0.5182 -2.7991 -0.7613
 4798SOL     OW25855   2.439   1.858   9.340  0.1923 -0.3183 -0.2439
 4798SOL    HW125856   2.369   1.878   9.402 -1.5724 -3.9705 -1.0839
 4798SOL    HW225857   2.492   1.808   9.403 -0.8814 -1.2521 -0.0856
 4799SOL     OW25858   0.194   3.715  17.140 -0.1518 -0.1635 -0.5222
 4799SOL    HW125859   0.282   3.747  17.154 -0.3020  0.2562 -0.5352
 4799SOL    HW225860   0.175   3.764  17.060  1.2235  0.1718 -0.6296
 4800SOL     OW25861   4.482   1.441   4.933 -0.8031 -0.4367  0.4160
 4800SOL    HW125862   4.517   1.375   4.874 -2.9258  0.3509 -1.7309
 4800SOL    HW225863   4.537   1.425   5.009 -0.6095 -0.5859  0.2424
 4801SOL     OW25864   2.076   4.418   1.469 -0.4252  0.3821 -0.3975
 4801SOL    HW125865   2.118   4.486   1.522 -2.3175  0.8228  0.5450
 4801SOL    HW225866   2.006   4.473   1.434 -2.3046 -1.1729  0.9653
 4802SOL     OW25867   2.102   3.254  11.571 -0.4301  0.1642  0.2233
 4802SOL    HW125868   2.168   3.312  11.610 -0.1872 -0.6882  1.0982
 4802SOL    HW225869   2.051   3.309  11.513 -0.3893 -0.0894 -0.0546
 4803SOL     OW25870   0.527   2.884   2.580 -0.0981 -0.0077 -0.8227
 4803SOL    HW125871   0.573   2.802   2.598 -0.8274 -0.1324  0.4847
 4803SOL    HW225872   0.599   2.938   2.547  1.6301 -2.6813 -1.3803
 4804SOL     OW25873   2.594   1.438   3.359  0.4976  0.0885 -0.2946
 4804SOL    HW125874   2.653   1.496   3.310  0.0114  1.1546  0.3892
 4804SOL    HW225875   2.557   1.387   3.287  2.1530 -0.2161 -0.9411
 4805SOL     OW25876   3.068   2.313   3.722 -0.1556  0.5662 -0.2756
 4805SOL    HW125877   3.031   2.225   3.725  2.2811 -0.4299  0.6882
 4805SOL    HW225878   2.996   2.360   3.764 -0.4800  0.7531 -1.0291
 4806SOL     OW25879   4.161   2.509   9.287 -0.1898  0.3556 -0.3919
 4806SOL    HW125880   4.234   2.565   9.314  2.4825 -2.5379 -1.5959
 4806SOL    HW225881   4.102   2.574   9.249  1.3108  2.7013  1.2990
 4807SOL     OW25882   3.226   3.929  17.144  0.1646 -0.5728 -0.3705
 4807SOL    HW125883   3.234   3.833  17.141 -2.1639 -0.6990 -3.0093
 4807SOL    HW225884   3.317   3.956  17.136 -0.5933  2.0812  0.1401
 4808SOL     OW25885   4.282   4.568   6.009  0.5748  0.0338  0.2504
 4808SOL    HW125886   4.233   4.544   5.931  0.9422 -3.4321  1.1029
 4808SOL    HW225887   4.355   4.605   5.960 -1.5107  1.8113 -1.5363
 4809SOL     OW25888   3.890   0.094   9.417 -0.3785  0.5528 -0.3716
 4809SOL    HW125889   3.809   0.083   9.368 -0.4630  0.4553 -0.2133
 4809SOL    HW225890   3.895   0.017   9.474 -0.0554  0.0996 -1.0187
 4810SOL     OW25891   0.528   0.512  14.692  0.3701 -0.3239 -0.3143
 4810SOL    HW125892   0.620   0.508  14.716  0.2706  0.0635  0.1439
 4810SOL    HW225893   0.525   0.573  14.618  0.0009 -0.5398 -0.4791
 4811SOL     OW25894   0.064   3.626   8.353  0.0974  0.4345  0.2822
 4811SOL    HW125895   0.127   3.695   8.377 -0.0868  0.6225  0.2229
 4811SOL    HW225896   0.125   3.564   8.311  0.1162  1.7705 -1.6843
 4812SOL     OW25897   3.745   1.814   7.803  0.0461  0.2468  0.3146
 4812SOL    HW125898   3.768   1.721   7.803  0.9646  0.4747  0.8641
 4812SOL    HW225899   3.827   1.843   7.763  0.3679  0.3233  1.0127
 4813SOL     OW25900   3.944   4.621  15.882  0.9777  0.3555  0.4640
 4813SOL    HW125901   3.852   4.598  15.873  0.4847  1.6491  2.2361
 4813SOL    HW225902   3.956   4.620  15.977 -1.3581  1.7195  0.7693
 4814SOL     OW25903   4.466   1.548  15.518  0.1099  0.0456  0.1170
 4814SOL    HW125904   4.542   1.549  15.577 -0.8939 -0.2875  1.4165
 4814SOL    HW225905   4.460   1.641  15.495 -0.2134 -0.2072 -0.8124
 4815SOL     OW25906   3.914   0.618  14.688  0.1214 -0.3095 -0.2176
 4815SOL    HW125907   3.933   0.532  14.651 -0.2714 -0.7703  0.6537
 4815SOL    HW225908   3.998   0.664  14.687 -0.5306  0.8511 -1.2608
 4816SOL     OW25909   4.178   3.950  15.980 -0.0412 -0.6444 -0.5793
 4816SOL    HW125910   4.196   3.875  15.924 -4.1969 -1.0730 -1.3055
 4816SOL    HW225911   4.197   4.014  15.911 -0.2756 -0.0090 -0.0558
 4817SOL     OW25912   3.736   4.695   1.664 -0.2229  0.1991  0.4828
 4817SOL    HW125913   3.817   4.647   1.682 -1.0668 -1.5051 -0.2106
 4817SOL    HW225914   3.761   0.013   1.581  1.4147 -0.2217  0.7527
 4818SOL     OW25915   0.829   3.621   4.495  0.5341 -0.0562 -0.4062
 4818SOL    HW125916   0.819   3.662   4.409  0.9245  0.8738 -0.0137
 4818SOL    HW225917   0.778   3.541   4.489  0.8942 -0.2738 -0.5949
 4819SOL     OW25918   3.209   3.948   6.468 -0.1278  0.3942 -0.2200
 4819SOL    HW125919   3.153   3.879   6.501 -0.9032  1.6078  0.9881
 4819SOL    HW225920   3.170   4.019   6.519 -0.3507 -0.0066  0.1557
 4820SOL     OW25921   2.482   1.717   7.416  0.8475 -0.6130 -0.4269
 4820SOL    HW125922   2.517   1.769   7.489  0.5814  1.0663 -1.4958
 4820SOL    HW225923   2.487   1.792   7.356 -0.3005  0.3833  0.7506
 4821SOL     OW25924   1.100   0.295   1.593  0.4637 -0.1939 -0.9387
 4821SOL    HW125925   1.060   0.367   1.545  0.9027 -0.9920 -2.5107
 4821SOL    HW225926   1.059   0.216   1.559  0.0929 -0.2788 -0.2982
 4822SOL     OW25927   3.595   3.412  13.383 -0.3623 -0.2383  0.0286
 4822SOL    HW125928   3.540   3.430  13.307  2.3246  2.1192 -1.3342
 4822SOL    HW225929   3.640   3.335  13.347 -0.5524 -0.4781  0.3029
 4823SOL     OW25930   4.412   3.865   8.263  0.5523 -0.5612 -0.0812
 4823SOL    HW125931   4.501   3.855   8.229  0.5505 -1.1542  0.0924
 4823SOL    HW225932   4.394   3.788   8.316  0.0522 -0.7623 -0.5526
 4824SOL     OW25933   3.371   2.771   5.522 -0.0709  0.0338 -0.1951
 4824SOL    HW125934   3.361   2.677   5.537  1.0708  0.0980  0.9809
 4824SOL    HW225935   3.452   2.801   5.564  0.3996 -0.9911 -0.3572
 4825SOL     OW25936   1.866   3.372   8.282 -0.0955  0.0327 -0.4745
 4825SOL    HW125937   1.877   3.369   8.187  2.0219  0.8473 -0.2603
 4825SOL    HW225938   1.772   3.388   8.280 -0.6507 -3.1297  0.3733
 4826SOL     OW25939   1.771   4.296   8.184 -0.2679  0.1297 -0.3544
 4826SOL    HW125940   1.714   4.327   8.114 -0.2610 -0.3662 -0.5795
 4826SOL    HW225941   1.706   4.233   8.217 -0.3106  0.2278 -0.2503
 4827SOL     OW25942   1.635   0.560  14.589  0.4445 -0.5402  0.1249
 4827SOL    HW125943   1.721   0.545  14.549  1.3364  1.0513  1.4347
 4827SOL    HW225944   1.574   0.532  14.521  0.9673  0.1245 -0.6287
 4828SOL     OW25945   0.170   4.276  13.783 -0.4289  0.5223 -0.1384
 4828SOL    HW125946   0.256   4.302  13.814 -1.0687  2.6897 -0.1464
 4828SOL    HW225947   0.113   4.318  13.847  0.2871  0.2987  0.6302
 4829SOL     OW25948   0.444   1.484   3.043  0.0513  0.4381 -0.6154
 4829SOL    HW125949   0.356   1.458   3.015  1.0003 -1.9293 -1.3530
 4829SOL    HW225950   0.421   1.555   3.103 -0.5292  2.6291 -3.4481
 4830SOL     OW25951   2.665   3.514  14.677 -0.3468  0.3175 -0.2105
 4830SOL    HW125952   2.588   3.470  14.640 -1.0094  0.9905  0.3487
 4830SOL    HW225953   2.706   3.437  14.717  0.7275  0.4504 -1.0781
 4831SOL     OW25954   1.647   1.886  10.951 -0.1121 -0.1011 -0.3407
 4831SOL    HW125955   1.559   1.864  10.981 -1.2164 -0.8479 -4.1113
 4831SOL    HW225956   1.682   1.935  11.025 -1.8430  1.5505 -0.6107
 4832SOL     OW25957   4.216   2.100  17.081  0.0261 -0.1680 -0.2293
 4832SOL    HW125958   4.278   2.105  17.154  0.7444 -0.7484 -0.7928
 4832SOL    HW225959   4.143   2.053  17.121 -0.8031  1.7958  0.5217
 4833SOL     OW25960   3.315   0.143  10.967 -0.3659 -0.1252 -0.6962
 4833SOL    HW125961   3.351   0.076  10.908 -0.1515  0.4028 -1.1644
 4833SOL    HW225962   3.257   0.192  10.909  0.3079  1.4655 -0.0075
 4834SOL     OW25963   1.919   2.507  13.173 -0.2993 -0.0183 -0.3825
 4834SOL    HW125964   1.841   2.542  13.218 -0.3995 -1.0833  0.2617
 4834SOL    HW225965   1.974   2.583  13.154 -1.1190  0.5813 -0.3842
 4835SOL     OW25966   4.636   0.724   8.043  0.2481  0.0653  0.2223
 4835SOL    HW125967   4.695   0.765   7.980  0.5996 -0.3328  0.2980
 4835SOL    HW225968   4.599   0.670   7.973 -1.8825  1.5240  0.2278
 4836SOL     OW25969   2.696   1.646   4.822  0.1068 -0.6017  0.6395
 4836SOL    HW125970   2.726   1.704   4.751 -1.9982 -0.7539 -0.3688
 4836SOL    HW225971   2.608   1.672   4.846 -0.3290 -0.2856 -1.3073
 4837SOL     OW25972   1.166   4.161   8.672 -0.2072  0.6345 -0.1936
 4837SOL    HW125973   1.249   4.205   8.653  0.5244 -0.3149  0.7709
 4837SOL    HW225974   1.174   4.157   8.767 -1.4399  0.9149 -0.0883
 4838SOL     OW25975   2.331   0.796  14.679 -0.4160 -0.0113  0.0836
 4838SOL    HW125976   2.400   0.861  14.668 -1.1979  0.3491 -2.5068
 4838SOL    HW225977   2.288   0.815  14.763  0.3987  0.4303  0.4025
 4839SOL     OW25978   2.335   2.583   9.453  0.8558  0.4315 -0.0711
 4839SOL    HW125979   2.301   2.577   9.364  0.7723  1.1443 -0.0853
 4839SOL    HW225980   2.325   2.489   9.470 -1.4116  0.9640  1.5474
 4840SOL     OW25981   3.056   1.291   4.345 -0.2776  0.0093 -0.5396
 4840SOL    HW125982   3.099   1.210   4.373  1.0582  0.6442 -0.7338
 4840SOL    HW225983   3.003   1.255   4.274  0.4326  0.1037 -1.1253
 4841SOL     OW25984   3.594   2.283   6.876  0.2442  0.5604 -0.4218
 4841SOL    HW125985   3.687   2.295   6.895  0.2242 -0.5552  0.4090
 4841SOL    HW225986   3.587   2.188   6.887 -2.1313  0.7497 -0.4199
 4842SOL     OW25987   2.825   3.318   4.789  0.0767 -0.3700  0.2868
 4842SOL    HW125988   2.730   3.321   4.798  0.0608  0.3653 -0.0536
 4842SOL    HW225989   2.852   3.408   4.809  1.0331  0.0071 -2.6544
 4843SOL     OW25990   3.922   2.237   3.681 -0.3027  0.5208  0.3558
 4843SOL    HW125991   3.900   2.189   3.601  1.5442  0.4053 -0.0849
 4843SOL    HW225992   3.843   2.290   3.689  0.1810  1.4805 -1.2710
 4844SOL     OW25993   3.414   4.049   5.267  0.0630 -0.2674 -0.4901
 4844SOL    HW125994   3.341   4.005   5.309 -0.3274  0.9467  0.1066
 4844SOL    HW225995   3.441   4.107   5.339 -1.3123  0.0394 -0.2272
 4845SOL     OW25996   3.457   3.787   1.721  0.8360  0.1357  0.1471
 4845SOL    HW125997   3.461   3.692   1.716 -0.5300  0.2225 -2.4751
 4845SOL    HW225998   3.369   3.807   1.688  0.0111 -1.2453  1.5189
 4846SOL     OW25999   2.172   3.528  13.199 -0.6666 -0.2670  0.0645
 4846SOL    HW126000   2.220   3.496  13.276 -0.1752 -0.4181 -0.3010
 4846SOL    HW226001   2.097   3.578  13.231  0.1970 -0.0420  1.7553
 4847SOL     OW26002   4.637   2.793  13.628  0.1136 -0.2682 -0.0402
 4847SOL    HW126003   4.587   2.722  13.588 -1.0714 -0.9720  2.7003
 4847SOL    HW226004   4.571   2.840  13.678 -0.1458 -0.0029 -0.6302
 4848SOL     OW26005   0.626   0.195   8.627  0.5459  0.1037  0.0735
 4848SOL    HW126006   0.599   0.107   8.656 -1.2804  0.3640 -0.8512
 4848SOL    HW226007   0.542   0.237   8.611  0.5417 -0.5341 -1.5313
 4849SOL     OW26008   3.627   4.519   2.388  0.0732 -0.6651 -0.0500
 4849SOL    HW126009   3.670   4.605   2.386  0.7100 -0.9464  1.6299
 4849SOL    HW226010   3.607   4.506   2.296 -1.0473 -1.0997  0.2635
 4850SOL     OW26011   4.582   2.086   8.240  0.1825 -0.0414  0.1365
 4850SOL    HW126012   4.673   2.062   8.260  0.5327  0.8574 -0.4105
 4850SOL    HW226013   4.589   2.159   8.179 -1.4931 -1.2823 -1.5509
 4851SOL     OW26014   4.526   4.324  12.161  0.4547  0.2343 -0.2288
 4851SOL    HW126015   4.572   4.241  12.175  1.2418  0.7478  0.2355
 4851SOL    HW226016   4.605   4.379  12.163  0.7944 -0.2889  0.4427
 4852SOL     OW26017   2.597   0.270   0.336 -0.5084 -0.3135  0.2708
 4852SOL    HW126018   2.622   0.182   0.365  0.3849 -0.3003 -0.4677
 4852SOL    HW226019   2.628   0.267   0.246 -1.1112 -2.3033  0.1309
 4853SOL     OW26020   3.585   1.186  11.241 -0.3047 -0.0810  0.9885
 4853SOL    HW126021   3.575   1.258  11.303  1.1100  0.6518  0.3605
 4853SOL    HW226022   3.668   1.143  11.262 -0.3163 -1.1610 -1.2584
 4854SOL     OW26023   3.534   0.066  10.593 -0.0697 -0.5521  0.0776
 4854SOL    HW126024   3.560   4.716  10.537  2.0542  0.2618  0.0344
 4854SOL    HW226025   3.610   0.113  10.625  0.1135 -0.4908 -0.4495
 4855SOL     OW26026   1.344   0.537   3.594 -0.5416  0.2321  0.6472
 4855SOL    HW126027   1.389   0.568   3.516 -0.9100 -1.1362 -0.1061
 4855SOL    HW226028   1.281   0.485   3.544 -0.2858 -0.7953  1.3931
 4856SOL     OW26029   0.903   4.122  10.508  0.8286  0.0617 -0.0599
 4856SOL    HW126030   0.996   4.101  10.506  1.2076  1.7428  0.2069
 4856SOL    HW226031   0.898   4.166  10.593  0.5798  1.6458 -0.8875
 4857SOL     OW26032   0.540   4.666  13.485 -0.2292 -0.1467  0.2374
 4857SOL    HW126033   0.455   4.648  13.525 -1.1916  1.8049 -0.9460
 4857SOL    HW226034   0.529   4.625  13.399  0.5703 -2.2822  1.1476
 4858SOL     OW26035   1.534   1.807   5.140 -0.4609  0.1532  0.3433
 4858SOL    HW126036   1.465   1.755   5.182 -1.1151 -0.9404 -2.1094
 4858SOL    HW226037   1.512   1.779   5.052 -0.0595  0.5990  0.1014
 4859SOL     OW26038   1.442   4.384   6.492  0.0890 -0.3481  0.3614
 4859SOL    HW126039   1.510   4.426   6.438  0.8050 -0.0039  1.5409
 4859SOL    HW226040   1.370   4.446   6.486  0.1109 -0.2841  0.7978
 4860SOL     OW26041   3.064   3.056   3.905  0.5023 -0.8763 -0.1703
 4860SOL    HW126042   3.125   3.123   3.873 -1.2999  1.1344  0.6352
 4860SOL    HW226043   3.127   3.008   3.959 -0.2146  0.2877  1.7160
 4861SOL     OW26044   4.202   1.854   1.931 -0.0958  0.3978  0.2929
 4861SOL    HW126045   4.119   1.806   1.933  0.6537 -0.9459 -0.7154
 4861SOL    HW226046   4.269   1.791   1.957 -0.5518  0.1478  0.8609
 4862SOL     OW26047   4.253   2.550   0.303 -0.1815 -0.5324 -0.1082
 4862SOL    HW126048   4.201   2.477   0.337 -0.1197  0.9819  3.2418
 4862SOL    HW226049   4.197   2.594   0.239 -0.0608 -0.5456 -0.2246
 4863SOL     OW26050   0.954   2.616   1.675  0.9773 -0.1581  0.0051
 4863SOL    HW126051   1.038   2.661   1.670  0.7034  0.1993 -1.6109
 4863SOL    HW226052   0.963   2.547   1.741 -1.3581 -0.6226 -0.1597
 4864SOL     OW26053   2.090   0.404   9.823  0.1074 -0.5321 -0.0189
 4864SOL    HW126054   2.162   0.390   9.762 -0.9128  0.1067 -1.3689
 4864SOL    HW226055   2.139   0.380   9.902 -1.7473 -1.5406  0.8248
 4865SOL     OW26056   1.523   2.024  10.721 -0.6253 -0.0490 -0.4165
 4865SOL    HW126057   1.593   2.040  10.784 -0.7849 -0.8783 -0.0216
 4865SOL    HW226058   1.543   1.938  10.683  0.9699  0.2331 -0.2025
 4866SOL     OW26059   3.930   2.609  13.816  0.0722  0.1385 -0.2898
 4866SOL    HW126060   3.888   2.690  13.785 -0.8769  0.2949  1.4288
 4866SOL    HW226061   3.854   2.559  13.846  0.4005  0.4895  1.0972
 4867SOL     OW26062   3.505   2.511   9.432 -0.1560  0.6686 -0.4532
 4867SOL    HW126063   3.520   2.507   9.337 -0.3866  0.2507 -0.4720
 4867SOL    HW226064   3.423   2.462   9.436 -0.0312  0.3438 -1.7506
 4868SOL     OW26065   3.443   4.171   6.173  0.0182 -0.0751 -0.2207
 4868SOL    HW126066   3.384   4.241   6.199 -1.0833 -1.7960  1.9433
 4868SOL    HW226067   3.411   4.156   6.084  0.1011 -1.6383  0.0147
 4869SOL     OW26068   3.957   2.478   7.193 -0.6842  0.0425 -0.0229
 4869SOL    HW126069   4.043   2.487   7.151  0.2378  3.1235  2.4749
 4869SOL    HW226070   3.912   2.551   7.149  2.5171  0.4192 -2.6477
 4870SOL     OW26071   4.560   3.284   4.615  0.0103 -0.0787 -0.2392
 4870SOL    HW126072   4.559   3.336   4.534 -0.4416 -0.7983 -0.6924
 4870SOL    HW226073   4.652   3.265   4.632  0.0031  0.4205  0.3811
 4871SOL     OW26074   0.304   1.252  10.971 -0.1712  0.0936  0.2711
 4871SOL    HW126075   0.285   1.305  10.894 -1.1282  0.9428  1.0917
 4871SOL    HW226076   0.221   1.209  10.988 -0.8494  1.3620  0.1472
 4872SOL     OW26077   2.687   0.095   2.698 -0.1638  0.3845 -0.0288
 4872SOL    HW126078   2.657   0.104   2.608 -1.1253  1.5295  0.4106
 4872SOL    HW226079   2.615   0.139   2.744 -1.9626 -1.6262 -0.9150
 4873SOL     OW26080   1.735   2.463   2.493  0.3076 -0.1503 -0.4389
 4873SOL    HW126081   1.656   2.505   2.526  2.2607  2.6967  0.5940
 4873SOL    HW226082   1.783   2.537   2.456 -0.2715  0.2399 -0.3948
 4874SOL     OW26083   0.684   2.247   4.505 -0.0775 -0.0705 -0.5280
 4874SOL    HW126084   0.743   2.321   4.519  1.3049 -1.3585  0.5965
 4874SOL    HW226085   0.656   2.225   4.594 -1.9537 -1.0710 -1.3757
 4875SOL     OW26086   0.954   0.788  10.565 -0.5210 -0.7049 -0.1161
 4875SOL    HW126087   0.965   0.881  10.549 -2.2558 -1.0255 -3.1002
 4875SOL    HW226088   0.859   0.778  10.555 -0.7765  0.0509  1.5519
 4876SOL     OW26089   4.538   3.514   6.525  0.4324  0.1998 -0.2505
 4876SOL    HW126090   4.467   3.578   6.528  1.3119  1.1681 -0.4065
 4876SOL    HW226091   4.603   3.571   6.486  1.3517 -1.9994 -1.9222
 4877SOL     OW26092   3.937   2.785   4.994  0.3451  0.7102  0.2748
 4877SOL    HW126093   3.864   2.802   4.935 -0.3818  0.9889  1.2578
 4877SOL    HW226094   3.903   2.805   5.081 -0.9933  1.0607 -0.3282
 4878SOL     OW26095   1.024   0.693   4.274  0.5303 -0.0844 -0.4934
 4878SOL    HW126096   0.935   0.728   4.284  0.4999  0.0427 -1.2067
 4878SOL    HW226097   1.050   0.754   4.205 -0.6975 -0.7942 -1.5868
 4879SOL     OW26098   1.583   1.038   9.475  0.0765 -0.4577  0.2907
 4879SOL    HW126099   1.538   0.984   9.540 -1.1184 -0.9190 -0.9147
 4879SOL    HW226100   1.510   1.065   9.419  0.7081  0.5794 -0.0438
 4880SOL     OW26101   0.975   2.528  15.554  0.2198 -0.2545  0.0642
 4880SOL    HW126102   0.941   2.438  15.560 -1.6682  0.2654 -3.3405
 4880SOL    HW226103   1.057   2.515  15.505  0.4090 -0.2959  0.3901
 4881SOL     OW26104   3.457   2.981   5.146 -0.3476 -0.0441 -0.0488
 4881SOL    HW126105   3.479   2.887   5.147 -0.7292 -0.1551 -3.1061
 4881SOL    HW226106   3.450   3.000   5.053  1.4139 -0.8267 -0.3454
 4882SOL     OW26107   3.326   4.493   3.921 -0.4796  0.3069  0.4735
 4882SOL    HW126108   3.245   4.442   3.929 -0.9118  1.0268  0.6882
 4882SOL    HW226109   3.293   4.583   3.917 -0.4217  0.3587  1.2787
 4883SOL     OW26110   0.308   1.348   1.722  0.0530 -0.5223  0.0844
 4883SOL    HW126111   0.220   1.354   1.758  0.0015 -1.4584  0.1217
 4883SOL    HW226112   0.303   1.263   1.677 -0.2759 -0.2823 -0.3231
 4884SOL     OW26113   0.440   0.869   8.560 -0.0170  0.2060  0.5680
 4884SOL    HW126114   0.531   0.848   8.538 -0.3889 -1.3038  0.4779
 4884SOL    HW226115   0.416   0.905   8.474  1.2884  2.1277  0.9854
 4885SOL     OW26116   2.887   2.588   8.658  0.6768  0.3369 -0.0808
 4885SOL    HW126117   2.964   2.589   8.716 -0.2133  0.9814  1.1004
 4885SOL    HW226118   2.917   2.637   8.582 -2.4868  0.4814 -1.2059
 4886SOL     OW26119   2.330   4.326   5.204  0.2478  0.1626  0.2508
 4886SOL    HW126120   2.304   4.415   5.178  2.2933  0.6805 -0.0494
 4886SOL    HW226121   2.332   4.287   5.117  1.4076  1.4892 -0.3319
 4887SOL     OW26122   3.245   0.923   7.095 -0.5758 -0.3039 -0.4672
 4887SOL    HW126123   3.286   0.876   7.023 -0.5436 -2.1950  0.7872
 4887SOL    HW226124   3.239   0.856   7.163  0.2745 -1.0036 -1.0937
 4888SOL     OW26125   4.599   2.834   5.708 -0.2759  0.6198 -0.5190
 4888SOL    HW126126   4.569   2.811   5.796  1.7947  1.4378  0.4048
 4888SOL    HW226127   4.657   2.762   5.683 -0.5453  0.1063  0.3594
 4889SOL     OW26128   1.547   2.327   7.056 -0.4181  0.2594  0.3108
 4889SOL    HW126129   1.474   2.370   7.101  0.4869  1.3995  0.6886
 4889SOL    HW226130   1.550   2.392   6.986  1.4470 -1.8910 -1.6182
 4890SOL     OW26131   3.751   1.461   0.390  0.2554  0.0098 -0.2113
 4890SOL    HW126132   3.831   1.485   0.342  0.3500 -0.2283 -0.1718
 4890SOL    HW226133   3.695   1.437   0.316  0.3667  0.9065 -0.5863
 4891SOL     OW26134   1.644   1.907  16.551 -0.2343  0.3871  0.1544
 4891SOL    HW126135   1.637   1.929  16.644 -0.4915  1.0355 -0.0177
 4891SOL    HW226136   1.644   1.999  16.524 -2.8631 -0.2576 -2.0744
 4892SOL     OW26137   0.027   4.416  10.042  0.0702  0.1305 -0.2705
 4892SOL    HW126138   0.002   4.504  10.071 -3.6370 -0.8142 -0.6615
 4892SOL    HW226139   0.013   4.423   9.948 -1.1653  0.0934 -0.0802
 4893SOL     OW26140   1.851   1.320   5.967  0.4738  0.1253 -0.6338
 4893SOL    HW126141   1.775   1.283   5.922  0.0442 -1.5278  1.4499
 4893SOL    HW226142   1.905   1.242   5.954 -0.0937 -0.1819 -1.1556
 4894SOL     OW26143   1.649   0.436   2.399 -0.1019 -0.1580 -0.8099
 4894SOL    HW126144   1.619   0.416   2.488 -0.1974 -1.5137 -1.1496
 4894SOL    HW226145   1.717   0.499   2.422  0.7633 -0.5206 -2.3831
 4895SOL     OW26146   1.951   0.451   5.975 -0.3314  0.0086 -0.3100
 4895SOL    HW126147   2.029   0.496   5.943  0.4294 -1.4987 -0.5452
 4895SOL    HW226148   1.900   0.531   5.989  1.0013  0.9167 -0.5906
 4896SOL     OW26149   1.091   1.345  10.808  0.3524  0.1967 -0.5444
 4896SOL    HW126150   1.028   1.410  10.840  1.9280  1.1182  0.7331
 4896SOL    HW226151   1.049   1.267  10.845  0.9211  0.8018  1.3830
 4897SOL     OW26152   3.672   2.927  10.338  0.4878  0.6254 -0.4525
 4897SOL    HW126153   3.704   2.851  10.289 -2.2550 -1.7160  1.3677
 4897SOL    HW226154   3.661   2.990  10.266 -2.2413  1.7289  0.9721
 4898SOL     OW26155   0.521   3.366   2.046 -0.4980 -0.1689 -0.2248
 4898SOL    HW126156   0.542   3.291   1.990  0.4786 -0.4359  0.4956
 4898SOL    HW226157   0.445   3.331   2.092 -0.9431  1.1991  0.0872
 4899SOL     OW26158   3.699   1.665   2.945 -0.2071  0.0289  0.1537
 4899SOL    HW126159   3.743   1.609   2.881  2.8439  1.8557  0.6462
 4899SOL    HW226160   3.740   1.749   2.925  0.7858  0.2330  3.1388
 4900SOL     OW26161   1.630   3.558  15.079  0.4197  0.5503  0.3961
 4900SOL    HW126162   1.571   3.489  15.048 -0.2778  0.2650  2.3405
 4900SOL    HW226163   1.614   3.554  15.173  2.0213 -1.2054  0.5749
 4901SOL     OW26164   0.830   4.482   9.097 -0.1205  0.0501 -0.0752
 4901SOL    HW126165   0.832   4.483   9.002 -2.8560  1.3282 -0.1337
 4901SOL    HW226166   0.832   4.576   9.117 -0.2424 -0.0945  0.6118
 4902SOL     OW26167   4.559   3.414   1.327  0.2869 -0.2254  0.0824
 4902SOL    HW126168   4.475   3.369   1.337  0.7764 -0.7501  1.8075
 4902SOL    HW226169   4.538   3.493   1.277  2.0680 -0.6552 -1.3621
 4903SOL     OW26170   2.093   3.726   6.853  0.3777  0.4417 -0.1153
 4903SOL    HW126171   2.012   3.675   6.856  0.2932  0.7434  2.4490
 4903SOL    HW226172   2.139   3.699   6.932  2.3998  2.0937 -0.7275
 4904SOL     OW26173   0.112   4.217   8.754  0.1395  0.1197  0.2614
 4904SOL    HW126174   0.025   4.236   8.718  0.4453  1.0608  0.0166
 4904SOL    HW226175   0.099   4.135   8.800  2.8235  0.5520  1.7236
 4905SOL     OW26176   3.451   1.903  11.180  0.1262 -0.1548  0.4344
 4905SOL    HW126177   3.546   1.901  11.190 -0.0775  1.3241  2.5933
 4905SOL    HW226178   3.434   1.995  11.162  0.1761 -0.2551 -0.1342
 4906SOL     OW26179   1.175   1.651   2.394 -0.0790 -0.0044  0.1194
 4906SOL    HW126180   1.114   1.581   2.418 -1.2964  0.7761 -0.6788
 4906SOL    HW226181   1.133   1.733   2.421 -1.4988 -0.0131 -2.1228
 4907SOL     OW26182   4.286   3.203  15.558 -0.1413  0.8825  0.1246
 4907SOL    HW126183   4.377   3.196  15.587 -0.3822  0.6475  0.8066
 4907SOL    HW226184   4.279   3.122  15.506  0.2960  1.5148 -0.9346
 4908SOL     OW26185   2.521   2.062  12.985  0.4068  0.1516  0.5354
 4908SOL    HW126186   2.504   2.059  12.891  0.3864  1.2368  0.5046
 4908SOL    HW226187   2.615   2.042  12.989  0.4758  0.6415  1.5081
 4909SOL     OW26188   1.576   4.058   5.668 -0.1616 -0.0451 -0.0020
 4909SOL    HW126189   1.529   4.012   5.597 -0.0591  1.4913 -1.0797
 4909SOL    HW226190   1.500   4.099   5.710  0.1579 -0.8568  1.3542
 4910SOL     OW26191   4.310   1.213  16.448  0.6372  0.0703  0.3748
 4910SOL    HW126192   4.234   1.184  16.499  2.2761 -0.5541  2.4826
 4910SOL    HW226193   4.309   1.152  16.374 -0.2595 -2.9752  2.8863
 4911SOL     OW26194   2.959   2.267   7.904  0.7828  0.0960 -0.2954
 4911SOL    HW126195   2.903   2.213   7.959  0.2869 -0.3820 -1.2766
 4911SOL    HW226196   2.999   2.320   7.974 -0.1732  1.7145 -0.9796
 4912SOL     OW26197   0.880   2.495   6.729 -0.0410  0.0641 -0.7788
 4912SOL    HW126198   0.946   2.560   6.702 -1.6611  1.7575 -0.6612
 4912SOL    HW226199   0.931   2.466   6.805  1.6219 -0.6197 -2.1683
 4913SOL     OW26200   1.208   3.259   0.814 -0.4367 -0.7987  0.1611
 4913SOL    HW126201   1.298   3.288   0.799 -1.1632  0.2375 -2.2159
 4913SOL    HW226202   1.210   3.251   0.909 -1.5147 -1.0911  0.1588
 4914SOL     OW26203   2.695   0.228   7.624 -0.5191 -0.3622 -0.7984
 4914SOL    HW126204   2.687   0.297   7.690 -1.5816  0.3492 -1.6632
 4914SOL    HW226205   2.788   0.234   7.602 -0.9218 -0.5724 -2.6206
 4915SOL     OW26206   0.867   3.977   5.043 -0.1910  0.0494  0.5040
 4915SOL    HW126207   0.891   3.890   5.072 -0.9900 -0.7161 -1.1502
 4915SOL    HW226208   0.940   3.998   4.985  0.2449  1.0748  1.4223
 4916SOL     OW26209   0.111   0.182   6.400  0.1188 -0.2385 -0.3682
 4916SOL    HW126210   0.191   0.142   6.434 -0.0693  0.6121  1.0455
 4916SOL    HW226211   0.103   0.126   6.323 -0.4518  0.4387 -0.8017
 4917SOL     OW26212   1.509   3.908   8.088  0.7103 -0.6583  0.1879
 4917SOL    HW126213   1.435   3.848   8.087 -1.2625  1.7586  0.9073
 4917SOL    HW226214   1.477   3.984   8.040  2.8913  1.5068  2.1207
 4918SOL     OW26215   3.994   1.581   4.644  0.5026  0.4209 -0.2059
 4918SOL    HW126216   3.965   1.490   4.638  0.8023  0.1636  2.3409
 4918SOL    HW226217   3.969   1.620   4.560 -2.6911  2.0401  1.4995
 4919SOL     OW26218   1.057   1.899   5.583  0.2802 -0.2334  0.1241
 4919SOL    HW126219   1.066   1.892   5.678 -3.3390 -1.0394  0.3945
 4919SOL    HW226220   1.096   1.986   5.571 -1.1617  0.7670  2.7729
 4920SOL     OW26221   1.245   2.044   8.522 -0.4747  0.3546  0.0276
 4920SOL    HW126222   1.282   2.019   8.606 -0.9069  2.6458  0.9001
 4920SOL    HW226223   1.169   2.097   8.545 -2.0414 -1.2455 -1.4625
 4921SOL     OW26224   2.797   2.035  13.337  0.0785 -0.0699 -0.1059
 4921SOL    HW126225   2.780   2.081  13.255 -1.1793  0.3189  0.3735
 4921SOL    HW226226   2.883   1.998  13.315  0.6338 -0.3116  2.4365
 4922SOL     OW26227   4.677   1.050   5.616 -0.2433  0.4323 -0.1080
 4922SOL    HW126228   0.036   1.051   5.566 -1.0716  1.8186 -1.3918
 4922SOL    HW226229   4.631   1.127   5.584  0.1237  0.4504 -0.6007
 4923SOL     OW26230   0.431   2.516   6.587  0.0909 -0.8824  0.4908
 4923SOL    HW126231   0.459   2.427   6.605  0.0185 -1.0900 -0.4339
 4923SOL    HW226232   0.417   2.518   6.492  1.8993  1.6882  0.2675
 4924SOL     OW26233   3.776   3.303   5.704 -0.2642 -0.2440  0.8711
 4924SOL    HW126234   3.843   3.267   5.645 -1.8910 -0.6763 -0.6960
 4924SOL    HW226235   3.823   3.386   5.714  1.4266 -0.9578 -1.0595
 4925SOL     OW26236   2.406   1.154  12.479 -0.3252  0.7050  0.0496
 4925SOL    HW126237   2.394   1.071  12.434  1.2750  0.9067 -0.7298
 4925SOL    HW226238   2.444   1.208  12.410  0.1625 -0.1980 -0.3774
 4926SOL     OW26239   3.817   2.694   3.070 -0.7421 -0.4163 -0.2696
 4926SOL    HW126240   3.887   2.709   3.006  0.6159 -1.0844  1.0593
 4926SOL    HW226241   3.779   2.781   3.081  0.1221 -0.0528 -0.1743
 4927SOL     OW26242   2.448   1.895  13.194 -0.2942  0.1937 -0.1861
 4927SOL    HW126243   2.462   1.972  13.139  0.6316  0.0267 -0.1928
 4927SOL    HW226244   2.358   1.883  13.164 -0.9221 -1.2743  2.3236
 4928SOL     OW26245   0.718   0.494   2.245  0.1616 -0.0355 -0.0692
 4928SOL    HW126246   0.765   0.418   2.211  1.5846  1.2479 -1.0011
 4928SOL    HW226247   0.678   0.518   2.161 -0.6838  0.8177  0.5867
 4929SOL     OW26248   2.173   2.051  12.790  0.1453 -0.4992 -0.2939
 4929SOL    HW126249   2.140   2.133  12.753  0.7437 -0.7791 -1.4612
 4929SOL    HW226250   2.158   1.984  12.724 -1.0036 -1.1534  0.6409
 4930SOL     OW26251   1.153   1.343  17.060 -0.1269 -0.1647 -0.3109
 4930SOL    HW126252   1.243   1.376  17.064 -0.1469 -0.1205 -0.2367
 4930SOL    HW226253   1.171   1.255  17.093  1.2509 -0.3738 -1.6122
 4931SOL     OW26254   3.974   0.859   7.304  0.0762 -0.1331 -0.5310
 4931SOL    HW126255   3.952   0.898   7.388  1.3250 -0.5195 -0.0234
 4931SOL    HW226256   4.066   0.885   7.297  0.1040 -0.5258 -1.6610
 4932SOL     OW26257   2.670   3.336   0.707 -0.2079 -0.4652  0.2842
 4932SOL    HW126258   2.579   3.307   0.696 -0.4255  0.7422 -1.0755
 4932SOL    HW226259   2.713   3.252   0.719 -1.3325 -1.1606 -0.6253
 4933SOL     OW26260   3.135   2.419   5.582 -0.4261  0.3275 -0.2992
 4933SOL    HW126261   3.221   2.430   5.541 -0.3649  0.2828 -0.1836
 4933SOL    HW226262   3.104   2.509   5.584 -2.2003 -0.2517 -1.5935
 4934SOL     OW26263   1.754   3.970   6.407  0.3793 -0.2761  0.1730
 4934SOL    HW126264   1.676   3.956   6.353 -0.2996  0.4527  0.9659
 4934SOL    HW226265   1.814   4.014   6.347 -2.0055  2.4040 -0.2483
 4935SOL     OW26266   1.501   1.796   5.950  0.0970  0.2841  0.1456
 4935SOL    HW126267   1.561   1.738   5.903  2.3304  0.6670  2.5751
 4935SOL    HW226268   1.418   1.749   5.939  0.1895  0.4573 -1.3166
 4936SOL     OW26269   3.203   0.901  13.187  0.2191  0.0204 -0.2276
 4936SOL    HW126270   3.178   0.994  13.190  0.8519  0.2456 -1.8353
 4936SOL    HW226271   3.134   0.859  13.238 -1.8617  3.9236  0.1791
 4937SOL     OW26272   3.581   0.508   1.457  0.3906  0.5045 -0.6069
 4937SOL    HW126273   3.536   0.491   1.540  0.4355 -0.2773 -0.7431
 4937SOL    HW226274   3.585   0.604   1.455  1.5584  0.4689 -0.3380
 4938SOL     OW26275   4.443   3.656  12.855 -0.0193  0.2799  0.7860
 4938SOL    HW126276   4.442   3.599  12.931  0.2692 -0.5725  0.1514
 4938SOL    HW226277   4.511   3.611  12.805  1.0431 -0.6942  3.0964
 4939SOL     OW26278   2.738   0.747   3.639 -0.6143  0.4000  0.0919
 4939SOL    HW126279   2.683   0.673   3.612 -1.6962  1.9851 -2.1147
 4939SOL    HW226280   2.704   0.769   3.726 -1.7121 -1.6927  0.2023
 4940SOL     OW26281   1.913   4.473   8.958 -0.4687 -0.7914 -0.0538
 4940SOL    HW126282   1.863   4.392   8.969 -1.7723 -0.1386 -1.2079
 4940SOL    HW226283   1.989   4.460   9.015 -0.9810 -0.4768  0.7058
 4941SOL     OW26284   4.349   1.521   8.183  0.0939  0.0349 -0.2540
 4941SOL    HW126285   4.257   1.520   8.210  0.4876 -2.2678  0.9641
 4941SOL    HW226286   4.365   1.611   8.210 -1.9855  0.0289  0.9811
 4942SOL     OW26287   3.000   3.334   3.272  0.5284  0.4666 -0.0482
 4942SOL    HW126288   3.033   3.245   3.266 -0.6387  0.0213  0.0250
 4942SOL    HW226289   3.045   3.381   3.202  1.0170 -0.7401 -0.5354
 4943SOL     OW26290   0.671   2.572  15.347  0.3325 -0.4007 -0.4371
 4943SOL    HW126291   0.657   2.568  15.441  0.5663 -0.3717 -0.4010
 4943SOL    HW226292   0.654   2.479  15.331  0.1075 -0.3102 -0.7171
 4944SOL     OW26293   1.081   1.379   5.167 -0.6389 -0.1468 -0.4182
 4944SOL    HW126294   1.168   1.338   5.171 -0.9095 -0.8146 -1.3742
 4944SOL    HW226295   1.072   1.371   5.072 -1.8795  1.0930 -0.3973
 4945SOL     OW26296   1.749   0.116   0.193  0.1987 -0.1666  0.1977
 4945SOL    HW126297   1.779   0.162   0.115 -1.2723  1.3236  0.5149
 4945SOL    HW226298   1.656   0.114   0.172  0.0157 -0.2647  1.0254
 4946SOL     OW26299   2.980   4.231  13.766 -0.0913 -0.4010  0.1079
 4946SOL    HW126300   2.964   4.252  13.673  1.4365  2.9967  0.5841
 4946SOL    HW226301   3.075   4.224  13.773 -0.1081 -0.7944 -0.0772
 4947SOL     OW26302   0.808   3.747   1.884 -0.1161  0.3310  0.6607
 4947SOL    HW126303   0.715   3.760   1.905 -0.0864 -1.8712  2.1438
 4947SOL    HW226304   0.816   3.827   1.831 -0.3889  0.2486  0.4960
 4948SOL     OW26305   4.664   1.615   1.846  0.0979 -0.1787 -0.1016
 4948SOL    HW126306   4.595   1.654   1.793  1.7135 -0.2521 -2.2574
 4948SOL    HW226307   0.020   1.666   1.824 -0.7649  1.5419  0.8233
 4949SOL     OW26308   1.785   4.063   4.229 -0.2622  0.2634  0.2885
 4949SOL    HW126309   1.780   4.156   4.207  0.9756  0.5001  1.0119
 4949SOL    HW226310   1.758   4.073   4.320 -0.6293 -0.4577  0.2568
 4950SOL     OW26311   1.642   1.279   8.362 -0.1871  0.1666  0.3479
 4950SOL    HW126312   1.714   1.221   8.340 -2.2611 -1.8735 -1.0324
 4950SOL    HW226313   1.596   1.282   8.278 -0.8463  1.5553  0.7574
 4951SOL     OW26314   4.076   3.477   9.454  0.0262  0.2767  0.2060
 4951SOL    HW126315   4.015   3.548   9.436  0.1135  0.3847  0.3370
 4951SOL    HW226316   4.134   3.485   9.379 -2.6343 -0.3572 -1.8994
 4952SOL     OW26317   3.450   1.732   8.296  0.7146 -0.2692  0.1672
 4952SOL    HW126318   3.492   1.816   8.315  2.4757 -1.2969  0.8235
 4952SOL    HW226319   3.522   1.684   8.256 -1.2171 -2.4473 -0.6843
 4953SOL     OW26320   1.405   3.469   5.025  0.3939  0.4437 -0.1301
 4953SOL    HW126321   1.478   3.529   5.042  1.7490 -0.9758 -0.9933
 4953SOL    HW226322   1.419   3.411   5.100  3.9975 -1.4052 -2.2527
 4954SOL     OW26323   2.160   1.992  13.237  0.0386  0.2678 -0.1102
 4954SOL    HW126324   2.112   1.921  13.279  1.5154 -1.3963 -1.1954
 4954SOL    HW226325   2.155   2.062  13.302 -0.0347  0.2446 -0.0910
 4955SOL     OW26326   0.943   2.294  14.415 -0.1279  0.4907 -0.1047
 4955SOL    HW126327   0.875   2.354  14.383 -0.4400 -0.2567 -0.8356
 4955SOL    HW226328   1.020   2.347  14.435  1.0901 -1.5205  0.4783
 4956SOL     OW26329   4.712   1.736   9.004  0.1627 -0.4810 -0.1351
 4956SOL    HW126330   0.005   1.641   9.002 -1.1358 -0.6695 -1.1755
 4956SOL    HW226331   4.636   1.743   9.062 -0.7601 -1.2365 -1.2537
 4957SOL     OW26332   0.474   4.110   5.825 -0.8710  0.2745  0.0503
 4957SOL    HW126333   0.460   4.127   5.918  1.5568 -1.8214  0.7990
 4957SOL    HW226334   0.396   4.058   5.806 -1.9943  1.4542  1.5178
 4958SOL     OW26335   3.705   4.687  13.753  0.1430 -0.1433 -0.3458
 4958SOL    HW126336   3.678   4.679  13.662  0.3800 -3.1602 -0.1599
 4958SOL    HW226337   3.643   0.022  13.799  3.3679  1.1123  2.4996
 4959SOL     OW26338   3.394   3.887   1.364  0.0760  0.0401 -0.0071
 4959SOL    HW126339   3.348   3.825   1.420  0.2411  2.0290  2.3510
 4959SOL    HW226340   3.397   3.854   1.274 -0.0906 -0.0815  0.0316
 4960SOL     OW26341   0.841   2.110  11.916  0.1368 -0.0311  0.1234
 4960SOL    HW126342   0.861   2.076  11.829  0.9875  0.5606  0.0886
 4960SOL    HW226343   0.902   2.060  11.970  1.1104  0.5332 -0.4621
 4961SOL     OW26344   3.445   0.808  17.541  0.2919  0.2232  0.0942
 4961SOL    HW126345   3.476   0.718  17.543 -1.3060 -0.2777  1.6974
 4961SOL    HW226346   3.397   0.810  17.624 -2.3966  0.4737 -1.4692
 4962SOL     OW26347   4.433   0.560   5.749 -0.1478  0.2195  0.1293
 4962SOL    HW126348   4.430   0.580   5.842 -0.0600  0.4965  0.0735
 4962SOL    HW226349   4.363   0.612   5.709  0.9710  2.4612  1.0958
 4963SOL     OW26350   1.342   4.173  11.842 -0.0949 -0.4905 -0.0706
 4963SOL    HW126351   1.356   4.095  11.896  2.2980 -1.6829 -2.3906
 4963SOL    HW226352   1.424   4.215  11.869 -0.3119  2.0784 -3.4106
 4964SOL     OW26353   3.084   3.166  15.411  0.2642 -0.5902  0.4940
 4964SOL    HW126354   3.112   3.256  15.425 -0.2784 -0.0770 -1.8610
 4964SOL    HW226355   3.158   3.106  15.421  0.1658 -0.7510  0.2618
 4965SOL     OW26356   3.797   4.157  11.397  0.5209 -0.0622 -0.2527
 4965SOL    HW126357   3.706   4.176  11.417  0.2891  0.3089 -1.6800
 4965SOL    HW226358   3.786   4.151  11.302  0.3187 -0.8682 -0.1787
 4966SOL     OW26359   3.856   2.027   6.253 -0.2934  0.5243 -0.1264
 4966SOL    HW126360   3.946   2.019   6.223 -0.0390  1.5940  0.3802
 4966SOL    HW226361   3.822   1.945   6.216  2.1216 -0.2889 -0.5242
 4967SOL     OW26362   2.196   0.955   5.175 -0.0399  0.1268 -0.3352
 4967SOL    HW126363   2.106   0.931   5.153 -0.8988  1.9510  1.2212
 4967SOL    HW226364   2.224   0.998   5.094 -0.8574  0.7046 -0.3137
 4968SOL     OW26365   4.199   2.229   7.915 -0.5673  0.0027  0.4743
 4968SOL    HW126366   4.196   2.265   8.004  1.5060 -1.5739  1.1707
 4968SOL    HW226367   4.169   2.143   7.944 -1.1228 -0.4312 -1.3982
 4969SOL     OW26368   2.026   2.292   5.484  0.2158 -0.5542 -0.3952
 4969SOL    HW126369   2.049   2.313   5.393  2.0758  2.4743  0.7446
 4969SOL    HW226370   2.012   2.198   5.477  0.3673 -0.4492 -2.0676
 4970SOL     OW26371   3.561   1.328   7.267 -0.1898 -0.0162  0.2270
 4970SOL    HW126372   3.571   1.300   7.176  0.3787 -2.1957  0.9474
 4970SOL    HW226373   3.484   1.277   7.295  0.5450 -1.0482  0.3477
 4971SOL     OW26374   1.573   3.808   5.955  0.0715  0.2631 -0.0072
 4971SOL    HW126375   1.555   3.876   5.890 -1.3451  0.1566  0.2729
 4971SOL    HW226376   1.582   3.726   5.906  0.5092 -0.7839  1.8528
 4972SOL     OW26377   2.816   0.211   1.602  0.0749 -0.8377 -0.3169
 4972SOL    HW126378   2.803   0.125   1.642  1.5875 -0.6238  0.6482
 4972SOL    HW226379   2.910   0.204   1.585 -0.2129  0.6826 -2.4869
 4973SOL     OW26380   1.531   3.127  14.530  0.0171  0.7204  0.0142
 4973SOL    HW126381   1.485   3.151  14.450  0.7681 -0.3627 -0.7490
 4973SOL    HW226382   1.531   3.212  14.575  3.5606  1.0799 -0.6411
 4974SOL     OW26383   1.925   0.309   0.259  0.2418 -0.0032 -0.1811
 4974SOL    HW126384   1.894   0.382   0.313 -3.5465 -1.6250 -0.1719
 4974SOL    HW226385   1.848   0.252   0.252 -1.7144  2.7000 -0.8489
 4975SOL     OW26386   0.758   2.927   2.412 -0.0717  0.4447 -0.3084
 4975SOL    HW126387   0.712   2.935   2.328  0.8608 -2.7499 -1.1341
 4975SOL    HW226388   0.810   2.849   2.395 -0.9981 -0.1569 -0.4020
 4976SOL     OW26389   2.184   0.865   7.337  0.2662 -0.2340 -0.6151
 4976SOL    HW126390   2.121   0.873   7.409 -0.0190 -1.1606 -0.7603
 4976SOL    HW226391   2.216   0.776   7.354  2.2049  0.4402 -0.7734
 4977SOL     OW26392   1.776   2.920   8.013 -0.5149  0.1594 -0.4034
 4977SOL    HW126393   1.772   2.859   7.940 -3.0294 -1.0347  0.7078
 4977SOL    HW226394   1.826   2.995   7.982  0.2550 -0.3491 -0.3826
 4978SOL     OW26395   3.324   2.954   1.522 -0.3848 -0.0646 -0.1023
 4978SOL    HW126396   3.360   2.866   1.529  0.2197  0.1244 -0.9192
 4978SOL    HW226397   3.336   2.977   1.614  0.8536  1.7828 -0.7437
 4979SOL     OW26398   2.747   3.957   6.351 -0.7453 -0.0231  0.1991
 4979SOL    HW126399   2.793   3.884   6.311 -0.5032  0.3851 -0.2655
 4979SOL    HW226400   2.808   3.990   6.416 -1.6612 -0.4545  1.2881
 4980SOL     OW26401   3.661   1.322   4.710 -0.4645  0.0151  0.1607
 4980SOL    HW126402   3.643   1.396   4.767 -0.0022  0.4482 -0.2616
 4980SOL    HW226403   3.736   1.360   4.664 -0.1869 -0.3072  0.3437
 4981SOL     OW26404   1.970   3.494   0.799  0.0522 -0.5199  0.6238
 4981SOL    HW126405   2.027   3.423   0.825  0.0664 -1.3339 -1.6366
 4981SOL    HW226406   2.042   3.556   0.807 -0.0333 -0.3062 -0.2129
 4982SOL     OW26407   3.946   2.052   3.919 -0.2797 -0.0424 -0.1590
 4982SOL    HW126408   3.852   2.050   3.937 -0.7286 -2.0150 -2.8492
 4982SOL    HW226409   3.949   2.061   3.824  0.3014 -0.5281 -0.1891
 4983SOL     OW26410   0.645   2.320   1.948 -0.0233  0.1925 -0.5020
 4983SOL    HW126411   0.673   2.281   1.865  1.1927  3.4353 -1.5989
 4983SOL    HW226412   0.574   2.264   1.978 -0.2274  0.4589 -0.4946
 4984SOL     OW26413   2.595   1.731   7.680  0.1233  0.0007  0.7417
 4984SOL    HW126414   2.597   1.824   7.658 -0.9529 -0.4293 -1.0840
 4984SOL    HW226415   2.688   1.709   7.676  0.3833  1.4875 -1.4614
 4985SOL     OW26416   2.171   0.906  17.004  0.1858  0.6340 -0.0963
 4985SOL    HW126417   2.241   0.958  16.966  1.7480 -1.2921  0.1495
 4985SOL    HW226418   2.214   0.873  17.083 -1.1873  1.8248  1.1548
 4986SOL     OW26419   0.137   0.175   8.471 -0.4062 -0.2374  0.2151
 4986SOL    HW126420   0.163   0.235   8.541  0.2628 -1.7633  1.2562
 4986SOL    HW226421   0.065   0.224   8.431 -1.7951 -3.0616 -0.6673
 4987SOL     OW26422   4.278   0.679  14.678 -0.5622  0.1059 -0.1798
 4987SOL    HW126423   4.233   0.762  14.662  0.5073  0.5569 -0.8769
 4987SOL    HW226424   4.326   0.665  14.597 -3.1983 -0.1852 -1.6586
 4988SOL     OW26425   2.709   2.358  16.434  0.3221 -0.1790  0.0011
 4988SOL    HW126426   2.623   2.386  16.403  0.4592 -0.2022 -0.3977
 4988SOL    HW226427   2.696   2.372  16.528 -2.1169  1.2663 -0.5448
 4989SOL     OW26428   4.590   4.021  16.810  0.2794  0.0083 -0.7620
 4989SOL    HW126429   4.498   3.999  16.798 -0.3995  1.5704  1.5475
 4989SOL    HW226430   4.624   3.940  16.849  3.7171  1.6276 -0.3775
 4990SOL     OW26431   3.027   4.524  11.253 -0.0872 -0.1168  0.7433
 4990SOL    HW126432   3.094   4.456  11.240  1.1028  1.1979 -0.0286
 4990SOL    HW226433   3.068   4.601  11.214  1.0000 -0.1404  1.8406
 4991SOL     OW26434   3.645   4.018   6.308 -0.4112 -0.0691 -0.2224
 4991SOL    HW126435   3.703   4.016   6.231  1.3154  0.6268  1.0486
 4991SOL    HW226436   3.574   4.073   6.274  1.2044  0.8961 -2.0408
 4992SOL     OW26437   0.613   3.884  12.453  0.2090 -0.0794  0.0722
 4992SOL    HW126438   0.621   3.860  12.361 -3.6043 -0.5383 -0.1611
 4992SOL    HW226439   0.628   3.978  12.448  1.4420 -0.2263  1.0022
 4993SOL     OW26440   3.425   2.675   6.285  0.0743  0.7477 -0.0994
 4993SOL    HW126441   3.337   2.712   6.288 -1.1149 -2.0396 -0.1544
 4993SOL    HW226442   3.460   2.716   6.206  1.2998 -0.8567 -0.3944
 4994SOL     OW26443   2.273   2.595  11.617 -0.3012  0.0054  0.3931
 4994SOL    HW126444   2.274   2.506  11.581 -0.3755  0.5227 -0.8653
 4994SOL    HW226445   2.367   2.607  11.603 -0.0910 -0.7143  1.1932
 4995SOL     OW26446   3.844   3.440   7.093 -0.0741 -0.5657  0.6177
 4995SOL    HW126447   3.749   3.450   7.098  0.1720  0.9937  2.1949
 4995SOL    HW226448   3.866   3.498   7.021 -0.7951 -0.2069  0.6834
 4996SOL     OW26449   4.379   2.645  12.927 -0.0884 -0.0672  0.1451
 4996SOL    HW126450   4.448   2.708  12.948  1.3500 -1.8509  0.7937
 4996SOL    HW226451   4.346   2.622  13.014 -0.0767 -0.4024  0.0600
 4997SOL     OW26452   3.926   0.690   9.489  0.2555 -0.0538 -0.4406
 4997SOL    HW126453   3.887   0.777   9.476  0.8344  0.1967 -0.4987
 4997SOL    HW226454   3.939   0.681   9.583  2.5297 -1.6975 -0.9245
 4998SOL     OW26455   1.076   3.654   5.768 -0.0153  0.0399  0.0041
 4998SOL    HW126456   1.059   3.673   5.676  1.4673 -0.6128 -0.4048
 4998SOL    HW226457   1.128   3.575   5.753 -1.6402 -0.7553 -1.5104
 4999SOL     OW26458   2.610   0.415   7.286 -0.2762 -0.2047  0.5580
 4999SOL    HW126459   2.576   0.499   7.258  1.3245 -0.2342 -1.4839
 4999SOL    HW226460   2.533   0.372   7.325  0.6851 -0.1307  2.5644
 5000SOL     OW26461   2.222   2.676   0.383  0.2598 -0.2675 -0.1956
 5000SOL    HW126462   2.232   2.702   0.474  0.9173 -0.1379 -0.3046
 5000SOL    HW226463   2.131   2.645   0.380  0.2981 -0.4558  0.4708
 5001SOL     OW26464   2.731   3.101   4.554  0.0396 -0.0176  0.3208
 5001SOL    HW126465   2.822   3.073   4.564  0.4041  0.0510 -2.7536
 5001SOL    HW226466   2.684   3.073   4.632 -1.2620  0.7876 -0.1678
 5002SOL     OW26467   3.844   2.628   3.983  0.1878  0.9209  0.3326
 5002SOL    HW126468   3.924   2.640   4.034 -0.2309 -0.5526  1.3296
 5002SOL    HW226469   3.859   2.541   3.946 -0.7516  1.4640 -1.3243
 5003SOL     OW26470   3.418   4.305   4.250  0.2684 -0.3014 -0.3537
 5003SOL    HW126471   3.323   4.293   4.242  0.0901  0.5459  0.5131
 5003SOL    HW226472   3.427   4.357   4.330 -0.6937  0.2545 -0.6097
 5004SOL     OW26473   0.774   0.322   9.364  0.4072  0.2357  0.0753
 5004SOL    HW126474   0.864   0.313   9.397  0.9750 -1.7965 -1.9887
 5004SOL    HW226475   0.738   0.233   9.366  0.0574  0.3793  0.2500
 5005SOL     OW26476   2.738   2.598  15.782 -0.0797 -0.2264 -0.1758
 5005SOL    HW126477   2.729   2.531  15.849 -0.2163 -1.4448 -1.3998
 5005SOL    HW226478   2.814   2.647  15.812  0.9965 -2.8208  1.3440
 5006SOL     OW26479   2.317   0.802   7.700 -0.0311  1.3882  0.3230
 5006SOL    HW126480   2.332   0.883   7.651  1.4177 -0.4248 -2.2548
 5006SOL    HW226481   2.376   0.816   7.773  0.0625 -0.2150  0.5611
 5007SOL     OW26482   0.792   3.657   4.780 -0.0333 -0.7181  0.1833
 5007SOL    HW126483   0.820   3.620   4.696  0.5770 -0.6483  0.3513
 5007SOL    HW226484   0.723   3.718   4.756 -0.5450 -0.5740  1.9980
 5008SOL     OW26485   3.300   1.994   4.497 -0.2472 -0.1067 -0.1665
 5008SOL    HW126486   3.217   1.949   4.487 -1.2186  0.8594  3.5764
 5008SOL    HW226487   3.339   1.975   4.412 -0.7030 -0.2278 -0.3486
 5009SOL     OW26488   4.079   2.370   0.479 -0.1209  0.4377 -0.2629
 5009SOL    HW126489   4.011   2.429   0.511 -0.6260 -1.0623  1.4633
 5009SOL    HW226490   4.025   2.309   0.428 -1.2139  2.2870 -1.2762
 5010SOL     OW26491   1.299   3.640   7.616 -0.0986  0.1065 -0.1485
 5010SOL    HW126492   1.284   3.547   7.599 -1.2953  0.2890 -0.0962
 5010SOL    HW226493   1.332   3.660   7.528  3.5969 -0.9031  1.0208
 5011SOL     OW26494   3.827   0.244  11.915  0.1766 -0.4414 -0.5883
 5011SOL    HW126495   3.837   0.337  11.896 -0.3214  0.0317  1.4502
 5011SOL    HW226496   3.900   0.207  11.865 -0.7328 -0.3115 -1.9817
 5012SOL     OW26497   2.872   1.156   0.869 -0.4400  0.2529  0.1785
 5012SOL    HW126498   2.815   1.113   0.805 -0.6628  0.6049  0.1450
 5012SOL    HW226499   2.950   1.101   0.858 -1.6403 -1.2074 -1.0524
 5013SOL     OW26500   4.664   1.143   5.138 -0.3962 -0.3105  0.4537
 5013SOL    HW126501   4.605   1.216   5.155  0.1429  0.3134 -0.3398
 5013SOL    HW226502   4.627   1.062   5.174  1.4635 -0.9900  0.8772
 5014SOL     OW26503   2.888   3.881  12.197 -0.0192 -0.0706  0.1402
 5014SOL    HW126504   2.868   3.798  12.240  1.5589 -1.9838 -2.7910
 5014SOL    HW226505   2.915   3.932  12.273  1.1884  1.0734 -1.0385
 5015SOL     OW26506   2.121   3.281   5.815  0.1056 -0.4396  0.3991
 5015SOL    HW126507   2.213   3.298   5.796  0.3302 -0.3926  1.5196
 5015SOL    HW226508   2.126   3.203   5.870 -0.5186 -0.2727  0.6987
 5016SOL     OW26509   1.295   4.692  14.988 -0.1749  0.3146 -0.2286
 5016SOL    HW126510   1.259   4.604  14.979  2.5971 -0.6569 -1.9605
 5016SOL    HW226511   1.346   4.694  14.907 -0.4122 -0.9271 -0.4119
 5017SOL     OW26512   3.921   1.274  12.142 -0.3655  0.1482 -0.2830
 5017SOL    HW126513   3.911   1.369  12.144 -1.7369  0.0367 -1.6376
 5017SOL    HW226514   3.964   1.264  12.057  2.1269  0.8738  0.8801
 5018SOL     OW26515   3.470   3.325   2.333  0.1566  0.2699 -0.0622
 5018SOL    HW126516   3.556   3.284   2.335 -0.8154 -1.8993 -1.6906
 5018SOL    HW226517   3.408   3.253   2.347  2.1202 -1.6409 -1.2540
 5019SOL     OW26518   4.343   3.140   6.556  0.2662 -0.6702 -0.0588
 5019SOL    HW126519   4.284   3.206   6.520 -0.5946 -1.2475  0.3067
 5019SOL    HW226520   4.359   3.083   6.480  3.2379  1.4265 -1.0327
 5020SOL     OW26521   0.269   0.430   6.226  0.0416 -0.4447  0.1880
 5020SOL    HW126522   0.282   0.422   6.321 -1.2778  0.0619  0.4219
 5020SOL    HW226523   0.229   0.516   6.216 -1.2629 -0.7270  2.8895
 5021SOL     OW26524   2.741   2.731   6.472  0.3430 -0.5121  0.0652
 5021SOL    HW126525   2.690   2.682   6.537 -0.6352 -0.0990 -0.3888
 5021SOL    HW226526   2.828   2.738   6.511 -0.7415 -1.3894  2.6312
 5022SOL     OW26527   0.148   3.693   9.254  0.3936  0.4343 -0.4973
 5022SOL    HW126528   0.145   3.660   9.343 -1.6001 -0.2131 -0.8057
 5022SOL    HW226529   0.205   3.627   9.213 -1.9210 -1.5108 -0.5577
 5023SOL     OW26530   2.970   0.771   6.982 -0.0700 -0.3911  0.7872
 5023SOL    HW126531   2.905   0.708   7.014 -1.7650  1.0295  0.1108
 5023SOL    HW226532   3.044   0.710   6.980  1.4017  1.3527  2.6454
 5024SOL     OW26533   1.738   1.322   6.896  0.9437  0.1623 -0.4251
 5024SOL    HW126534   1.823   1.314   6.939  0.1853 -1.9753  0.7101
 5024SOL    HW226535   1.763   1.294   6.808  1.9232  1.3878 -0.5306
 5025SOL     OW26536   0.421   4.428  15.416  0.2612  0.2578 -0.1262
 5025SOL    HW126537   0.453   4.446  15.328  0.3662  2.1036  0.2811
 5025SOL    HW226538   0.387   4.340  15.398  1.0692  0.0938 -0.7903
 5026SOL     OW26539   0.329   3.828   7.458 -0.4360 -0.0520 -0.3363
 5026SOL    HW126540   0.246   3.817   7.412 -0.1047  1.0809 -1.1866
 5026SOL    HW226541   0.322   3.763   7.528 -0.4464  1.8019  1.3920
 5027SOL     OW26542   2.000   3.155   6.436  0.3976  0.0662  0.2512
 5027SOL    HW126543   2.000   3.085   6.502  2.5262 -0.5904 -0.4461
 5027SOL    HW226544   2.082   3.141   6.389 -1.3212  0.7880 -2.9618
 5028SOL     OW26545   3.172   0.653   3.132  0.0392 -0.5575 -0.1022
 5028SOL    HW126546   3.205   0.589   3.195 -2.1461 -1.3311  0.2801
 5028SOL    HW226547   3.130   0.710   3.197 -0.3608 -0.0261 -0.8232
 5029SOL     OW26548   0.678   3.837   1.629  0.2266 -0.2939 -0.5120
 5029SOL    HW126549   0.681   3.919   1.678  1.1035 -0.0085 -1.0508
 5029SOL    HW226550   0.584   3.820   1.625  0.6091 -1.5199 -3.8321
 5030SOL     OW26551   0.555   2.876  15.485  0.1513 -0.1217  0.1433
 5030SOL    HW126552   0.569   2.876  15.391 -0.5875  1.8323  0.0310
 5030SOL    HW226553   0.487   2.943  15.481 -0.1575 -0.3792  1.0473
 5031SOL     OW26554   0.616   1.183  10.975 -0.5684  0.1111  0.4403
 5031SOL    HW126555   0.614   1.278  10.962  2.7626 -0.1983 -2.2534
 5031SOL    HW226556   0.629   1.162  10.882  0.7625 -1.6702  1.0250
 5032SOL     OW26557   2.870   4.210   3.086  0.2081  0.3174  0.1513
 5032SOL    HW126558   2.832   4.184   3.002 -1.8837  2.8385  0.3278
 5032SOL    HW226559   2.922   4.136   3.117 -0.0465 -0.6932 -1.7999
 5033SOL     OW26560   0.202   2.883   7.109 -1.2402  0.0266 -0.2647
 5033SOL    HW126561   0.200   2.790   7.086 -0.1872 -0.1267  0.2549
 5033SOL    HW226562   0.116   2.889   7.149 -0.7539 -0.4117  0.8557
 5034SOL     OW26563   1.078   3.658   9.046 -0.3061  0.1904 -0.8189
 5034SOL    HW126564   1.099   3.611   8.966  2.5246 -0.3082  0.2477
 5034SOL    HW226565   1.106   3.743   9.013 -1.7873  1.4321  1.1236
 5035SOL     OW26566   2.000   0.147   1.040 -0.5996  0.4596 -0.4622
 5035SOL    HW126567   1.910   0.119   1.058 -0.3926 -0.4079 -0.7517
 5035SOL    HW226568   2.047   0.064   1.037  0.1999  0.9270 -0.8805
 5036SOL     OW26569   1.973   2.267  14.586  0.3885  0.1945 -0.4933
 5036SOL    HW126570   1.995   2.282  14.678  0.7619  1.4741 -0.7930
 5036SOL    HW226571   2.044   2.314  14.542 -0.0954  0.5078 -0.9272
 5037SOL     OW26572   0.438   0.069  11.990  0.1434  0.0330 -0.3147
 5037SOL    HW126573   0.421   4.715  11.936 -2.0706  0.2278  0.1249
 5037SOL    HW226574   0.372   0.134  11.968 -1.1607 -0.5543  1.9016
 5038SOL     OW26575   4.187   0.356  15.851  0.6785 -0.2773 -0.3748
 5038SOL    HW126576   4.266   0.396  15.815  0.3366  0.4150 -0.3536
 5038SOL    HW226577   4.209   0.270  15.886 -0.0670 -0.5590 -0.6060
 5039SOL     OW26578   3.297   4.577   8.683 -0.2020  0.5895  0.0335
 5039SOL    HW126579   3.338   4.491   8.688 -0.2553  0.5581 -0.0747
 5039SOL    HW226580   3.202   4.567   8.695  0.0647 -0.9502  0.8735
 5040SOL     OW26581   3.975   3.680  10.915  0.4519 -0.4897  0.1208
 5040SOL    HW126582   4.066   3.707  10.922  0.4308 -0.2524 -0.5355
 5040SOL    HW226583   3.967   3.676  10.820  1.9128 -0.5726  0.0099
 5041SOL     OW26584   3.356   2.249  12.717 -0.1648 -0.3801  0.2923
 5041SOL    HW126585   3.295   2.250  12.643  0.9769 -0.9752 -0.6394
 5041SOL    HW226586   3.407   2.171  12.696  1.2811  0.6130  0.1274
 5042SOL     OW26587   1.695   1.038  10.632 -0.2385 -0.1339 -0.0669
 5042SOL    HW126588   1.736   1.040  10.546 -1.7640  2.6318 -0.7358
 5042SOL    HW226589   1.649   1.121  10.641  0.6740  0.2760  0.7656
 5043SOL     OW26590   4.292   0.768  17.329 -1.1701  0.1200 -0.3266
 5043SOL    HW126591   4.285   0.772  17.425  1.8683  1.2230 -0.1592
 5043SOL    HW226592   4.198   0.761  17.312 -0.9309 -2.4190 -0.5870
 5044SOL     OW26593   4.718   2.825  12.420 -0.3615  0.2532 -0.1237
 5044SOL    HW126594   4.711   2.859  12.509 -0.0321 -0.7398  0.2757
 5044SOL    HW226595   4.706   2.910  12.377  1.3934 -0.4055 -1.9441
 5045SOL     OW26596   4.289   2.898   2.027  1.0609 -0.1260 -0.0212
 5045SOL    HW126597   4.264   2.856   2.110  1.0653  0.7175  0.4117
 5045SOL    HW226598   4.203   2.905   1.985  0.0787 -2.2558  1.6212
 5046SOL     OW26599   2.188   3.857   2.838  0.1484 -0.2796 -0.7249
 5046SOL    HW126600   2.166   3.862   2.745 -0.7154  1.6958 -0.4163
 5046SOL    HW226601   2.142   3.776   2.857 -0.3921 -0.0029 -0.8448
 5047SOL     OW26602   0.975   0.313   8.673  0.2413 -0.7379 -0.2259
 5047SOL    HW126603   0.911   0.366   8.721 -0.8603 -1.1922 -1.2028
 5047SOL    HW226604   1.042   0.381   8.672 -0.0743 -0.3707  3.0172
 5048SOL     OW26605   1.947   0.839   8.335  0.6556 -0.4069 -0.6459
 5048SOL    HW126606   1.954   0.783   8.257  0.9937  0.6240 -1.3652
 5048SOL    HW226607   2.008   0.794   8.393  0.4361 -2.2918 -1.8883
 5049SOL     OW26608   0.579   3.410  17.259 -0.1985  0.3784 -0.3059
 5049SOL    HW126609   0.555   3.452  17.342  1.7152 -0.5118  0.7074
 5049SOL    HW226610   0.584   3.492  17.209 -0.5596  0.5760 -0.0087
 5050SOL     OW26611   1.698   2.695   1.412  0.2956 -0.0380  0.1761
 5050SOL    HW126612   1.633   2.672   1.345  2.6385 -1.1225 -1.7435
 5050SOL    HW226613   1.641   2.729   1.480 -1.4590 -0.1472 -1.2333
 5051SOL     OW26614   2.833   4.159  17.199 -0.2136  0.0164  0.0103
 5051SOL    HW126615   2.752   4.117  17.230  0.5310 -0.2553  1.5410
 5051SOL    HW226616   2.909   4.116  17.237 -1.3544 -1.2351  0.8891
 5052SOL     OW26617   3.067   0.225  17.483 -0.1775 -0.4641  0.3171
 5052SOL    HW126618   3.007   0.155  17.509 -0.9219  0.2469  0.5120
 5052SOL    HW226619   3.155   0.195  17.507 -0.7316 -2.4650 -0.0893
 5053SOL     OW26620   0.291   0.684   6.837 -0.0299 -0.0591 -0.3065
 5053SOL    HW126621   0.244   0.727   6.908 -2.1786  0.1337 -1.8172
 5053SOL    HW226622   0.318   0.762   6.788 -3.2224  0.1969 -1.6680
 5054SOL     OW26623   4.298   3.969   6.306 -0.5094 -0.2550  0.0552
 5054SOL    HW126624   4.302   4.062   6.283 -0.9239  0.0396  1.1513
 5054SOL    HW226625   4.334   3.961   6.394  0.5529 -0.0676 -0.3688
 5055SOL     OW26626   1.402   1.590  16.141 -0.7880  0.2158  0.0588
 5055SOL    HW126627   1.439   1.629  16.062  0.1597  0.3231  0.5558
 5055SOL    HW226628   1.453   1.629  16.213 -0.0789 -0.6425  0.0159
 5056SOL     OW26629   4.365   3.839   3.663 -0.1486 -0.2284 -0.0626
 5056SOL    HW126630   4.418   3.765   3.691 -0.3189  0.1876  1.3731
 5056SOL    HW226631   4.381   3.885   3.745  0.3330  0.7055 -0.6772
 5057SOL     OW26632   1.295   3.243   4.486 -0.2996 -0.1140  0.2096
 5057SOL    HW126633   1.343   3.302   4.429 -0.4389 -0.2983 -0.0948
 5057SOL    HW226634   1.367   3.183   4.511 -0.4583 -0.8449 -1.0915
 5058SOL     OW26635   0.340   3.271   7.611 -0.0183  0.5838 -0.4156
 5058SOL    HW126636   0.306   3.322   7.685  1.5197 -1.8240  1.9595
 5058SOL    HW226637   0.263   3.223   7.581 -0.6627  0.7809  0.9017
 5059SOL     OW26638   1.934   3.016  11.323  0.8471 -0.2493 -0.0507
 5059SOL    HW126639   1.925   2.934  11.274 -0.4944 -0.6198  0.8065
 5059SOL    HW226640   2.029   3.020  11.333  0.7997  3.2873 -0.9292
 5060SOL     OW26641   3.325   2.801   0.858 -0.1572  0.3011 -0.1335
 5060SOL    HW126642   3.372   2.882   0.839 -2.8029  1.8299 -0.1449
 5060SOL    HW226643   3.242   2.820   0.902 -0.0849 -1.1744  0.6470
 5061SOL     OW26644   2.135   2.701  12.758  0.6255  0.1072  0.0278
 5061SOL    HW126645   2.173   2.618  12.788  1.4614  0.8412  1.0010
 5061SOL    HW226646   2.080   2.670  12.686 -1.0157 -0.8151  1.6896
 5062SOL     OW26647   2.634   4.533   8.977  0.3782  0.7053  0.2233
 5062SOL    HW126648   2.727   4.515   8.990  0.6982  0.8848 -1.7052
 5062SOL    HW226649   2.636   4.579   8.893 -0.8198 -0.2314 -0.3256
 5063SOL     OW26650   3.287   0.720   7.529  0.2802 -0.3671  0.1145
 5063SOL    HW126651   3.219   0.765   7.580  1.7577  1.8886  0.0590
 5063SOL    HW226652   3.351   0.714   7.600  0.3535 -2.1289 -0.0961
 5064SOL     OW26653   1.232   3.133   2.601  0.1373  0.1208  0.1628
 5064SOL    HW126654   1.284   3.170   2.672 -0.4135 -1.6524  1.5192
 5064SOL    HW226655   1.150   3.175   2.626 -0.7393 -1.8286  0.5991
 5065SOL     OW26656   1.916   3.504   8.736  0.0966 -0.3097 -0.5212
 5065SOL    HW126657   1.939   3.439   8.802 -0.9521 -1.0311 -0.8685
 5065SOL    HW226658   1.987   3.495   8.672 -1.0622 -0.5050 -1.7716
 5066SOL     OW26659   3.679   0.838   7.839  0.4459 -0.2067  0.0073
 5066SOL    HW126660   3.622   0.898   7.887  1.7591 -1.0708  2.6743
 5066SOL    HW226661   3.742   0.903   7.806 -0.1875  0.0744 -0.6455
 5067SOL     OW26662   1.449   0.185   2.758 -0.9659 -0.0192  0.1656
 5067SOL    HW126663   1.359   0.182   2.788 -1.0758  1.3824 -0.0355
 5067SOL    HW226664   1.485   0.139   2.834  0.4958  2.4050  0.9585
 5068SOL     OW26665   4.375   1.667   8.488 -0.6013  0.3426 -0.0848
 5068SOL    HW126666   4.434   1.650   8.414  0.2529 -0.8365  0.8825
 5068SOL    HW226667   4.434   1.659   8.563  1.3329 -1.3450 -1.7844
 5069SOL     OW26668   1.508   3.041  12.426 -0.0225 -0.7001 -0.5040
 5069SOL    HW126669   1.478   3.092  12.351 -1.1557  0.1567  0.5382
 5069SOL    HW226670   1.580   2.990  12.388  2.6401  1.3594  1.7443
 5070SOL     OW26671   0.880   1.960   4.598 -0.6670 -0.0812 -0.5524
 5070SOL    HW126672   0.888   2.018   4.674  0.8610  0.6216 -1.2332
 5070SOL    HW226673   0.796   1.915   4.607 -0.8101  0.3093  0.1098
 5071SOL     OW26674   3.656   4.032  15.816  0.1139 -0.3805  0.4840
 5071SOL    HW126675   3.569   4.054  15.782  0.1460  0.0538  0.6909
 5071SOL    HW226676   3.687   4.121  15.824  0.9169 -0.6774  0.6359
 5072SOL     OW26677   4.417   2.408  14.716  0.3665  0.4508  0.5835
 5072SOL    HW126678   4.497   2.461  14.714  1.5921 -1.4221 -0.1677
 5072SOL    HW226679   4.367   2.445  14.789  0.0352  1.4882 -0.1632
 5073SOL     OW26680   3.377   2.714   0.268  1.0466 -0.5898  0.2717
 5073SOL    HW126681   3.324   2.781   0.312  0.7567 -1.4061  1.1550
 5073SOL    HW226682   3.307   2.649   0.277  1.0985 -0.4463  1.7421
 5074SOL     OW26683   1.648   3.142   5.165  0.0577  0.0570 -0.0360
 5074SOL    HW126684   1.569   3.185   5.196 -0.2861 -2.1062  2.0234
 5074SOL    HW226685   1.712   3.197   5.212 -0.4330  0.7215 -0.1462
 5075SOL     OW26686   3.642   4.208   8.449 -0.6684  0.2015  0.6504
 5075SOL    HW126687   3.680   4.264   8.382 -1.0072  1.2765  1.3545
 5075SOL    HW226688   3.630   4.127   8.399 -0.1972  0.0116  0.8406
 5076SOL     OW26689   3.747   4.134   5.297 -0.1169  0.2057  0.5374
 5076SOL    HW126690   3.742   4.041   5.319  2.3698 -0.8132 -3.1818
 5076SOL    HW226691   3.790   4.166   5.376  0.3627  0.2138  0.2787
 5077SOL     OW26692   3.103   3.769   1.310  0.3657  0.5488 -0.3359
 5077SOL    HW126693   3.076   3.708   1.379  2.2486  0.4968  0.3758
 5077SOL    HW226694   3.109   3.718   1.230  0.5685 -1.1108  0.7403
 5078SOL     OW26695   4.168   2.665  14.691 -0.1430 -0.7501 -0.5024
 5078SOL    HW126696   4.178   2.599  14.623 -4.2151 -0.7140 -1.1438
 5078SOL    HW226697   4.196   2.617  14.769  0.5739 -0.6535 -0.6989
 5079SOL     OW26698   0.179   3.185   3.563  0.5828  0.0313 -0.3745
 5079SOL    HW126699   0.270   3.210   3.581  0.2052  0.2627  1.2059
 5079SOL    HW226700   0.172   3.108   3.620 -1.0752 -1.8287 -3.1234
 5080SOL     OW26701   3.487   1.070   7.955  0.1505 -0.3992 -0.1311
 5080SOL    HW126702   3.397   1.093   7.931  0.7692  1.0462 -1.0109
 5080SOL    HW226703   3.527   1.150   7.923  1.2117 -1.0047 -0.3029
 5081SOL     OW26704   3.849   0.816  13.879  0.1767 -0.3622 -0.2503
 5081SOL    HW126705   3.861   0.843  13.788 -1.6737 -0.7731 -0.6149
 5081SOL    HW226706   3.879   0.887  13.936  3.1334 -1.0964 -0.8944
 5082SOL     OW26707   3.447   3.143   8.643 -0.3696  0.7597  0.2030
 5082SOL    HW126708   3.456   3.133   8.738  3.4933  1.1882 -0.1328
 5082SOL    HW226709   3.502   3.081   8.595 -0.7358  0.3374  0.3223
 5083SOL     OW26710   3.695   3.690   3.025 -0.1395 -0.2534 -0.3376
 5083SOL    HW126711   3.734   3.777   3.038  0.1466 -0.8091  2.5569
 5083SOL    HW226712   3.602   3.709   3.015  0.1101  1.1140 -0.0628
 5084SOL     OW26713   2.998   2.802   6.519 -0.9818 -0.4100  0.5655
 5084SOL    HW126714   3.053   2.844   6.453 -0.1412 -0.3524  1.3089
 5084SOL    HW226715   3.055   2.728   6.542  0.2109  0.1227 -0.6516
 5085SOL     OW26716   3.700   1.747   0.392 -0.0960 -0.2006 -0.4967
 5085SOL    HW126717   3.619   1.753   0.443  0.8379 -1.6587  1.1636
 5085SOL    HW226718   3.690   1.656   0.366 -0.0177 -0.0754 -0.9702
 5086SOL     OW26719   1.595   3.111   6.773  0.2061 -0.4517 -0.2525
 5086SOL    HW126720   1.685   3.138   6.753 -0.0578 -0.3589 -1.3245
 5086SOL    HW226721   1.562   3.184   6.826  0.0147 -0.8771  0.2066
 5087SOL     OW26722   3.411   3.006   0.097 -0.2447  0.1530 -0.6294
 5087SOL    HW126723   3.438   2.939   0.034  2.3374 -0.3267  0.9611
 5087SOL    HW226724   3.353   2.954   0.152  1.2536  0.3247  1.1290
 5088SOL     OW26725   3.932   3.252   6.891  0.4191  0.1903  0.2408
 5088SOL    HW126726   3.873   3.299   6.950 -0.4757  1.3653 -1.5998
 5088SOL    HW226727   3.982   3.323   6.851 -0.3811 -0.0746 -1.2094
 5089SOL     OW26728   1.887   0.857   7.894  0.2447 -0.2485  0.6207
 5089SOL    HW126729   1.814   0.908   7.930 -0.9542 -0.4013 -1.5924
 5089SOL    HW226730   1.943   0.923   7.852 -0.5992 -1.5614 -2.5911
 5090SOL     OW26731   4.047   0.334   3.088  0.1673  0.4245 -0.1952
 5090SOL    HW126732   4.007   0.248   3.083  0.2410  0.3939 -0.2529
 5090SOL    HW226733   4.048   0.357   2.995 -0.2548  1.0315 -0.0502
 5091SOL     OW26734   3.854   0.067   2.533  0.1099 -0.0612 -0.0952
 5091SOL    HW126735   3.939   0.033   2.505  1.4780  0.5338  3.2783
 5091SOL    HW226736   3.871   0.159   2.515 -0.4569 -0.0681 -0.6650
 5092SOL     OW26737   0.206   1.778   2.086 -0.7524  0.4224  0.1410
 5092SOL    HW126738   0.164   1.713   2.143 -1.5189  0.8110  0.0114
 5092SOL    HW226739   0.234   1.724   2.012  2.5404 -0.6757  2.1720
 5093SOL     OW26740   4.396   4.507   0.020  0.2622  0.1548  0.0149
 5093SOL    HW126741   4.321   4.487   0.076 -0.1173  1.1045 -0.1582
 5093SOL    HW226742   4.370   4.599   0.015 -2.3091 -0.5853  0.2567
 5094SOL     OW26743   1.693   4.698  16.624 -0.5043 -0.7745  0.2856
 5094SOL    HW126744   1.760   0.021  16.676 -1.4375 -0.3892  1.1417
 5094SOL    HW226745   1.744   4.618  16.609 -0.1122 -0.6382  0.8880
 5095SOL     OW26746   0.446   0.065   2.228 -0.1237 -0.1369 -0.1382
 5095SOL    HW126747   0.389   0.048   2.303 -0.7380 -1.3103 -0.8646
 5095SOL    HW226748   0.522   0.103   2.272  0.0586  0.4940 -1.0163
 5096SOL     OW26749   3.369   2.892  16.776  0.1462 -0.1244  0.2204
 5096SOL    HW126750   3.388   2.978  16.813 -1.4998  0.4084 -0.1429
 5096SOL    HW226751   3.404   2.902  16.687 -1.7160 -0.1195 -0.5148
 5097SOL     OW26752   1.383   0.538   9.752  0.2876  0.4226  0.1631
 5097SOL    HW126753   1.345   0.585   9.678  1.6664  1.4681  0.1166
 5097SOL    HW226754   1.414   0.458   9.709  0.3447  0.6913 -0.2983
 5098SOL     OW26755   1.285   2.163  16.553 -0.0641 -0.2160 -0.9930
 5098SOL    HW126756   1.276   2.140  16.461 -2.0204 -0.1723 -0.8019
 5098SOL    HW226757   1.238   2.087  16.587 -0.2587 -0.5166 -1.9266
 5099SOL     OW26758   3.845   1.791   5.772  0.1705 -0.2616 -0.1081
 5099SOL    HW126759   3.761   1.835   5.787 -1.2314 -3.1271  0.3834
 5099SOL    HW226760   3.829   1.724   5.839  2.2031 -0.8801 -0.2443
 5100SOL     OW26761   4.446   2.740   8.038  0.2587  0.4795  0.8122
 5100SOL    HW126762   4.487   2.682   8.103  2.3304  1.4636  0.3885
 5100SOL    HW226763   4.492   2.711   7.959 -2.2676 -1.9705  0.2442
 5101SOL     OW26764   3.781   1.159   1.593 -0.2939 -0.2161 -0.1696
 5101SOL    HW126765   3.864   1.154   1.640 -0.7548  1.5625  0.8230
 5101SOL    HW226766   3.801   1.206   1.512 -2.0315 -1.6312 -1.4251
 5102SOL     OW26767   1.868   0.129   2.314  0.7481 -0.3695 -0.7635
 5102SOL    HW126768   1.882   0.102   2.405 -2.4657  0.3572 -0.0313
 5102SOL    HW226769   1.777   0.106   2.295  0.7676 -0.0122 -1.2735
 5103SOL     OW26770   1.331   3.116   4.965 -0.0727  0.1700 -0.6191
 5103SOL    HW126771   1.236   3.112   4.974  0.2598 -2.1605  1.8566
 5103SOL    HW226772   1.351   3.198   5.009 -0.1221 -0.8847  1.3787
 5104SOL     OW26773   1.989   1.340  15.794 -0.0509 -0.8245  0.2275
 5104SOL    HW126774   1.938   1.393  15.733 -0.1384  1.1263  1.9932
 5104SOL    HW226775   1.925   1.282  15.835 -0.5512 -2.0811 -2.3287
 5105SOL     OW26776   1.101   0.372  10.204  0.5039 -0.0053 -0.2966
 5105SOL    HW126777   1.169   0.339  10.145 -0.1199  1.7268 -1.9719
 5105SOL    HW226778   1.122   0.464  10.221  1.9392 -0.2883 -0.4684
 5106SOL     OW26779   1.445   3.383  15.026 -0.3783 -0.6680 -0.1260
 5106SOL    HW126780   1.373   3.382  15.089  1.5831  1.0992  2.1386
 5106SOL    HW226781   1.446   3.295  14.987  1.0376 -0.2569 -1.0040
 5107SOL     OW26782   3.569   2.908  16.230  0.1675  0.2519 -0.5487
 5107SOL    HW126783   3.530   2.862  16.156  0.6511 -1.1932  0.0892
 5107SOL    HW226784   3.661   2.882  16.228 -0.2230 -1.0122 -1.6782
 5108SOL     OW26785   2.651   1.798   9.030  0.2116 -0.1552  0.9994
 5108SOL    HW126786   2.587   1.832   8.968  0.6200 -0.3555  0.4665
 5108SOL    HW226787   2.624   1.707   9.039 -0.4211  0.0627  1.3024
 5109SOL     OW26788   4.026   4.316   6.852  0.3831 -0.1889  0.1400
 5109SOL    HW126789   4.021   4.324   6.947  1.0439 -0.8608  0.2367
 5109SOL    HW226790   4.039   4.404   6.818 -0.0535  0.5208  1.8271
 5110SOL     OW26791   3.059   1.187  12.900  0.0866 -0.1823 -0.0152
 5110SOL    HW126792   3.119   1.164  12.829  2.0504 -0.1611  1.6718
 5110SOL    HW226793   3.000   1.245  12.851  2.0105  0.9632 -0.9607
 5111SOL     OW26794   3.524   3.578   8.061 -0.0505 -0.1739  0.5342
 5111SOL    HW126795   3.467   3.655   8.062  2.5959  1.8127 -1.2687
 5111SOL    HW226796   3.603   3.621   8.029  0.7536 -1.3119  1.0033
 5112SOL     OW26797   1.839   1.542   8.488 -0.0144  0.3158  0.0328
 5112SOL    HW126798   1.911   1.489   8.523  1.4726  1.7561 -0.8349
 5112SOL    HW226799   1.778   1.552   8.561  2.7564 -1.6637  2.6536
 5113SOL     OW26800   0.005   3.112   0.061 -0.1460 -0.5972  0.8378
 5113SOL    HW126801   4.682   3.172   0.002 -0.9030 -1.2132  0.7833
 5113SOL    HW226802   4.679   3.033   0.037 -1.2247 -0.3757  2.2383
 5114SOL     OW26803   3.203   0.618  14.881 -0.0351 -0.2606 -0.5376
 5114SOL    HW126804   3.161   0.656  14.804 -0.3933 -1.6278 -1.0118
 5114SOL    HW226805   3.131   0.568  14.919 -0.3716  0.6081 -0.0117
 5115SOL     OW26806   1.495   4.108   4.929  0.1176 -0.1748  0.1994
 5115SOL    HW126807   1.554   4.053   4.981  0.7043 -1.5479 -1.9234
 5115SOL    HW226808   1.488   4.057   4.849  3.7878 -0.6859  0.1959
 5116SOL     OW26809   2.963   0.529   5.666  0.1722 -0.3708  0.3753
 5116SOL    HW126810   2.980   0.509   5.757  0.4300 -0.1517  0.3746
 5116SOL    HW226811   2.874   0.564   5.669  0.6823  0.9782 -0.0869
 5117SOL     OW26812   1.834   1.670   5.126  0.5819  0.2623 -0.0962
 5117SOL    HW126813   1.872   1.668   5.214  3.0059 -0.0606 -1.1500
 5117SOL    HW226814   1.821   1.763   5.106 -0.4366  0.3885  1.2085
 5118SOL     OW26815   1.205   0.510   3.304  0.0688  0.4660  0.3396
 5118SOL    HW126816   1.227   0.583   3.246 -0.2702  0.8040  0.6327
 5118SOL    HW226817   1.110   0.512   3.295 -0.3323  0.2923  4.2929
 5119SOL     OW26818   2.772   4.324   5.332 -0.2179 -0.1237  0.0073
 5119SOL    HW126819   2.687   4.283   5.316 -2.2515  3.4616  1.6220
 5119SOL    HW226820   2.785   4.319   5.427  1.1645  0.0976 -0.1663
 5120SOL     OW26821   1.774   1.312   8.019  0.3902  0.9184 -0.0870
 5120SOL    HW126822   1.760   1.219   8.003  0.2006  0.7968  0.7886
 5120SOL    HW226823   1.709   1.315   8.089  1.5458 -1.1866  1.0840
 5121SOL     OW26824   2.638   1.197   6.891  0.5103  0.7937  0.2247
 5121SOL    HW126825   2.674   1.222   6.976 -0.8779  0.4932  0.8911
 5121SOL    HW226826   2.569   1.263   6.889 -1.8517 -1.6717  0.9086
 5122SOL     OW26827   4.311   2.028  12.693  0.3283 -0.6856  0.0216
 5122SOL    HW126828   4.351   1.999  12.611 -2.0611  2.1036 -2.1090
 5122SOL    HW226829   4.289   1.945  12.735  4.3210 -1.2532  1.0052
 5123SOL     OW26830   2.144   3.522   6.231  0.1730  0.0082  0.3216
 5123SOL    HW126831   2.071   3.513   6.292 -0.5209  1.3351 -0.3024
 5123SOL    HW226832   2.166   3.616   6.230 -2.7430  0.7034  0.9675
 5124SOL     OW26833   4.562   1.293  16.560  0.5713  0.2940  0.1111
 5124SOL    HW126834   4.484   1.252  16.521  0.1789  2.4212 -1.3135
 5124SOL    HW226835   4.534   1.327  16.645  0.6857 -3.0451  1.4738
 5125SOL     OW26836   0.033   1.488   9.415  0.2721 -0.1815  0.3558
 5125SOL    HW126837   0.073   1.574   9.411 -0.7510  0.2797  0.1560
 5125SOL    HW226838   0.106   1.440   9.376 -2.2649 -2.5100 -1.5354
 5126SOL     OW26839   4.471   2.310   6.594  0.0824 -0.0744 -0.5844
 5126SOL    HW126840   4.504   2.346   6.511 -2.6264 -3.9859 -3.3623
 5126SOL    HW226841   4.548   2.328   6.647  1.3615 -1.7476 -1.8401
 5127SOL     OW26842   3.544   4.280  17.117 -0.4189  0.0768 -0.2316
 5127SOL    HW126843   3.562   4.345  17.049  1.1038 -1.1157 -0.9652
 5127SOL    HW226844   3.452   4.270  17.091 -0.4805 -0.6119  0.2439
 5128SOL     OW26845   1.503   4.218   3.738  0.0066  0.2508 -0.1324
 5128SOL    HW126846   1.543   4.300   3.707  0.8398 -1.0146 -2.4033
 5128SOL    HW226847   1.435   4.211   3.671 -1.0750 -1.9996  1.2042
 5129SOL     OW26848   2.316   4.079   4.788  0.7247 -0.0942  0.4146
 5129SOL    HW126849   2.376   4.151   4.808 -1.2560  1.5148  0.5013
 5129SOL    HW226850   2.353   4.049   4.705 -0.3445  0.1430 -0.1419
 5130SOL     OW26851   0.677   0.658   9.597  0.1431  0.1507  0.0605
 5130SOL    HW126852   0.672   0.645   9.692  0.4913  0.1062  0.0702
 5130SOL    HW226853   0.756   0.613   9.567  0.7333  1.2259  0.0044
 5131SOL     OW26854   4.286   2.506  11.023 -0.4533  0.0320  0.0009
 5131SOL    HW126855   4.250   2.592  11.043  0.4876  0.0731  1.5198
 5131SOL    HW226856   4.346   2.495  11.096 -1.3256 -1.4216  0.5120
 5132SOL     OW26857   1.288   3.928   2.861 -0.4592  0.0583 -0.3206
 5132SOL    HW126858   1.363   3.970   2.820  1.0987 -2.2382  0.2092
 5132SOL    HW226859   1.213   3.987   2.851 -0.6611 -0.5162 -2.1899
 5133SOL     OW26860   3.257   0.431   5.058 -0.1629  0.2876 -0.0914
 5133SOL    HW126861   3.260   0.337   5.040 -1.9675  0.3687 -0.8029
 5133SOL    HW226862   3.344   0.460   5.085 -0.1448  0.8746 -0.7893
 5134SOL     OW26863   1.851   2.687   3.381 -0.8712  0.0613 -0.4645
 5134SOL    HW126864   1.911   2.672   3.454 -2.1469  0.0696  0.5959
 5134SOL    HW226865   1.876   2.620   3.318  2.6068  1.4954 -0.6203
 5135SOL     OW26866   0.942   2.981   6.595  0.2410 -0.1863  0.4799
 5135SOL    HW126867   0.964   2.964   6.503 -0.7227 -0.3190  0.2717
 5135SOL    HW226868   0.847   2.993   6.601  0.0749 -0.3071 -1.7198
 5136SOL     OW26869   3.043   1.440   4.588 -0.1135  0.1423  0.2605
 5136SOL    HW126870   3.013   1.376   4.523  0.8052  0.8323 -0.8465
 5136SOL    HW226871   3.040   1.385   4.666 -0.0207 -1.6150 -0.9810
 5137SOL     OW26872   0.722   1.548   7.930 -0.0994  0.1433 -0.4777
 5137SOL    HW126873   0.744   1.614   7.995  1.1121 -0.5010 -0.2267
 5137SOL    HW226874   0.632   1.578   7.916 -0.4439 -0.4132  0.5952
 5138SOL     OW26875   4.323   3.188   8.687  0.1601  0.1783 -0.1993
 5138SOL    HW126876   4.294   3.097   8.690 -1.3130  0.6622  0.2527
 5138SOL    HW226877   4.308   3.227   8.774 -0.0065  0.3225 -0.2919
 5139SOL     OW26878   0.469   0.544   7.472  0.0643 -0.2158 -0.3685
 5139SOL    HW126879   0.507   0.456   7.466  1.8957  0.6012 -0.7053
 5139SOL    HW226880   0.544   0.596   7.443 -0.1509  0.3424  0.0931
 5140SOL     OW26881   2.158   2.326   6.779 -0.0768 -0.8241 -0.3281
 5140SOL    HW126882   2.208   2.408   6.782 -1.2705 -0.1345  0.5465
 5140SOL    HW226883   2.218   2.263   6.739 -1.4643 -1.7911 -0.8494
 5141SOL     OW26884   0.338   0.792   5.431 -0.1669 -0.5339 -0.2509
 5141SOL    HW126885   0.269   0.859   5.431  0.3727  0.0557  2.7699
 5141SOL    HW226886   0.290   0.732   5.489  1.4406  1.3089  3.0133
 5142SOL     OW26887   3.047   4.105  15.268  0.1928  0.7525  0.3178
 5142SOL    HW126888   2.964   4.061  15.253  0.1618  0.6047  0.9036
 5142SOL    HW226889   3.103   4.040  15.226  1.8495  0.3316  3.1444
 5143SOL     OW26890   0.644   0.788   6.855 -0.6474  0.3428  0.4954
 5143SOL    HW126891   0.728   0.782   6.809 -0.9934  0.7573 -0.1893
 5143SOL    HW226892   0.619   0.878   6.874  0.7871  0.6869  0.7319
 5144SOL     OW26893   2.107   3.705   2.094 -0.6890 -0.3890  0.0776
 5144SOL    HW126894   2.153   3.629   2.057  0.7538  0.7053 -0.3673
 5144SOL    HW226895   2.165   3.760   2.147 -2.1651  1.1564  0.0737
 5145SOL     OW26896   1.304   2.946   5.634 -0.1762 -0.2051  0.5254
 5145SOL    HW126897   1.388   2.907   5.661  0.0543 -0.4296 -0.5355
 5145SOL    HW226898   1.283   3.008   5.704  1.5413 -0.5166  1.3244
 5146SOL     OW26899   4.161   2.923   1.613  0.4581 -0.4732 -0.1444
 5146SOL    HW126900   4.080   2.913   1.662  0.9569 -0.5325  0.6539
 5146SOL    HW226901   4.164   3.019   1.607 -1.5341 -0.4266 -0.4790
 5147SOL     OW26902   3.311   3.290   2.832  0.1747  0.0197 -0.5175
 5147SOL    HW126903   3.398   3.285   2.791 -0.6487  1.5465 -2.4110
 5147SOL    HW226904   3.269   3.341   2.763  1.2010 -0.7381 -1.7112
 5148SOL     OW26905   3.008   2.607   4.851  0.0232 -0.1629  0.2371
 5148SOL    HW126906   3.070   2.677   4.873 -0.5305  0.6033 -0.6532
 5148SOL    HW226907   3.083   2.549   4.837  0.0618 -0.1180  0.2539
 5149SOL     OW26908   3.369   2.345   5.801  0.2663  0.6110  0.7611
 5149SOL    HW126909   3.338   2.259   5.773  1.3645  0.1977  0.8049
 5149SOL    HW226910   3.293   2.397   5.777 -1.5733 -2.7378 -0.6749
 5150SOL     OW26911   4.692   0.495   8.245  0.9785 -0.3182  0.0708
 5150SOL    HW126912   0.004   0.423   8.192 -1.3327 -0.8365 -0.7166
 5150SOL    HW226913   4.709   0.566   8.183 -0.5114  0.6422  0.7801
 5151SOL     OW26914   2.914   2.801   3.674  0.2087  0.0682 -0.3243
 5151SOL    HW126915   2.871   2.867   3.727 -2.6608 -2.2461  0.2144
 5151SOL    HW226916   2.962   2.852   3.608 -2.1784  1.6452 -0.8188
 5152SOL     OW26917   0.877   0.481  12.411  0.2580  0.5800 -0.0075
 5152SOL    HW126918   0.920   0.459  12.328  0.2119  1.9603 -0.3881
 5152SOL    HW226919   0.834   0.399  12.435  0.7576  0.0414 -0.9463
 5153SOL     OW26920   0.031   2.573   1.513  0.1187 -0.2614 -0.2955
 5153SOL    HW126921   0.124   2.594   1.529  0.5116 -0.8959 -1.7390
 5153SOL    HW226922   4.717   2.657   1.486 -1.9519 -0.5977  1.4555
 5154SOL     OW26923   1.907   0.787   4.601 -0.6539 -0.1538  0.7625
 5154SOL    HW126924   1.929   0.734   4.677 -0.0860 -1.4056 -0.2574
 5154SOL    HW226925   1.996   0.795   4.567 -0.2326  2.2995  2.4995
 5155SOL     OW26926   0.690   2.204  11.523 -0.0629  0.1360 -0.2818
 5155SOL    HW126927   0.700   2.256  11.602  0.8555  1.5965 -1.3728
 5155SOL    HW226928   0.638   2.132  11.559 -0.5167  0.2197 -0.7698
 5156SOL     OW26929   2.459   3.518   3.348  0.1552  0.4202 -0.2475
 5156SOL    HW126930   2.478   3.607   3.379  0.3552  0.8449 -1.6083
 5156SOL    HW226931   2.363   3.519   3.354  0.1176  0.5428 -0.8658
 5157SOL     OW26932   1.908   4.528   1.726  0.1575  0.2675 -0.5172
 5157SOL    HW126933   1.866   4.448   1.694  0.0994 -1.0787  2.8583
 5157SOL    HW226934   1.835   4.584   1.754 -0.6115 -1.5385  1.1165
 5158SOL     OW26935   0.229   3.694   7.731  0.2941 -0.8964  0.2873
 5158SOL    HW126936   0.208   3.628   7.665  2.7321 -0.8263 -0.5482
 5158SOL    HW226937   0.165   3.759   7.701  0.7326 -1.4165 -1.8195
 5159SOL     OW26938   4.349   3.941   4.330  0.2178 -0.4569  0.0857
 5159SOL    HW126939   4.375   3.869   4.388  2.6195  0.6043  0.3089
 5159SOL    HW226940   4.281   3.895   4.280 -0.3121  1.5951 -1.0921
 5160SOL     OW26941   1.632   3.418  11.880 -0.4364 -0.2498 -0.6905
 5160SOL    HW126942   1.589   3.337  11.907 -0.5130 -0.0153 -0.0959
 5160SOL    HW226943   1.723   3.415  11.909 -0.6820 -0.0221  0.0994
 5161SOL     OW26944   1.838   3.492   5.132  0.0002 -0.0842 -0.0193
 5161SOL    HW126945   1.908   3.473   5.070 -1.5203 -0.3786 -1.6795
 5161SOL    HW226946   1.833   3.587   5.124 -0.6019 -0.0210  1.0579
 5162SOL     OW26947   0.938   2.699   9.805  0.9757 -0.4487  0.1884
 5162SOL    HW126948   0.928   2.627   9.744 -3.9872 -0.1130  0.5875
 5162SOL    HW226949   0.961   2.655   9.887 -0.1822  2.8279  2.2841
 5163SOL     OW26950   0.987   3.843   8.721 -0.4181 -0.0891 -0.0750
 5163SOL    HW126951   1.049   3.865   8.791 -0.4383 -0.4071  0.0444
 5163SOL    HW226952   0.924   3.792   8.771  0.3991 -1.2088 -0.1820
 5164SOL     OW26953   1.878   3.080   1.803 -0.1321 -0.0826  0.1322
 5164SOL    HW126954   1.953   3.078   1.862  0.8101 -0.3258 -1.0892
 5164SOL    HW226955   1.904   3.021   1.733  3.1299  1.5918 -0.0458
 5165SOL     OW26956   3.272   0.022   1.489  0.1514  0.6490 -0.3476
 5165SOL    HW126957   3.341   0.054   1.546  1.0653 -0.5385 -0.7884
 5165SOL    HW226958   3.313   0.023   1.403 -0.5104  1.8904 -0.6456
 5166SOL     OW26959   0.302   2.995   8.206  0.2244  0.1753 -0.1648
 5166SOL    HW126960   0.230   3.059   8.212  1.2223  1.0744  2.5105
 5166SOL    HW226961   0.375   3.054   8.190  1.4082 -1.6883 -1.5355
 5167SOL     OW26962   1.766   0.645   6.857  0.5278 -0.5245  0.9053
 5167SOL    HW126963   1.754   0.719   6.917  3.3423  0.2117  0.5494
 5167SOL    HW226964   1.781   0.699   6.779 -0.6313 -0.7994  0.4962
 5168SOL     OW26965   1.352   2.910   4.532 -0.3430 -0.4133 -0.3308
 5168SOL    HW126966   1.409   2.947   4.600 -0.9883  3.1010 -1.6677
 5168SOL    HW226967   1.268   2.896   4.575  1.2601 -1.4465  2.4611
 5169SOL     OW26968   4.512   2.784   5.953 -0.2754 -0.1374  0.1031
 5169SOL    HW126969   4.450   2.740   6.011 -0.0604  2.2635  2.1184
 5169SOL    HW226970   4.579   2.715   5.949  0.0241  0.2908 -2.6986
 5170SOL     OW26971   0.397   2.327   6.839  0.4347  0.5776 -0.4569
 5170SOL    HW126972   0.397   2.287   6.752  0.2326  0.2256 -0.2974
 5170SOL    HW226973   0.446   2.257   6.881 -0.4398 -0.6904 -1.5495
 5171SOL     OW26974   3.606   0.402   6.625  0.6328  0.2991  0.3870
 5171SOL    HW126975   3.665   0.337   6.662 -0.3992 -2.0348 -2.0516
 5171SOL    HW226976   3.591   0.362   6.539 -0.8789 -0.7314  1.1345
 5172SOL     OW26977   1.194   1.741   2.908  0.7106 -0.6472  0.2918
 5172SOL    HW126978   1.166   1.652   2.889  2.8155 -1.5187  1.2802
 5172SOL    HW226979   1.150   1.786   2.836  1.5118  0.5097  0.5239
 5173SOL     OW26980   2.117   2.268   7.605  0.2115 -0.0599  0.0373
 5173SOL    HW126981   2.120   2.356   7.641 -1.5449 -0.3588  0.9166
 5173SOL    HW226982   2.180   2.282   7.534  0.3174 -0.4505  0.0515
 5174SOL     OW26983   0.277   2.573   6.052 -0.7026  0.1160 -0.0477
 5174SOL    HW126984   0.316   2.652   6.089  0.3312 -0.9003  1.0762
 5174SOL    HW226985   0.356   2.528   6.020 -0.1439  0.2491  1.1193
 5175SOL     OW26986   0.765   1.254   5.595  0.2316 -0.2476 -0.1994
 5175SOL    HW126987   0.716   1.214   5.667  1.0774  0.8237  0.9840
 5175SOL    HW226988   0.727   1.209   5.521 -2.5000  0.8642  0.5283
 5176SOL     OW26989   1.872   0.619  16.649  0.1363 -0.5146 -0.3973
 5176SOL    HW126990   1.823   0.538  16.632 -1.4586  0.6356 -1.2767
 5176SOL    HW226991   1.961   0.586  16.635  0.5822  0.7387 -0.5495
 5177SOL     OW26992   1.731   3.173   4.390  0.0240  0.2793 -0.1649
 5177SOL    HW126993   1.811   3.188   4.340 -1.3919 -0.6590 -2.7190
 5177SOL    HW226994   1.674   3.122   4.332 -0.0080  0.1287 -0.0012
 5178SOL     OW26995   2.553   3.219   9.402 -0.0563  0.3719  0.3062
 5178SOL    HW126996   2.541   3.124   9.395 -0.9553  0.6383 -1.9055
 5178SOL    HW226997   2.520   3.248   9.317  1.9409 -1.4080 -1.0659
 5179SOL     OW26998   4.381   0.071   2.516 -0.1334 -0.3802  0.4810
 5179SOL    HW126999   4.470   0.106   2.512  0.1293 -1.0286  0.6648
 5179SOL    HW227000   4.376   0.034   2.428 -0.3377 -2.0905  1.2006
 5180SOL     OW27001   4.501   1.681   0.923 -0.6056  0.4066 -0.0656
 5180SOL    HW127002   4.472   1.696   1.013  0.7868  1.0276  0.2786
 5180SOL    HW227003   4.529   1.762   0.879 -1.6441 -0.7841 -2.9220
 5181SOL     OW27004   2.966   3.784  12.625  0.5131 -0.0075  0.2464
 5181SOL    HW127005   3.030   3.783  12.554  0.2743  0.8889  0.0230
 5181SOL    HW227006   2.883   3.817  12.592  0.3313  1.5260  2.2235
 5182SOL     OW27007   3.340   1.390   6.061 -0.6999 -0.4346 -0.4986
 5182SOL    HW127008   3.339   1.303   6.020 -0.8965 -1.3678  1.4578
 5182SOL    HW227009   3.432   1.400   6.088 -0.3512  2.4003 -2.7683
 5183SOL     OW27010   1.567   3.614   1.812  0.1973  0.2443 -0.2017
 5183SOL    HW127011   1.539   3.597   1.722 -0.9581  1.6606 -0.1126
 5183SOL    HW227012   1.638   3.550   1.819 -0.4902 -0.9181 -3.5190
 5184SOL     OW27013   0.191   4.593  15.942  0.0535 -0.3233 -0.3706
 5184SOL    HW127014   0.233   4.667  15.986 -0.0884  0.3110 -1.2901
 5184SOL    HW227015   0.272   4.551  15.912  0.2707 -0.9005  1.0565
 5185SOL     OW27016   3.458   2.259   3.034 -0.0384 -0.0389 -0.1720
 5185SOL    HW127017   3.547   2.290   3.024  0.3493 -1.6473 -1.8735
 5185SOL    HW227018   3.464   2.214   3.118 -0.1149  1.7406  0.7832
 5186SOL     OW27019   0.477   1.644   6.451 -0.3763 -0.0775 -0.0518
 5186SOL    HW127020   0.463   1.551   6.466 -3.8131  0.2387 -1.4088
 5186SOL    HW227021   0.556   1.648   6.505 -1.2593 -1.8490  1.3684
 5187SOL     OW27022   2.055   3.118  14.382  0.6021  0.6806 -0.4812
 5187SOL    HW127023   2.005   3.043  14.414  0.3434  0.9081 -0.3602
 5187SOL    HW227024   1.992   3.166  14.328  0.1833  2.2914  1.4729
 5188SOL     OW27025   2.821   0.902   8.525  0.4449  0.1662 -0.5456
 5188SOL    HW127026   2.881   0.830   8.549 -0.7048 -0.1815  1.2825
 5188SOL    HW227027   2.769   0.865   8.454 -0.9586 -1.9023  1.5484
 5189SOL     OW27028   0.922   4.551   8.446 -0.1518 -0.0627  0.2273
 5189SOL    HW127029   0.827   4.557   8.461  0.0041  1.7113  0.5211
 5189SOL    HW227030   0.945   4.641   8.466  0.0896 -0.0041 -0.3015
 5190SOL     OW27031   0.546   2.745   8.565 -0.0962 -0.0552 -0.2467
 5190SOL    HW127032   0.454   2.753   8.541 -0.2631  0.1049  0.4514
 5190SOL    HW227033   0.588   2.744   8.479 -2.5678 -3.8547 -1.4035
 5191SOL     OW27034   3.260   3.053   7.923 -0.2692 -0.2225 -0.0081
 5191SOL    HW127035   3.263   3.080   8.014  0.7525  2.7229 -0.9198
 5191SOL    HW227036   3.343   3.086   7.889  0.5516  0.8778  3.0580
 5192SOL     OW27037   0.964   0.696  12.902  0.2012  0.2802 -0.4170
 5192SOL    HW127038   0.973   0.623  12.841 -2.7381 -0.8164  0.4519
 5192SOL    HW227039   1.054   0.705  12.934 -0.1560 -0.8853  0.9036
 5193SOL     OW27040   3.403   1.204   9.864  0.1912  0.0583  0.1617
 5193SOL    HW127041   3.345   1.150   9.918  0.1983  0.0986  0.2102
 5193SOL    HW227042   3.384   1.284   9.913 -0.7294 -1.2228  1.9101
 5194SOL     OW27043   0.638   2.288  11.228  0.2124 -0.5968  0.0251
 5194SOL    HW127044   0.568   2.224  11.210  1.5141 -1.4498 -1.9702
 5194SOL    HW227045   0.631   2.280  11.323 -0.3625 -0.6566 -0.0201
 5195SOL     OW27046   0.523   4.655   8.775 -0.4979 -0.1909  0.0639
 5195SOL    HW127047   0.510   4.560   8.780  0.0363 -0.1957  1.4676
 5195SOL    HW227048   0.440   4.671   8.730 -0.7335  1.2291  1.0029
 5196SOL     OW27049   3.544   3.519  13.963 -0.6752 -0.0412 -0.3121
 5196SOL    HW127050   3.530   3.597  13.909  0.8256  1.1980  1.0936
 5196SOL    HW227051   3.610   3.477  13.907 -0.7394  0.4785 -0.7821
 5197SOL     OW27052   0.592   2.584   3.635 -0.2867 -0.0872  0.0712
 5197SOL    HW127053   0.561   2.572   3.545  0.5812  0.8204 -0.3529
 5197SOL    HW227054   0.684   2.558   3.636 -0.1882  0.2730  0.2924
 5198SOL     OW27055   0.539   0.267   7.707  0.5866 -0.1140 -0.1784
 5198SOL    HW127056   0.620   0.314   7.690  0.1183  0.3603 -1.0493
 5198SOL    HW227057   0.564   0.179   7.678  0.1006 -0.3456  0.1034
 5199SOL     OW27058   3.907   3.633   4.932  0.2973 -0.2217  0.3271
 5199SOL    HW127059   3.935   3.723   4.949  0.5500 -0.4500  1.1202
 5199SOL    HW227060   3.950   3.583   5.001  0.3123  0.1029  0.5515
 5200SOL     OW27061   2.106   2.720   8.391  0.3305 -0.3632  0.1549
 5200SOL    HW127062   2.150   2.718   8.476  0.2554  0.5100  0.2128
 5200SOL    HW227063   2.094   2.813   8.371  3.0085 -0.3649 -1.5101
 5201SOL     OW27064   1.695   0.804   6.158 -0.6573  0.0530  0.1325
 5201SOL    HW127065   1.737   0.813   6.073 -0.0779 -0.5934  0.3486
 5201SOL    HW227066   1.771   0.788   6.214  0.0230 -1.6096 -1.2631
 5202SOL     OW27067   1.949   3.537   5.734 -0.3084 -0.0446  0.3817
 5202SOL    HW127068   2.021   3.479   5.759 -1.0900 -0.5947  1.3550
 5202SOL    HW227069   1.877   3.500   5.784  2.0453 -3.2574  1.3867
 5203SOL     OW27070   2.633   1.098   9.719  0.0494  0.0634  0.0964
 5203SOL    HW127071   2.591   1.038   9.658  1.2549  0.1360 -0.8108
 5203SOL    HW227072   2.692   1.149   9.663 -0.9924 -0.7675 -1.7360
 5204SOL     OW27073   3.234   4.199  13.456  0.0999  0.0796 -0.3155
 5204SOL    HW127074   3.299   4.133  13.481  0.2544  0.2760 -0.1975
 5204SOL    HW227075   3.238   4.252  13.536 -0.7174 -0.8033  0.2975
 5205SOL     OW27076   1.898   2.700   0.823  0.2883  0.1839 -0.7734
 5205SOL    HW127077   1.983   2.704   0.867  0.3223 -2.5233 -0.5691
 5205SOL    HW227078   1.898   2.607   0.800  0.1109 -0.0237  0.0476
 5206SOL     OW27079   4.720   4.092  17.344 -0.1099  0.0484  0.1662
 5206SOL    HW127080   4.702   4.042  17.265  1.0357  0.1256 -0.1345
 5206SOL    HW227081   0.011   4.174  17.298 -0.6702 -0.5443 -1.0494
 5207SOL     OW27082   1.215   4.080   3.772  0.1652 -0.4119 -0.7923
 5207SOL    HW127083   1.232   4.174   3.763  5.3811 -1.2100  0.5346
 5207SOL    HW227084   1.180   4.054   3.687 -2.4817 -1.7891  0.7371
 5208SOL     OW27085   1.035   1.612   7.750 -0.1196 -0.0542 -0.1081
 5208SOL    HW127086   1.013   1.542   7.689 -0.0323 -0.7892  0.6963
 5208SOL    HW227087   1.048   1.688   7.694 -0.5530  1.9608  2.4859
 5209SOL     OW27088   0.599   1.223  17.246  0.2539  0.1991  0.0718
 5209SOL    HW127089   0.601   1.195  17.155 -0.9248 -0.3694  0.2105
 5209SOL    HW227090   0.682   1.192  17.283  0.4172 -0.5804 -0.9584
 5210SOL     OW27091   3.782   3.809   6.618  0.5562  0.4894  0.6696
 5210SOL    HW127092   3.766   3.897   6.585  2.5251  1.0411  1.1786
 5210SOL    HW227093   3.867   3.789   6.579  0.3516 -1.1055  1.0258
 5211SOL     OW27094   3.713   1.368  12.923 -0.1695 -0.0313 -0.1897
 5211SOL    HW127095   3.665   1.450  12.933 -0.9878 -0.5598  0.1978
 5211SOL    HW227096   3.766   1.380  13.002 -0.6841 -1.2117  0.3369
 5212SOL     OW27097   2.087   4.602   1.079  0.4345 -0.1151  0.0044
 5212SOL    HW127098   2.068   4.518   1.037 -1.8993 -0.0580  0.9797
 5212SOL    HW227099   2.043   4.597   1.164  1.0929  0.9646  0.4036
 5213SOL     OW27100   0.021   4.489  13.276 -0.1155  0.0749  0.5231
 5213SOL    HW127101   4.665   4.544  13.272 -0.5586 -0.5842  0.0970
 5213SOL    HW227102   0.040   4.496  13.370 -0.4565  1.1442  0.5044
 5214SOL     OW27103   4.106   3.058  10.990 -0.2403  0.1966 -0.2695
 5214SOL    HW127104   4.079   3.064  11.081 -3.1349  2.0130 -1.2276
 5214SOL    HW227105   4.019   3.077  10.953 -0.3215  0.9840  0.3461
 5215SOL     OW27106   1.525   1.797  16.305 -0.0767 -0.0986  0.4869
 5215SOL    HW127107   1.491   1.882  16.276  1.8130  1.4969  2.8774
 5215SOL    HW227108   1.528   1.807  16.400  0.7421  1.4268  0.3195
 5216SOL     OW27109   2.401   2.733  12.630  0.3399  0.4359 -0.1420
 5216SOL    HW127110   2.477   2.729  12.688 -0.9134 -0.6457  1.4260
 5216SOL    HW227111   2.329   2.696  12.682  0.8615  2.3383  1.9801
 5217SOL     OW27112   3.690   3.457   9.522 -0.5594  0.7472 -0.0104
 5217SOL    HW127113   3.628   3.424   9.586 -0.7164  0.5005 -0.2900
 5217SOL    HW227114   3.720   3.544   9.550 -0.1668  0.3820  0.6902
 5218SOL     OW27115   2.122   3.204  15.979  0.0146  0.8364 -0.0972
 5218SOL    HW127116   2.080   3.186  16.063  0.9646 -1.7598 -0.1735
 5218SOL    HW227117   2.200   3.149  15.978 -0.1070  0.6627  0.1240
 5219SOL     OW27118   0.207   3.819   9.034 -0.0606 -0.4145 -0.5360
 5219SOL    HW127119   0.151   3.782   9.102 -1.5695  1.8304 -0.5766
 5219SOL    HW227120   0.270   3.747   9.027 -0.4479 -0.5171 -2.9923
 5220SOL     OW27121   4.463   4.530   4.514 -0.1371 -0.3425 -0.5963
 5220SOL    HW127122   4.551   4.563   4.498  0.4771 -1.7959 -0.2398
 5220SOL    HW227123   4.462   4.532   4.609  1.8847 -1.9812 -0.5470
 5221SOL     OW27124   4.141   0.467  14.989 -0.3384  0.2505 -0.0898
 5221SOL    HW127125   4.197   0.426  15.054  2.0828  0.9432 -1.7042
 5221SOL    HW227126   4.198   0.542  14.969  2.5914 -2.1739 -0.8652
 5222SOL     OW27127   3.086   0.466  14.142  0.0477 -0.0829 -0.6538
 5222SOL    HW127128   3.037   0.536  14.187  1.2506 -0.2529  0.9305
 5222SOL    HW227129   3.176   0.466  14.174 -0.6434 -1.0002  1.2952
 5223SOL     OW27130   4.649   4.566   5.229  0.5961  0.3908  0.7701
 5223SOL    HW127131   4.711   4.528   5.292 -0.0087 -1.4288  0.2581
 5223SOL    HW227132   4.625   4.653   5.262  2.6043  0.8093  1.1481
 5224SOL     OW27133   0.119   2.424  12.047 -0.5292 -0.7743  0.4861
 5224SOL    HW127134   0.110   2.445  11.954  1.1713  3.1811  1.2224
 5224SOL    HW227135   0.041   2.468  12.081  0.4483  1.6776 -0.4739
 5225SOL     OW27136   1.115   0.147  14.795  0.0546  0.0247  0.1254
 5225SOL    HW127137   1.171   0.097  14.735  0.0637  2.2510 -1.7089
 5225SOL    HW227138   1.132   0.103  14.879  0.7292  2.4080  1.2374
 5226SOL     OW27139   0.083   1.562   8.268 -0.9050  0.0362  0.4103
 5226SOL    HW127140   0.008   1.605   8.229 -1.2097 -0.7584  0.1166
 5226SOL    HW227141   0.069   1.560   8.363 -0.9563 -0.2367  0.3978
 5227SOL     OW27142   0.694   4.631   6.745 -0.3019  0.2597 -0.6120
 5227SOL    HW127143   0.738   4.552   6.716  0.1690  0.6998 -1.1088
 5227SOL    HW227144   0.656   4.601   6.827 -1.8398  1.3762 -0.9048
 5228SOL     OW27145   1.260   4.548   2.809  0.3079  0.0568 -0.0609
 5228SOL    HW127146   1.251   4.501   2.891 -1.3082  0.1312 -0.1988
 5228SOL    HW227147   1.345   4.590   2.826  0.3622  0.5693 -1.5409
 5229SOL     OW27148   4.143   2.395   8.152 -0.3034  0.4431 -0.0857
 5229SOL    HW127149   4.158   2.475   8.102 -1.1990  1.4785  1.3022
 5229SOL    HW227150   4.048   2.392   8.164 -0.2168  2.1455  0.9327
 5230SOL     OW27151   2.382   3.750   1.970  0.2647 -0.9602 -0.3334
 5230SOL    HW127152   2.435   3.671   1.979 -0.9031 -1.8828 -1.6813
 5230SOL    HW227153   2.394   3.763   1.876  0.5886  1.1753 -0.0140
 5231SOL     OW27154   4.544   2.050   7.599  0.5739  0.4672  0.7010
 5231SOL    HW127155   4.521   2.094   7.517  1.6164 -1.7469 -0.7917
 5231SOL    HW227156   4.557   1.961   7.568 -1.4439  0.9232 -1.4658
 5232SOL     OW27157   0.292   4.006   6.882 -0.0906 -0.0156 -0.1888
 5232SOL    HW127158   0.284   3.931   6.823 -1.3072  0.8868 -1.1823
 5232SOL    HW227159   0.370   3.992   6.935  0.1250 -1.2214 -0.8340
 5233SOL     OW27160   0.398   3.747   3.741 -0.6166 -0.1269 -0.1971
 5233SOL    HW127161   0.386   3.684   3.670  3.5720 -0.6862 -0.4462
 5233SOL    HW227162   0.461   3.709   3.802  0.6150 -1.0351 -2.0187
 5234SOL     OW27163   2.565   0.336   2.310 -0.6442 -0.0722  0.0788
 5234SOL    HW127164   2.607   0.335   2.223 -0.6628 -0.1900  0.0716
 5234SOL    HW227165   2.480   0.367   2.279 -0.4984 -1.1656 -1.4024
 5235SOL     OW27166   0.808   0.660   8.203  0.0573 -0.0058 -0.0045
 5235SOL    HW127167   0.871   0.625   8.140  1.6780 -0.2342  1.7526
 5235SOL    HW227168   0.744   0.589   8.202  2.1727 -1.9188 -0.7670
 5236SOL     OW27169   2.364   0.991  13.065 -0.3886 -0.3178  0.4166
 5236SOL    HW127170   2.344   0.937  13.141 -0.9987 -0.4404  0.1751
 5236SOL    HW227171   2.401   1.065  13.114  0.1584 -0.4729  0.2328
 5237SOL     OW27172   4.424   2.272  12.523  0.3380 -0.6370  0.6416
 5237SOL    HW127173   4.372   2.233  12.453 -0.8820  1.2995  0.4719
 5237SOL    HW227174   4.497   2.216  12.548 -0.8365 -1.4629  2.2467
 5238SOL     OW27175   4.156   1.208   6.782  0.2299 -0.4797 -0.0347
 5238SOL    HW127176   4.227   1.147   6.760  1.1745  0.7861 -0.4742
 5238SOL    HW227177   4.156   1.270   6.709 -2.5074 -0.5473 -0.1214
 5239SOL     OW27178   4.593   3.499   7.010  0.1122 -0.1183  0.3105
 5239SOL    HW127179   4.509   3.526   7.045  0.4970  2.0445 -0.4381
 5239SOL    HW227180   4.587   3.507   6.915  1.0039  0.0854  0.2683
 5240SOL     OW27181   4.640   0.131   8.222  0.1091 -0.2500 -0.5573
 5240SOL    HW127182   4.592   0.178   8.154  0.4537  1.9576  0.7322
 5240SOL    HW227183   4.601   0.166   8.303 -1.2091  1.6811 -2.0425
 5241SOL     OW27184   4.689   1.637   7.357  0.2223  0.4223 -0.4164
 5241SOL    HW127185   4.651   1.699   7.420 -0.6530 -0.2303 -0.2960
 5241SOL    HW227186   0.048   1.614   7.402  0.5755  0.1016 -1.2240
 5242SOL     OW27187   3.487   1.940   5.365  1.1244 -0.1661 -0.0032
 5242SOL    HW127188   3.526   1.855   5.384  0.0076 -0.8418 -0.7787
 5242SOL    HW227189   3.515   1.939   5.274 -0.4315  2.1379 -0.5016
 5243SOL     OW27190   1.289   4.011  13.951  0.1408  0.3877 -0.0163
 5243SOL    HW127191   1.267   4.103  13.965  1.1855  0.6843 -0.2943
 5243SOL    HW227192   1.294   4.017  13.855 -0.4872  3.0631  0.1057
 5244SOL     OW27193   0.285   1.670  12.110  0.0560  0.0990 -0.0619
 5244SOL    HW127194   0.293   1.605  12.180  0.6879  0.6270  0.3569
 5244SOL    HW227195   0.344   1.637  12.042  0.8292 -0.3051  0.8097
 5245SOL     OW27196   0.998   2.909   1.566  0.5369 -0.2539 -0.3932
 5245SOL    HW127197   0.904   2.919   1.551  0.9615  0.4981 -2.6403
 5245SOL    HW227198   1.025   2.976   1.503 -0.1897  1.3103  0.9403
 5246SOL     OW27199   2.655   2.103  14.910  0.0876  0.2910 -0.4754
 5246SOL    HW127200   2.641   2.054  14.829  2.2072  1.8610 -1.8012
 5246SOL    HW227201   2.731   2.151  14.875 -0.7820  0.4101 -2.2066
 5247SOL     OW27202   0.169   2.212  16.454  0.2956  0.3406  0.1434
 5247SOL    HW127203   0.195   2.202  16.545  0.3238 -2.4595 -0.1750
 5247SOL    HW227204   0.077   2.239  16.457 -0.1466 -1.3958  1.7514
 5248SOL     OW27205   2.317   2.296   3.339  0.4344  0.1958 -0.0970
 5248SOL    HW127206   2.377   2.246   3.394 -1.1141  1.7108  2.9716
 5248SOL    HW227207   2.357   2.281   3.254  3.4488 -3.0633  1.9095
 5249SOL     OW27208   3.227   3.306   5.188 -0.0399  0.2819  0.2506
 5249SOL    HW127209   3.291   3.357   5.138 -0.8549 -0.3555 -1.4708
 5249SOL    HW227210   3.153   3.357   5.154  0.5010  1.5693  1.0136
 5250SOL     OW27211   0.878   3.190  14.279 -0.5560  0.5143  0.2512
 5250SOL    HW127212   0.905   3.274  14.242 -1.0588 -0.9628 -3.4905
 5250SOL    HW227213   0.841   3.147  14.201 -1.4378  0.3099  0.7856
 5251SOL     OW27214   4.402   0.942   3.113  0.7384 -0.0548  0.3550
 5251SOL    HW127215   4.365   0.880   3.175  1.5657 -0.3949  0.5176
 5251SOL    HW227216   4.491   0.910   3.098  0.8224  1.7900 -3.1189
 5252SOL     OW27217   0.360   1.793   3.625  0.2430 -0.4318  0.1389
 5252SOL    HW127218   0.277   1.817   3.667  1.1903  0.7536  1.3331
 5252SOL    HW227219   0.398   1.734   3.690  0.7251 -1.1143 -0.7604
 5253SOL     OW27220   2.347   0.893  13.301 -0.2764  0.2677 -0.4537
 5253SOL    HW127221   2.312   0.955  13.365 -0.3393 -0.3998  0.1608
 5253SOL    HW227222   2.338   0.810  13.347  1.1604  0.7345  0.6841
 5254SOL     OW27223   0.323   0.222  13.287  0.1005  0.2612 -0.5711
 5254SOL    HW127224   0.403   0.264  13.319  0.1993  0.2080 -0.7502
 5254SOL    HW227225   0.357   0.143  13.247 -0.2233 -1.2173  2.0494
 5255SOL     OW27226   2.120   0.488   2.423 -0.3536  0.2069  0.3527
 5255SOL    HW127227   2.059   0.484   2.349 -0.0870 -4.9200  0.4206
 5255SOL    HW227228   2.138   0.581   2.436  1.0053 -0.0886  0.5500
 5256SOL     OW27229   4.667   2.195  12.272  0.2524  0.1215  0.0557
 5256SOL    HW127230   4.661   2.113  12.319 -1.5437 -0.6714 -1.5424
 5256SOL    HW227231   0.003   2.235  12.337  1.5961  0.9435 -1.6438
 5257SOL     OW27232   2.397   3.565  14.352  0.7407  0.1892 -0.6288
 5257SOL    HW127233   2.454   3.639  14.372  2.3187 -0.5659 -2.3727
 5257SOL    HW227234   2.389   3.570  14.257  0.5987 -2.7688 -0.7742
 5258SOL     OW27235   0.219   0.439   6.797  0.1106  0.8250 -0.2678
 5258SOL    HW127236   0.232   0.531   6.820 -1.1169  1.5040 -2.2493
 5258SOL    HW227237   0.237   0.398   6.881 -0.1007 -1.1296 -1.1800
 5259SOL     OW27238   4.158   1.355   8.675  0.2635 -0.1892  0.1111
 5259SOL    HW127239   4.146   1.380   8.766  1.7592  0.9769 -0.0161
 5259SOL    HW227240   4.140   1.438   8.631  0.8692 -0.0674  0.0922
 5260SOL     OW27241   1.501   2.302   6.649 -0.2921  0.5224 -0.8171
 5260SOL    HW127242   1.477   2.212   6.625  2.0513 -0.2858 -0.1337
 5260SOL    HW227243   1.444   2.326   6.722  0.1541 -3.7333  0.9095
 5261SOL     OW27244   2.982   0.542   9.303  0.0672 -0.3458 -0.2572
 5261SOL    HW127245   3.075   0.530   9.284 -0.6581 -1.5124 -2.9653
 5261SOL    HW227246   2.972   0.461   9.355  2.9406 -0.5710 -0.0322
 5262SOL     OW27247   3.191   2.636   4.603 -0.1005 -0.2806  0.3938
 5262SOL    HW127248   3.169   2.661   4.513 -0.7172 -1.5816  0.1833
 5262SOL    HW227249   3.244   2.558   4.588 -0.0452 -0.4684  1.5629
 5263SOL     OW27250   0.688   3.313   1.076  0.4847 -0.4695 -0.3920
 5263SOL    HW127251   0.649   3.230   1.050 -2.2425  1.2121 -1.7627
 5263SOL    HW227252   0.734   3.290   1.157  0.6503  1.8855  0.1852
 5264SOL     OW27253   2.159   2.315  12.633  0.3340  0.0889 -0.4364
 5264SOL    HW127254   2.216   2.360  12.694  1.4655 -1.2177 -0.5270
 5264SOL    HW227255   2.071   2.338  12.662  0.2180  0.0154 -0.7264
 5265SOL     OW27256   1.270   1.275  13.518 -0.2964  0.2264  0.1116
 5265SOL    HW127257   1.262   1.235  13.604  0.6577 -0.1169  0.0331
 5265SOL    HW227258   1.189   1.243  13.478 -0.7900  1.9235 -0.2475
 5266SOL     OW27259   3.076   0.168   4.231 -0.0817 -0.1777 -0.6451
 5266SOL    HW127260   3.020   0.184   4.307  1.4827  0.0730  0.4309
 5266SOL    HW227261   3.140   0.110   4.272 -1.1860 -0.4793  0.6628
 5267SOL     OW27262   2.846   3.521   2.246  0.7762 -0.0909  0.2797
 5267SOL    HW127263   2.758   3.537   2.211  2.1520  0.1231 -3.0876
 5267SOL    HW227264   2.898   3.580   2.191 -0.5263 -0.6280 -1.5631
 5268SOL     OW27265   1.573   2.775  17.104 -0.6494  0.0598 -0.0460
 5268SOL    HW127266   1.517   2.698  17.099  0.3892 -0.6413 -0.6563
 5268SOL    HW227267   1.613   2.783  17.017  1.1406  4.2974  1.1218
 5269SOL     OW27268   1.379   3.504   5.906  0.5659  0.0131  0.1130
 5269SOL    HW127269   1.291   3.482   5.937 -0.1495 -0.8630 -2.5604
 5269SOL    HW227270   1.424   3.517   5.990  0.0825  0.2267  0.3381
 5270SOL     OW27271   4.278   0.837   8.491  0.3101 -0.0096  0.2014
 5270SOL    HW127272   4.239   0.814   8.575  3.3617 -0.0570  1.6221
 5270SOL    HW227273   4.197   0.841   8.440 -0.5117 -0.0334  1.4992
 5271SOL     OW27274   1.865   3.516  12.734 -0.3967  0.4058  0.8544
 5271SOL    HW127275   1.887   3.508  12.826 -1.4570  0.5299  1.1177
 5271SOL    HW227276   1.916   3.595  12.714 -0.1357  0.0527  0.1141
 5272SOL     OW27277   3.670   3.159   2.373  0.4173  0.2240  0.4235
 5272SOL    HW127278   3.697   3.112   2.294  0.3812 -0.3238  0.7406
 5272SOL    HW227279   3.731   3.127   2.439 -0.5321  0.1682  1.2764
 5273SOL     OW27280   1.179   2.521   6.953  0.0157 -0.6601 -0.9504
 5273SOL    HW127281   1.153   2.606   6.918  1.7076  0.0278 -0.5159
 5273SOL    HW227282   1.129   2.507   7.033  0.1765  2.5413 -0.2943
 5274SOL     OW27283   1.014   2.645  16.161  0.7084  0.2722  0.5970
 5274SOL    HW127284   1.033   2.738  16.170 -1.0434  0.7058 -0.1557
 5274SOL    HW227285   0.927   2.658  16.125  0.0530 -3.4144  0.8290
 5275SOL     OW27286   1.558   3.670   7.702 -0.2769 -0.0923 -0.0864
 5275SOL    HW127287   1.557   3.763   7.682 -1.6133  0.8608  4.6196
 5275SOL    HW227288   1.463   3.660   7.703 -0.2736 -0.0323  0.4615
 5276SOL     OW27289   1.533   2.162   0.537 -0.0067  0.2330 -0.0828
 5276SOL    HW127290   1.456   2.127   0.492 -0.5723  1.8033 -0.3591
 5276SOL    HW227291   1.576   2.079   0.554 -1.6756 -0.4250  0.9683
 5277SOL     OW27292   2.514   0.745   5.321  0.8932  0.5028  0.2020
 5277SOL    HW127293   2.465   0.695   5.386  0.7068 -1.1104 -1.1958
 5277SOL    HW227294   2.605   0.727   5.344  0.3647  0.5238  2.2876
 5278SOL     OW27295   3.132   1.799   4.473 -0.2765  0.1917 -0.0544
 5278SOL    HW127296   3.171   1.714   4.451 -0.2567  0.1442  0.1630
 5278SOL    HW227297   3.041   1.770   4.460 -0.2426 -0.0485  0.2496
 5279SOL     OW27298   1.147   3.449   4.682  0.2248 -0.3346  0.0387
 5279SOL    HW127299   1.192   3.404   4.611  2.6978  1.4187  0.5066
 5279SOL    HW227300   1.123   3.534   4.646 -3.3092 -1.3626 -0.0362
 5280SOL     OW27301   2.019   2.908   2.437  0.0698 -0.0514 -0.1441
 5280SOL    HW127302   2.078   2.855   2.383 -0.2421  1.4009 -1.9164
 5280SOL    HW227303   2.081   2.928   2.508  0.4991  2.5326 -1.2453
 5281SOL     OW27304   2.725   0.645   7.110 -0.1604 -0.5575 -0.2330
 5281SOL    HW127305   2.701   0.727   7.154  1.6216 -1.0017  1.5372
 5281SOL    HW227306   2.781   0.605   7.176 -0.1197 -0.7527 -0.3882
 5282SOL     OW27307   1.149   0.449  14.816 -0.2740  0.4686 -0.3534
 5282SOL    HW127308   1.060   0.484  14.808 -1.0087 -0.7852  2.2673
 5282SOL    HW227309   1.143   0.354  14.828  0.7250  0.6826  1.8776
 5283SOL     OW27310   1.128   2.775   3.268  0.3103  0.0305 -0.1325
 5283SOL    HW127311   1.049   2.829   3.267 -0.2140 -0.7341 -0.1243
 5283SOL    HW227312   1.186   2.814   3.333  0.6628 -2.3460  0.9857
 5284SOL     OW27313   3.263   1.666   3.377  0.8576 -0.0484  0.1036
 5284SOL    HW127314   3.213   1.724   3.320  0.3589  0.7696  1.3619
 5284SOL    HW227315   3.278   1.595   3.315  0.0445 -1.9850  2.1246
 5285SOL     OW27316   2.818   4.617  12.758 -0.3805  0.7459 -0.4723
 5285SOL    HW127317   2.893   4.614  12.817 -2.2045  0.2102  1.8068
 5285SOL    HW227318   2.856   4.634  12.672 -1.1658 -0.1638 -1.0038
 5286SOL     OW27319   4.640   1.393  17.067 -0.4468 -0.0899 -0.5983
 5286SOL    HW127320   4.659   1.310  17.112 -3.6039  0.7666  2.3111
 5286SOL    HW227321   0.001   1.412  17.023 -0.0791 -0.0402  0.1197
 5287SOL     OW27322   1.984   3.402   7.007 -0.2947  0.1257  0.4014
 5287SOL    HW127323   1.934   3.451   6.942 -2.0285 -3.0036 -0.5888
 5287SOL    HW227324   1.935   3.417   7.088 -0.0794  1.2116  0.3343
 5288SOL     OW27325   3.777   0.437   0.530 -0.2081 -0.4294 -0.6026
 5288SOL    HW127326   3.784   0.418   0.437 -1.6060  0.2210 -0.8501
 5288SOL    HW227327   3.687   0.468   0.544 -0.2140 -0.9198  0.5393
 5289SOL     OW27328   2.582   3.409  10.254  0.0143 -0.3434 -0.4279
 5289SOL    HW127329   2.659   3.398  10.197  0.0528  1.2680 -0.6882
 5289SOL    HW227330   2.601   3.336  10.312 -0.5533  0.7602  1.1286
 5290SOL     OW27331   2.554   2.432   7.705 -0.0548  0.1541  0.1009
 5290SOL    HW127332   2.498   2.381   7.764  0.9716 -1.7546 -0.5849
 5290SOL    HW227333   2.629   2.451   7.761 -0.1004  0.9258 -0.1046
 5291SOL     OW27334   1.082   0.566   8.592 -0.0272  0.0189  0.2012
 5291SOL    HW127335   1.175   0.570   8.616  0.7547 -1.8538 -2.5095
 5291SOL    HW227336   1.057   0.650   8.554  0.3454 -0.2604 -0.6700
 5292SOL     OW27337   0.262   2.219  16.203  0.0030  0.0839 -0.6314
 5292SOL    HW127338   0.221   2.221  16.289 -0.0029 -1.4667 -0.5970
 5292SOL    HW227339   0.309   2.136  16.212 -0.3758  0.0652  1.1300
 5293SOL     OW27340   3.324   4.056   0.661  0.4216 -0.5242 -0.8897
 5293SOL    HW127341   3.332   4.006   0.742 -0.8855  1.3672  0.4054
 5293SOL    HW227342   3.248   4.111   0.677 -0.4952 -1.8827 -0.6261
 5294SOL     OW27343   3.087   4.067   7.750  0.8140  0.1483  0.8310
 5294SOL    HW127344   3.042   4.031   7.826 -0.6911  0.5056  0.0961
 5294SOL    HW227345   3.126   3.984   7.723 -2.0210 -0.9686  0.2584
 5295SOL     OW27346   4.090   1.691   4.865  0.5862  0.2016  0.4389
 5295SOL    HW127347   4.046   1.663   4.785  1.3090 -2.3511  0.9405
 5295SOL    HW227348   4.176   1.652   4.851  1.1253  0.7175  2.2249
 5296SOL     OW27349   4.321   3.462   6.310  0.4015  0.2783 -0.1883
 5296SOL    HW127350   4.401   3.410   6.305  0.1823 -0.2088  1.2410
 5296SOL    HW227351   4.338   3.538   6.255  2.1819  0.3737  0.5093
 5297SOL     OW27352   1.725   3.309  12.616  0.8380  0.3656 -0.1942
 5297SOL    HW127353   1.786   3.239  12.641  0.8238  1.5321  3.1102
 5297SOL    HW227354   1.764   3.390  12.650  1.2745 -0.0445  0.2825
 5298SOL     OW27355   0.055   3.733   7.366  0.5395 -0.5702  0.7785
 5298SOL    HW127356   0.038   3.656   7.311  0.2256  0.2316 -0.2300
 5298SOL    HW227357   4.710   3.795   7.338  2.7793  2.0225  1.1330
 5299SOL     OW27358   2.703   3.072  12.651  0.3119 -0.7068 -0.1105
 5299SOL    HW127359   2.794   3.099  12.639  0.3643 -0.7186  0.2655
 5299SOL    HW227360   2.712   3.017  12.729  1.1381  2.4838  2.0624
 5300SOL     OW27361   0.146   0.646   2.788 -0.0869 -0.0794  0.5860
 5300SOL    HW127362   0.171   0.567   2.739  1.6405  0.1111  1.1799
 5300SOL    HW227363   0.074   0.689   2.742 -0.1261  0.3576  1.0583
 5301SOL     OW27364   3.166   3.192   0.148  0.2029 -0.6095 -0.1433
 5301SOL    HW127365   3.236   3.224   0.204 -0.0384 -0.9808  0.3692
 5301SOL    HW227366   3.190   3.229   0.063 -1.4795  2.2200  0.6219
 5302SOL     OW27367   3.165   2.311   2.784 -0.1222 -0.1494  0.3131
 5302SOL    HW127368   3.164   2.275   2.695  0.8957 -2.4280  1.2193
 5302SOL    HW227369   3.206   2.396   2.767  0.7630 -0.8103 -0.8213
 5303SOL     OW27370   0.000   2.070   0.856 -0.3605  0.3708 -0.1472
 5303SOL    HW127371   4.719   2.099   0.947 -2.2275 -1.3169  0.2904
 5303SOL    HW227372   0.090   2.043   0.839  0.5091  2.9541  0.2117
 5304SOL     OW27373   1.829   4.270   3.581  0.0940 -0.2589 -0.4689
 5304SOL    HW127374   1.770   4.287   3.508 -1.7421  0.5928  1.2105
 5304SOL    HW227375   1.908   4.255   3.528 -0.4277  1.1754 -1.6461
 5305SOL     OW27376   2.936   0.252   7.497  0.1969  0.1047 -0.4566
 5305SOL    HW127377   2.942   0.293   7.410 -2.1593  0.0292 -0.6506
 5305SOL    HW227378   3.003   0.185   7.483  0.1890  0.3782 -1.8267
 5306SOL     OW27379   3.427   4.389   4.541  0.4361 -0.0759  0.4715
 5306SOL    HW127380   3.489   4.459   4.520 -0.6795  1.7652  3.2836
 5306SOL    HW227381   3.487   4.324   4.577  0.4538 -1.0638 -1.3505
 5307SOL     OW27382   1.448   2.068   6.481 -0.3460  0.0095  1.0889
 5307SOL    HW127383   1.426   1.989   6.531  1.4429  0.6177  2.8562
 5307SOL    HW227384   1.530   2.043   6.439 -1.0994 -2.4841  1.1261
 5308SOL     OW27385   1.336   2.728   2.875  0.2250  0.1298  0.0367
 5308SOL    HW127386   1.263   2.778   2.910 -0.4931 -0.2017 -1.0037
 5308SOL    HW227387   1.285   2.671   2.818  0.7571 -0.7991  0.4861
 5309SOL     OW27388   0.055   1.563  10.666  0.1859  0.7202  0.0615
 5309SOL    HW127389   0.078   1.654  10.648 -0.6251  0.8162 -0.4647
 5309SOL    HW227390   4.687   1.556  10.698  0.8461 -2.7512  1.1334
 5310SOL     OW27391   1.914   0.616  15.016 -0.5654 -0.0255 -0.3502
 5310SOL    HW127392   1.976   0.550  14.985  0.2375 -0.2456  1.6820
 5310SOL    HW227393   1.847   0.575  15.071  1.0288 -1.5842  0.4407
 5311SOL     OW27394   3.399   4.636  10.792 -0.1988 -0.3458 -0.3359
 5311SOL    HW127395   3.450   4.565  10.830  0.3958  0.7024  0.8276
 5311SOL    HW227396   3.464   4.679  10.736 -2.4017  1.8313 -1.2064
 5312SOL     OW27397   2.501   0.808   3.328  0.0221 -0.9294  0.2187
 5312SOL    HW127398   2.490   0.865   3.251 -0.8224  0.1386  1.1214
 5312SOL    HW227399   2.491   0.724   3.284 -0.4490 -1.1171  0.6816
 5313SOL     OW27400   1.826   3.147   4.670 -0.0171  0.4280 -0.1991
 5313SOL    HW127401   1.772   3.150   4.591 -0.0904 -1.2895 -0.2295
 5313SOL    HW227402   1.782   3.187   4.745  1.7981 -0.8346  1.5427
 5314SOL     OW27403   0.843   4.485   3.126  0.4320  0.0352  0.1011
 5314SOL    HW127404   0.833   4.426   3.051 -1.3889  0.9281 -0.3596
 5314SOL    HW227405   0.753   4.515   3.135  0.0258 -1.8796  2.1775
 5315SOL     OW27406   2.154   0.810  14.903  0.2507  0.5471 -0.7463
 5315SOL    HW127407   2.080   0.829  14.845  0.4671 -0.0743 -1.2240
 5315SOL    HW227408   2.117   0.819  14.991  3.6633  1.1849  0.6197
 5316SOL     OW27409   3.820   1.562   8.702  0.7207  0.2826 -0.3324
 5316SOL    HW127410   3.851   1.498   8.766 -0.8688  0.9129  1.0632
 5316SOL    HW227411   3.844   1.645   8.744 -0.3122  0.5019 -0.1823
 5317SOL     OW27412   1.092   0.365   5.371 -0.2310  0.3500 -0.3536
 5317SOL    HW127413   1.136   0.417   5.304 -1.5785 -0.0711 -1.5758
 5317SOL    HW227414   1.166   0.341   5.427 -0.7391  0.3818  0.3331
 5318SOL     OW27415   4.118   2.354   1.252 -0.2076 -0.1845 -0.1889
 5318SOL    HW127416   4.198   2.308   1.276  0.3934  0.6426 -0.5915
 5318SOL    HW227417   4.058   2.283   1.274  0.7080 -1.2969 -1.2784
 5319SOL     OW27418   2.441   0.175   1.799 -0.6612  0.0402  0.3962
 5319SOL    HW127419   2.452   0.095   1.851 -0.6951 -0.2351 -0.0229
 5319SOL    HW227420   2.395   0.231   1.862 -0.5933  1.2361 -0.6304
 5320SOL     OW27421   3.965   3.118   9.009  0.2866 -0.4738 -0.3636
 5320SOL    HW127422   3.938   3.075   9.091  0.5511 -2.2520 -1.2234
 5320SOL    HW227423   3.879   3.146   8.977  0.4376 -0.0346 -0.3929
 5321SOL     OW27424   1.383   2.879  16.307  0.3174 -0.0490 -0.6290
 5321SOL    HW127425   1.430   2.893  16.389 -0.5653 -0.0713 -0.1135
 5321SOL    HW227426   1.292   2.866  16.335 -0.1161  1.8492 -1.1342
 5322SOL     OW27427   2.641   0.861   9.294 -0.9204 -0.4772 -0.4295
 5322SOL    HW127428   2.711   0.798   9.310  1.3320  2.4803  1.4899
 5322SOL    HW227429   2.688   0.936   9.258  3.1233 -1.6375  2.5226
 5323SOL     OW27430   4.281   1.226   8.058 -0.4515 -0.5199  0.1049
 5323SOL    HW127431   4.278   1.131   8.051 -2.0362 -0.5602  1.3676
 5323SOL    HW227432   4.366   1.251   8.094  0.1259 -0.7167 -1.1342
 5324SOL     OW27433   1.871   3.142   6.156 -0.0737 -0.6958 -0.1285
 5324SOL    HW127434   1.889   3.118   6.247  2.3164  0.9601 -0.1550
 5324SOL    HW227435   1.887   3.065   6.102 -0.0198 -0.9674  0.2770
 5325SOL     OW27436   4.247   3.136   5.508  0.1977  0.5898  0.4931
 5325SOL    HW127437   4.191   3.138   5.430 -0.9009  0.4586  1.2711
 5325SOL    HW227438   4.247   3.045   5.538  0.8621 -0.0665 -1.5472
 5326SOL     OW27439   1.731   2.850  16.555 -0.1344 -0.4855 -0.1186
 5326SOL    HW127440   1.706   2.768  16.511  3.0205 -0.0953 -2.5661
 5326SOL    HW227441   1.646   2.894  16.561  1.5890  2.9351 -0.7604
 5327SOL     OW27442   2.589   4.442   8.631 -0.0116  0.0502  0.0713
 5327SOL    HW127443   2.573   4.443   8.536  0.2103  1.9383  0.0570
 5327SOL    HW227444   2.630   4.358   8.650  0.3826  0.7471  2.3103
 5328SOL     OW27445   4.143   3.128   3.528 -0.1588 -0.2942 -0.3229
 5328SOL    HW127446   4.187   3.047   3.503 -1.4523 -1.4025  0.8984
 5328SOL    HW227447   4.203   3.191   3.489  0.7229 -0.8999  0.0649
 5329SOL     OW27448   3.371   0.660   8.295 -0.0622  0.2856  0.4109
 5329SOL    HW127449   3.453   0.686   8.253 -0.6463  0.1024 -0.8467
 5329SOL    HW227450   3.404   0.635   8.382  0.4746  1.7686  0.6290
 5330SOL     OW27451   2.468   4.472   6.190 -0.6352  0.1459 -0.0511
 5330SOL    HW127452   2.506   4.462   6.102 -0.9315  0.5485 -0.2251
 5330SOL    HW227453   2.546   4.491   6.242  0.0216 -1.7278 -0.3344
 5331SOL     OW27454   2.192   3.076   1.556 -0.2755  0.6170 -0.1441
 5331SOL    HW127455   2.258   3.124   1.506 -1.1672 -1.1338 -2.9804
 5331SOL    HW227456   2.246   3.012   1.602 -0.3133 -0.4873 -1.6653
 5332SOL     OW27457   3.783   2.883   3.914  0.5953 -0.3671  0.0362
 5332SOL    HW127458   3.849   2.905   3.981 -0.5059 -0.2223  1.0716
 5332SOL    HW227459   3.765   2.790   3.928  0.5829 -0.5659 -1.3025
 5333SOL     OW27460   1.904   0.588  11.451  0.0929  0.0330 -0.9069
 5333SOL    HW127461   1.900   0.627  11.363 -0.3947  0.1700 -0.8213
 5333SOL    HW227462   1.889   0.666  11.505 -0.2074  0.4566 -1.5950
 5334SOL     OW27463   3.146   1.035   2.011 -0.5627 -0.6257  0.2942
 5334SOL    HW127464   3.089   0.987   1.952  0.5958 -0.6189 -0.8139
 5334SOL    HW227465   3.082   1.056   2.080 -2.8290 -1.5451 -1.5289
 5335SOL     OW27466   3.992   4.503   3.821  0.0821  0.0851  0.2145
 5335SOL    HW127467   3.979   4.596   3.839  1.1576  0.0222  1.3565
 5335SOL    HW227468   3.912   4.485   3.772  3.3313 -1.1181 -4.7059
 5336SOL     OW27469   1.673   3.197   1.943 -0.0399 -0.1181  0.9453
 5336SOL    HW127470   1.760   3.166   1.918  2.2157  3.5448  4.2179
 5336SOL    HW227471   1.625   3.117   1.967 -0.1312 -0.3294  0.0649
 5337SOL     OW27472   0.956   2.954  14.576  0.2470 -0.2157 -0.1906
 5337SOL    HW127473   0.880   3.011  14.570  1.4116  1.3349 -0.3800
 5337SOL    HW227474   0.907   2.874  14.558 -0.5104  0.4251 -0.9421
 5338SOL     OW27475   1.366   0.387   8.235 -0.0856 -0.5481 -0.2619
 5338SOL    HW127476   1.371   0.304   8.188 -1.7214 -1.1755  0.6379
 5338SOL    HW227477   1.271   0.392   8.247 -0.4091 -0.8194 -2.7064
 5339SOL     OW27478   1.447   0.612  16.833 -0.3806  0.1455 -0.4477
 5339SOL    HW127479   1.421   0.582  16.746 -1.8901 -3.0862  1.1016
 5339SOL    HW227480   1.496   0.690  16.809 -1.5287  0.3042 -2.2906
 5340SOL     OW27481   3.555   2.305   7.291  0.1017 -0.2982 -0.1921
 5340SOL    HW127482   3.538   2.386   7.244  0.5796 -0.2275 -0.2515
 5340SOL    HW227483   3.551   2.327   7.384  3.3523 -0.9657  0.1100
 5341SOL     OW27484   4.337   2.059   0.453  0.4237 -0.5156 -0.1947
 5341SOL    HW127485   4.253   2.031   0.416  1.1261 -0.3971 -1.8689
 5341SOL    HW227486   4.303   2.106   0.529  1.2833 -0.1714 -0.0324
 5342SOL     OW27487   3.994   3.874   3.787  0.2892 -0.2663  0.1510
 5342SOL    HW127488   3.954   3.850   3.703 -0.5363  2.0624 -0.1307
 5342SOL    HW227489   4.038   3.953   3.755 -1.0018  0.3451 -0.1408
 5343SOL     OW27490   1.350   0.334  16.157 -0.3120  0.4444  1.1029
 5343SOL    HW127491   1.443   0.312  16.161 -0.4104 -0.2025 -0.0459
 5343SOL    HW227492   1.309   0.249  16.140 -0.6643  0.3932  2.2392
 5344SOL     OW27493   2.695   4.244   9.604 -0.2719  0.5044  0.3205
 5344SOL    HW127494   2.733   4.307   9.665 -0.4054 -0.0646  0.9952
 5344SOL    HW227495   2.672   4.173   9.663 -0.1543  0.4524  0.3022
 5345SOL     OW27496   3.765   0.431   4.334 -0.1808 -0.7164  0.1624
 5345SOL    HW127497   3.847   0.427   4.384  0.1779  1.2512 -0.2359
 5345SOL    HW227498   3.788   0.512   4.287 -1.2655  1.0623  2.7103
 5346SOL     OW27499   3.505   1.829   8.674 -0.1138 -0.0539 -0.1089
 5346SOL    HW127500   3.516   1.859   8.764  0.2010 -0.7940  0.0993
 5346SOL    HW227501   3.504   1.734   8.685  2.5463  0.3734  3.7072
 5347SOL     OW27502   3.165   1.715   7.029  0.2339  0.3290  0.3528
 5347SOL    HW127503   3.245   1.718   6.976 -0.1763 -2.0075 -0.3734
 5347SOL    HW227504   3.104   1.736   6.958 -0.2087 -0.2168  0.5801
 5348SOL     OW27505   2.334   1.270   5.404  0.0197  0.2116  0.3615
 5348SOL    HW127506   2.307   1.183   5.433  0.7678 -0.7075 -1.7039
 5348SOL    HW227507   2.384   1.251   5.324 -3.1499 -3.2231 -0.7997
 5349SOL     OW27508   3.906   1.316   7.680  0.6928 -0.3839 -0.0999
 5349SOL    HW127509   3.939   1.391   7.728  0.6684 -0.8051  0.5764
 5349SOL    HW227510   3.854   1.360   7.612  3.2968  1.4826 -0.8701
 5350SOL     OW27511   0.666   3.675  16.494 -0.2720 -0.4981 -0.0318
 5350SOL    HW127512   0.722   3.672  16.417 -2.5401 -2.5019 -1.6175
 5350SOL    HW227513   0.595   3.617  16.466  0.2257 -1.6189  1.0555
 5351SOL     OW27514   4.211   0.399   1.935 -0.5871 -0.0656  0.0059
 5351SOL    HW127515   4.241   0.413   1.845  3.2996  1.6766  1.5831
 5351SOL    HW227516   4.118   0.415   1.919 -0.0758  2.4587 -0.5540
 5352SOL     OW27517   4.348   3.784   2.727 -0.5587  0.2261  0.4621
 5352SOL    HW127518   4.352   3.774   2.632  1.2220 -2.6633  0.8293
 5352SOL    HW227519   4.410   3.855   2.741 -2.0809  1.9901 -1.6242
 5353SOL     OW27520   3.067   1.289   6.252 -0.5357 -0.0008  0.0322
 5353SOL    HW127521   3.090   1.372   6.210 -2.0588  0.4293  0.0435
 5353SOL    HW227522   2.974   1.294   6.229 -0.5335  0.4465  0.1170
 5354SOL     OW27523   3.457   0.549   5.195  0.3389 -0.3847  0.1852
 5354SOL    HW127524   3.433   0.525   5.284 -1.3498 -1.2609 -0.5064
 5354SOL    HW227525   3.469   0.644   5.202 -0.1716 -0.3066  0.0075
 5355SOL     OW27526   1.683   0.967  15.819  0.3734  0.6049  0.4896
 5355SOL    HW127527   1.719   1.051  15.848  3.0167 -0.4176  0.1903
 5355SOL    HW227528   1.741   0.903  15.861  0.2971 -0.2499 -0.6936
 5356SOL     OW27529   3.578   0.950   1.702  0.3083 -0.1410  0.2798
 5356SOL    HW127530   3.511   0.984   1.762 -0.1718 -0.1383 -0.2497
 5356SOL    HW227531   3.587   1.028   1.647  1.2128  0.4558  1.2686
 5357SOL     OW27532   4.182   2.951   3.121 -0.3050 -0.2467 -0.1441
 5357SOL    HW127533   4.152   2.960   3.031 -3.6970 -0.0959  0.9664
 5357SOL    HW227534   4.103   2.977   3.170 -1.9527 -3.0051 -1.3476
 5358SOL     OW27535   1.953   1.859   5.628 -0.0931 -0.4262 -0.1155
 5358SOL    HW127536   1.868   1.834   5.665  0.0852 -0.8217  0.0309
 5358SOL    HW227537   2.015   1.832   5.696 -0.3053  0.8087  0.5775
 5359SOL     OW27538   3.464   3.397  11.840  0.0344 -0.2855 -0.7780
 5359SOL    HW127539   3.442   3.330  11.776  0.8750 -0.6940 -0.6437
 5359SOL    HW227540   3.391   3.405  11.901  2.3816  1.4851  1.8019
 5360SOL     OW27541   3.242   3.980   5.718  0.2141 -0.0154  0.0206
 5360SOL    HW127542   3.228   4.061   5.767 -2.1977 -0.3191 -0.1579
 5360SOL    HW227543   3.332   3.987   5.686  0.3887 -2.3249 -0.0423
 5361SOL     OW27544   1.041   1.198   5.496 -0.0688 -0.6362 -0.0065
 5361SOL    HW127545   1.052   1.293   5.505 -2.1681 -0.4823  1.0609
 5361SOL    HW227546   0.961   1.181   5.547 -0.7691  1.6174 -0.3160
 5362SOL     OW27547   4.228   4.183   5.086 -0.5418 -0.2605  0.7961
 5362SOL    HW127548   4.270   4.198   5.170  2.2180  0.0003 -0.6442
 5362SOL    HW227549   4.133   4.188   5.095 -0.3613  2.6818  1.1527
 5363SOL     OW27550   2.011   1.274  11.880  0.6903 -0.2276 -0.2293
 5363SOL    HW127551   2.086   1.318  11.921  0.8534 -0.1214 -0.6470
 5363SOL    HW227552   1.977   1.208  11.940  0.4871  1.4024  1.4626
 5364SOL     OW27553   4.077   2.082  17.476 -0.2966  0.1943  0.4200
 5364SOL    HW127554   4.089   2.004  17.530 -1.6443 -1.0339 -1.0451
 5364SOL    HW227555   4.033   2.136  17.542 -2.4325 -0.9987 -0.0135
 5365SOL     OW27556   3.402   3.564   5.878  0.4575  0.6288  0.2918
 5365SOL    HW127557   3.479   3.577   5.822  0.4901  0.3497  0.2749
 5365SOL    HW227558   3.445   3.588   5.960  2.4132  0.4108 -0.6582
 5366SOL     OW27559   1.942   4.651   4.725  0.7757  0.1787 -0.0268
 5366SOL    HW127560   1.876   4.712   4.692 -0.1361 -0.4593  0.6045
 5366SOL    HW227561   1.964   4.605   4.644 -2.3805 -0.4423 -0.5176
 5367SOL     OW27562   2.618   3.380   5.821 -0.1815  0.2134 -0.4198
 5367SOL    HW127563   2.533   3.387   5.864  0.2586 -1.6288  0.7510
 5367SOL    HW227564   2.650   3.470   5.834  2.1798 -1.0672  2.7083
 5368SOL     OW27565   2.911   0.068   5.439 -0.5798  0.3180 -0.7416
 5368SOL    HW127566   2.835   0.036   5.391 -0.7665  1.1016 -0.9737
 5368SOL    HW227567   2.939   4.704   5.471  1.9590  1.2381 -0.4419
 5369SOL     OW27568   3.796   3.121   5.910 -0.9749 -0.1435 -0.3449
 5369SOL    HW127569   3.776   3.175   5.833  0.2028  0.8662  0.0583
 5369SOL    HW227570   3.891   3.115   5.900 -1.3465 -0.2101 -3.7992
 5370SOL     OW27571   3.702   2.558   6.640  0.7777 -0.5262  0.3481
 5370SOL    HW127572   3.710   2.624   6.709  0.4206  1.0043 -1.0649
 5370SOL    HW227573   3.778   2.578   6.586 -0.7232  3.5771 -0.2592
 5371SOL     OW27574   2.772   4.570   6.247  0.1315  0.2583  0.2970
 5371SOL    HW127575   2.778   4.586   6.153 -3.0098 -0.9348 -0.1053
 5371SOL    HW227576   2.820   4.648   6.275  0.4402  0.5669 -1.0731
 5372SOL     OW27577   4.277   2.905   5.135  0.5796 -0.0538 -0.0665
 5372SOL    HW127578   4.315   2.970   5.195  0.2710 -1.2679  1.4483
 5372SOL    HW227579   4.283   2.820   5.179 -1.7232  0.3470  1.0287
 5373SOL     OW27580   0.938   3.386   5.107 -0.3456  0.1248  0.7314
 5373SOL    HW127581   0.990   3.419   5.033  2.8791 -0.3515  2.7879
 5373SOL    HW227582   0.852   3.422   5.085  1.3095  4.6716  1.5245
 5374SOL     OW27583   1.037   1.042   7.371 -0.3572  0.6068 -0.5885
 5374SOL    HW127584   1.087   1.042   7.452 -2.0852  0.7966  0.4660
 5374SOL    HW227585   1.099   1.079   7.307 -0.1919 -0.1115 -0.8443
 5375SOL     OW27586   4.560   4.686   6.156 -0.0632 -0.2556  0.0826
 5375SOL    HW127587   4.494   0.033   6.148 -1.0634 -1.3239 -0.7729
 5375SOL    HW227588   4.573   4.661   6.065  0.1426 -0.6635  0.2262
 5376SOL     OW27589   3.809   0.082   0.240  0.4949  0.2597 -0.2464
 5376SOL    HW127590   3.760   4.722   0.249 -0.0492  0.3654 -2.3415
 5376SOL    HW227591   3.853   0.077   0.155 -0.8176  1.4569 -0.9826
 5377SOL     OW27592   3.604   1.559   1.993 -0.1114 -0.0914  0.4211
 5377SOL    HW127593   3.570   1.639   2.033  0.4529  0.8992 -1.0925
 5377SOL    HW227594   3.605   1.586   1.902 -1.7148  0.5729  0.5961
 5378SOL     OW27595   1.402   1.974  12.760 -0.1890 -0.1189 -0.2118
 5378SOL    HW127596   1.478   1.971  12.818  0.5303  0.0377 -1.1391
 5378SOL    HW227597   1.374   1.886  12.735  1.8037 -0.4821 -1.1447
 5379SOL     OW27598   2.153   3.991   3.346 -0.1961  0.5202 -0.2792
 5379SOL    HW127599   2.105   3.915   3.379 -2.4263  1.4814 -1.3197
 5379SOL    HW227600   2.213   3.956   3.280 -1.5753  0.1061 -1.2998
 5380SOL     OW27601   1.598   0.095   2.236 -0.1501  0.0237  0.1324
 5380SOL    HW127602   1.528   0.159   2.249  0.7101  1.0401 -0.1272
 5380SOL    HW227603   1.550   0.015   2.219 -2.0993  1.0263  0.8574
 5381SOL     OW27604   4.095   3.968   5.628 -0.1411 -0.0842  0.8936
 5381SOL    HW127605   4.060   4.024   5.697 -0.7883  2.1024 -1.1928
 5381SOL    HW227606   4.110   4.037   5.563  1.2606  1.2662  2.6765
 5382SOL     OW27607   3.316   2.293  15.262 -0.3487 -0.5103 -0.1220
 5382SOL    HW127608   3.283   2.239  15.333  0.7453 -0.7412  0.2195
 5382SOL    HW227609   3.280   2.251  15.184  0.4490 -0.2941 -0.6090
 5383SOL     OW27610   1.781   0.729   7.680 -0.3597 -0.3563  0.0385
 5383SOL    HW127611   1.811   0.740   7.770 -0.2116 -2.2371  0.2252
 5383SOL    HW227612   1.854   0.760   7.627 -0.7838 -0.0462 -0.3715
 5384SOL     OW27613   0.236   3.849   6.215 -0.2619 -0.3037 -0.0175
 5384SOL    HW127614   0.173   3.877   6.281  0.3388  2.3687 -0.5562
 5384SOL    HW227615   0.315   3.831   6.266 -1.5615  0.6071  2.3042
 5385SOL     OW27616   2.181   1.068   4.125 -0.3908 -0.1665 -0.5247
 5385SOL    HW127617   2.153   1.159   4.115 -1.6604 -0.5017 -0.0956
 5385SOL    HW227618   2.260   1.072   4.071 -0.5272  1.3312 -0.5925
 5386SOL     OW27619   0.795   1.072  16.485 -0.1104  0.4391 -0.0634
 5386SOL    HW127620   0.800   0.977  16.482 -0.0594  0.4428 -0.0985
 5386SOL    HW227621   0.786   1.100  16.394  2.0078  0.1196 -0.3760
 5387SOL     OW27622   0.479   0.303  14.867 -0.2018 -0.0653  0.5613
 5387SOL    HW127623   0.383   0.307  14.867 -0.2608 -1.3397 -0.3513
 5387SOL    HW227624   0.486   0.369  14.799  0.4720 -1.1061 -0.3671
 5388SOL     OW27625   1.487   3.040   3.179  0.6484  0.5923 -0.1099
 5388SOL    HW127626   1.569   3.049   3.129  0.8479 -0.5891  0.0083
 5388SOL    HW227627   1.479   3.123   3.226  0.6821  0.2637  0.4669
 5389SOL     OW27628   4.390   1.646   4.158 -0.2146 -0.1110  0.2227
 5389SOL    HW127629   4.390   1.722   4.100 -0.3238 -0.3557 -0.0965
 5389SOL    HW227630   4.453   1.674   4.225  2.3027  1.1927 -2.6576
 5390SOL     OW27631   2.180   0.984   3.266  0.3002  0.0541  0.4188
 5390SOL    HW127632   2.140   0.973   3.179  2.1745 -0.6495 -0.3542
 5390SOL    HW227633   2.275   0.984   3.258  0.4519  1.9901  2.2219
 5391SOL     OW27634   1.538   0.390   5.365  0.0253  0.4726  0.0738
 5391SOL    HW127635   1.633   0.384   5.365 -0.1280 -2.2743 -0.4781
 5391SOL    HW227636   1.520   0.394   5.271  0.1886  0.2339  0.0325
 5392SOL     OW27637   1.483   0.495   3.832 -0.2653  0.1355  0.0025
 5392SOL    HW127638   1.420   0.515   3.762  2.6126  1.3957 -2.1983
 5392SOL    HW227639   1.499   0.402   3.817  0.1611  0.1570  0.3199
 5393SOL     OW27640   1.283   2.579   2.148 -0.8266 -0.2385 -0.4907
 5393SOL    HW127641   1.284   2.512   2.216  1.1809  0.4799  0.1780
 5393SOL    HW227642   1.365   2.623   2.169 -1.1377 -0.5428  1.3910
 5394SOL     OW27643   0.365   3.785  12.145 -0.3885  0.0543 -0.3994
 5394SOL    HW127644   0.457   3.778  12.119 -0.2889 -0.4008  0.0658
 5394SOL    HW227645   0.331   3.861  12.098  0.2969  0.0553 -0.8886
 5395SOL     OW27646   0.146   2.923  15.978  0.2986  0.1863 -0.1207
 5395SOL    HW127647   0.088   2.964  16.042 -0.5140 -0.5886 -0.3712
 5395SOL    HW227648   0.193   2.858  16.030  0.2039  0.7276  0.6415
 5396SOL     OW27649   3.719   4.222  10.853 -0.0526 -0.0637 -0.0679
 5396SOL    HW127650   3.688   4.133  10.865 -0.6946 -0.0838 -1.9273
 5396SOL    HW227651   3.811   4.198  10.840 -0.0403 -0.1777  0.2213
 5397SOL     OW27652   0.105   0.401  12.983  0.2429  0.3006 -0.3634
 5397SOL    HW127653   0.148   0.474  12.938 -3.4564  2.4467 -0.4338
 5397SOL    HW227654   0.107   0.340  12.909 -2.6815  2.0037 -1.8374
 5398SOL     OW27655   0.420   4.394   6.218  0.0773 -0.3314 -0.0006
 5398SOL    HW127656   0.460   4.433   6.141  1.5786  0.6972  1.2975
 5398SOL    HW227657   0.409   4.473   6.271  0.5948  0.5607 -1.2217
 5399SOL     OW27658   4.473   0.611   4.370 -0.2258  0.2718  0.4910
 5399SOL    HW127659   4.508   0.597   4.282  0.8667  2.6713  0.5548
 5399SOL    HW227660   4.434   0.524   4.384  0.5714 -0.2511 -0.5905
 5400SOL     OW27661   1.487   2.937   8.957 -1.0375 -0.5544 -0.0191
 5400SOL    HW127662   1.411   2.889   8.923 -0.6720 -0.7280 -0.5912
 5400SOL    HW227663   1.544   2.933   8.881 -0.1249 -2.0266  0.7478
 5401SOL     OW27664   3.122   1.934  14.688  0.1726 -0.4226  0.6721
 5401SOL    HW127665   3.081   1.861  14.735  0.0687 -1.0025 -0.3172
 5401SOL    HW227666   3.056   1.962  14.625 -0.7624  0.2495  1.9567
 5402SOL     OW27667   1.902   3.277   8.908 -0.1425  0.2303  0.0921
 5402SOL    HW127668   1.907   3.338   8.981 -0.4458  1.1970 -0.7066
 5402SOL    HW227669   1.846   3.220   8.962 -0.8294  1.0426  0.2260
 5403SOL     OW27670   3.865   0.707   3.095 -0.0934  0.0396  0.6081
 5403SOL    HW127671   3.925   0.780   3.108  1.7091 -1.1311 -1.0775
 5403SOL    HW227672   3.881   0.656   3.174 -1.9107 -3.1590 -1.0811
 5404SOL     OW27673   2.287   2.440  13.964  0.0576  0.0098 -0.2745
 5404SOL    HW127674   2.352   2.511  13.970  0.1596 -0.2556  1.5097
 5404SOL    HW227675   2.300   2.414  13.873  2.0562  0.0145  0.0049
 5405SOL     OW27676   2.921   2.188   1.402  0.1041  0.1292  0.0326
 5405SOL    HW127677   2.957   2.230   1.324 -1.2991  1.7619  0.2729
 5405SOL    HW227678   2.839   2.157   1.363  0.2679  0.9893 -0.9763
 5406SOL     OW27679   4.713   1.209  11.253 -0.2064 -0.5066  0.0867
 5406SOL    HW127680   0.012   1.291  11.209 -0.8100 -0.6867 -0.5344
 5406SOL    HW227681   4.626   1.195  11.216 -1.0586  0.4434  1.7401
 5407SOL     OW27682   1.997   0.697   8.080  0.0183 -0.5367  0.5819
 5407SOL    HW127683   1.959   0.756   8.015  0.4303  0.9793  1.7367
 5407SOL    HW227684   2.085   0.683   8.045 -0.1502 -0.0890 -0.0272
 5408SOL     OW27685   4.363   1.377   4.370 -0.4897  0.5354  0.2309
 5408SOL    HW127686   4.379   1.435   4.444 -2.7986 -0.1835  1.2825
 5408SOL    HW227687   4.319   1.445   4.319  1.5745  0.2075 -2.0040
 5409SOL     OW27688   3.791   1.016   3.633 -0.2530 -0.0288 -0.1958
 5409SOL    HW127689   3.768   1.108   3.642 -0.6333 -0.1646  0.2344
 5409SOL    HW227690   3.885   1.031   3.637 -0.6756  2.1999  1.0934
 5410SOL     OW27691   1.814   2.353   8.706 -0.7554 -0.1260 -0.0443
 5410SOL    HW127692   1.803   2.364   8.801 -4.5923  0.8748 -0.5770
 5410SOL    HW227693   1.857   2.268   8.698 -0.0411  0.2214  0.0949
 5411SOL     OW27694   1.777   4.513  10.566  0.0426 -0.2256 -0.4258
 5411SOL    HW127695   1.858   4.464  10.553  0.6629  0.0922  2.2034
 5411SOL    HW227696   1.778   4.527  10.660 -1.5700  2.6504 -0.8046
 5412SOL     OW27697   3.207   0.005  11.521 -0.5018 -0.4041 -0.2870
 5412SOL    HW127698   3.129   0.056  11.545 -0.8144 -0.9872 -0.0752
 5412SOL    HW227699   3.249   0.063  11.457 -0.6041  0.2528  0.2327
 5413SOL     OW27700   3.462   2.302   7.740  0.0248 -0.4021 -0.2613
 5413SOL    HW127701   3.414   2.225   7.769  1.4819 -1.6154 -1.0554
 5413SOL    HW227702   3.551   2.271   7.755  0.1535  0.4616  0.7163
 5414SOL     OW27703   0.710   1.110  10.741  0.0024 -0.6263  0.7508
 5414SOL    HW127704   0.649   1.036  10.741  0.3478 -0.9022 -0.4594
 5414SOL    HW227705   0.676   1.154  10.663  1.7950 -0.3023  0.1543
 5415SOL     OW27706   2.765   4.456   7.901  0.2658  0.2255 -0.0598
 5415SOL    HW127707   2.737   4.515   7.972 -1.9007 -0.7294 -0.1126
 5415SOL    HW227708   2.842   4.419   7.945 -0.9337 -2.1240  0.0611
 5416SOL     OW27709   1.891   3.696  15.378 -0.2916 -0.0344 -0.4716
 5416SOL    HW127710   1.977   3.665  15.407 -1.3899 -1.1088  1.6552
 5416SOL    HW227711   1.906   3.790  15.392  0.7467 -0.2207 -0.3024
 5417SOL     OW27712   0.430   2.659  16.389  0.1596 -0.2409  0.4667
 5417SOL    HW127713   0.407   2.587  16.447 -0.1205  0.4953  1.2733
 5417SOL    HW227714   0.475   2.717  16.451 -0.4107  0.6215  0.0778
 5418SOL     OW27715   2.704   0.152  17.473 -0.3454 -0.6638 -0.1721
 5418SOL    HW127716   2.621   0.199  17.477 -0.0428 -0.0339 -1.3438
 5418SOL    HW227717   2.680   0.125  17.384  0.7306  3.2422 -1.6238
 5419SOL     OW27718   1.064   1.163  14.734  0.0228  0.7861 -0.4797
 5419SOL    HW127719   1.074   1.240  14.789  0.4940 -0.8908  1.7735
 5419SOL    HW227720   1.110   1.190  14.654  1.9597 -0.8767  0.0966
 5420SOL     OW27721   1.025   1.482   6.412  0.2783 -0.1016 -0.2659
 5420SOL    HW127722   1.045   1.402   6.462  2.2612  1.3796  1.2784
 5420SOL    HW227723   0.996   1.451   6.327  1.9143 -1.1186 -0.4624
 5421SOL     OW27724   3.514   3.980  16.384 -0.2393  0.0845  0.1008
 5421SOL    HW127725   3.557   3.898  16.360 -0.7566 -0.9847  2.8165
 5421SOL    HW227726   3.563   4.037  16.324  0.3668 -2.7116 -2.0567
 5422SOL     OW27727   0.999   4.332   4.659  0.5390 -0.1740  0.2610
 5422SOL    HW127728   1.084   4.364   4.690  0.6740  1.3077 -1.5820
 5422SOL    HW227729   0.948   4.408   4.685 -0.1152 -0.6724  0.4358
 5423SOL     OW27730   2.195   4.504  10.271  0.3264  0.1999  0.1487
 5423SOL    HW127731   2.180   4.411  10.256  0.9029 -0.0260  1.0264
 5423SOL    HW227732   2.187   4.540  10.182  0.5100  2.4673  1.0585
 5424SOL     OW27733   2.363   2.710   6.315  0.4772 -0.6664 -0.0387
 5424SOL    HW127734   2.409   2.744   6.238 -2.0668 -0.2519 -1.3940
 5424SOL    HW227735   2.358   2.785   6.374  0.3757 -0.7905  0.1089
 5425SOL     OW27736   2.131   1.356   9.649  0.1966  1.0651  0.1988
 5425SOL    HW127737   2.165   1.292   9.711 -0.1343 -1.0749 -1.8289
 5425SOL    HW227738   2.075   1.301   9.594 -0.4308  1.2794  0.6082
 5426SOL     OW27739   3.106   0.383   8.518 -0.0021  0.0643  0.2868
 5426SOL    HW127740   3.089   0.443   8.591 -1.2473  0.3828 -0.2569
 5426SOL    HW227741   3.198   0.365   8.535  0.0515  0.9951  0.9951
 5427SOL     OW27742   3.475   0.546   7.230  0.4634  0.2477 -0.3084
 5427SOL    HW127743   3.506   0.480   7.292 -0.4706  1.2514  1.2317
 5427SOL    HW227744   3.488   0.501   7.147 -1.0518  1.4486 -1.1876
 5428SOL     OW27745   4.542   2.100   4.193  0.0805 -0.4986  0.6286
 5428SOL    HW127746   4.563   2.059   4.277  4.4390 -1.4803 -0.9265
 5428SOL    HW227747   4.613   2.159   4.170  0.1394 -1.1348 -0.8301
 5429SOL     OW27748   2.009   4.103   5.145 -0.2018  0.2290 -0.0492
 5429SOL    HW127749   1.937   4.165   5.154 -2.1218 -1.8042 -1.3813
 5429SOL    HW227750   2.057   4.113   5.227 -2.1707  2.6507  0.8336
 5430SOL     OW27751   3.535   2.925   5.758 -0.2412  0.5780  0.2941
 5430SOL    HW127752   3.569   2.840   5.730 -0.9044  0.2295  0.5489
 5430SOL    HW227753   3.530   2.975   5.676  0.4237  2.1206  1.2052
 5431SOL     OW27754   0.558   4.333   3.920  0.1938 -0.3404 -0.0375
 5431SOL    HW127755   0.577   4.423   3.894 -3.2448  0.3206 -0.2857
 5431SOL    HW227756   0.494   4.309   3.853  1.7477 -1.9139 -0.9839
 5432SOL     OW27757   2.857   0.384  11.695  0.4983 -0.7383  0.2317
 5432SOL    HW127758   2.803   0.461  11.714  1.5773  0.1718 -0.3930
 5432SOL    HW227759   2.910   0.402  11.618 -1.1366  1.3688 -0.3925
 5433SOL     OW27760   1.734   3.416  12.335  0.3072 -0.0939 -0.0972
 5433SOL    HW127761   1.639   3.408  12.328  0.3043 -0.4083  0.2588
 5433SOL    HW227762   1.755   3.391  12.425 -0.5936  0.8116  0.3661
 5434SOL     OW27763   4.171   3.866   0.235  0.6830 -0.1519  0.1909
 5434SOL    HW127764   4.145   3.796   0.175 -0.5573  0.1140  0.4289
 5434SOL    HW227765   4.127   3.842   0.317  0.8506 -1.4516 -0.1079
 5435SOL     OW27766   1.187   0.106   2.774  0.5149 -0.5310  0.2390
 5435SOL    HW127767   1.103   0.137   2.740  1.5442  0.5549 -1.3111
 5435SOL    HW227768   1.173   0.017   2.807  0.7649  0.0922  2.0391
 5436SOL     OW27769   1.629   3.480   8.184  0.2609  1.1173  0.3827
 5436SOL    HW127770   1.624   3.551   8.119 -1.9138 -0.5218 -1.2578
 5436SOL    HW227771   1.553   3.505   8.236  0.7211  2.4845  0.3983
 5437SOL     OW27772   1.747   2.695  16.866 -0.0012  0.4700  0.4623
 5437SOL    HW127773   1.807   2.629  16.831 -1.5396  0.7438 -2.6877
 5437SOL    HW227774   1.685   2.710  16.794 -0.3940 -2.1704  0.2648
 5438SOL     OW27775   2.482   3.662   5.404 -0.0344  0.8911 -0.7134
 5438SOL    HW127776   2.486   3.567   5.415  0.0121  1.0260  0.3863
 5438SOL    HW227777   2.574   3.685   5.418  1.5948 -4.9224 -2.0475
 5439SOL     OW27778   3.699   3.210   5.035 -0.6411  0.2044 -0.4027
 5439SOL    HW127779   3.774   3.268   5.022  0.1791 -0.9854 -0.9633
 5439SOL    HW227780   3.721   3.157   4.958 -1.3959  1.3687 -1.4214
 5440SOL     OW27781   2.407   0.720   9.981 -0.1108 -0.2678 -0.6510
 5440SOL    HW127782   2.456   0.782   9.928 -1.4016  0.5805 -0.8589
 5440SOL    HW227783   2.341   0.775  10.023  0.7741  1.6841 -1.8188
 5441SOL     OW27784   0.230   0.497   3.716  0.4674  0.1981 -0.3947
 5441SOL    HW127785   0.197   0.457   3.635  1.9609  1.1879 -1.4859
 5441SOL    HW227786   0.284   0.428   3.755  1.2616 -0.1272 -2.0796
 5442SOL     OW27787   3.663   3.086  11.166  0.0329 -0.8891 -0.3886
 5442SOL    HW127788   3.611   3.149  11.215  1.1379 -0.8291  0.7073
 5442SOL    HW227789   3.601   3.014  11.161 -0.1483 -0.6272 -1.8900
 5443SOL     OW27790   4.030   3.247   8.255  0.3151 -0.3618 -0.4298
 5443SOL    HW127791   4.011   3.304   8.180  4.3925  0.6105 -0.7615
 5443SOL    HW227792   4.126   3.253   8.256  0.2445  0.6330  0.8577
 5444SOL     OW27793   0.873   0.418   5.541  0.3427 -0.4039 -0.1725
 5444SOL    HW127794   0.882   0.476   5.617  0.0685  0.5955 -0.9150
 5444SOL    HW227795   0.951   0.436   5.488 -1.6186  2.2015 -2.1723
 5445SOL     OW27796   3.356   0.654   4.818  0.0949 -0.1557  0.2346
 5445SOL    HW127797   3.438   0.690   4.849 -0.5905  0.9086  0.8224
 5445SOL    HW227798   3.326   0.723   4.758  0.1551  0.7354  1.2263
 5446SOL     OW27799   4.138   2.235   4.743 -0.2863 -0.9299 -0.0251
 5446SOL    HW127800   4.088   2.211   4.665  0.6901 -0.4818 -0.7895
 5446SOL    HW227801   4.183   2.316   4.722 -0.1270 -1.2774 -0.9972
 5447SOL     OW27802   0.610   2.000   0.667  0.3471 -0.2095 -0.2176
 5447SOL    HW127803   0.681   1.992   0.731 -1.2543 -0.6366  1.4948
 5447SOL    HW227804   0.648   2.056   0.599  0.0687  0.5298  0.2317
 5448SOL     OW27805   2.554   0.327  11.935  0.3306  0.3139  0.1429
 5448SOL    HW127806   2.647   0.306  11.942  0.4493  0.3028 -1.4455
 5448SOL    HW227807   2.531   0.254  11.878  2.5633 -0.7937  0.6962
 5449SOL     OW27808   4.604   2.848   7.252 -0.1057 -0.0958  0.3425
 5449SOL    HW127809   4.576   2.905   7.324 -0.1886  3.7063 -2.7055
 5449SOL    HW227810   4.544   2.860   7.179  0.9316 -1.3590 -0.7155
 5450SOL     OW27811   3.634   0.910   4.656 -0.4302  0.0993  0.3502
 5450SOL    HW127812   3.559   0.963   4.630  0.2917  0.9617  0.0381
 5450SOL    HW227813   3.693   0.932   4.584  0.0528 -1.2059  0.3369
 5451SOL     OW27814   3.840   2.802  14.139 -0.3560  0.0633  0.1769
 5451SOL    HW127815   3.843   2.787  14.234  1.0070  1.1272  0.3115
 5451SOL    HW227816   3.927   2.773  14.111 -0.1499  1.9528 -1.1304
 5452SOL     OW27817   4.483   4.344   8.126 -0.5165  0.4372 -0.5332
 5452SOL    HW127818   4.487   4.429   8.083 -1.1462  0.0628 -1.3348
 5452SOL    HW227819   4.571   4.313   8.105 -0.4463  0.0617  0.3105
 5453SOL     OW27820   3.810   1.637   6.901 -0.2464  0.1006  0.4170
 5453SOL    HW127821   3.813   1.623   6.995 -0.5771  2.0853  0.7090
 5453SOL    HW227822   3.899   1.665   6.880 -0.2360  0.3707  0.8256
 5454SOL     OW27823   1.975   3.258   3.492 -0.0421  0.0794 -0.4173
 5454SOL    HW127824   1.975   3.338   3.545  0.6393 -0.9197  1.0813
 5454SOL    HW227825   2.060   3.217   3.481  0.5069  0.6046  1.8872
 5455SOL     OW27826   4.576   4.275   8.684  0.5268  0.2725  0.4914
 5455SOL    HW127827   4.549   4.183   8.686 -2.9744  1.3124  0.1129
 5455SOL    HW227828   4.513   4.309   8.621  1.7575  1.3792 -0.1657
 5456SOL     OW27829   1.585   2.727   0.124 -0.2649 -0.1003  0.4515
 5456SOL    HW127830   1.513   2.666   0.139  0.2395 -1.3133 -1.9681
 5456SOL    HW227831   1.552   2.816   0.139  0.9578  0.2432  1.1175
 5457SOL     OW27832   3.033   1.652   1.952  0.1922 -0.3666  0.0898
 5457SOL    HW127833   3.050   1.638   1.859  0.0014  0.0978 -0.0151
 5457SOL    HW227834   3.060   1.743   1.956 -0.6545 -0.0359 -1.3846
 5458SOL     OW27835   0.892   3.381   2.346 -0.4974 -0.2333  0.0188
 5458SOL    HW127836   0.847   3.301   2.371 -1.0637  0.3979  0.9882
 5458SOL    HW227837   0.844   3.404   2.267 -0.0721 -0.8954 -0.4346
 5459SOL     OW27838   2.373   1.300  12.777 -0.1663 -0.0443 -0.1069
 5459SOL    HW127839   2.392   1.367  12.842 -1.3867 -0.1920  0.4001
 5459SOL    HW227840   2.316   1.355  12.724  3.0493  0.0233 -3.5557
 5460SOL     OW27841   2.912   3.495   2.844 -0.5657  0.1844 -0.2523
 5460SOL    HW127842   2.861   3.418   2.866  2.7349 -1.6097  1.2185
 5460SOL    HW227843   2.858   3.536   2.776  0.5281  0.9423 -0.6735
 5461SOL     OW27844   1.693   0.191   4.331  0.3686 -0.1995  0.0548
 5461SOL    HW127845   1.662   0.108   4.297 -1.0710 -0.1818  1.3480
 5461SOL    HW227846   1.786   0.189   4.305  0.1907 -1.7251 -0.4732
 5462SOL     OW27847   3.935   4.208  15.914 -0.2783  0.8464 -0.1116
 5462SOL    HW127848   3.847   4.239  15.890  0.1905  1.8396 -0.5462
 5462SOL    HW227849   3.911   4.142  15.979  2.8553  1.6097  1.7844
 5463SOL     OW27850   2.168   4.100   4.143  0.0577  0.5716  0.1359
 5463SOL    HW127851   2.095   4.053   4.184  1.4412 -0.4441  1.4740
 5463SOL    HW227852   2.158   4.061   4.057 -2.1191 -0.2156  0.7425
 5464SOL     OW27853   1.205   2.088   5.945 -0.0946  0.0706  0.5459
 5464SOL    HW127854   1.203   2.184   5.939 -1.5869  0.0947  1.4814
 5464SOL    HW227855   1.123   2.063   5.987  0.3094  0.9614  1.8554
 5465SOL     OW27856   1.205   2.929  10.707  0.4708 -0.6925 -0.3995
 5465SOL    HW127857   1.271   2.998  10.704 -0.1313 -0.2558 -3.2314
 5465SOL    HW227858   1.232   2.876  10.782  1.3464  1.0839  0.5440
 5466SOL     OW27859   3.788   0.530  12.054  0.4176  0.0113  0.9685
 5466SOL    HW127860   3.801   0.524  11.960 -1.4021 -3.3424  0.9245
 5466SOL    HW227861   3.780   0.625  12.054 -3.2976 -0.2745  1.0313
 5467SOL     OW27862   2.519   3.677  10.293  0.1669 -0.2779 -0.1202
 5467SOL    HW127863   2.556   3.589  10.285  0.5299 -0.2443  1.1193
 5467SOL    HW227864   2.486   3.684  10.204  0.7911  0.3114 -0.3022
 5468SOL     OW27865   0.106   2.321   3.268  0.2084 -0.6303  0.2536
 5468SOL    HW127866   0.096   2.227   3.251 -0.3578 -0.6116  0.4664
 5468SOL    HW227867   0.072   2.329   3.358 -0.4625  0.9720 -0.1402
 5469SOL     OW27868   1.420   2.642   7.372  0.1806  0.0390  0.3014
 5469SOL    HW127869   1.383   2.555   7.356 -1.6623  0.9484 -0.4060
 5469SOL    HW227870   1.480   2.651   7.297  0.2789 -0.3718  0.3314
 5470SOL     OW27871   4.521   4.296   7.024  0.0154  0.0911  0.3082
 5470SOL    HW127872   4.469   4.216   7.020  1.8080 -1.0103 -1.0342
 5470SOL    HW227873   4.605   4.277   7.065 -0.0107  0.0092  0.3233
 5471SOL     OW27874   4.276   1.014  14.788  0.2693  0.5041  0.3813
 5471SOL    HW127875   4.223   1.073  14.841  0.5061  0.0759  1.0943
 5471SOL    HW227876   4.228   0.995  14.707  1.3910  0.6478 -0.3154
 5472SOL     OW27877   4.558   0.042  13.062  0.2029  0.3991 -0.2391
 5472SOL    HW127878   4.492   0.104  13.094 -0.7239 -0.4867 -0.4167
 5472SOL    HW227879   4.637   0.083  13.096  0.4431 -0.8123  0.6670
 5473SOL     OW27880   1.483   2.367   5.168 -0.3643  0.0717 -0.0839
 5473SOL    HW127881   1.388   2.364   5.155 -0.1994 -0.0164 -1.2716
 5473SOL    HW227882   1.503   2.441   5.225 -1.7727 -0.4722  1.1018
 5474SOL     OW27883   0.485   4.698  15.687 -0.9810 -0.5659  0.1500
 5474SOL    HW127884   0.521   4.619  15.727 -1.3501 -0.2262  1.1391
 5474SOL    HW227885   0.568   0.010  15.655 -0.2817 -1.4500  1.0260
 5475SOL     OW27886   0.420   4.455  17.281  0.0331 -0.2793  0.2147
 5475SOL    HW127887   0.486   4.390  17.258  2.1096  1.1249  2.0998
 5475SOL    HW227888   0.336   4.415  17.304 -0.4495  0.5807 -0.0488
 5476SOL     OW27889   3.500   4.508   1.670  1.2090 -0.2667  0.7643
 5476SOL    HW127890   3.565   4.576   1.651 -0.1518  1.4062  2.0569
 5476SOL    HW227891   3.463   4.536   1.754 -1.3276 -0.1547 -0.3719
 5477SOL     OW27892   3.644   4.599   5.560 -0.0711  0.0546  0.1355
 5477SOL    HW127893   3.626   4.675   5.615  0.6711 -1.3599  2.3256
 5477SOL    HW227894   3.571   4.603   5.498 -0.1924 -1.4579  0.1678
 5478SOL     OW27895   1.104   2.961   2.177 -0.0923 -1.1069  0.1255
 5478SOL    HW127896   1.043   3.008   2.119  2.6161  0.8402 -1.1219
 5478SOL    HW227897   1.144   3.030   2.230  2.1589 -1.2766 -1.3754
 5479SOL     OW27898   4.345   2.381   1.960  0.0789 -0.4424 -0.0246
 5479SOL    HW127899   4.405   2.334   1.903 -1.0435 -0.7002 -0.9937
 5479SOL    HW227900   4.380   2.467   1.935 -1.3372  0.0258 -0.4302
 5480SOL     OW27901   1.028   0.509  12.691 -0.0099 -0.3286 -0.1489
 5480SOL    HW127902   0.974   0.573  12.644  1.8531  0.2643 -1.4696
 5480SOL    HW227903   1.104   0.566  12.694  0.0927 -0.5704  1.6628
 5481SOL     OW27904   2.849   3.197   2.144 -1.0694 -0.1680  0.1184
 5481SOL    HW127905   2.772   3.142   2.131 -1.8803  1.0605 -0.2310
 5481SOL    HW227906   2.808   3.279   2.119  2.8182  0.6985 -3.2222
 5482SOL     OW27907   4.413   0.518   8.374  0.2111  0.5026 -0.2465
 5482SOL    HW127908   4.371   0.532   8.289  2.0291 -0.0407 -1.2215
 5482SOL    HW227909   4.492   0.570   8.361 -0.2729  1.4200  0.4855
 5483SOL     OW27910   4.656   2.029   7.869  0.2152  0.0788 -0.4978
 5483SOL    HW127911   4.620   2.065   7.788 -0.4433  1.8532  0.6022
 5483SOL    HW227912   4.611   1.944   7.868  0.7332 -0.1918 -1.7983
 5484SOL     OW27913   0.451   0.892   4.224 -0.4179 -0.9010 -0.2552
 5484SOL    HW127914   0.492   0.920   4.306 -0.9216 -1.2472  0.1150
 5484SOL    HW227915   0.417   0.805   4.244  0.0921 -0.6894  1.5630
 5485SOL     OW27916   4.470   0.364   6.883  0.5612  0.0893  0.3820
 5485SOL    HW127917   4.476   0.418   6.805 -0.3305  1.5605  1.3118
 5485SOL    HW227918   4.472   0.276   6.846 -1.7204  0.6741 -1.1870
 5486SOL     OW27919   1.405   0.629   4.567 -0.7842  0.8676  0.1395
 5486SOL    HW127920   1.442   0.593   4.648 -0.0791  0.9915 -0.1299
 5486SOL    HW227921   1.344   0.559   4.541 -1.0284  1.1185  0.0323
 5487SOL     OW27922   3.936   3.614   6.158  0.5211 -0.1773  0.2427
 5487SOL    HW127923   3.857   3.641   6.204  0.5938  1.2269 -0.4461
 5487SOL    HW227924   3.960   3.695   6.113  0.3019 -1.1305 -1.5821
 5488SOL     OW27925   4.187   4.103   0.117 -0.2608 -0.9974 -0.3400
 5488SOL    HW127926   4.176   4.023   0.167  1.7200  0.3841  2.3051
 5488SOL    HW227927   4.243   4.065   0.049 -0.9392  0.4292 -1.7076
 5489SOL     OW27928   4.016   3.426   0.376 -0.4053 -0.2706  0.0690
 5489SOL    HW127929   4.060   3.349   0.411 -1.6817 -0.5995  0.9286
 5489SOL    HW227930   3.996   3.408   0.284  0.8829 -1.8527  0.1103
 5490SOL     OW27931   1.657   0.135   6.889 -0.1463 -0.2320  0.0319
 5490SOL    HW127932   1.712   0.086   6.950 -1.9231 -1.0758  0.9754
 5490SOL    HW227933   1.666   0.217   6.937  1.3663 -1.4539  1.8296
 5491SOL     OW27934   3.239   0.090   2.824  0.2976  0.1512  0.2125
 5491SOL    HW127935   3.284   0.035   2.760 -0.9052  0.1491 -0.6200
 5491SOL    HW227936   3.157   0.040   2.821  0.3508  0.1200 -0.5741
 5492SOL     OW27937   3.585   1.908  14.171  0.3155 -0.9003 -0.0037
 5492SOL    HW127938   3.513   1.971  14.183  3.1004  2.4442 -0.9037
 5492SOL    HW227939   3.620   1.943  14.089  1.8683 -1.0759  0.5828
 5493SOL     OW27940   1.011   3.706   5.477  0.1318 -0.1190 -0.1077
 5493SOL    HW127941   1.026   3.613   5.458  0.6963 -0.1429  0.4398
 5493SOL    HW227942   1.075   3.751   5.423 -0.3717 -0.9627 -1.3996
 5494SOL     OW27943   4.228   1.727   4.526 -0.2362 -0.0951  0.6114
 5494SOL    HW127944   4.312   1.767   4.545 -0.1907 -0.9411  2.1683
 5494SOL    HW227945   4.225   1.651   4.585 -0.5685  1.3719  2.4819
 5495SOL     OW27946   1.600   3.609   4.270  0.4137 -0.0321 -0.1557
 5495SOL    HW127947   1.591   3.693   4.224  1.5792  0.1630 -0.0313
 5495SOL    HW227948   1.673   3.572   4.221  1.1183  3.2460 -1.6210
 5496SOL     OW27949   1.791   0.152   8.346 -0.5437 -0.1217  0.1160
 5496SOL    HW127950   1.778   0.178   8.437 -2.7209  1.0431 -0.5301
 5496SOL    HW227951   1.702   0.142   8.312 -0.2440 -0.8394 -0.4543
 5497SOL     OW27952   4.468   4.220   0.264  0.3059 -0.0180  0.3332
 5497SOL    HW127953   4.481   4.195   0.355 -1.8893 -1.0635  0.3751
 5497SOL    HW227954   4.389   4.170   0.244  0.3795 -0.0942  0.2348
 5498SOL     OW27955   4.364   0.655   6.425 -0.5513 -0.0102 -0.0424
 5498SOL    HW127956   4.389   0.567   6.395 -1.5771 -0.6752  1.0480
 5498SOL    HW227957   4.278   0.647   6.466  0.6935 -1.6378  2.2506
 5499SOL     OW27958   1.716   1.118  13.973  0.4385  0.2235  0.0255
 5499SOL    HW127959   1.692   1.025  13.974  0.3430  0.2452 -1.5414
 5499SOL    HW227960   1.770   1.120  13.894 -1.1723  0.0822 -1.0808
 5500SOL     OW27961   2.306   1.355   8.841  0.3695  0.3546  0.5998
 5500SOL    HW127962   2.391   1.397   8.829  0.1540  0.7562  0.4726
 5500SOL    HW227963   2.273   1.388   8.924 -0.9529 -0.9362  0.5909
 5501SOL     OW27964   3.934   2.714  10.649  0.3276  0.1248  0.0036
 5501SOL    HW127965   3.883   2.710  10.730 -0.0537  0.2424 -0.2312
 5501SOL    HW227966   3.883   2.785  10.611  1.0961  0.7900  0.2293
 5502SOL     OW27967   2.427   4.431   9.116 -0.6894  0.2470  0.2187
 5502SOL    HW127968   2.507   4.425   9.064 -1.1257  2.7798 -0.7484
 5502SOL    HW227969   2.386   4.509   9.078 -1.9117 -0.6343 -0.2832
 5503SOL     OW27970   0.007   3.553   8.882  0.1240 -0.0314 -0.2811
 5503SOL    HW127971   4.682   3.636   8.883  2.3545  1.2070  3.1334
 5503SOL    HW227972   0.062   3.553   8.961 -0.1678 -0.9408 -0.0707
 5504SOL     OW27973   0.485   3.504  16.375  0.0162 -0.3483 -0.1934
 5504SOL    HW127974   0.403   3.554  16.381 -0.3381 -0.6267 -2.7915
 5504SOL    HW227975   0.458   3.444  16.306  0.9685  0.1122 -0.9558
 5505SOL     OW27976   2.362   2.454   6.416 -0.0659 -0.1727 -0.0502
 5505SOL    HW127977   2.370   2.493   6.503  5.8263  1.7685 -1.5129
 5505SOL    HW227978   2.354   2.530   6.359  0.7998  1.0229  1.4131
 5506SOL     OW27979   4.460   1.616   3.115 -0.2163 -0.0186 -0.2848
 5506SOL    HW127980   4.430   1.685   3.055  0.1939 -0.2097 -0.7091
 5506SOL    HW227981   4.453   1.538   3.060 -2.2447  0.1972 -0.3308
 5507SOL     OW27982   1.212   2.628   7.712  0.1890 -0.5231  0.4628
 5507SOL    HW127983   1.305   2.624   7.736  0.7224  1.3848 -1.3124
 5507SOL    HW227984   1.216   2.672   7.627 -0.2062  0.2999  0.8733
 5508SOL     OW27985   1.381   3.409   4.277  0.3277 -0.2189  0.9690
 5508SOL    HW127986   1.449   3.461   4.234 -2.1861  0.9775 -1.5648
 5508SOL    HW227987   1.348   3.356   4.205 -0.6757 -0.4143  1.5761
 5509SOL     OW27988   0.500   1.031   7.469 -0.3208  0.1452  0.0603
 5509SOL    HW127989   0.446   1.043   7.390 -1.3529 -0.4476  0.6815
 5509SOL    HW227990   0.575   0.987   7.427 -0.3155 -0.6087  0.8562
 5510SOL     OW27991   3.661   3.906   4.900  0.1600  0.4667 -0.1239
 5510SOL    HW127992   3.756   3.911   4.910  0.3152 -2.5578 -0.2710
 5510SOL    HW227993   3.660   3.824   4.850  1.0672 -0.9759  2.2326
 5511SOL     OW27994   1.641   0.477  12.740  0.3227  0.4397  0.0208
 5511SOL    HW127995   1.735   0.488  12.726  0.5560 -1.5719  0.0550
 5511SOL    HW227996   1.643   0.451  12.832  1.0821 -0.4391 -0.2396
 5512SOL     OW27997   1.414   0.741   7.224 -0.2504  0.5489 -0.5279
 5512SOL    HW127998   1.369   0.657   7.218  1.1366 -0.2412  0.2626
 5512SOL    HW227999   1.409   0.774   7.134  0.1149 -1.9561 -1.4679
 5513SOL     OW28000   3.450   2.495   8.060 -0.1258  0.0301 -0.3872
 5513SOL    HW128001   3.359   2.467   8.048 -0.4262  0.7191  0.2586
 5513SOL    HW228002   3.494   2.450   7.988 -1.4063 -0.7756 -0.6642
 5514SOL     OW28003   2.271   2.251  12.384 -0.4589 -0.1815 -0.1634
 5514SOL    HW128004   2.244   2.269  12.474 -1.7612 -2.3423 -0.1243
 5514SOL    HW228005   2.242   2.331  12.341 -2.6685 -1.1981 -0.5362
 5515SOL     OW28006   2.104   1.537   7.793  0.3285 -0.2495 -0.2695
 5515SOL    HW128007   2.146   1.585   7.721  1.1193 -1.1208 -0.3851
 5515SOL    HW228008   2.084   1.608   7.854 -1.6109 -0.6137 -0.4658
 5516SOL     OW28009   2.634   1.208  17.278 -0.2966  0.7235 -0.2753
 5516SOL    HW128010   2.680   1.288  17.250 -0.5542  0.3303 -1.8037
 5516SOL    HW228011   2.554   1.204  17.225  0.3611 -1.6399 -1.0725
 5517SOL     OW28012   2.201   0.652  14.512 -0.5193 -0.2472  0.0679
 5517SOL    HW128013   2.249   0.687  14.436 -0.9582  0.2809  0.0331
 5517SOL    HW228014   2.251   0.703  14.575 -2.2077  0.6921  0.6363
 5518SOL     OW28015   3.537   4.440  15.501  0.2591 -0.3716  0.0883
 5518SOL    HW128016   3.625   4.472  15.521 -0.8451  3.4323 -1.2954
 5518SOL    HW228017   3.485   4.490  15.564 -0.7225 -2.1448  0.6976
 5519SOL     OW28018   0.694   1.141   8.285 -0.5298 -0.2694  0.3563
 5519SOL    HW128019   0.716   1.214   8.227  0.3924 -0.1284  0.8708
 5519SOL    HW228020   0.685   1.073   8.218  0.7354 -0.7143  0.6375
 5520SOL     OW28021   2.582   4.406   8.345 -0.0212  0.6118 -0.1277
 5520SOL    HW128022   2.492   4.425   8.318 -0.5825 -3.0786 -0.8287
 5520SOL    HW228023   2.608   4.360   8.265 -3.1354 -0.3025 -0.6120
 5521SOL     OW28024   1.983   3.425  13.040  0.8707 -0.0392 -0.3068
 5521SOL    HW128025   1.968   3.340  13.082 -1.2078 -0.1025 -1.1677
 5521SOL    HW228026   2.075   3.446  13.051  0.4196  0.0746  3.1993
 5522SOL     OW28027   2.604   3.947   5.665  0.0974 -0.3308  0.6555
 5522SOL    HW128028   2.627   3.876   5.604 -0.8564 -0.3457  0.3167
 5522SOL    HW228029   2.563   3.898   5.736  0.9502  0.7676  1.8988
 5523SOL     OW28030   4.253   4.275   8.771  0.1395  0.0179  0.8163
 5523SOL    HW128031   4.257   4.195   8.719 -2.0899 -0.7274  1.7673
 5523SOL    HW228032   4.253   4.232   8.857 -0.7865  0.5309  1.0844
 5524SOL     OW28033   1.297   4.019   5.674 -0.0277  0.9408  0.1517
 5524SOL    HW128034   1.212   4.034   5.715 -0.4302 -1.4962  0.1884
 5524SOL    HW228035   1.276   4.065   5.593 -1.6550 -1.6277 -0.8868
 5525SOL     OW28036   0.151   0.465  10.304  0.4041 -0.6469  0.3398
 5525SOL    HW128037   0.116   0.534  10.247 -0.2571 -0.3716  1.0819
 5525SOL    HW228038   0.199   0.524  10.362 -1.4805  2.3016 -1.0788
 5526SOL     OW28039   3.181   1.885  14.098 -0.0298 -0.2787  0.0838
 5526SOL    HW128040   3.191   1.948  14.169 -0.9718  0.1374 -0.1480
 5526SOL    HW228041   3.099   1.911  14.055  0.1444  1.3324  0.7232
 5527SOL     OW28042   0.978   2.984   3.931  0.0932  1.1323  0.1987
 5527SOL    HW128043   0.994   3.072   3.963  0.9067  0.9162  0.3808
 5527SOL    HW228044   1.048   2.978   3.866  0.7555  1.6417  0.8704
 5528SOL     OW28045   1.039   3.487   8.808  0.0294 -0.0444 -0.0749
 5528SOL    HW128046   0.994   3.440   8.737 -1.3364 -0.5129  1.1135
 5528SOL    HW228047   1.129   3.474   8.778 -1.1537 -0.2300 -3.5916
 5529SOL     OW28048   2.042   2.992   6.665  0.5234 -0.0647  0.1276
 5529SOL    HW128049   2.090   3.025   6.741 -0.8715 -1.4457  1.6012
 5529SOL    HW228050   1.965   2.962   6.713 -1.9236  0.6903 -3.3570
 5530SOL     OW28051   3.989   1.675  14.316 -0.0775 -0.0862  0.7874
 5530SOL    HW128052   4.023   1.760  14.344  1.5514 -0.5519  0.2689
 5530SOL    HW228053   3.905   1.681  14.361  0.2807  0.5686  1.3700
 5531SOL     OW28054   2.141   1.461   4.911  0.7579  0.0034  0.3754
 5531SOL    HW128055   2.144   1.367   4.893 -1.6964  0.0881 -0.5334
 5531SOL    HW228056   2.133   1.498   4.823 -2.6186 -1.6521  0.0008
 5532SOL     OW28057   4.441   2.965   8.310 -0.3503  0.0019  0.2023
 5532SOL    HW128058   4.472   2.879   8.340  1.7781  0.4756 -0.6432
 5532SOL    HW228059   4.361   2.946   8.261 -0.2043  0.4864 -0.2238
 5533SOL     OW28060   4.635   0.574   9.978  0.3704  0.8103  0.4781
 5533SOL    HW128061   4.612   0.507  10.042  1.6285 -1.0520 -1.0272
 5533SOL    HW228062   4.693   0.621  10.037  1.4903 -0.3169  0.2666
 5534SOL     OW28063   0.184   2.149  12.077 -0.6098  0.3805 -0.2986
 5534SOL    HW128064   0.168   2.098  12.156 -1.0529  2.3217  0.8461
 5534SOL    HW228065   0.151   2.236  12.102 -0.2571  0.7941 -1.2562
 5535SOL     OW28066   4.669   4.183  10.761 -0.2469 -0.5524  0.2010
 5535SOL    HW128067   4.592   4.186  10.818 -1.0903  2.0209 -1.1137
 5535SOL    HW228068   4.666   4.274  10.733  1.2771 -0.7286 -0.4948
 5536SOL     OW28069   3.392   0.631   8.845 -0.3717 -0.1279  0.1644
 5536SOL    HW128070   3.466   0.594   8.893 -1.0021 -3.8351 -1.6657
 5536SOL    HW228071   3.324   0.587   8.897 -1.6508  0.1899 -1.2294
 5537SOL     OW28072   1.846   3.832   7.819 -0.6044  0.4560  0.4705
 5537SOL    HW128073   1.893   3.759   7.779 -1.7527  0.1703 -0.3357
 5537SOL    HW228074   1.776   3.846   7.755  1.3661 -1.0558 -1.9908
 5538SOL     OW28075   2.201   4.014   2.315 -0.0113 -0.3050  0.7150
 5538SOL    HW128076   2.281   3.992   2.268 -1.5348 -3.1381 -0.5515
 5538SOL    HW228077   2.135   3.995   2.248 -0.5540  0.3326  1.0730
 5539SOL     OW28078   0.901   3.854  13.470  0.1248  0.5595 -0.2781
 5539SOL    HW128079   0.869   3.886  13.555  0.7082  1.4226 -0.3786
 5539SOL    HW228080   0.974   3.804  13.506 -0.3868  0.2793  0.3644
 5540SOL     OW28081   1.698   0.840  13.986  0.2686 -0.1372  0.0003
 5540SOL    HW128082   1.784   0.842  14.027  0.7206  1.9458 -1.0269
 5540SOL    HW228083   1.668   0.778  14.052 -1.8165 -0.4270 -1.2209
 5541SOL     OW28084   1.756   0.381   7.696 -0.2412 -0.7542 -0.3796
 5541SOL    HW128085   1.671   0.421   7.716  1.0237  0.3508  2.7207
 5541SOL    HW228086   1.794   0.451   7.643 -0.2713  2.2503  3.5848
 5542SOL     OW28087   3.990   2.701   8.255 -0.2086 -0.2587  0.2706
 5542SOL    HW128088   4.001   2.796   8.268 -2.0404 -0.1172  0.7550
 5542SOL    HW228089   4.072   2.677   8.297 -0.4490 -0.7104  0.4810
 5543SOL     OW28090   3.426   2.530   8.994 -0.5482 -0.4848  0.8400
 5543SOL    HW128091   3.430   2.493   8.905  0.5837 -1.3877  1.2634
 5543SOL    HW228092   3.337   2.504   9.020 -1.0851  0.2869 -0.2141
 5544SOL     OW28093   0.209   3.089   5.529  0.4074  0.7035 -0.5684
 5544SOL    HW128094   0.274   3.022   5.549 -1.9148 -1.2946  0.2368
 5544SOL    HW228095   0.188   3.073   5.436 -0.0151  0.8723 -0.5043
 5545SOL     OW28096   4.714   2.844   2.187 -0.0963 -0.0408 -0.1329
 5545SOL    HW128097   4.633   2.893   2.176 -0.7359 -1.0628  0.0560
 5545SOL    HW228098   4.711   2.777   2.119 -1.0244  0.3684 -0.4880
 5546SOL     OW28099   0.167   0.871   8.257  0.2717  0.9031  0.4067
 5546SOL    HW128100   0.258   0.898   8.270  1.4838 -1.6497 -2.8489
 5546SOL    HW228101   0.143   0.820   8.334 -1.1697  0.0804 -0.5780
 5547SOL     OW28102   3.279   3.926   4.677 -0.3849 -0.1870  0.5567
 5547SOL    HW128103   3.269   3.832   4.692  1.1135 -0.0695  2.3126
 5547SOL    HW228104   3.369   3.934   4.646 -0.5895  1.1422  0.2918
 5548SOL     OW28105   1.901   0.804   4.239  0.9774  0.3195 -0.0542
 5548SOL    HW128106   1.873   0.756   4.317  0.3034  0.2736 -0.3226
 5548SOL    HW228107   1.996   0.813   4.240  0.8688  1.5797 -1.0933
 5549SOL     OW28108   0.355   4.315   3.703 -0.1410 -0.2697 -0.1464
 5549SOL    HW128109   0.369   4.278   3.616 -3.1829 -0.6654 -0.4611
 5549SOL    HW228110   0.263   4.292   3.717 -0.9668  2.0471 -1.8191
 5550SOL     OW28111   0.749   1.473   6.968  0.1320  0.0368  0.2782
 5550SOL    HW128112   0.770   1.406   7.033 -0.6622 -0.2047  0.2885
 5550SOL    HW228113   0.654   1.458   6.971  0.1066 -0.4982 -3.1533
 5551SOL     OW28114   4.096   3.595   3.788  0.3737  0.4902  0.3225
 5551SOL    HW128115   4.056   3.569   3.871  2.4205  0.9413  1.4391
 5551SOL    HW228116   4.055   3.681   3.773 -1.3609 -0.2238  0.9167
 5552SOL     OW28117   1.152   4.001   3.510  0.1857  0.1348  0.0829
 5552SOL    HW128118   1.205   4.045   3.444 -0.3373 -0.4218 -0.7055
 5552SOL    HW228119   1.201   3.919   3.500 -0.0165 -0.0145  0.3195
 5553SOL     OW28120   1.650   2.411   3.075 -0.0865 -0.2166  0.8363
 5553SOL    HW128121   1.612   2.418   2.987  0.7814 -2.0605  0.3132
 5553SOL    HW228122   1.740   2.384   3.056 -0.1358 -0.3868  0.8454
 5554SOL     OW28123   4.369   0.402   6.306  0.4940 -0.3626 -0.4683
 5554SOL    HW128124   4.363   0.463   6.232  0.2737 -0.6390 -0.6790
 5554SOL    HW228125   4.458   0.368   6.295  0.1829 -1.4993  0.6119
 5555SOL     OW28126   3.327   2.964   2.610  0.1559 -0.8828 -0.8181
 5555SOL    HW128127   3.264   2.949   2.681  0.9263 -0.8089 -0.1199
 5555SOL    HW228128   3.404   2.920   2.646  0.7102 -0.9112 -2.0639
 5556SOL     OW28129   1.737   4.224   3.054 -0.3375  0.6424 -0.0768
 5556SOL    HW128130   1.824   4.216   3.092 -0.6811 -1.6919  0.2751
 5556SOL    HW228131   1.751   4.302   3.001  0.6080  1.3131  1.1909
 5557SOL     OW28132   3.772   3.212   0.152  0.1825  0.4283  0.3199
 5557SOL    HW128133   3.774   3.166   0.235 -0.7081 -0.5451 -0.1955
 5557SOL    HW228134   3.753   3.135   0.098 -1.2134  0.6682  0.4711
 5558SOL     OW28135   4.004   4.520   7.736 -0.7112  0.2459  0.0112
 5558SOL    HW128136   3.990   4.599   7.683 -0.3869  0.7389  0.6557
 5558SOL    HW228137   4.054   4.548   7.813  1.4535 -1.0195 -0.9551
 5559SOL     OW28138   0.783   2.516  11.984  0.3580  0.1663  0.0441
 5559SOL    HW128139   0.795   2.454  12.056  1.1828  1.1133  0.7308
 5559SOL    HW228140   0.715   2.574  12.018 -0.8834 -1.2363 -0.0484
 5560SOL     OW28141   1.621   4.409   2.106  0.1014  0.3918 -0.0235
 5560SOL    HW128142   1.604   4.369   2.020  2.3228 -1.8567  0.5712
 5560SOL    HW228143   1.642   4.326   2.149 -0.1482  0.4989  0.3116
 5561SOL     OW28144   1.937   1.220   9.520  0.5829  0.4758  0.0520
 5561SOL    HW128145   1.844   1.241   9.512  0.2003 -0.4260  2.0125
 5561SOL    HW228146   1.963   1.162   9.448  1.2702 -0.7944  1.3201
 5562SOL     OW28147   0.934   0.729   0.441 -0.3279 -0.3560 -0.8738
 5562SOL    HW128148   0.940   0.795   0.372 -0.8252  1.3087  0.6579
 5562SOL    HW228149   0.840   0.734   0.453 -0.3797 -0.0761 -1.3808
 5563SOL     OW28150   4.280   3.925   3.967  0.6009  0.1586 -0.2267
 5563SOL    HW128151   4.299   4.017   3.986 -1.0307  0.3414  0.5452
 5563SOL    HW228152   4.215   3.930   3.897 -1.5917  0.2052  1.8077
 5564SOL     OW28153   3.316   3.409   3.452 -0.6861  1.2146 -0.6558
 5564SOL    HW128154   3.253   3.343   3.483  0.4179  1.3437  1.8347
 5564SOL    HW228155   3.258   3.483   3.470  0.8526  1.8987  1.3704
 5565SOL     OW28156   3.532   0.972   2.198 -0.0548  0.0572 -0.5763
 5565SOL    HW128157   3.499   1.060   2.182  0.0081  0.3425  0.9009
 5565SOL    HW228158   3.446   0.933   2.212  1.6416 -2.2692  3.1711
 5566SOL     OW28159   0.686   1.434   6.248  0.1630  0.4565 -0.3426
 5566SOL    HW128160   0.670   1.499   6.180  2.8648  2.2796  0.7888
 5566SOL    HW228161   0.674   1.482   6.330  0.7554 -0.8129  0.4905
 5567SOL     OW28162   2.957   1.913   7.190  0.2268 -0.5053  0.6427
 5567SOL    HW128163   2.977   1.967   7.113 -3.1279 -0.8177 -0.4641
 5567SOL    HW228164   2.902   1.968   7.246  1.7795  1.4877  0.2004
 5568SOL     OW28165   3.677   3.805   0.496  0.5331 -0.1171  0.4286
 5568SOL    HW128166   3.745   3.758   0.449 -0.6531  0.7069 -2.1131
 5568SOL    HW228167   3.727   3.864   0.553 -0.3729  2.7789 -1.7583
 5569SOL     OW28168   3.876   0.170   4.494  0.0504 -0.0356 -0.0047
 5569SOL    HW128169   3.906   0.166   4.585  2.7781  1.9220 -0.8315
 5569SOL    HW228170   3.926   0.099   4.452 -1.1475 -0.8558 -0.0469
 5570SOL     OW28171   0.399   3.839   7.956  0.5732 -0.0457 -0.0763
 5570SOL    HW128172   0.365   3.774   7.894 -0.9045  0.4658  0.1967
 5570SOL    HW228173   0.487   3.807   7.973  0.9488  1.6342  1.1378
 5571SOL     OW28174   1.301   0.576   5.811  0.5094  0.1024 -0.4791
 5571SOL    HW128175   1.362   0.532   5.871 -2.1191 -0.3691  1.8850
 5571SOL    HW228176   1.285   0.660   5.853  0.9950 -0.7904  1.5325
 5572SOL     OW28177   0.069   0.055   9.900  0.2676  0.4900  0.1508
 5572SOL    HW128178   0.011   0.037   9.975 -0.3370  0.0370 -0.4267
 5572SOL    HW228179   0.030   0.120   9.842 -0.5718  2.5063  2.9836
 5573SOL     OW28180   4.388   4.232   0.664 -0.4085  0.2452  0.0937
 5573SOL    HW128181   4.454   4.172   0.629 -0.4472  0.1172  0.2427
 5573SOL    HW228182   4.392   4.302   0.599  1.2795 -0.3349 -0.4227
 5574SOL     OW28183   0.407   2.730   4.690  0.1860  0.1176  0.2552
 5574SOL    HW128184   0.348   2.678   4.637 -0.0601 -0.0058  0.6483
 5574SOL    HW228185   0.421   2.671   4.764  0.6406 -1.4079 -1.0504
 5575SOL     OW28186   1.142   1.853   3.640  0.0129 -0.2853  0.7289
 5575SOL    HW128187   1.140   1.768   3.685 -0.1877 -1.7394 -2.0501
 5575SOL    HW228188   1.094   1.911   3.699 -1.2715  0.2951 -0.9109
 5576SOL     OW28189   0.286   0.353   5.314 -0.1526 -0.1828 -0.6880
 5576SOL    HW128190   0.255   0.420   5.253 -0.9558 -2.2184 -2.5311
 5576SOL    HW228191   0.361   0.323   5.264 -0.8697 -1.1054 -1.2026
 5577SOL     OW28192   0.042   4.244   7.109  0.2408  0.2097 -0.3851
 5577SOL    HW128193   0.117   4.302   7.114 -1.2569  2.1097  0.0623
 5577SOL    HW228194   0.065   4.179   7.175 -2.4167 -0.0663  0.2713
 5578SOL     OW28195   1.160   2.396   8.062  0.2001 -0.3682  0.1879
 5578SOL    HW128196   1.155   2.403   8.158  1.5551  1.1960  0.1460
 5578SOL    HW228197   1.256   2.389   8.066  0.2838  0.2177 -0.7979
 5579SOL     OW28198   1.417   0.093  10.759  0.3878  0.1648 -0.3007
 5579SOL    HW128199   1.512   0.094  10.747 -0.0143  1.9117 -3.0918
 5579SOL    HW228200   1.410   0.152  10.684 -0.0977  1.4206  0.7262
 5580SOL     OW28201   3.813   3.876   0.867 -0.8793  0.3076  0.0934
 5580SOL    HW128202   3.839   3.928   0.791 -1.2141  0.1472 -0.1288
 5580SOL    HW228203   3.767   3.949   0.910 -1.5186  0.3806 -0.6990
 5581SOL     OW28204   2.635   1.020   5.462 -0.2510 -0.1751  0.3994
 5581SOL    HW128205   2.653   0.996   5.370 -1.4252 -0.0920  0.1555
 5581SOL    HW228206   2.627   1.114   5.450 -0.0707 -0.0171  1.5386
 5582SOL     OW28207   2.664   2.315  11.627  0.1328 -0.4341 -0.5719
 5582SOL    HW128208   2.603   2.387  11.613  0.4091 -0.1612 -0.3952
 5582SOL    HW228209   2.712   2.304  11.545 -0.7870 -1.6482 -0.9352
 5583SOL     OW28210   2.765   0.037  14.722  0.2115  0.0864  0.5348
 5583SOL    HW128211   2.735   4.719  14.641 -0.4722  1.2554  0.2006
 5583SOL    HW228212   2.778   0.128  14.693  0.7771  0.3076  1.5128
 5584SOL     OW28213   2.559   3.784   3.379 -0.7139  0.1308  0.2980
 5584SOL    HW128214   2.588   3.814   3.293  0.5270 -1.5832  0.1047
 5584SOL    HW228215   2.501   3.856   3.400  1.6683  1.9264  0.7332
 5585SOL     OW28216   3.243   3.678  17.063 -0.3735  0.4042 -0.4812
 5585SOL    HW128217   3.204   3.591  17.051 -0.2076  0.1457  0.8158
 5585SOL    HW228218   3.291   3.683  16.981 -1.3720  1.3276 -1.0000
 5586SOL     OW28219   4.693   3.523   1.547  0.0575 -0.0089  0.2428
 5586SOL    HW128220   4.686   3.458   1.618  1.2910  0.4821  0.8081
 5586SOL    HW228221   4.647   3.473   1.479 -1.4496  0.5261  0.8694
 5587SOL     OW28222   2.509   3.125  12.451 -0.4115  0.5644  0.4527
 5587SOL    HW128223   2.510   3.199  12.512 -0.9429  1.8788 -1.1224
 5587SOL    HW228224   2.556   3.068  12.513  1.2581  0.3022 -1.0609
 5588SOL     OW28225   0.390   2.555   2.604 -0.6155 -0.9365  0.0253
 5588SOL    HW128226   0.377   2.604   2.523  0.2781 -1.3454 -0.3666
 5588SOL    HW228227   0.334   2.616   2.652 -1.1261 -0.2832 -1.4020
 5589SOL     OW28228   2.405   1.256   0.866 -0.0789  0.1965  0.0293
 5589SOL    HW128229   2.479   1.218   0.818 -0.6553 -1.9590  0.8489
 5589SOL    HW228230   2.443   1.336   0.902 -0.9710  0.1163  1.1330
 5590SOL     OW28231   2.002   2.331   1.599  0.1879  0.5216  0.7466
 5590SOL    HW128232   2.014   2.248   1.552  3.7049  0.8818  0.9899
 5590SOL    HW228233   2.020   2.303   1.688  2.1552  1.6399  0.7127
 5591SOL     OW28234   1.907   2.455  10.360  0.0966  0.1268  0.9560
 5591SOL    HW128235   1.905   2.391  10.289  2.7276 -0.1016  1.1099
 5591SOL    HW228236   1.841   2.516  10.328  0.3752 -0.6907 -1.1606
 5592SOL     OW28237   3.249   0.966  12.918 -0.4884  0.0194 -0.1713
 5592SOL    HW128238   3.226   0.901  12.985 -0.1775  2.0451  1.9041
 5592SOL    HW228239   3.181   1.033  12.925 -1.9171 -1.2849 -1.6130
 5593SOL     OW28240   1.304   0.985   2.805  0.3650  0.0075  0.4085
 5593SOL    HW128241   1.398   0.964   2.803  0.6741  1.4909 -0.7718
 5593SOL    HW228242   1.297   1.056   2.869  0.8479  1.7428 -1.4561
 5594SOL     OW28243   0.627   1.913   4.670 -0.7189 -0.4037 -0.0982
 5594SOL    HW128244   0.616   1.898   4.764 -4.0232 -0.6557 -0.5285
 5594SOL    HW228245   0.567   1.986   4.661  1.3984  1.3454 -0.0467
 5595SOL     OW28246   4.410   3.618   8.375  0.4061  0.5763  0.9925
 5595SOL    HW128247   4.481   3.606   8.439  0.2131 -0.3565  1.0326
 5595SOL    HW228248   4.360   3.536   8.378  0.4055  0.5190 -0.8497
 5596SOL     OW28249   2.976   4.279   2.690 -0.1477  0.9122  0.1322
 5596SOL    HW128250   3.067   4.254   2.670 -0.6442  1.3686 -2.7468
 5596SOL    HW228251   2.948   4.298   2.600 -0.2107  3.2825  0.6611
 5597SOL     OW28252   1.767   0.941   3.348  0.1532  0.5959  0.1080
 5597SOL    HW128253   1.715   0.955   3.427  1.4190 -0.1709  1.0813
 5597SOL    HW228254   1.851   0.933   3.392 -0.2172  0.7900  0.8448
 5598SOL     OW28255   0.123   3.292  13.942 -0.5179 -0.1894 -0.1348
 5598SOL    HW128256   0.124   3.315  14.035  0.2873 -1.4448  0.1586
 5598SOL    HW228257   0.189   3.225  13.927  0.1887  0.0310  2.0814
 5599SOL     OW28258   3.675   2.737  16.997  0.1129  0.0415 -0.3324
 5599SOL    HW128259   3.628   2.811  17.035 -1.8629 -1.8604  0.9153
 5599SOL    HW228260   3.718   2.778  16.922  1.2167 -0.1504  0.1944
 5600SOL     OW28261   3.356   1.967   8.483 -0.5977  0.5841 -0.4995
 5600SOL    HW128262   3.413   1.915   8.540 -0.1889  1.0523 -0.4764
 5600SOL    HW228263   3.368   2.060   8.505 -1.4851  0.4344  0.5987
 5601SOL     OW28264   3.743   0.943  13.500  0.4895 -0.1027  0.3353
 5601SOL    HW128265   3.825   0.962  13.545  1.5240 -1.1336 -1.1181
 5601SOL    HW228266   3.760   0.867  13.444 -0.0691 -0.0302  0.0612
 5602SOL     OW28267   2.640   4.706   3.034 -0.2304 -0.0805 -0.3430
 5602SOL    HW128268   2.732   4.693   3.056  0.3001  3.4364 -0.4561
 5602SOL    HW228269   2.638   0.077   3.055 -0.2791 -0.4975  1.4575
 5603SOL     OW28270   3.427   1.053   1.015  0.2051 -0.0018 -0.5115
 5603SOL    HW128271   3.493   0.992   1.046  1.2134 -0.5004 -3.6099
 5603SOL    HW228272   3.431   1.126   1.077  0.8843  1.4407 -2.2679
 5604SOL     OW28273   2.240   0.872  14.029 -0.1083 -0.1970  0.0518
 5604SOL    HW128274   2.278   0.868  14.117 -0.9309  1.1685  0.4749
 5604SOL    HW228275   2.260   0.960  13.997  0.0387 -1.1544 -2.4831
 5605SOL     OW28276   0.197   0.221  11.465 -0.2953  0.0936  0.0389
 5605SOL    HW128277   0.281   0.189  11.498 -1.2413 -0.3367  2.0560
 5605SOL    HW228278   0.171   0.289  11.528 -3.1038 -0.4267 -0.5614
 5606SOL     OW28279   3.071   4.456   7.603  0.0977  0.2622  0.3096
 5606SOL    HW128280   2.976   4.470   7.596  0.2854 -0.3632 -3.4541
 5606SOL    HW228281   3.089   4.436   7.695  0.2436 -0.3378  0.1492
 5607SOL     OW28282   0.150   2.238   5.291  0.0067 -0.4282 -0.2622
 5607SOL    HW128283   0.104   2.156   5.310  0.5213 -1.2225 -2.4271
 5607SOL    HW228284   0.108   2.263   5.209 -0.3988 -1.1547 -0.2816
 5608SOL     OW28285   1.329   3.198   4.108 -0.1252 -0.0573  0.1357
 5608SOL    HW128286   1.377   3.151   4.040  0.5904  2.0612 -0.8435
 5608SOL    HW228287   1.320   3.129   4.173 -0.9176  0.1131  0.2048
 5609SOL     OW28288   3.619   1.525   2.320  0.0982  0.1706 -0.1069
 5609SOL    HW128289   3.662   1.544   2.237  0.3738 -0.6676 -0.1541
 5609SOL    HW228290   3.630   1.430   2.325 -2.5085 -0.1702 -0.8274
 5610SOL     OW28291   2.696   2.142   5.676 -0.8023  0.2929  0.4894
 5610SOL    HW128292   2.632   2.092   5.626  0.3474 -1.6981  1.0015
 5610SOL    HW228293   2.777   2.132   5.626 -1.1469  0.4460 -0.0884
 5611SOL     OW28294   1.932   2.107   9.499  0.2880  0.3041 -0.3229
 5611SOL    HW128295   1.994   2.089   9.427  0.0067 -1.6891 -0.0459
 5611SOL    HW228296   2.004   2.098   9.561 -1.4294 -0.7965  1.4828
 5612SOL     OW28297   0.121   4.695   6.195  0.2714 -0.0122 -0.0459
 5612SOL    HW128298   0.032   4.667   6.174  1.8529 -4.0467 -1.2776
 5612SOL    HW228299   0.170   4.691   6.113  0.4770 -0.5206  0.1038
 5613SOL     OW28300   0.855   0.885   4.534  0.2776  0.1751 -0.2409
 5613SOL    HW128301   0.907   0.810   4.562  0.9430  1.0588  0.9207
 5613SOL    HW228302   0.899   0.943   4.596 -0.2019  0.1119  0.1593
 5614SOL     OW28303   2.836   3.637   8.177 -0.5913 -0.3830 -0.1678
 5614SOL    HW128304   2.841   3.566   8.241 -0.7317  0.5721  0.9047
 5614SOL    HW228305   2.839   3.582   8.099  3.2582  1.2119 -1.1040
 5615SOL     OW28306   3.918   3.679  13.648 -0.2156  0.1170  0.2261
 5615SOL    HW128307   3.918   3.666  13.553  0.9206  0.5618  0.1625
 5615SOL    HW228308   3.857   3.752  13.649  0.9211  1.0683 -1.7256
 5616SOL     OW28309   1.381   0.858   6.964 -0.5610 -0.5513  0.2224
 5616SOL    HW128310   1.462   0.909   6.969 -0.6637 -0.4762  1.1996
 5616SOL    HW228311   1.361   0.875   6.872  1.1037 -0.0423 -0.0471
 5617SOL     OW28312   3.105   3.021  16.595 -0.0969 -0.2102  0.0071
 5617SOL    HW128313   3.089   3.113  16.579 -0.6204 -0.1948  0.6003
 5617SOL    HW228314   3.128   2.987  16.508  0.4050 -1.8067  0.7488
 5618SOL     OW28315   1.188   2.582   2.681 -0.2570 -0.5848 -0.6658
 5618SOL    HW128316   1.250   2.550   2.615  1.3511 -0.1683  0.6601
 5618SOL    HW228317   1.156   2.652   2.624 -1.0009 -2.2808 -2.3448
 5619SOL     OW28318   1.942   4.354  16.214  0.3117 -0.2520  0.1667
 5619SOL    HW128319   1.923   4.437  16.170  1.6783 -1.3928 -2.5439
 5619SOL    HW228320   2.027   4.377  16.251 -0.4494  0.0212  1.7607
 5620SOL     OW28321   3.096   3.658   7.966 -0.3990  0.3834  0.2723
 5620SOL    HW128322   3.066   3.695   8.049  2.4074 -0.2319  1.5985
 5620SOL    HW228323   3.032   3.699   7.908 -0.1799  1.8506  1.0610
 5621SOL     OW28324   1.829   2.212   6.298  0.5669 -0.4783  0.3030
 5621SOL    HW128325   1.906   2.173   6.338 -0.8309 -3.3645  0.1739
 5621SOL    HW228326   1.801   2.269   6.369  1.7524  0.4877  0.0088
 5622SOL     OW28327   2.784   2.710   2.721 -0.5483  0.2050  0.2575
 5622SOL    HW128328   2.859   2.696   2.779 -1.3295 -0.6775  1.0467
 5622SOL    HW228329   2.757   2.802   2.725 -1.8052 -0.1708  0.1952
 5623SOL     OW28330   2.104   3.908   0.906 -0.2420 -0.0183 -0.8064
 5623SOL    HW128331   2.096   3.960   0.826  0.6155 -0.1574 -0.9728
 5623SOL    HW228332   2.058   3.965   0.968 -0.7556 -0.3276 -0.9017
 5624SOL     OW28333   1.874   4.205   1.913 -0.0855 -0.7222 -0.3919
 5624SOL    HW128334   1.842   4.215   2.003  0.7741 -3.4450  0.1963
 5624SOL    HW228335   1.789   4.207   1.869 -0.2766 -3.3610 -0.1242
 5625SOL     OW28336   0.364   3.882   5.100 -0.1591 -0.3412  0.4546
 5625SOL    HW128337   0.413   3.964   5.107 -0.1098 -0.2639 -0.7622
 5625SOL    HW228338   0.360   3.880   5.004 -4.2772 -0.8799  0.6159
 5626SOL     OW28339   0.333   0.762   7.549 -0.0489 -0.3871  0.4356
 5626SOL    HW128340   0.373   0.680   7.520  2.4113  1.6347 -1.8578
 5626SOL    HW228341   0.405   0.790   7.605  0.0966  0.5006 -0.1930
 5627SOL     OW28342   2.989   4.493   2.901  0.7314 -0.0409  0.4035
 5627SOL    HW128343   2.978   4.453   2.814 -2.2183  2.5057 -0.3986
 5627SOL    HW228344   3.069   4.453   2.933  0.4593 -0.6020  0.3798
 5628SOL     OW28345   4.398   4.623   9.733 -0.0099 -0.1057  0.5109
 5628SOL    HW128346   4.401   4.672   9.815  1.2164  0.4518  0.1375
 5628SOL    HW228347   4.335   4.557   9.762  1.3790 -0.7782  2.0466
 5629SOL     OW28348   3.332   2.087   1.836  0.0262  1.0662  0.3115
 5629SOL    HW128349   3.420   2.111   1.864 -0.6951  0.7834  2.8114
 5629SOL    HW228350   3.278   2.150   1.883  0.6718  1.0327  1.1019
 5630SOL     OW28351   3.096   2.781   7.570  0.0953  0.2497 -0.1786
 5630SOL    HW128352   3.029   2.740   7.624 -2.1057  0.1501 -2.9288
 5630SOL    HW228353   3.058   2.769   7.483  0.1516 -0.8507 -0.0447
 5631SOL     OW28354   2.841   0.273  14.328 -0.4125  0.5295 -0.3367
 5631SOL    HW128355   2.831   0.255  14.422  0.9809 -2.8522 -0.8414
 5631SOL    HW228356   2.916   0.332  14.319  0.3186 -0.2754  0.4529
 5632SOL     OW28357   3.637   0.385  10.970  0.1814 -0.3063  0.1543
 5632SOL    HW128358   3.696   0.362  10.898  0.8295 -0.7129  0.8153
 5632SOL    HW228359   3.562   0.431  10.931 -0.9760 -0.9083  1.7038
 5633SOL     OW28360   0.791   4.106   8.490  0.0167 -0.4274  0.1264
 5633SOL    HW128361   0.884   4.084   8.493  0.1955  0.1071 -1.2274
 5633SOL    HW228362   0.755   4.021   8.515 -0.3438 -0.2275  0.2851
 5634SOL     OW28363   2.871   0.778   4.430  0.0976  0.1279 -0.1514
 5634SOL    HW128364   2.778   0.799   4.428 -0.3953 -2.1219 -1.2517
 5634SOL    HW228365   2.866   0.715   4.358  1.8969 -2.2686  1.8277
 5635SOL     OW28366   1.339   2.234   0.176 -0.8078  0.0979  0.8714
 5635SOL    HW128367   1.359   2.166   0.241  0.5646  0.5877  0.9674
 5635SOL    HW228368   1.333   2.307   0.238  2.6591  0.4399  0.8084
 5636SOL     OW28369   2.534   2.697   3.518  0.1558  0.1916 -0.4309
 5636SOL    HW128370   2.481   2.650   3.455  1.8230  0.6926 -2.2101
 5636SOL    HW228371   2.507   2.658   3.601 -0.3669  2.0696  0.2984
 5637SOL     OW28372   2.989   1.055   7.013  0.2685 -0.3359  0.3820
 5637SOL    HW128373   2.977   0.962   6.996 -0.3397 -0.2536  0.3777
 5637SOL    HW228374   3.084   1.055   7.001  0.4107  4.0775  1.3396
 5638SOL     OW28375   1.862   0.142   7.614 -0.2405  0.1036 -0.0463
 5638SOL    HW128376   1.909   0.165   7.694 -0.6750  0.0334  0.2291
 5638SOL    HW228377   1.825   0.229   7.595 -2.6640 -0.8322  0.3564
 5639SOL     OW28378   3.720   4.719   7.089  0.5617 -0.5052  0.1978
 5639SOL    HW128379   3.673   4.637   7.108  0.2694 -0.4757 -0.3856
 5639SOL    HW228380   3.794   4.713   7.148 -1.4480  1.0809  2.9040
 5640SOL     OW28381   4.175   0.643  12.403  0.0451 -0.0330  0.4163
 5640SOL    HW128382   4.120   0.568  12.424 -1.5382  0.9543 -0.1704
 5640SOL    HW228383   4.126   0.724  12.417 -0.7451 -0.6549  1.2122
 5641SOL     OW28384   4.635   1.184   5.952  0.2557  0.0120 -0.2278
 5641SOL    HW128385   4.588   1.102   5.937  0.6178 -0.4748  1.3507
 5641SOL    HW228386   0.003   1.155   5.938  1.7624  4.1013  0.9729
 5642SOL     OW28387   2.818   0.477   3.285 -0.7541  0.0946  0.2108
 5642SOL    HW128388   2.811   0.520   3.200 -0.9939  2.7020  1.5372
 5642SOL    HW228389   2.816   0.557   3.337 -2.5689 -0.7421  1.4353
 5643SOL     OW28390   3.279   0.273  15.532 -0.0416 -0.4674 -0.3104
 5643SOL    HW128391   3.300   0.187  15.569 -3.8742 -0.3818  2.0270
 5643SOL    HW228392   3.280   0.319  15.616  1.0055  0.9417 -1.0904
 5644SOL     OW28393   3.453   4.052   4.506  0.2221 -0.4244 -0.3033
 5644SOL    HW128394   3.482   4.118   4.443  1.6729 -0.4286  0.3563
 5644SOL    HW228395   3.456   3.973   4.453  0.2461 -2.2769  2.4943
 5645SOL     OW28396   0.375   2.206   6.581  0.2125  0.1140  0.1521
 5645SOL    HW128397   0.287   2.193   6.545  0.9080 -0.1054 -1.4969
 5645SOL    HW228398   0.433   2.163   6.517 -1.0705 -0.7091 -0.4808
 5646SOL     OW28399   4.686   2.790   4.544  0.5820 -0.5660 -0.3557
 5646SOL    HW128400   4.706   2.696   4.537 -2.4537 -1.2611  0.3365
 5646SOL    HW228401   4.685   2.824   4.455 -2.8999 -1.0820 -0.5475
 5647SOL     OW28402   2.465   4.250   9.841 -0.4911 -0.0114 -0.5031
 5647SOL    HW128403   2.407   4.276   9.913 -1.3912 -0.2697 -1.1245
 5647SOL    HW228404   2.533   4.197   9.881 -1.1463  0.0023  0.6290
 5648SOL     OW28405   1.416   3.389  11.668  0.4376 -0.0294  0.0274
 5648SOL    HW128406   1.447   3.388  11.577 -0.2341  3.7067 -0.2638
 5648SOL    HW228407   1.330   3.432  11.661 -0.0238 -0.8295  0.8692
 5649SOL     OW28408   2.136   3.243   3.852 -0.2993  0.1289 -0.0821
 5649SOL    HW128409   2.176   3.177   3.795  0.5447  0.6405 -0.0653
 5649SOL    HW228410   2.201   3.253   3.922 -0.2481  3.2858 -0.6026
 5650SOL     OW28411   2.145   2.669   6.861  0.1048  0.0563  0.0693
 5650SOL    HW128412   2.058   2.696   6.891 -0.4052  0.2776 -1.5885
 5650SOL    HW228413   2.184   2.755   6.873  0.7715 -0.0249 -1.4815
 5651SOL     OW28414   2.773   2.851   5.842  0.1081  0.2086 -0.3548
 5651SOL    HW128415   2.837   2.896   5.787 -1.1560 -0.3814 -2.3110
 5651SOL    HW228416   2.792   2.761   5.813  2.4825  1.0243 -1.3415
 5652SOL     OW28417   2.050   0.656  16.940 -0.3548 -0.0171  0.4396
 5652SOL    HW128418   1.978   0.702  16.897 -0.2552 -2.8685 -2.7679
 5652SOL    HW228419   2.093   0.732  16.979 -1.9926  0.0209  2.2275
 5653SOL     OW28420   0.731   3.137   2.172  0.1505 -0.0585 -0.4091
 5653SOL    HW128421   0.820   3.129   2.138  0.0712 -0.8729 -0.4100
 5653SOL    HW228422   0.682   3.143   2.090  1.7923 -0.3136 -1.4096
 5654SOL     OW28423   4.416   4.434   1.441 -0.1156 -0.5237 -0.6496
 5654SOL    HW128424   4.425   4.462   1.349  1.4703  1.2268  0.0380
 5654SOL    HW228425   4.339   4.377   1.439 -0.4048 -0.1873  0.7636
 5655SOL     OW28426   3.481   2.844  16.507 -0.4206 -0.2205 -0.4746
 5655SOL    HW128427   3.529   2.878  16.432 -0.1886  0.2222 -0.1296
 5655SOL    HW228428   3.395   2.827  16.470 -1.1002 -0.7851  1.3219
 5656SOL     OW28429   0.547   2.502  13.353  0.7501  0.0186 -0.2567
 5656SOL    HW128430   0.591   2.571  13.402 -0.2188  0.5153 -0.0796
 5656SOL    HW228431   0.555   2.436  13.422  1.6166  1.6730  1.2029
 5657SOL     OW28432   2.562   4.353   5.583 -0.0797 -0.1130 -0.2575
 5657SOL    HW128433   2.516   4.430   5.553  0.1669  0.0336 -0.2619
 5657SOL    HW228434   2.553   4.300   5.504 -1.8001 -0.0059 -0.1171
 5658SOL     OW28435   3.122   2.693   6.937  0.1816 -0.0531  0.5212
 5658SOL    HW128436   3.211   2.684   6.903  0.1437 -1.8514  0.9044
 5658SOL    HW228437   3.089   2.764   6.882  2.9205  1.3018  0.6603
 5659SOL     OW28438   1.134   4.355   3.492  0.4556 -0.0015 -0.2718
 5659SOL    HW128439   1.047   4.384   3.521  1.0903  0.9165  0.7158
 5659SOL    HW228440   1.171   4.371   3.579  0.3201  1.4165 -0.4739
 5660SOL     OW28441   3.197   0.380   5.635  0.3171 -0.1485 -0.1040
 5660SOL    HW128442   3.136   0.448   5.606  2.5115  2.5285  1.5389
 5660SOL    HW228443   3.131   0.315   5.659 -0.0471 -0.0215 -0.7592
 5661SOL     OW28444   4.687   2.087   0.497  0.4219  0.1676  0.7038
 5661SOL    HW128445   0.033   2.023   0.520  2.6764  2.3170 -0.0171
 5661SOL    HW228446   4.690   2.152   0.568  1.7303 -1.0028  1.7299
 5662SOL     OW28447   0.130   4.359   4.394  0.4347 -0.2235 -0.0002
 5662SOL    HW128448   0.136   4.450   4.366 -0.2437  0.3437  1.7491
 5662SOL    HW228449   0.199   4.323   4.338 -1.0820 -1.1522 -1.2664
 5663SOL     OW28450   4.015   3.164   5.311  0.3182 -0.5132 -0.1979
 5663SOL    HW128451   4.009   3.248   5.357 -0.2362 -0.1686 -0.8988
 5663SOL    HW228452   4.044   3.171   5.220  0.1262  0.4769 -0.1846
 5664SOL     OW28453   2.548   2.985   8.266 -0.4923 -0.6493 -0.3014
 5664SOL    HW128454   2.643   2.975   8.256 -0.4908 -1.5003  0.5130
 5664SOL    HW228455   2.535   2.896   8.299  1.1870  0.4187  3.1851
 5665SOL     OW28456   1.497   1.182   8.582 -0.0080  0.2004  0.1069
 5665SOL    HW128457   1.550   1.223   8.513  1.5761  0.7273  1.6320
 5665SOL    HW228458   1.567   1.156   8.642 -0.1658  1.0288  0.6558
 5666SOL     OW28459   2.087   1.834   4.783  0.4671  0.1683 -0.1804
 5666SOL    HW128460   2.082   1.785   4.701 -2.1994  1.0568 -0.5623
 5666SOL    HW228461   2.132   1.912   4.753  3.8260 -1.6963  0.0020
 5667SOL     OW28462   3.035   3.303  15.832 -0.2770 -0.8249 -0.6125
 5667SOL    HW128463   2.954   3.353  15.820  0.1362 -0.3216 -1.2649
 5667SOL    HW228464   2.996   3.215  15.835 -0.8356 -0.5822 -0.7219
 5668SOL     OW28465   0.049   1.824  10.677 -0.4764 -0.1406  0.0002
 5668SOL    HW128466   4.688   1.873  10.683 -0.5824 -0.5127  1.4499
 5668SOL    HW228467   0.083   1.897  10.625 -2.1891 -1.3598 -2.8905
 5669SOL     OW28468   1.588   3.022   3.471  0.7095  0.2782  0.1791
 5669SOL    HW128469   1.626   2.934   3.465 -2.4054 -1.0724  0.5684
 5669SOL    HW228470   1.645   3.064   3.406 -0.6192  1.2700 -0.3399
 5670SOL     OW28471   4.679   4.456   1.574 -0.0389 -0.2199  0.5405
 5670SOL    HW128472   4.588   4.473   1.551  0.4466  0.7357 -0.6232
 5670SOL    HW228473   4.713   4.533   1.529  0.4343 -0.3027  0.7482
 5671SOL     OW28474   1.086   2.910   6.036  0.3934  0.2883  0.0542
 5671SOL    HW128475   1.080   2.822   5.999 -2.7848 -0.5133  2.5411
 5671SOL    HW228476   1.042   2.941   5.957  3.2336 -1.8728 -2.3966
 5672SOL     OW28477   1.064   2.338   7.658  0.2090  0.4403 -0.1485
 5672SOL    HW128478   1.044   2.305   7.571 -0.8606  0.8433 -0.0596
 5672SOL    HW228479   1.119   2.268   7.693 -0.6956  0.0937  0.5747
 5673SOL     OW28480   1.367   2.055  16.279  0.3059  0.2649  0.3463
 5673SOL    HW128481   1.369   2.144  16.244 -0.1826  0.8458  1.7846
 5673SOL    HW228482   1.294   2.024  16.226  0.8612  3.1179 -2.0605
 5674SOL     OW28483   1.712   1.559  14.980 -0.2684 -0.1432 -0.3425
 5674SOL    HW128484   1.724   1.475  15.023  1.5694 -1.0359 -2.6021
 5674SOL    HW228485   1.748   1.550  14.892  1.3123 -1.3535  0.4407
 5675SOL     OW28486   3.393   4.085   1.829 -0.5089 -0.0720  0.4841
 5675SOL    HW128487   3.315   4.042   1.863 -1.4208 -0.9634 -2.7063
 5675SOL    HW228488   3.368   4.139   1.754  0.5769 -0.9297 -0.4868
 5676SOL     OW28489   2.368   2.220   6.159 -0.4222 -0.0605 -0.3900
 5676SOL    HW128490   2.438   2.186   6.103  1.4526  0.4436  1.6285
 5676SOL    HW228491   2.403   2.203   6.247 -1.2711  2.0890  0.3476
 5677SOL     OW28492   1.481   0.440  17.043 -0.2373 -0.4708 -0.0184
 5677SOL    HW128493   1.557   0.387  17.020 -1.5182 -1.6077 -1.6583
 5677SOL    HW228494   1.451   0.485  16.964 -3.0072 -3.0298 -0.4231
 5678SOL     OW28495   1.087   4.046   4.915 -0.1698  0.0305  0.4504
 5678SOL    HW128496   1.082   3.958   4.877  0.5636  0.2110 -0.0573
 5678SOL    HW228497   1.144   4.086   4.849 -0.0182  0.9233  1.1195
 5679SOL     OW28498   2.228   1.487   9.051  0.0255  0.1336  0.1709
 5679SOL    HW128499   2.251   1.579   9.064  0.3987 -0.0229  0.6010
 5679SOL    HW228500   2.154   1.468   9.108  2.2296 -1.4473  2.4820
 5680SOL     OW28501   4.324   3.016   6.811 -0.6096  0.6200 -0.4846
 5680SOL    HW128502   4.341   3.022   6.717  0.2087  0.8739 -0.3223
 5680SOL    HW228503   4.232   2.992   6.807 -0.8585  1.8264 -1.9166
 5681SOL     OW28504   0.638   4.373  10.403  0.4104 -0.2175  0.2361
 5681SOL    HW128505   0.610   4.419  10.323  0.4234 -0.2665  0.2035
 5681SOL    HW228506   0.656   4.449  10.458  0.3146  0.8152 -1.1490
 5682SOL     OW28507   1.455   4.543  13.452  0.5441  0.3958  0.3232
 5682SOL    HW128508   1.419   4.456  13.435  2.3864 -0.7575  2.2598
 5682SOL    HW228509   1.436   4.554  13.545 -1.2463  2.1272 -0.2596
 5683SOL     OW28510   0.281   0.574  12.841  0.4091 -0.5275 -0.3795
 5683SOL    HW128511   0.245   0.650  12.887  1.2305  0.8269 -1.9414
 5683SOL    HW228512   0.265   0.585  12.747  0.2608  0.8656 -0.1882
 5684SOL     OW28513   0.690   3.202   7.234  0.3866 -0.3246 -0.2280
 5684SOL    HW128514   0.649   3.123   7.270 -0.8830  0.8023  0.7792
 5684SOL    HW228515   0.700   3.253   7.315 -1.9777 -2.0776  1.1744
 5685SOL     OW28516   3.678   1.420   5.444  0.2401 -0.1371 -0.4984
 5685SOL    HW128517   3.756   1.379   5.480 -0.1788  0.0621  0.6537
 5685SOL    HW228518   3.667   1.367   5.366 -0.1345 -1.8616  0.7247
 5686SOL     OW28519   0.448   1.886   4.934  0.1373  0.0369  0.1762
 5686SOL    HW128520   0.363   1.862   4.970 -0.3267 -0.8289 -1.5289
 5686SOL    HW228521   0.436   1.975   4.900  0.4067  0.2182  0.5499
 5687SOL     OW28522   3.418   0.062  12.877 -0.3170  0.3266  0.3422
 5687SOL    HW128523   3.375   0.031  12.798 -0.1564  0.7243  0.0975
 5687SOL    HW228524   3.384   0.150  12.891  2.7010  1.2199  2.3205
 5688SOL     OW28525   1.748   1.755  15.167  0.0761 -0.6020  0.8010
 5688SOL    HW128526   1.721   1.745  15.258  2.0020 -0.8124  1.3435
 5688SOL    HW228527   1.744   1.669  15.125  2.0974 -0.6724  0.7734
 5689SOL     OW28528   2.062   3.444   4.973  1.4122 -0.5840  0.1560
 5689SOL    HW128529   2.104   3.359   4.987  0.1924 -1.1182  0.6033
 5689SOL    HW228530   2.132   3.483   4.921 -0.0716  1.7713 -0.0884
 5690SOL     OW28531   0.157   3.336  14.217  0.4039 -0.2216 -0.5663
 5690SOL    HW128532   0.159   3.432  14.211  2.8972 -0.2318  0.2051
 5690SOL    HW228533   0.068   3.325  14.252  0.2727  4.9697  0.7853
 5691SOL     OW28534   4.343   2.202   2.175 -0.2576  0.3132  0.1826
 5691SOL    HW128535   4.334   2.270   2.108  0.7128  1.3369  1.0886
 5691SOL    HW228536   4.438   2.197   2.178 -0.2428  0.3372 -0.3246
 5692SOL     OW28537   1.516   1.178   1.309  0.0183 -0.3265  0.4182
 5692SOL    HW128538   1.514   1.216   1.397 -1.3590  0.1073  0.1928
 5692SOL    HW228539   1.436   1.127   1.302 -1.9101  2.4859  2.2663
 5693SOL     OW28540   3.361   1.840   6.495 -0.0605  0.7515  0.3319
 5693SOL    HW128541   3.358   1.903   6.423  1.7376  0.8922  0.3914
 5693SOL    HW228542   3.269   1.839   6.524  0.0814  0.7908  0.7829
 5694SOL     OW28543   3.005   0.580   1.504 -0.9653  0.0156 -0.2610
 5694SOL    HW128544   3.089   0.535   1.513 -2.0452 -1.8040  0.8273
 5694SOL    HW228545   3.040   0.667   1.487 -0.3972 -0.0902  0.3665
 5695SOL     OW28546   2.900   2.755   2.963  0.3608 -0.2953  0.1847
 5695SOL    HW128547   2.937   2.822   3.021 -0.5924  0.4021 -0.0109
 5695SOL    HW228548   2.836   2.716   3.022 -1.5321  1.4897 -0.6998
 5696SOL     OW28549   4.219   2.876  13.782  0.0290  0.8237 -0.4476
 5696SOL    HW128550   4.199   2.871  13.689 -0.3273  0.1889 -0.3365
 5696SOL    HW228551   4.309   2.909  13.780 -0.5337  2.2031 -1.8155
 5697SOL     OW28552   3.360   4.031   7.107  0.2757 -0.0749  0.1001
 5697SOL    HW128553   3.346   4.040   7.201  1.7023 -1.6299  0.4638
 5697SOL    HW228554   3.442   3.981   7.105 -1.6311 -3.3147  2.2174
 5698SOL     OW28555   1.474   2.688   8.042  0.2522  0.1261 -0.1268
 5698SOL    HW128556   1.456   2.781   8.060  0.8474  0.4466 -1.1940
 5698SOL    HW228557   1.526   2.660   8.118  1.0289  0.5465 -0.4948
 5699SOL     OW28558   1.757   0.863  11.091  0.1554 -0.3582 -0.4604
 5699SOL    HW128559   1.738   0.835  11.001 -0.5577 -0.5258 -0.2575
 5699SOL    HW228560   1.812   0.793  11.126 -1.8651 -2.3801 -1.2684
 5700SOL     OW28561   2.035   3.837   7.254  0.2426 -0.1301  0.0733
 5700SOL    HW128562   2.000   3.925   7.247 -0.2780 -0.3534 -0.1709
 5700SOL    HW228563   2.070   3.841   7.343 -3.4215 -1.8947  1.5874
 5701SOL     OW28564   0.556   3.173   0.031 -0.9359  0.2797  0.2993
 5701SOL    HW128565   0.624   3.239   0.024 -1.8303  1.3828  1.7954
 5701SOL    HW228566   0.513   3.176  17.637  0.6012 -2.9600 -0.5690
 5702SOL     OW28567   2.863   0.567   3.040 -0.1105 -0.0143  0.1305
 5702SOL    HW128568   2.805   0.524   2.977 -0.4683 -0.6442  0.8884
 5702SOL    HW228569   2.950   0.535   3.016 -0.3172 -1.8471  1.7454
 5703SOL     OW28570   2.654   3.300   7.448  0.0115 -0.3994  0.6756
 5703SOL    HW128571   2.684   3.254   7.370  0.2814 -0.9607  1.1077
 5703SOL    HW228572   2.559   3.299   7.442  0.0388 -0.4088  0.2649
 5704SOL     OW28573   2.779   0.552   4.685 -0.0718 -0.4690 -0.3307
 5704SOL    HW128574   2.861   0.536   4.640 -0.1910  0.0709 -0.7505
 5704SOL    HW228575   2.792   0.486   4.753  0.4687  0.5479  0.5512
 5705SOL     OW28576   0.537   4.573   0.713  0.1596  0.2191  0.5449
 5705SOL    HW128577   0.485   4.493   0.704  1.8816 -0.7581 -0.7161
 5705SOL    HW228578   0.623   4.530   0.708  0.6971  1.2351  0.9315
 5706SOL     OW28579   1.662   1.442   8.711 -0.4624  0.1075  0.5938
 5706SOL    HW128580   1.580   1.465   8.754  0.7750  1.3472  2.3156
 5706SOL    HW228581   1.682   1.355   8.744  1.2478  0.2368 -0.1005
 5707SOL     OW28582   2.260   2.294   3.952  0.2334  0.0767  0.2381
 5707SOL    HW128583   2.198   2.227   3.925 -0.6137  1.2676 -0.7849
 5707SOL    HW228584   2.286   2.266   4.040  1.8419 -0.0846 -0.2947
 5708SOL     OW28585   0.494   4.608  12.194  0.3528 -0.1868 -0.8948
 5708SOL    HW128586   0.510   4.660  12.273 -0.4767 -0.5099 -0.5110
 5708SOL    HW228587   0.498   4.674  12.125  1.8092  0.5571 -0.1140
 5709SOL     OW28588   3.038   0.909   5.594  0.0763 -0.1446 -0.5289
 5709SOL    HW128589   3.024   1.004   5.591 -1.4597 -0.2499  2.9793
 5709SOL    HW228590   3.090   0.893   5.516  3.6931  2.1709  1.4286
 5710SOL     OW28591   4.527   4.045   3.897  0.2412  0.3027  0.4509
 5710SOL    HW128592   4.529   4.037   3.992 -1.6543 -0.7680  0.4002
 5710SOL    HW228593   4.615   4.026   3.866  0.0491  1.2895 -0.6993
 5711SOL     OW28594   2.104   0.181  13.638  0.1952 -0.0977  0.0174
 5711SOL    HW128595   2.036   0.120  13.611 -0.3119 -0.5436  2.3289
 5711SOL    HW228596   2.043   0.254  13.646  0.4105  0.3496 -2.1908
 5712SOL     OW28597   3.109   0.261   7.247 -0.0782  0.7343 -0.0867
 5712SOL    HW128598   3.172   0.241   7.316  0.0408  1.7939  0.1202
 5712SOL    HW228599   3.095   0.177   7.205  3.3962 -0.1809  0.5499
 5713SOL     OW28600   1.799   0.648   2.486  0.2368 -0.2149  0.0420
 5713SOL    HW128601   1.774   0.727   2.534 -1.5715 -1.1360  0.6260
 5713SOL    HW228602   1.863   0.684   2.424 -0.1681  0.3745 -0.0369
 5714SOL     OW28603   3.525   3.525   6.125  0.6429 -0.1738  0.1738
 5714SOL    HW128604   3.572   3.487   6.051 -2.2186 -2.9604 -0.2435
 5714SOL    HW228605   3.465   3.453   6.143  0.3975  0.1100  0.4919
 5715SOL     OW28606   4.607   0.474  17.327  0.2467  0.2589 -0.0564
 5715SOL    HW128607   4.694   0.440  17.306 -0.1105  0.8810 -2.5177
 5715SOL    HW228608   4.576   0.503  17.242 -1.1215 -1.8466 -0.2806
 5716SOL     OW28609   2.448   0.062  16.537  0.1927  0.0127 -0.1701
 5716SOL    HW128610   2.469   0.115  16.460  1.1128  0.1430  0.1780
 5716SOL    HW228611   2.353   0.074  16.532 -0.1836 -2.8651 -0.1022
 5717SOL     OW28612   0.179   1.680  11.203 -0.1343 -0.2256  0.5058
 5717SOL    HW128613   0.208   1.760  11.247  0.7437 -0.2813  0.0173
 5717SOL    HW228614   0.084   1.687  11.213 -0.2469  0.0977 -0.8407
 5718SOL     OW28615   1.354   3.861   8.322 -0.4867 -0.1580  0.2105
 5718SOL    HW128616   1.289   3.863   8.252  0.4317  1.5589 -0.6067
 5718SOL    HW228617   1.382   3.770   8.322 -2.2358 -0.7103 -1.2636
 5719SOL     OW28618   3.925   3.511   5.772 -0.5849  0.1269  0.8047
 5719SOL    HW128619   3.952   3.592   5.728 -2.6448 -1.0696 -2.6525
 5719SOL    HW228620   3.969   3.512   5.857  2.5520 -0.2342 -0.8160
 5720SOL     OW28621   0.241   2.133  13.629 -0.2873 -0.1394  0.1594
 5720SOL    HW128622   0.260   2.221  13.662  1.1290 -0.8029  1.1460
 5720SOL    HW228623   0.241   2.152  13.535 -1.7060  4.6334  1.1442
 5721SOL     OW28624   0.197   1.811   7.848 -0.1954 -0.5017 -0.3067
 5721SOL    HW128625   0.168   1.876   7.912 -1.9605 -0.8735 -0.7325
 5721SOL    HW228626   0.152   1.737   7.888 -1.2055  0.2924  0.0367
 5722SOL     OW28627   4.455   0.280   2.818  0.1371 -0.0950 -0.1354
 5722SOL    HW128628   4.505   0.222   2.875 -2.7816 -2.2146  0.2760
 5722SOL    HW228629   4.379   0.225   2.795 -0.0624  0.7681 -1.5471
 5723SOL     OW28630   2.149   4.400  16.488  0.4496 -0.1525 -0.0157
 5723SOL    HW128631   2.127   4.310  16.462  0.4506  0.3914 -1.9458
 5723SOL    HW228632   2.184   4.384  16.575 -0.6148 -1.7632  0.1241
 5724SOL     OW28633   0.486   3.696   8.999  0.2136  0.4353 -0.3162
 5724SOL    HW128634   0.565   3.707   9.051 -0.7317 -1.1336  1.4823
 5724SOL    HW228635   0.484   3.608   8.961 -2.2949 -0.1973  1.2653
 5725SOL     OW28636   4.346   2.150   9.346 -0.3156 -0.0121  0.0745
 5725SOL    HW128637   4.337   2.097   9.425 -2.5149  0.0453 -0.1228
 5725SOL    HW228638   4.338   2.237   9.385  1.8090 -0.5084  1.5977
 5726SOL     OW28639   3.474   1.787   0.981 -0.0240 -0.1569  0.3040
 5726SOL    HW128640   3.475   1.712   0.922 -2.9633  0.0614 -0.0201
 5726SOL    HW228641   3.478   1.865   0.926  1.3374 -1.2574 -1.1639
 5727SOL     OW28642   2.964   3.822   5.689 -0.1431 -0.4629  0.2351
 5727SOL    HW128643   2.928   3.864   5.611  3.1390  1.1174 -0.3977
 5727SOL    HW228644   2.955   3.896   5.749 -2.0728 -0.6060  0.1266
 5728SOL     OW28645   3.446   0.129   6.668  0.1394  0.0534  0.5900
 5728SOL    HW128646   3.463   0.188   6.742  3.2797 -1.0853  0.7528
 5728SOL    HW228647   3.487   0.050   6.703 -2.8070 -1.1444  1.3482
 5729SOL     OW28648   2.822   3.158  15.352  0.3007 -0.1984  0.2849
 5729SOL    HW128649   2.809   3.228  15.415 -1.1392 -0.5013  0.3174
 5729SOL    HW228650   2.915   3.138  15.366  0.2826  0.7777  1.8359
 5730SOL     OW28651   0.816   2.093  14.582 -0.3416  0.0356 -0.4744
 5730SOL    HW128652   0.747   2.111  14.646 -0.1284 -1.2595  0.1067
 5730SOL    HW228653   0.839   2.181  14.551 -0.4739  0.2649  0.0643
 5731SOL     OW28654   0.116   0.840   5.809  0.2877 -0.0885 -1.0465
 5731SOL    HW128655   0.102   0.934   5.816  1.4247  0.1559 -2.0215
 5731SOL    HW228656   0.144   0.822   5.899  0.3227  0.9311 -0.8618
 5732SOL     OW28657   2.383   1.639   2.174 -0.4627  0.5167 -0.5087
 5732SOL    HW128658   2.344   1.692   2.244 -2.3134  0.3658 -1.4583
 5732SOL    HW228659   2.315   1.572   2.174 -1.5849  1.6765 -2.2286
 5733SOL     OW28660   1.509   0.674   5.652 -0.4846 -0.4935  0.6247
 5733SOL    HW128661   1.460   0.728   5.714  0.0775 -1.2542  1.7062
 5733SOL    HW228662   1.470   0.699   5.568 -0.0943  1.5695  1.0500
 5734SOL     OW28663   1.862   1.977   7.159 -0.9997 -0.0690 -0.0461
 5734SOL    HW128664   1.868   2.026   7.077 -2.9226  0.8247  0.3616
 5734SOL    HW228665   1.952   1.980   7.193 -0.9658  0.8583 -0.2173
 5735SOL     OW28666   1.215   2.365   5.936  0.5725 -0.3400  0.4455
 5735SOL    HW128667   1.127   2.398   5.915  1.3708  0.1939 -2.0425
 5735SOL    HW228668   1.262   2.448   5.943 -1.1264  0.6183  0.6593
 5736SOL     OW28669   1.862   2.859   3.900 -0.0367  0.1168  1.0509
 5736SOL    HW128670   1.940   2.804   3.894 -0.5118 -0.4094 -0.1796
 5736SOL    HW228671   1.884   2.920   3.830 -0.0831 -1.2888 -0.1671
 5737SOL     OW28672   3.393   3.746   7.467 -0.2896  0.2891 -0.3576
 5737SOL    HW128673   3.388   3.693   7.546 -1.1127  0.3778 -0.3558
 5737SOL    HW228674   3.386   3.674   7.404  0.6611 -2.1702  2.3519
 5738SOL     OW28675   4.162   1.182   5.970 -0.1167  0.5238 -0.0093
 5738SOL    HW128676   4.134   1.128   6.043 -1.7183  1.2765 -0.0675
 5738SOL    HW228677   4.233   1.231   6.011 -0.9518  0.8588  1.0298
 5739SOL     OW28678   4.441   1.738   1.433  0.2780  0.2094 -0.3108
 5739SOL    HW128679   4.517   1.758   1.487  1.2061 -3.9334 -0.0877
 5739SOL    HW228680   4.373   1.756   1.498  1.8682 -2.1189  2.0046
 5740SOL     OW28681   0.560   0.387   6.351 -0.3354  0.4648 -0.8122
 5740SOL    HW128682   0.623   0.392   6.423 -0.5225 -0.1619 -0.6066
 5740SOL    HW228683   0.599   0.314   6.303 -1.0436 -1.3232  1.3252
 5741SOL     OW28684   3.519   2.767  11.015 -0.8781 -0.3342  0.4668
 5741SOL    HW128685   3.541   2.821  11.091  1.5738  2.3258 -2.1363
 5741SOL    HW228686   3.438   2.741  11.059 -1.0781  1.0381  0.9105
 5742SOL     OW28687   2.388   0.976   2.112 -0.3814  0.5477 -0.0765
 5742SOL    HW128688   2.473   0.966   2.070 -0.2263  0.0862  0.3418
 5742SOL    HW228689   2.342   0.904   2.067  1.0893 -0.4626  0.0183
 5743SOL     OW28690   4.286   0.604   7.871  0.2243  0.6646  0.1476
 5743SOL    HW128691   4.242   0.670   7.818 -1.2961  0.4289  1.1130
 5743SOL    HW228692   4.373   0.640   7.856  0.5886 -0.7849 -1.2886
 5744SOL     OW28693   1.282   1.329   9.438  0.6561 -0.0696 -0.5096
 5744SOL    HW128694   1.213   1.353   9.376  0.1940 -1.1292 -0.3834
 5744SOL    HW228695   1.362   1.349   9.389  0.1485  1.2499 -0.8236
 5745SOL     OW28696   3.521   1.092   8.223  0.5215 -0.1216 -0.6029
 5745SOL    HW128697   3.516   1.010   8.271 -3.2300  0.1599 -0.5317
 5745SOL    HW228698   3.499   1.058   8.136 -1.5153  0.5008 -0.3223
 5746SOL     OW28699   3.996   2.898   4.097 -0.0027 -0.3098  0.3202
 5746SOL    HW128700   3.977   2.863   4.184  0.0398  0.0570  0.4772
 5746SOL    HW228701   4.090   2.888   4.089  0.0617  0.1436  0.5153
 5747SOL     OW28702   0.368   2.350   3.215 -0.1942  0.3656  0.2775
 5747SOL    HW128703   0.290   2.349   3.271 -1.1380 -0.3270 -1.0314
 5747SOL    HW228704   0.334   2.390   3.135 -0.0686  2.1089  1.0912
 5748SOL     OW28705   2.385   0.086   9.883 -0.2336  0.3129 -0.1935
 5748SOL    HW128706   2.463   0.068   9.935  0.1351  1.4217 -0.3601
 5748SOL    HW228707   2.403   0.016   9.821 -0.2983  1.7064 -1.7909
 5749SOL     OW28708   2.047   4.273   6.102 -0.2965 -0.6272 -0.1745
 5749SOL    HW128709   2.140   4.273   6.125  0.1832  0.2385 -2.0618
 5749SOL    HW228710   2.043   4.209   6.031 -0.0199 -1.0227  0.1697
 5750SOL     OW28711   4.164   2.542   1.012 -0.2730  0.2369  0.0308
 5750SOL    HW128712   4.090   2.538   0.950 -0.4137  1.8782  0.0898
 5750SOL    HW228713   4.137   2.510   1.098 -0.3532 -0.7009 -0.3347
 5751SOL     OW28714   3.301   0.342  12.487 -0.4834 -0.2621  0.1914
 5751SOL    HW128715   3.391   0.353  12.517  0.2870  0.5090 -2.4063
 5751SOL    HW228716   3.307   0.315  12.395  2.5641 -0.2331  0.3874
 5752SOL     OW28717   0.250   3.229   0.613  0.1603 -0.7859  0.4430
 5752SOL    HW128718   0.199   3.159   0.571  0.7162 -1.0986  0.2898
 5752SOL    HW228719   0.260   3.296   0.546  1.4948 -0.6987  0.7384
 5753SOL     OW28720   2.782   2.033  10.268 -0.3265  0.5330 -0.2852
 5753SOL    HW128721   2.866   2.078  10.266 -0.1310  0.0790 -2.2258
 5753SOL    HW228722   2.806   1.957  10.321  0.6061  0.4657 -0.7976
 5754SOL     OW28723   1.775   1.060   4.161 -0.7735  0.2035  0.0326
 5754SOL    HW128724   1.831   1.079   4.236  1.0227  2.1966 -1.8316
 5754SOL    HW228725   1.759   0.966   4.172 -3.1424  0.7851  1.7271
 5755SOL     OW28726   4.710   0.367   5.651 -0.3709 -0.9271 -0.4087
 5755SOL    HW128727   4.636   0.308   5.636 -2.0923  1.8065 -2.7187
 5755SOL    HW228728   0.058   0.306   5.628 -0.0072 -1.6982  2.7569
 5756SOL     OW28729   4.479   2.667   8.775 -0.7660  0.3554  0.0669
 5756SOL    HW128730   4.448   2.582   8.807  3.1992 -1.8211 -1.9422
 5756SOL    HW228731   4.421   2.729   8.819 -1.3246  0.2235 -0.4761
 5757SOL     OW28732   2.920   1.120   8.301  0.5404 -0.2790 -0.2187
 5757SOL    HW128733   2.860   1.098   8.229 -1.0526  2.2686  0.3517
 5757SOL    HW228734   2.958   1.199   8.263  0.4860 -0.3436 -0.4093
 5758SOL     OW28735   1.262   0.406  13.289 -0.0457  0.0465 -0.5842
 5758SOL    HW128736   1.293   0.461  13.217  0.6093  0.3693 -0.0547
 5758SOL    HW228737   1.201   0.472  13.322  0.1646  0.3751 -0.8602
 5759SOL     OW28738   4.404   3.653  10.108  0.1606  0.3984  0.5468
 5759SOL    HW128739   4.487   3.689  10.138  0.0548  0.4701  0.7549
 5759SOL    HW228740   4.338   3.691  10.166 -1.5458  0.1753 -1.2446
 5760SOL     OW28741   3.590   2.374  17.326  0.1137 -0.2287  0.1149
 5760SOL    HW128742   3.645   2.424  17.266 -0.2500 -2.2869 -1.9076
 5760SOL    HW228743   3.531   2.445  17.354  1.5712  0.9143  0.3256
 5761SOL     OW28744   0.415   4.174   5.430 -0.3123  0.5790  0.0069
 5761SOL    HW128745   0.337   4.185   5.484 -0.8283 -1.3494 -0.3350
 5761SOL    HW228746   0.463   4.245   5.471  0.0127  0.4146 -0.0874
 5762SOL     OW28747   0.933   2.607  11.762  0.4408 -0.1477 -0.2229
 5762SOL    HW128748   0.914   2.701  11.762 -1.9814 -0.6395 -1.2354
 5762SOL    HW228749   0.885   2.575  11.838 -0.5680 -1.2637 -1.3426
 5763SOL     OW28750   1.607   4.319  10.493  0.1859 -0.4565  0.1800
 5763SOL    HW128751   1.660   4.281  10.422  0.2263 -0.1020  0.0200
 5763SOL    HW228752   1.667   4.388  10.522  0.0797 -0.4404  0.3539
 5764SOL     OW28753   2.730   2.419   6.272 -0.1803  0.1143  0.4716
 5764SOL    HW128754   2.693   2.493   6.224 -0.8679  0.1843  1.1125
 5764SOL    HW228755   2.752   2.352   6.208 -1.4453 -0.7438  0.9447
 5765SOL     OW28756   3.649   4.687   3.951 -0.3499 -0.4008 -0.1980
 5765SOL    HW128757   3.741   4.711   3.941 -0.5112  0.1937 -0.2830
 5765SOL    HW228758   3.611   0.028   3.889 -1.6975  0.9114  1.9709
 5766SOL     OW28759   3.586   0.026   8.158  0.4669  0.3420  0.5493
 5766SOL    HW128760   3.669   0.072   8.170  0.0554  1.6816 -1.7140
 5766SOL    HW228761   3.530   0.054   8.231  0.6838 -0.3379  0.9771
 5767SOL     OW28762   4.026   2.754   2.907 -0.0422 -0.3499  0.3322
 5767SOL    HW128763   4.000   2.738   2.816 -0.2181  0.4509  0.2413
 5767SOL    HW228764   4.110   2.794   2.885  0.8014 -0.8208  2.7141
 5768SOL     OW28765   3.904   2.198   8.288  0.4034  0.6855  0.2129
 5768SOL    HW128766   3.991   2.174   8.319 -0.0064  0.5524  1.2701
 5768SOL    HW228767   3.882   2.273   8.343 -1.1696 -0.8525  1.6962
 5769SOL     OW28768   3.934   0.755   4.644  0.2053  0.2547 -0.7737
 5769SOL    HW128769   3.849   0.796   4.627 -0.1915  0.1776  0.9872
 5769SOL    HW228770   3.913   0.669   4.608  0.3549  0.6909 -1.8913
 5770SOL     OW28771   1.335   4.021   6.217  0.1464 -0.0692 -0.2016
 5770SOL    HW128772   1.338   4.040   6.311 -3.6450 -0.9261  0.0932
 5770SOL    HW228773   1.404   3.958   6.201  0.0962  0.3679 -2.1284
 5771SOL     OW28774   3.989   1.151  12.436  0.0627  0.0508  0.8382
 5771SOL    HW128775   3.976   1.246  12.433 -2.6236 -0.3290  0.6100
 5771SOL    HW228776   4.077   1.145  12.398 -0.8864 -1.3373 -1.1046
 5772SOL     OW28777   2.484   1.221   5.179  0.5435  0.7516 -0.0551
 5772SOL    HW128778   2.452   1.149   5.124  0.4191  0.5273  0.3134
 5772SOL    HW228779   2.575   1.194   5.187  0.9168  1.3692 -2.1490
 5773SOL     OW28780   3.246   1.366   6.868  0.0453  0.3220 -0.8414
 5773SOL    HW128781   3.261   1.307   6.794  1.4457 -2.4564  1.6399
 5773SOL    HW228782   3.327   1.412   6.890 -0.3771  1.1947 -1.1091
 5774SOL     OW28783   2.081   0.308  15.040  0.2864  0.1516  0.0892
 5774SOL    HW128784   2.171   0.275  15.034  0.5381  1.1478 -1.5932
 5774SOL    HW228785   2.083   0.359  15.122 -0.1753 -2.6289  1.8397
 5775SOL     OW28786   1.722   1.012   9.103  0.3601 -0.0233 -0.2912
 5775SOL    HW128787   1.784   1.085   9.107  0.8233 -0.4553  0.3942
 5775SOL    HW228788   1.636   1.051   9.084 -0.3017 -1.7567 -0.8754
 5776SOL     OW28789   3.658   3.609   4.040  0.3955 -0.0414  0.2866
 5776SOL    HW128790   3.682   3.695   4.073  4.1902 -1.3571  0.9461
 5776SOL    HW228791   3.667   3.625   3.946  0.4585 -0.8860  0.1476
 5777SOL     OW28792   3.610   0.950   6.889 -0.0453  0.1808 -0.8233
 5777SOL    HW128793   3.541   0.884   6.891  1.0604 -0.9138  0.9557
 5777SOL    HW228794   3.658   0.926   6.968  2.2180 -1.2270 -2.6429
 5778SOL     OW28795   4.613   1.629   0.603  0.2259  0.8688  0.3489
 5778SOL    HW128796   4.623   1.559   0.668 -2.1740 -0.4467 -0.6912
 5778SOL    HW228797   4.599   1.577   0.524 -1.0913  0.4043  0.8724
 5779SOL     OW28798   0.279   0.391   4.802 -0.0490 -0.2732  0.0206
 5779SOL    HW128799   0.349   0.445   4.840 -1.3055  2.2596 -1.3514
 5779SOL    HW228800   0.206   0.443   4.834 -1.2116 -0.7296 -1.8887
 5780SOL     OW28801   3.052   0.954   0.762 -0.4924  0.4140 -0.3561
 5780SOL    HW128802   3.143   0.937   0.786  0.1681  2.9143 -1.1173
 5780SOL    HW228803   3.017   0.889   0.823 -0.8359  0.9042 -0.0347
 5781SOL     OW28804   3.627   1.198   5.914 -0.2691 -0.2347 -0.3205
 5781SOL    HW128805   3.534   1.206   5.894 -0.3558  0.9458  0.5873
 5781SOL    HW228806   3.668   1.252   5.847 -0.0794  1.8940  1.5085
 5782SOL     OW28807   2.513   0.710   0.747 -0.0606 -0.2216 -0.2429
 5782SOL    HW128808   2.559   0.759   0.816  1.5534  0.6445 -1.9382
 5782SOL    HW228809   2.433   0.762   0.753 -1.1270 -1.7243 -1.4258
 5783SOL     OW28810   1.519   0.898  10.761 -0.5933  0.1759 -0.2259
 5783SOL    HW128811   1.566   0.959  10.705 -0.0492  2.1902  2.4791
 5783SOL    HW228812   1.590   0.838  10.783 -0.9751 -0.7836 -1.5995
 5784SOL     OW28813   1.538   4.469   0.098  0.2223  0.1477 -0.1088
 5784SOL    HW128814   1.458   4.417   0.104  0.7131 -0.6588 -0.7032
 5784SOL    HW228815   1.514   4.528   0.170  2.4722 -0.4228  1.1101
 5785SOL     OW28816   2.580   0.253   0.049  0.1805  0.1049  0.2635
 5785SOL    HW128817   2.649   0.195   0.016 -0.2105 -0.2030 -0.0134
 5785SOL    HW228818   2.573   0.322  17.674  1.0617  1.2167  1.3274
 5786SOL     OW28819   2.563   0.356   1.408 -0.0222 -0.4876  0.3677
 5786SOL    HW128820   2.588   0.374   1.498 -2.8734  0.1832  1.0307
 5786SOL    HW228821   2.556   0.261   1.409  0.2702 -0.5292 -1.4406
 5787SOL     OW28822   2.342   1.915   8.270 -0.4495  0.2668 -0.2260
 5787SOL    HW128823   2.385   1.831   8.256 -3.4311 -1.2500 -0.1717
 5787SOL    HW228824   2.250   1.892   8.261 -0.2414  0.3749 -2.6516
 5788SOL     OW28825   4.325   4.378  12.581 -0.2895 -0.4645  0.3235
 5788SOL    HW128826   4.250   4.321  12.568 -1.3284  1.4448 -2.2368
 5788SOL    HW228827   4.367   4.358  12.664 -0.7716  2.0242  1.1577
 5789SOL     OW28828   2.830   4.419   2.142  0.3355  0.1860  0.3134
 5789SOL    HW128829   2.791   4.431   2.229 -0.7201 -0.6058 -0.0522
 5789SOL    HW228830   2.799   4.501   2.103  1.6382 -0.0522 -1.2097
 5790SOL     OW28831   3.315   0.870   2.327 -0.2276 -0.1244  0.1925
 5790SOL    HW128832   3.332   0.802   2.263 -2.2992  1.2477 -1.8179
 5790SOL    HW228833   3.229   0.859   2.369  0.0954 -1.3741  0.4989
 5791SOL     OW28834   4.145   0.029   6.443 -0.4534 -0.4131 -0.1867
 5791SOL    HW128835   4.142   4.676   6.384 -2.3233  0.4190 -1.1551
 5791SOL    HW228836   4.217   0.007   6.501  0.2208  1.5309 -0.2945
 5792SOL     OW28837   0.490   0.799   2.603  0.4756 -0.3696  0.1062
 5792SOL    HW128838   0.564   0.814   2.661  0.2621 -0.0967  0.3133
 5792SOL    HW228839   0.525   0.732   2.545  0.5634  1.3366 -1.8355
 5793SOL     OW28840   3.652   2.554   2.503  0.5733 -0.5090  0.2393
 5793SOL    HW128841   3.679   2.466   2.474 -0.4708 -1.4465  2.1189
 5793SOL    HW228842   3.662   2.613   2.428 -0.7217  0.0683  0.5340
 5794SOL     OW28843   4.530   3.858   6.719 -0.5640 -0.0448 -0.9300
 5794SOL    HW128844   4.526   3.893   6.808 -1.6002 -2.4494 -0.0335
 5794SOL    HW228845   4.588   3.917   6.670  0.0898  0.0945 -0.0029
 5795SOL     OW28846   3.118   3.693  12.408  0.3984 -0.0862 -0.0398
 5795SOL    HW128847   3.070   3.630  12.353 -0.9275  0.9715 -0.0991
 5795SOL    HW228848   3.168   3.732  12.336 -0.8106  0.5739 -0.5256
 5796SOL     OW28849   0.616   0.068   4.686  0.7377 -0.6739  0.4099
 5796SOL    HW128850   0.545   0.132   4.692 -0.2900 -1.7531 -0.2945
 5796SOL    HW228851   0.655   0.081   4.599  0.3017 -1.4858  0.0986
 5797SOL     OW28852   2.459   1.133   2.575  0.2703 -0.8026  0.2845
 5797SOL    HW128853   2.514   1.152   2.499  0.1302  0.3681  0.4704
 5797SOL    HW228854   2.372   1.147   2.540  0.3339  1.1839  0.9037
 5798SOL     OW28855   4.292   3.063  12.821 -0.6522 -0.7341 -0.5036
 5798SOL    HW128856   4.261   3.060  12.912  2.1223 -0.7478  0.4287
 5798SOL    HW228857   4.330   3.151  12.813 -1.1071 -0.5398 -0.5320
 5799SOL     OW28858   3.664   3.229   4.708  0.5646  0.1053  0.7224
 5799SOL    HW128859   3.626   3.312   4.681 -0.0337 -0.1826  0.6810
 5799SOL    HW228860   3.738   3.224   4.647 -0.1299  0.6776 -0.1683
 5800SOL     OW28861   1.880   2.952   5.169  0.6434 -0.1555 -0.0407
 5800SOL    HW128862   1.814   3.021   5.161  0.1556 -0.6770 -0.4877
 5800SOL    HW228863   1.886   2.929   5.077 -2.0919  1.7484 -0.6964
 5801SOL     OW28864   4.227   2.951  17.376 -0.1391 -0.0537  0.4258
 5801SOL    HW128865   4.226   3.043  17.349 -0.1692  0.4010  2.0005
 5801SOL    HW228866   4.231   2.907  17.291  0.3895  2.1865 -0.7166
 5802SOL     OW28867   4.018   2.168   0.777 -0.1079 -0.1110  0.1626
 5802SOL    HW128868   4.095   2.137   0.730 -2.1176 -1.3558 -2.2978
 5802SOL    HW228869   4.043   2.253   0.813  0.7217  0.3937 -1.6076
 5803SOL     OW28870   4.313   2.315   6.259 -0.3193  0.2217  0.1101
 5803SOL    HW128871   4.352   2.229   6.276  0.1684 -0.0253 -2.2705
 5803SOL    HW228872   4.388   2.374   6.266 -2.2284  2.8849 -1.6795
 5804SOL     OW28873   3.965   2.334   4.279  0.0567  0.8182  0.5867
 5804SOL    HW128874   4.045   2.367   4.321  0.8255  0.4463 -0.5620
 5804SOL    HW228875   3.984   2.357   4.188 -0.5069  0.4291  0.3732
 5805SOL     OW28876   1.254   2.364   8.666 -0.3634  0.0628 -0.2074
 5805SOL    HW128877   1.340   2.342   8.701 -1.4172 -2.9975  0.4530
 5805SOL    HW228878   1.238   2.445   8.715 -0.2596  0.7374 -1.2798
 5806SOL     OW28879   0.284   0.208   2.505  0.4732  0.6148 -0.4573
 5806SOL    HW128880   0.315   0.119   2.521  3.4212  1.8129  0.3874
 5806SOL    HW228881   0.204   0.189   2.455 -0.9086  1.2809  1.4901
 5807SOL     OW28882   2.789   1.152  10.736  0.8154  0.0813  0.2097
 5807SOL    HW128883   2.769   1.061  10.760  1.1605 -0.5069 -1.7157
 5807SOL    HW228884   2.851   1.164  10.808  0.6882  1.0506  0.1499
 5808SOL     OW28885   3.520   4.644  13.548 -0.0368  0.2139  0.0444
 5808SOL    HW128886   3.434   4.606  13.565 -1.1246  2.8022  0.4314
 5808SOL    HW228887   3.527   4.707  13.477 -0.5518  2.9706  2.3986
 5809SOL     OW28888   2.741   3.049   6.438  0.2616  0.1209 -0.0008
 5809SOL    HW128889   2.759   3.112   6.368  1.6308  0.5451  0.7288
 5809SOL    HW228890   2.748   2.965   6.393 -0.4716 -0.7408  1.4852
 5810SOL     OW28891   0.268   2.363   3.930  0.2770 -0.1663 -0.3623
 5810SOL    HW128892   0.218   2.418   3.871  0.5005  1.1377  0.6614
 5810SOL    HW228893   0.361   2.368   3.908  0.2852 -0.4026 -0.3905
 5811SOL     OW28894   0.220   2.336  16.956  0.4090 -0.1800 -0.4344
 5811SOL    HW128895   0.302   2.377  16.984 -1.2599  1.1918  2.5481
 5811SOL    HW228896   0.164   2.369  17.026 -0.2010 -0.3758 -0.8333
 5812SOL     OW28897   3.905   0.726  12.667  0.2911 -0.1228 -0.5402
 5812SOL    HW128898   3.904   0.822  12.663  1.7280 -0.1202 -0.5742
 5812SOL    HW228899   3.882   0.702  12.578 -1.4941  1.1305 -0.4266
 5813SOL     OW28900   0.261   2.497   3.511 -0.2329  0.6766 -0.2934
 5813SOL    HW128901   0.266   2.554   3.588  1.7394  1.4472 -0.9720
 5813SOL    HW228902   0.309   2.420   3.543 -0.0880  1.2563  0.8767
 5814SOL     OW28903   0.726   0.916   5.270 -0.1430  0.1083 -0.4882
 5814SOL    HW128904   0.794   0.976   5.238 -0.1589  0.5997  0.4111
 5814SOL    HW228905   0.784   0.848   5.304  0.4335  0.5495 -0.5899
 5815SOL     OW28906   2.969   0.743  11.801 -0.2285  0.4138  0.3592
 5815SOL    HW128907   2.897   0.689  11.770  1.1128 -1.6394  0.8581
 5815SOL    HW228908   2.983   0.808  11.732  0.4072  0.5787  0.6462
 5816SOL     OW28909   3.955   0.376   2.793 -0.3881  0.5727 -0.1604
 5816SOL    HW128910   3.897   0.406   2.723  1.2776  1.3898 -1.1962
 5816SOL    HW228911   4.032   0.345   2.746 -0.5767 -0.5647  0.2891
 5817SOL     OW28912   2.929   2.889   4.467 -0.2771 -0.4179 -0.4388
 5817SOL    HW128913   2.896   2.848   4.547  1.3149  2.5623  1.7069
 5817SOL    HW228914   3.000   2.830   4.443  0.2029 -0.1177  0.2675
 5818SOL     OW28915   4.481   0.525   4.099  0.1223 -0.2035  0.1228
 5818SOL    HW128916   4.494   0.614   4.065 -1.7767  0.3942  0.9684
 5818SOL    HW228917   4.386   0.511   4.101  0.2630 -1.2737 -0.6646
 5819SOL     OW28918   3.036   2.693   5.958  0.1177  0.1805 -0.0233
 5819SOL    HW128919   2.960   2.724   6.009  0.7475 -2.8236  2.7288
 5819SOL    HW228920   3.103   2.684   6.025 -0.3728  0.1827  0.4706
 5820SOL     OW28921   0.019   3.151   4.281  0.4632  0.4785 -0.0741
 5820SOL    HW128922   0.098   3.167   4.229  2.6805 -1.0058  2.7951
 5820SOL    HW228923   4.678   3.210   4.240  0.5021  0.7760  0.2846
 5821SOL     OW28924   3.520   0.125   6.973  0.6509  0.3114 -0.9016
 5821SOL    HW128925   3.532   0.217   6.995 -0.7881  0.6849 -1.6118
 5821SOL    HW228926   3.593   0.082   7.018  0.3160 -0.0486 -0.6998
 5822SOL     OW28927   2.540   0.912   9.543 -0.0090 -0.0842  0.0260
 5822SOL    HW128928   2.544   0.871   9.456 -3.3564 -0.5693  0.1101
 5822SOL    HW228929   2.615   0.860   9.572 -1.8342 -2.6490  0.1547
 5823SOL     OW28930   1.412   3.687  13.724  0.8929 -0.4657  0.5142
 5823SOL    HW128931   1.460   3.713  13.645  1.3900 -1.1565  0.5899
 5823SOL    HW228932   1.323   3.701  13.693  1.4616 -2.3197 -1.9361
 5824SOL     OW28933   1.527   0.450   4.797 -0.1132  0.1693  0.4046
 5824SOL    HW128934   1.436   0.442   4.828 -0.6898  1.3926 -0.9799
 5824SOL    HW228935   1.534   0.382   4.731 -0.6841  0.7410 -0.2453
 5825SOL     OW28936   3.768   0.660   1.694  0.0649  0.2912 -0.0265
 5825SOL    HW128937   3.769   0.731   1.629 -0.5534 -1.7505 -2.2797
 5825SOL    HW228938   3.721   0.596   1.640 -0.3988  0.4760  0.1637
 5826SOL     OW28939   4.525   2.503   5.188  0.0471 -0.5085 -0.0604
 5826SOL    HW128940   4.482   2.557   5.254  0.1780 -0.7925  0.2561
 5826SOL    HW228941   4.483   2.545   5.113  3.0332 -0.2937 -1.5947
 5827SOL     OW28942   3.098   2.684   5.654 -0.1615 -0.1106 -0.0539
 5827SOL    HW128943   3.082   2.664   5.746  0.9593 -0.1986  0.1246
 5827SOL    HW228944   3.125   2.776   5.663 -0.8688 -0.0920  1.9189
 5828SOL     OW28945   2.156   1.668   6.951  0.1831  0.1878  0.5555
 5828SOL    HW128946   2.232   1.722   6.971 -0.2814  1.2212 -0.4062
 5828SOL    HW228947   2.140   1.613   7.027 -0.4946 -0.9016 -0.3705
 5829SOL     OW28948   2.994   3.651   3.049 -0.2795  0.2948  0.0676
 5829SOL    HW128949   2.986   3.741   3.016 -2.0718 -0.0031 -0.3243
 5829SOL    HW228950   2.971   3.592   2.977  0.4671 -0.6359  0.6056
 5830SOL     OW28951   3.232   0.921   5.168 -0.4427  0.2046  0.0894
 5830SOL    HW128952   3.219   0.900   5.076  1.6930  2.9222 -0.8311
 5830SOL    HW228953   3.216   1.016   5.174 -3.8151 -0.3179 -0.6256
 5831SOL     OW28954   2.663   0.258   3.104 -0.2478 -0.1433  0.7623
 5831SOL    HW128955   2.668   0.254   3.199 -0.6628 -3.8752  0.6313
 5831SOL    HW228956   2.754   0.277   3.080 -0.4475 -2.2566 -1.6994
 5832SOL     OW28957   1.569   3.565  12.838  0.3534  0.6797  0.3080
 5832SOL    HW128958   1.643   3.588  12.781  1.4421  1.1599  1.9323
 5832SOL    HW228959   1.542   3.655  12.855 -0.0267  0.7559 -0.6907
 5833SOL     OW28960   3.423   0.097  10.269 -0.2457  0.8206 -0.0158
 5833SOL    HW128961   3.424   0.187  10.302 -3.0105  0.9310 -0.2715
 5833SOL    HW228962   3.364   0.097  10.194  2.1629 -1.2217 -1.9137
 5834SOL     OW28963   4.717   2.145   6.945  0.2476 -0.0082  0.0397
 5834SOL    HW128964   4.647   2.098   6.991  0.2937 -0.6791 -0.5645
 5834SOL    HW228965   0.059   2.074   6.948  1.4579  1.0522 -0.7466
 5835SOL     OW28966   0.080   3.107   8.790 -0.0958 -0.0979 -0.3643
 5835SOL    HW128967   0.020   3.178   8.767  1.1309  0.6341 -1.2824
 5835SOL    HW228968   0.021   3.057   8.847 -0.7351  1.9704  0.7835
 5836SOL     OW28969   4.080   1.725   6.844  0.3963  0.0581 -0.0387
 5836SOL    HW128970   4.144   1.792   6.867  0.5197  0.1359 -0.6000
 5836SOL    HW228971   4.112   1.687   6.762  0.2036 -0.7506  0.2591
 5837SOL     OW28972   3.271   3.106   2.410 -0.0674 -0.1578  0.3281
 5837SOL    HW128973   3.292   3.053   2.487 -0.9296 -0.3098  0.4548
 5837SOL    HW228974   3.223   3.176   2.454  0.5803  1.5985 -1.7849
 5838SOL     OW28975   3.216   3.239   3.110 -0.0054  0.1958 -0.4097
 5838SOL    HW128976   3.226   3.241   3.014 -0.6365 -0.0611 -0.4854
 5838SOL    HW228977   3.303   3.271   3.133 -0.1674  0.2699  0.0806
 5839SOL     OW28978   3.045   0.903  17.182 -0.1127 -0.1271 -0.4255
 5839SOL    HW128979   2.962   0.945  17.206  0.1551  0.1105  0.0771
 5839SOL    HW228980   3.087   0.883  17.266 -0.0367  1.5340 -0.0617
 5840SOL     OW28981   0.794   3.031   5.091  0.4106  0.0374  0.2642
 5840SOL    HW128982   0.832   2.992   5.170  1.2504 -1.8032 -1.0403
 5840SOL    HW228983   0.722   3.069   5.140  0.2358  0.7438 -0.5367
 5841SOL     OW28984   2.020   3.495   2.752 -0.0567  0.3833  0.1608
 5841SOL    HW128985   1.934   3.493   2.710 -0.2121  1.2693  0.4340
 5841SOL    HW228986   1.990   3.515   2.841  2.1326 -1.5197  1.3451
 5842SOL     OW28987   2.507   3.471   0.456  0.2303  0.0836  0.6398
 5842SOL    HW128988   2.488   3.555   0.498 -0.1918 -0.1778  0.9750
 5842SOL    HW228989   2.598   3.493   0.439  0.6411  0.6913  3.6663
 5843SOL     OW28990   2.649   3.181   5.640  0.3642 -0.1339  0.2632
 5843SOL    HW128991   2.661   3.236   5.717 -0.9420  0.0447  0.3459
 5843SOL    HW228992   2.635   3.250   5.576  2.1437 -1.5119 -1.5869
 5844SOL     OW28993   0.381   3.196   7.920  0.7417  0.2300  0.2746
 5844SOL    HW128994   0.289   3.170   7.910  0.1675  2.5035 -0.5946
 5844SOL    HW228995   0.380   3.282   7.877  1.3540  0.4513  0.7021
 5845SOL     OW28996   4.435   0.719  15.611 -0.4163 -0.0667 -0.2878
 5845SOL    HW128997   4.489   0.794  15.634  0.2694 -0.9359  0.9155
 5845SOL    HW228998   4.378   0.767  15.551 -0.3505 -0.9643 -1.0690
 5846SOL     OW28999   2.816   2.368   5.800 -0.2743 -0.5153 -0.9784
 5846SOL    HW129000   2.790   2.445   5.751  0.9414  0.5541  0.0564
 5846SOL    HW229001   2.762   2.299   5.761 -0.1705 -0.2987 -1.4971
 5847SOL     OW29002   4.308   0.913   6.549 -0.1069  0.0236  0.4266
 5847SOL    HW129003   4.321   0.833   6.500 -1.4803  0.9586 -1.4462
 5847SOL    HW229004   4.289   0.968   6.473 -2.4115 -0.7502  0.4471
 5848SOL     OW29005   4.020   1.268   0.305 -0.0784  0.4197 -0.3087
 5848SOL    HW129006   4.003   1.180   0.338 -1.4899  1.8494  2.7531
 5848SOL    HW229007   4.100   1.289   0.354 -0.8745 -1.9046  1.9784
 5849SOL     OW29008   3.052   1.247   7.191  0.2706 -0.4568  0.0588
 5849SOL    HW129009   3.014   1.328   7.157  0.3967 -1.1878 -1.8410
 5849SOL    HW229010   3.029   1.185   7.122 -1.5652 -1.1514  1.2908
 5850SOL     OW29011   3.128   1.959   4.827  0.4445 -0.1008 -0.2220
 5850SOL    HW129012   3.117   2.021   4.899 -1.2421 -0.7968  0.1229
 5850SOL    HW229013   3.036   1.943   4.807 -0.3326  2.9162  0.9805
 5851SOL     OW29014   4.664   4.249   5.003  0.3811  0.2025  0.2543
 5851SOL    HW129015   0.001   4.259   5.077  1.2541 -1.1290 -0.2691
 5851SOL    HW229016   4.632   4.160   5.013 -2.6353  1.1814 -0.5486
 5852SOL     OW29017   4.618   4.359   9.253 -0.4248 -0.4723  0.8053
 5852SOL    HW129018   4.637   4.267   9.267  0.9131 -0.1721  0.9658
 5852SOL    HW229019   4.702   4.389   9.218 -1.2541 -0.6459 -1.3702
 5853SOL     OW29020   2.706   0.211   9.287 -0.6185  0.0906  0.3649
 5853SOL    HW129021   2.621   0.173   9.266 -0.7470 -1.2318  3.2637
 5853SOL    HW229022   2.683   0.303   9.276  0.9887  0.3008 -1.0990
 5854SOL     OW29023   0.890   0.697   5.945 -1.0175  0.0598  0.0624
 5854SOL    HW129024   0.803   0.658   5.930 -1.2781  0.3147  0.8892
 5854SOL    HW229025   0.914   0.718   5.855 -0.0597  1.3279  0.6213
 5855SOL     OW29026   4.114   4.352   8.498 -0.1783  0.2183 -0.0480
 5855SOL    HW129027   4.209   4.342   8.504  0.0922  1.1917 -2.9114
 5855SOL    HW229028   4.081   4.263   8.484  2.3929 -0.8798  0.8012
 5856SOL     OW29029   2.393   2.773   1.387 -0.4709 -0.1656 -0.2820
 5856SOL    HW129030   2.443   2.691   1.385  0.5130  0.3884  1.7079
 5856SOL    HW229031   2.463   2.835   1.366 -0.2813  0.6555  2.7356
 5857SOL     OW29032   4.336   2.891   7.598  0.2039  0.2567 -0.3439
 5857SOL    HW129033   4.267   2.921   7.538  1.2041 -0.5962 -1.9228
 5857SOL    HW229034   4.294   2.883   7.684 -0.3292  0.7176 -0.5615
 5858SOL     OW29035   2.684   1.574   6.735 -0.1170 -0.6631  0.3269
 5858SOL    HW129036   2.764   1.527   6.760  0.4758 -0.5544 -1.3858
 5858SOL    HW229037   2.679   1.554   6.642  3.9505 -2.9180  0.6034
 5859SOL     OW29038   3.535   0.882  12.570 -0.2500 -0.1888  0.4247
 5859SOL    HW129039   3.598   0.947  12.537  0.0445 -1.7471 -2.0753
 5859SOL    HW229040   3.553   0.806  12.515  1.1810  1.1291 -0.9444
 5860SOL     OW29041   0.468   1.831   2.888  0.2777  0.1149 -0.6814
 5860SOL    HW129042   0.503   1.782   2.814  0.0617 -1.7210  0.4317
 5860SOL    HW229043   0.410   1.895   2.847  1.0065  0.1942 -1.5954
 5861SOL     OW29044   3.980   0.934  14.789 -0.0509 -0.0009  0.6265
 5861SOL    HW129045   3.914   0.914  14.722  0.1398 -2.7128  1.2194
 5861SOL    HW229046   4.003   1.026  14.777 -1.2002  0.2588  0.4276
 5862SOL     OW29047   0.083   4.394  15.228 -0.4264  0.6024 -0.2934
 5862SOL    HW129048   0.128   4.478  15.218  2.1833 -1.0425 -2.4449
 5862SOL    HW229049   0.015   4.422  15.289 -0.7651 -0.6862 -0.0794
 5863SOL     OW29050   0.383   0.917   6.730  0.2509  0.1896  0.0085
 5863SOL    HW129051   0.462   0.949   6.773 -0.4231  0.3946  1.1064
 5863SOL    HW229052   0.395   0.936   6.637 -1.2491 -1.7717 -0.5953
 5864SOL     OW29053   0.778   3.707   5.287  0.3913 -0.1320  0.2675
 5864SOL    HW129054   0.842   3.730   5.219  2.5499  0.8667  2.6700
 5864SOL    HW229055   0.812   3.622   5.314  0.5910 -0.7492 -1.8752
 5865SOL     OW29056   0.793   4.433   0.734 -0.1177 -0.6269 -0.4014
 5865SOL    HW129057   0.862   4.368   0.733 -0.5216 -1.1118  3.0276
 5865SOL    HW229058   0.847   4.512   0.726 -0.2477 -0.5399 -0.4267
 5866SOL     OW29059   4.620   3.688   5.335 -0.2166 -0.1153 -0.1465
 5866SOL    HW129060   4.577   3.621   5.388  2.7864 -1.4306  0.5890
 5866SOL    HW229061   4.563   3.764   5.323 -0.9282 -0.6590 -0.1783
 5867SOL     OW29062   0.302   2.899   5.760  0.7144  0.0100 -0.2975
 5867SOL    HW129063   0.314   2.890   5.855 -2.5337 -0.0237  0.0909
 5867SOL    HW229064   0.304   2.995   5.761  0.9990 -0.0088  1.8888
 5868SOL     OW29065   2.676   4.019  13.941 -0.2129 -0.0540  0.1158
 5868SOL    HW129066   2.735   3.999  14.014  0.8097 -0.1703 -0.7487
 5868SOL    HW229067   2.626   3.938  13.929 -0.7378  0.5556 -1.9237
 5869SOL     OW29068   4.454   1.995   1.941 -0.6572  0.1776 -0.0737
 5869SOL    HW129069   4.371   1.949   1.932 -1.4832  1.8012 -0.7324
 5869SOL    HW229070   4.488   1.942   2.014 -1.6911  0.8106  0.8705
 5870SOL     OW29071   1.213   1.600   3.754  0.4643  0.3477  0.0054
 5870SOL    HW129072   1.143   1.541   3.726 -0.4950  1.4692  0.0367
 5870SOL    HW229073   1.199   1.593   3.849  1.2645  0.1513  0.1096
 5871SOL     OW29074   4.292   0.706  14.984  0.8460  0.1553  0.0578
 5871SOL    HW129075   4.209   0.738  15.020  0.6500  0.1736 -0.4105
 5871SOL    HW229076   4.292   0.731  14.891 -0.3833  5.1003  1.4105
 5872SOL     OW29077   0.384   0.942   0.037 -0.3666 -0.2697  0.1726
 5872SOL    HW129078   0.297   0.924   0.001 -0.4803  0.4814  0.0639
 5872SOL    HW229079   0.404   1.017  17.673 -2.3313 -2.3376 -3.3237
 5873SOL     OW29080   1.091   2.734   6.844  0.9097 -0.5867  0.4160
 5873SOL    HW129081   1.073   2.828   6.846 -0.5778 -0.9168  1.6852
 5873SOL    HW229082   1.076   2.717   6.750 -1.5813 -1.2184  0.9332
 5874SOL     OW29083   3.166   3.009   8.461 -0.4489 -0.1133 -0.0634
 5874SOL    HW129084   3.233   3.042   8.401 -0.7311 -2.7813 -1.8324
 5874SOL    HW229085   3.104   3.082   8.467 -1.6086 -1.1500  0.5769
 5875SOL     OW29086   2.807   1.230   8.834  0.2632  0.0630  0.2699
 5875SOL    HW129087   2.780   1.206   8.746 -1.1869 -0.8430  0.9603
 5875SOL    HW229088   2.836   1.146   8.869 -0.1589  0.0805  0.6623
 5876SOL     OW29089   4.673   3.701  16.003 -0.6736  0.1021 -0.3107
 5876SOL    HW129090   0.004   3.651  16.065 -3.0178  1.2161  2.5745
 5876SOL    HW229091   4.661   3.779  16.058 -2.3214  1.4709 -2.6226
 5877SOL     OW29092   2.584   3.874   8.242  0.0694  0.0801 -0.3168
 5877SOL    HW129093   2.595   3.779   8.253 -0.4443  0.1790  1.0751
 5877SOL    HW229094   2.490   3.867   8.226 -0.2529  0.5071  1.3765
 5878SOL     OW29095   0.316   2.061  15.530 -0.4677  0.2211 -0.5965
 5878SOL    HW129096   0.294   2.031  15.441 -2.7977  2.2327 -0.6954
 5878SOL    HW229097   0.365   1.984  15.557  1.7256  2.1329  0.7992
 5879SOL     OW29098   3.172   0.238  10.713  0.5750  0.0605  0.3249
 5879SOL    HW129099   3.105   0.306  10.717 -1.5888 -2.0464  0.0384
 5879SOL    HW229100   3.184   0.222  10.620  1.6594 -0.2871  0.5297
 5880SOL     OW29101   3.713   0.758   6.243  0.3874  0.1648  0.0426
 5880SOL    HW129102   3.758   0.731   6.323  0.5401 -0.6083 -0.2929
 5880SOL    HW229103   3.649   0.817   6.283 -1.2642 -1.1974 -0.5852
 5881SOL     OW29104   4.572   0.297   2.295  0.0556  0.2475  0.4723
 5881SOL    HW129105   4.543   0.336   2.213  1.3536 -1.1166 -0.6326
 5881SOL    HW229106   4.668   0.305   2.300 -0.0290  0.5828  1.6168
 5882SOL     OW29107   2.678   1.532  11.840 -0.1154  0.2126  0.1232
 5882SOL    HW129108   2.629   1.452  11.859 -0.1578  0.5608  1.4871
 5882SOL    HW229109   2.633   1.592  11.901 -1.0173 -0.4591  0.1145
 5883SOL     OW29110   3.396   0.135   7.786 -0.2206  0.3033 -0.3238
 5883SOL    HW129111   3.448   0.059   7.759  0.0629  0.2894  0.2659
 5883SOL    HW229112   3.317   0.091   7.817  0.5747 -1.9432 -1.4819
 5884SOL     OW29113   0.422   4.356   6.553 -0.2734 -0.3055 -0.1308
 5884SOL    HW129114   0.399   4.428   6.495  0.3737  0.2287  0.2696
 5884SOL    HW229115   0.336   4.328   6.585 -0.1876 -0.0526  0.3213
 5885SOL     OW29116   0.143   2.708  17.030 -0.9104  0.1499 -0.0717
 5885SOL    HW129117   0.209   2.688  17.096  1.2160  1.2353 -1.8806
 5885SOL    HW229118   0.199   2.696  16.953  0.5409  1.3550  0.8161
 5886SOL     OW29119   1.991   3.692  13.308 -0.1615 -0.3382 -0.2602
 5886SOL    HW129120   1.918   3.652  13.261 -0.2847 -0.1764 -0.2069
 5886SOL    HW229121   1.977   3.661  13.397 -1.9259  0.6800 -0.1811
 5887SOL     OW29122   0.042   2.725   7.430 -0.3231  0.2025  0.1189
 5887SOL    HW129123   4.688   2.683   7.470 -0.2555 -0.8036 -0.7992
 5887SOL    HW229124   0.007   2.752   7.344 -0.2515 -0.7786 -0.2175
 5888SOL     OW29125   1.335   2.018   5.277 -0.8982  0.2678 -0.2719
 5888SOL    HW129126   1.283   1.940   5.256 -0.8155  1.0459 -3.3859
 5888SOL    HW229127   1.395   2.035   5.205 -0.0225  0.1271  0.4293
 5889SOL     OW29128   3.598   4.388   5.952 -0.1591  0.1940 -0.2735
 5889SOL    HW129129   3.659   4.379   6.025 -2.3571  1.6686  1.7351
 5889SOL    HW229130   3.584   4.482   5.943 -1.5378 -0.1541 -1.7349
 5890SOL     OW29131   3.031   3.581  12.792  0.2668  0.4604 -0.2672
 5890SOL    HW129132   3.000   3.660  12.746  2.0108 -0.6982 -3.3998
 5890SOL    HW229133   2.955   3.523  12.798 -1.8912  3.2546 -0.6911
 5891SOL     OW29134   4.539   4.574   6.412 -0.2268 -0.2650 -0.3433
 5891SOL    HW129135   4.545   4.620   6.328  2.1983 -1.1077 -0.6532
 5891SOL    HW229136   4.621   4.523   6.416 -0.4463 -0.5896  0.0052
 5892SOL     OW29137   3.141   2.297   2.487 -0.4375  0.4369  0.1201
 5892SOL    HW129138   3.195   2.225   2.518  1.3913  1.7602  0.0331
 5892SOL    HW229139   3.203   2.331   2.422  0.0482  0.8357  0.7986
 5893SOL     OW29140   0.042   0.441   4.517 -0.2021  0.0928  0.0802
 5893SOL    HW129141   0.121   0.482   4.482 -0.1440  0.5395  0.7315
 5893SOL    HW229142   4.697   0.496   4.476  0.4131  0.0514 -0.9685
 5894SOL     OW29143   1.446   3.942   4.719  0.5599  0.1841  0.5557
 5894SOL    HW129144   1.435   3.850   4.744  3.1000 -0.0775  0.6248
 5894SOL    HW229145   1.495   3.935   4.637 -1.2320  0.3299 -0.5312
 5895SOL     OW29146   4.613   3.051  14.778  0.8156 -0.3723 -0.4697
 5895SOL    HW129147   4.575   3.137  14.793  1.3343 -0.0291 -1.1278
 5895SOL    HW229148   4.543   3.001  14.736  1.0350 -0.9698 -0.1216
 5896SOL     OW29149   1.371   0.610  13.146  0.1773 -0.0099  0.4888
 5896SOL    HW129150   1.314   0.641  13.075  0.8019 -1.0242 -0.4596
 5896SOL    HW229151   1.456   0.652  13.131  0.2078  0.4584  1.9764
 5897SOL     OW29152   4.368   1.892  12.461 -0.1436  0.5028  0.2487
 5897SOL    HW129153   4.382   1.801  12.486 -0.1603 -0.0663 -1.8175
 5897SOL    HW229154   4.444   1.917  12.408 -0.0808  0.2727  0.2346
 5898SOL     OW29155   0.763   0.882   5.564 -0.1516  0.1666  0.2960
 5898SOL    HW129156   0.699   0.811   5.561 -0.2833  0.3654 -2.0003
 5898SOL    HW229157   0.723   0.945   5.503  4.4373  4.0014  1.2534
 5899SOL     OW29158   2.771   3.009   1.100  0.4357  0.1669  0.2751
 5899SOL    HW129159   2.831   2.939   1.124 -1.2608 -1.6544 -0.8116
 5899SOL    HW229160   2.807   3.039   1.017 -1.9853 -0.5460 -1.0206
 5900SOL     OW29161   1.386   1.981   2.806  0.3008  0.1616 -0.1173
 5900SOL    HW129162   1.356   1.965   2.896  1.0154  0.5279  0.1833
 5900SOL    HW229163   1.474   2.011   2.828  0.6105 -1.2340  0.5789
 5901SOL     OW29164   3.534   1.468  15.778 -0.4592  0.1633 -0.2594
 5901SOL    HW129165   3.609   1.432  15.826  1.1597  2.3439 -1.1697
 5901SOL    HW229166   3.498   1.396  15.726 -1.4508  1.2122 -1.0149
 5902SOL     OW29167   3.147   2.068   5.937  0.1803 -0.5220 -1.0793
 5902SOL    HW129168   3.084   2.010   5.894 -0.0780 -1.4756  0.5787
 5902SOL    HW229169   3.129   2.151   5.893  0.3660 -1.3387 -2.6900
 5903SOL     OW29170   4.177   3.825   9.137 -0.4378  0.1435  0.2893
 5903SOL    HW129171   4.093   3.802   9.179  0.1913 -0.9331  0.9589
 5903SOL    HW229172   4.228   3.827   9.218 -0.4268  0.8763  0.2679
 5904SOL     OW29173   4.075   3.350   1.368 -0.0275  0.4106  0.3147
 5904SOL    HW129174   4.154   3.357   1.314 -0.5497  0.2568 -0.4807
 5904SOL    HW229175   4.011   3.407   1.324 -2.7315 -1.7263  1.4659
 5905SOL     OW29176   4.396   3.928   7.825  0.0704  0.0179  0.3938
 5905SOL    HW129177   4.365   3.961   7.910 -1.0378  0.2763 -0.1203
 5905SOL    HW229178   4.484   3.896   7.846 -0.6711 -2.5797 -0.5446
 5906SOL     OW29179   2.063   0.550  10.629 -0.2387 -0.5432  0.0698
 5906SOL    HW129180   2.102   0.500  10.558  1.5760 -1.4338  1.6913
 5906SOL    HW229181   2.137   0.578  10.683 -1.5801 -1.7135  2.4977
 5907SOL     OW29182   3.253   3.713   8.513  0.1041 -0.3010  0.1765
 5907SOL    HW129183   3.239   3.626   8.551  2.6364 -0.0060  1.7604
 5907SOL    HW229184   3.295   3.685   8.432 -1.2407 -0.7117 -0.3774
 5908SOL     OW29185   0.267   3.925  15.632  0.0374  0.5321  0.5493
 5908SOL    HW129186   0.209   3.888  15.698  1.3771 -1.0463  0.8171
 5908SOL    HW229187   0.267   3.852  15.570 -0.3769  0.8455  0.1780
 5909SOL     OW29188   1.637   3.660   7.994  0.3196  0.1019 -0.1734
 5909SOL    HW129189   1.652   3.671   7.900 -1.0694  3.9254  0.0680
 5909SOL    HW229190   1.565   3.720   8.010 -0.5591 -1.0033  0.0580
 5910SOL     OW29191   2.027   0.919   3.481 -0.2216 -0.0593 -0.2119
 5910SOL    HW129192   2.021   1.013   3.502  0.1788 -0.0880  0.0293
 5910SOL    HW229193   2.066   0.914   3.394 -1.1664 -1.0492 -0.5784
 5911SOL     OW29194   2.869   1.463   8.383  0.0757 -0.1633 -0.0012
 5911SOL    HW129195   2.776   1.445   8.366  0.5684 -3.0264  0.2866
 5911SOL    HW229196   2.920   1.418   8.315 -0.9472  1.7232 -2.0281
 5912SOL     OW29197   0.271   3.643  16.333  0.1319 -0.2101  0.3186
 5912SOL    HW129198   0.278   3.724  16.384 -0.0490  0.5331 -0.8300
 5912SOL    HW229199   0.313   3.682  16.256  0.7664 -0.1840  0.6781
 5913SOL     OW29200   1.971   1.629   2.314  0.6168  0.0625 -0.6397
 5913SOL    HW129201   1.985   1.682   2.236  1.9595 -0.6370 -0.8708
 5913SOL    HW229202   1.912   1.568   2.270 -1.3942  0.0381  2.0550
 5914SOL     OW29203   3.924   1.428   4.292  0.0093  0.5576 -0.0123
 5914SOL    HW129204   3.870   1.504   4.313 -1.3191 -0.2638 -0.4107
 5914SOL    HW229205   3.993   1.489   4.267  1.1154 -0.1776  1.2663
 5915SOL     OW29206   3.413   2.376   4.335  0.0911 -0.6410 -0.0581
 5915SOL    HW129207   3.358   2.349   4.409 -1.1177 -1.4730 -1.2607
 5915SOL    HW229208   3.368   2.458   4.316  0.4770 -0.1244  1.2364
 5916SOL     OW29209   2.388   0.262   7.030 -0.1096  0.1271 -0.1256
 5916SOL    HW129210   2.351   0.199   6.968 -2.7810  1.8905 -0.3477
 5916SOL    HW229211   2.460   0.212   7.067 -0.2989  0.1405  0.2586
 5917SOL     OW29212   4.259   1.839   1.612 -0.1207  0.6844  0.1535
 5917SOL    HW129213   4.194   1.879   1.670 -2.3325 -4.2264  1.1002
 5917SOL    HW229214   4.206   1.861   1.536 -0.3950  0.6239  0.3279
 5918SOL     OW29215   3.742   0.675   7.310 -0.4811 -0.4031 -0.4292
 5918SOL    HW129216   3.705   0.761   7.291  2.1754  0.5519 -1.2929
 5918SOL    HW229217   3.665   0.620   7.325 -0.7109  0.1396  0.3558
 5919SOL     OW29218   0.407   0.250  10.179 -0.3970 -0.0556  0.1376
 5919SOL    HW129219   0.401   0.275  10.087 -1.6951 -1.0085 -0.0300
 5919SOL    HW229220   0.502   0.236  10.178 -0.6760 -1.8631 -1.1084
 5920SOL     OW29221   4.382   0.557   6.067  0.4067  0.2467 -0.6136
 5920SOL    HW129222   4.400   0.651   6.067 -0.6978  0.4637 -2.0531
 5920SOL    HW229223   4.288   0.569   6.057  0.3814  0.1655 -0.4619
 5921SOL     OW29224   0.037   2.375   3.005  0.6505 -0.0940  0.2768
 5921SOL    HW129225   0.067   2.354   3.094  1.6373 -0.6371 -0.1764
 5921SOL    HW229226   0.038   2.470   3.012  0.1697 -0.0882  0.2493
 5922SOL     OW29227   3.128   3.938   8.549  0.6108 -0.4813 -0.2236
 5922SOL    HW129228   3.180   3.859   8.535 -0.2197 -0.8067 -1.4430
 5922SOL    HW229229   3.044   3.893   8.552  1.8134 -2.6205  1.4741
 5923SOL     OW29230   2.297   3.398  11.130 -0.1782 -0.2881  0.3628
 5923SOL    HW129231   2.322   3.360  11.215 -2.0582 -1.6271  0.3233
 5923SOL    HW229232   2.373   3.454  11.117  0.0312  0.0453  3.0049
 5924SOL     OW29233   0.706   1.863   3.063  0.2080 -0.2927  0.6482
 5924SOL    HW129234   0.667   1.908   2.988 -0.1711 -3.4761 -1.1014
 5924SOL    HW229235   0.684   1.776   3.030  1.4447 -1.0917  1.9159
 5925SOL     OW29236   0.146   2.958   9.033  0.6769 -0.4035 -0.0382
 5925SOL    HW129237   0.241   2.950   9.032  0.9132  2.0494  2.7881
 5925SOL    HW229238   0.124   2.872   8.996  2.5656 -0.5537 -0.8063
 5926SOL     OW29239   3.786   1.356   6.790  0.2834 -0.2699  0.2360
 5926SOL    HW129240   3.797   1.439   6.834  1.7779  0.1167 -0.8613
 5926SOL    HW229241   3.811   1.290   6.855 -0.4135  0.7054  1.4873
 5927SOL     OW29242   4.030   4.382  11.233  0.5772 -0.5234 -0.4043
 5927SOL    HW129243   4.077   4.351  11.156  0.7931 -3.1629  0.7802
 5927SOL    HW229244   4.074   4.345  11.310  0.1407  0.5264  0.3595
 5928SOL     OW29245   3.455   2.462   7.067  0.2918  0.1676 -0.6289
 5928SOL    HW129246   3.484   2.549   7.040 -1.0544  0.7825 -0.1148
 5928SOL    HW229247   3.476   2.402   6.996 -0.3949  0.3247 -0.9646
 5929SOL     OW29248   1.832   4.483   2.959 -0.0741  0.5081 -0.1816
 5929SOL    HW129249   1.888   4.519   2.890 -0.6184 -0.1170 -0.9482
 5929SOL    HW229250   1.886   4.498   3.036  1.0189  0.6743 -0.9880
 5930SOL     OW29251   2.812   1.523   6.169 -0.1461 -0.0949  0.1855
 5930SOL    HW129252   2.869   1.550   6.097 -0.0010 -1.4021 -0.1977
 5930SOL    HW229253   2.852   1.553   6.251 -0.5900 -1.9131  1.0624
 5931SOL     OW29254   0.105   3.269   4.525 -0.6060 -0.0695  0.0719
 5931SOL    HW129255   0.057   3.230   4.451 -0.0128 -1.2739  0.3192
 5931SOL    HW229256   0.126   3.181   4.556  1.5654  0.2006 -0.6574
 5932SOL     OW29257   3.808   4.645   2.125  0.0859  0.1050 -0.0618
 5932SOL    HW129258   3.876   4.710   2.147 -0.1690  0.2497  0.3029
 5932SOL    HW229259   3.770   4.683   2.046  1.2048  0.4253 -0.4586
 5933SOL     OW29260   1.751   3.188   3.356  0.7044 -0.0306  0.1297
 5933SOL    HW129261   1.828   3.206   3.411  0.5518  0.6026  0.1360
 5933SOL    HW229262   1.730   3.277   3.330  0.8505  0.0638  0.3279
 5934SOL     OW29263   2.950   3.902   5.140 -0.0490 -0.4591 -0.0724
 5934SOL    HW129264   2.879   3.955   5.105 -0.2908 -0.2328  0.7752
 5934SOL    HW229265   3.030   3.918   5.089  0.7753  0.3958  1.4963
 5935SOL     OW29266   3.294   0.193  12.244 -0.0963 -0.2791 -0.7710
 5935SOL    HW129267   3.372   0.217  12.195  0.2974  0.0466  0.0093
 5935SOL    HW229268   3.324   0.117  12.293 -0.6910  0.9237  1.4582
 5936SOL     OW29269   0.532   1.068  17.514 -0.2839  0.0859 -0.0064
 5936SOL    HW129270   0.603   1.126  17.487 -0.6625  1.2148  1.3909
 5936SOL    HW229271   0.469   1.139  17.524 -1.9105 -1.4590  0.6464
 5937SOL     OW29272   3.229   0.347   6.176 -0.1686 -0.2014 -0.2660
 5937SOL    HW129273   3.234   0.427   6.229  1.9648 -1.0178  0.7854
 5937SOL    HW229274   3.169   0.359   6.103  0.3130  0.6081 -0.5398
 5938SOL     OW29275   4.704   2.930  15.192  0.0005  0.4415  0.2123
 5938SOL    HW129276   4.637   2.862  15.193 -1.3773  1.7507 -1.0718
 5938SOL    HW229277   4.691   2.964  15.103  0.2519 -0.7867 -0.2948
 5939SOL     OW29278   4.252   3.038   7.261  0.2257  0.1430  0.3113
 5939SOL    HW129279   4.223   3.057   7.350 -0.5211  0.9429 -0.1045
 5939SOL    HW229280   4.326   3.099   7.256 -0.0260  0.5937  2.0345
 5940SOL     OW29281   1.123   0.248  11.290 -0.0248  0.4745 -0.0092
 5940SOL    HW129282   1.206   0.202  11.281  0.7637  2.5422 -3.3569
 5940SOL    HW229283   1.148   0.317  11.352  0.7325 -0.0442  0.2611
 5941SOL     OW29284   1.959   1.405   4.459  0.5192  0.2130  0.2577
 5941SOL    HW129285   1.891   1.431   4.522  3.4029 -1.4180  4.0805
 5941SOL    HW229286   1.901   1.389   4.385 -0.7676  0.7105  1.1385
 5942SOL     OW29287   4.539   4.617   8.111  0.7753 -0.4365 -0.1941
 5942SOL    HW129288   4.582   4.693   8.151 -0.7349 -0.1440  0.8716
 5942SOL    HW229289   4.508   4.659   8.031  2.1311  1.0110  0.0256
 5943SOL     OW29290   4.329   3.412   9.594  0.3718 -0.3195  0.0936
 5943SOL    HW129291   4.255   3.401   9.534 -0.7323  0.1091  1.3877
 5943SOL    HW229292   4.307   3.498   9.627  0.4411  0.1291 -1.0088
 5944SOL     OW29293   4.000   0.781  17.288 -0.8122  0.1862 -0.0157
 5944SOL    HW129294   3.917   0.747  17.321 -2.4467  1.2982 -2.9228
 5944SOL    HW229295   3.989   0.876  17.285 -0.3392  0.1634 -2.5166
 5945SOL     OW29296   2.045   1.190   2.032  0.2213 -0.4029 -0.2422
 5945SOL    HW129297   2.104   1.125   2.068 -1.4370 -1.5297  0.4245
 5945SOL    HW229298   1.995   1.218   2.108  1.2168 -0.9418  0.5959
 5946SOL     OW29299   0.073   1.928  13.430 -0.2394 -0.4762  0.3274
 5946SOL    HW129300   0.147   1.976  13.394  0.8757 -2.8015 -0.4214
 5946SOL    HW229301   0.016   1.992  13.474  0.5992  1.5733 -1.6223
 5947SOL     OW29302   2.398   3.362   5.463  0.8454 -0.3585 -0.3196
 5947SOL    HW129303   2.391   3.270   5.437 -0.9724 -0.7182  1.4759
 5947SOL    HW229304   2.494   3.364   5.468  0.8877 -0.1431 -1.1433
 5948SOL     OW29305   2.553   4.153  16.928 -0.5655 -0.3214 -0.0431
 5948SOL    HW129306   2.585   4.210  16.859 -0.3863 -0.0457  0.2659
 5948SOL    HW229307   2.636   4.125  16.965 -0.3999 -0.4872 -0.5440
 5949SOL     OW29308   2.572   1.014   1.802  0.2801  0.1053 -0.1936
 5949SOL    HW129309   2.636   0.943   1.808 -2.3171 -2.1255  0.7380
 5949SOL    HW229310   2.532   0.979   1.723 -2.1365  0.5930  0.8024
 5950SOL     OW29311   1.340   1.834   3.436  0.3648 -0.8082  0.3965
 5950SOL    HW129312   1.408   1.897   3.460  0.6842 -0.0817 -2.3870
 5950SOL    HW229313   1.274   1.845   3.504  0.5486 -1.0454  0.6123
 5951SOL     OW29314   4.333   3.741   0.990  0.4308  0.5330 -0.7930
 5951SOL    HW129315   4.354   3.764   0.900 -2.0793 -0.2453 -1.5659
 5951SOL    HW229316   4.416   3.723   1.034  2.1352  1.9120 -3.4269
 5952SOL     OW29317   0.658   0.882  12.491 -0.1855 -0.1605 -0.2570
 5952SOL    HW129318   0.602   0.822  12.441 -1.1512  0.4850  0.0537
 5952SOL    HW229319   0.610   0.884  12.574  0.2683  1.1369 -0.0398
 5953SOL     OW29320   3.513   2.705   6.911  0.5110 -0.0549  0.4579
 5953SOL    HW129321   3.518   2.800   6.898 -0.0761  0.0211  0.7856
 5953SOL    HW229322   3.468   2.680   6.831  0.9744 -1.6934  0.7174
 5954SOL     OW29323   3.905   1.331  17.052  0.0803 -0.3348 -0.2239
 5954SOL    HW129324   3.849   1.402  17.019  0.5468  0.1852  0.0950
 5954SOL    HW229325   3.848   1.282  17.111 -1.0031  1.1540 -0.0447
 5955SOL     OW29326   3.868   1.224   9.118 -0.0178 -0.9202 -0.5925
 5955SOL    HW129327   3.864   1.167   9.195  1.2376 -2.0730 -1.3925
 5955SOL    HW229328   3.832   1.175   9.043 -2.0576  1.8723 -1.4366
 5956SOL     OW29329   0.652   1.444   4.539 -0.4055 -0.0862 -0.0491
 5956SOL    HW129330   0.664   1.351   4.561 -0.1408 -0.9504 -3.8002
 5956SOL    HW229331   0.693   1.484   4.615 -2.2460  0.0047  0.8900
 5957SOL     OW29332   0.936   2.164  14.843 -0.2249  0.0008  0.4662
 5957SOL    HW129333   0.973   2.089  14.890  1.6999  1.0429  0.6149
 5957SOL    HW229334   0.841   2.159  14.859 -0.7632  0.4902 -2.6826
 5958SOL     OW29335   4.582   1.695  11.970 -0.3679 -0.4320 -0.6307
 5958SOL    HW129336   4.608   1.646  11.892  0.3123  0.5933 -1.0574
 5958SOL    HW229337   4.656   1.750  11.994  1.0099 -2.8182  0.5295
 5959SOL     OW29338   1.971   1.351   3.342  0.1355 -0.2890  0.3995
 5959SOL    HW129339   2.023   1.422   3.304  0.9670  0.1453  2.3171
 5959SOL    HW229340   1.897   1.347   3.281  0.0170 -0.7185  0.5721
 5960SOL     OW29341   0.860   3.936   5.469 -0.5993 -0.5055  0.2858
 5960SOL    HW129342   0.892   3.855   5.430  0.5090 -0.8708  1.9583
 5960SOL    HW229343   0.766   3.917   5.476 -0.5200 -1.0620 -0.2160
 5961SOL     OW29344   3.474   1.361  17.318 -0.0249 -0.3844  0.5708
 5961SOL    HW129345   3.472   1.311  17.236  0.5515 -1.8136  1.4343
 5961SOL    HW229346   3.525   1.437  17.291 -0.5432  0.1942  1.2471
 5962SOL     OW29347   0.770   0.008   8.038 -0.2077 -0.3021  0.6937
 5962SOL    HW129348   0.756   4.664   7.972 -0.6493 -1.1671  1.6534
 5962SOL    HW229349   0.723   4.697   8.115 -0.8889 -1.0851 -0.0750
 5963SOL     OW29350   2.984   3.578   1.462 -0.5104  0.0072 -0.4323
 5963SOL    HW129351   2.993   3.491   1.422  0.8711 -0.8384  1.7132
 5963SOL    HW229352   3.051   3.577   1.530 -2.0172  0.6769  1.0693
 5964SOL     OW29353   3.415   3.374   0.601  0.2519 -0.0146 -0.1308
 5964SOL    HW129354   3.481   3.440   0.582 -0.1308  0.1377 -0.9490
 5964SOL    HW229355   3.341   3.431   0.581 -0.0063 -0.2637  0.1130
 5965SOL     OW29356   1.165   2.413   4.989 -0.1619  0.1126 -0.5951
 5965SOL    HW129357   1.101   2.447   5.053  1.1117  0.8145  0.3011
 5965SOL    HW229358   1.124   2.336   4.951  0.6426 -0.1255 -0.9747
 5966SOL     OW29359   2.181   1.091   7.177 -0.6392  0.3553  1.0517
 5966SOL    HW129360   2.192   1.098   7.272  0.4616 -2.3974  1.1161
 5966SOL    HW229361   2.179   0.996   7.184  1.2473  0.2557  0.4163
 5967SOL     OW29362   1.371   2.297   1.244  0.0824  0.6265  1.1129
 5967SOL    HW129363   1.431   2.300   1.319  1.8071  1.6978 -0.3032
 5967SOL    HW229364   1.391   2.209   1.213 -0.0989  1.3190 -0.9841
 5968SOL     OW29365   1.953   2.546   5.550  0.0406 -0.2992  0.1192
 5968SOL    HW129366   2.001   2.565   5.631  0.2597  0.1129 -0.1029
 5968SOL    HW229367   1.989   2.461   5.524  0.3440  0.3615 -1.6163
 5969SOL     OW29368   2.537   0.493  10.081 -0.1904  0.0179  0.0225
 5969SOL    HW129369   2.466   0.544  10.040 -0.7437 -0.5268  0.3082
 5969SOL    HW229370   2.494   0.410  10.099 -1.1927  0.8896  1.6209
 5970SOL     OW29371   0.237   0.350  16.704  0.0396  0.2314 -0.3435
 5970SOL    HW129372   0.324   0.319  16.680  0.2554 -0.9615  1.9691
 5970SOL    HW229373   0.229   0.436  16.663  1.6081 -0.5220 -2.2112
 5971SOL     OW29374   1.261   2.357   8.310  0.1540 -0.0086 -0.5969
 5971SOL    HW129375   1.324   2.307   8.362  0.3163 -0.0295 -0.8134
 5971SOL    HW229376   1.272   2.447   8.341 -1.3393  0.6345 -1.9434
 5972SOL     OW29377   1.361   4.170   3.339 -0.7612  0.0928 -0.4094
 5972SOL    HW129378   1.362   4.087   3.290  0.1517  0.1860 -0.5557
 5972SOL    HW229379   1.270   4.198   3.336 -0.4635  1.0566 -0.3221
 5973SOL     OW29380   4.058   0.871   8.339 -0.0011 -0.0855 -0.2382
 5973SOL    HW129381   4.018   0.831   8.415  2.3654  0.4037  1.2749
 5973SOL    HW229382   4.003   0.946   8.315 -1.0847 -0.5374  0.8731
 5974SOL     OW29383   2.642   1.648   2.866  0.2466  0.2562 -0.1132
 5974SOL    HW129384   2.658   1.733   2.827  1.2983 -0.2576 -0.7854
 5974SOL    HW229385   2.677   1.599   2.792 -0.7488 -0.0642 -0.3727
 5975SOL     OW29386   2.904   3.760   0.410  0.5623 -0.1958 -0.1586
 5975SOL    HW129387   2.915   3.667   0.431 -0.4224 -0.5149 -1.0531
 5975SOL    HW229388   2.809   3.769   0.416  0.8806  1.4585  2.4793
 5976SOL     OW29389   1.266   0.759   3.754  0.1426  0.2754 -0.2764
 5976SOL    HW129390   1.332   0.828   3.746  1.5578 -0.9120  1.2234
 5976SOL    HW229391   1.297   0.687   3.699 -3.8395 -0.4063 -1.5986
 5977SOL     OW29392   0.363   3.657   3.469  0.0040  0.0758  0.5166
 5977SOL    HW129393   0.422   3.583   3.455 -0.5994 -0.3039 -0.0184
 5977SOL    HW229394   0.283   3.629   3.424 -1.2229  1.9335  1.5123
 5978SOL     OW29395   3.315   1.507   2.158  0.1193  0.3472 -0.2860
 5978SOL    HW129396   3.240   1.558   2.129  0.6981  0.8546 -0.8942
 5978SOL    HW229397   3.374   1.582   2.154 -1.1799  1.5526  3.0123
 5979SOL     OW29398   3.115   0.762   8.222  0.0277  0.2197  0.4079
 5979SOL    HW129399   3.134   0.853   8.245  1.8335 -0.7395  2.6519
 5979SOL    HW229400   3.204   0.730   8.236 -0.7679 -1.8066  0.7124
 5980SOL     OW29401   4.198   0.459   4.605 -0.5896 -0.0546  0.4487
 5980SOL    HW129402   4.245   0.387   4.562 -3.3996 -0.6786 -1.5987
 5980SOL    HW229403   4.131   0.482   4.540  0.7431  2.2493 -0.0946
 5981SOL     OW29404   1.983   2.686   8.087  0.3773  0.0553  0.7931
 5981SOL    HW129405   2.039   2.761   8.066  0.0263  0.1911  0.3253
 5981SOL    HW229406   1.998   2.672   8.181  1.0955 -0.4828  0.5913
 5982SOL     OW29407   3.220   4.501  15.827 -0.2974 -0.5948  0.1456
 5982SOL    HW129408   3.162   4.519  15.900  1.0431  0.5275  0.9367
 5982SOL    HW229409   3.173   4.559  15.766  0.2095  1.1885  1.4375
 5983SOL     OW29410   2.565   1.001  11.906  0.2440  0.1306  0.2115
 5983SOL    HW129411   2.476   1.002  11.940  0.4514 -0.0299  0.7736
 5983SOL    HW229412   2.561   1.027  11.814  0.8964  1.6217  0.5940
 5984SOL     OW29413   4.515   2.216   9.108  0.4971  0.0705  0.6974
 5984SOL    HW129414   4.580   2.146   9.102  0.2272 -0.0761 -0.5021
 5984SOL    HW229415   4.479   2.195   9.194 -1.7983  1.6234  0.1395
 5985SOL     OW29416   0.488   0.708  15.059 -0.1736 -0.7829 -0.2437
 5985SOL    HW129417   0.393   0.708  15.074  0.1029 -0.5138  1.5052
 5985SOL    HW229418   0.492   0.787  15.005 -0.0792 -1.3722 -1.1062
 5986SOL     OW29419   2.982   0.146  11.549  0.3054  0.3609 -0.2101
 5986SOL    HW129420   2.891   0.123  11.569  0.5507  0.3093  0.8288
 5986SOL    HW229421   2.980   0.162  11.454 -0.9935  2.1635  0.1266
 5987SOL     OW29422   4.703   4.187   9.523 -0.4180 -0.1109  0.3130
 5987SOL    HW129423   0.009   4.200   9.614 -1.4394  1.2180  0.4356
 5987SOL    HW229424   0.060   4.159   9.478 -1.0331  1.0361 -1.4796
 5988SOL     OW29425   3.659   3.654   0.962 -0.5053 -0.2802  0.0517
 5988SOL    HW129426   3.732   3.636   1.022 -0.3751  0.2782  0.0568
 5988SOL    HW229427   3.704   3.715   0.904 -1.1690 -0.3473 -0.5345
 5989SOL     OW29428   4.400   2.351   8.340 -0.3759  0.0467  0.5610
 5989SOL    HW129429   4.351   2.344   8.258 -1.2939 -0.0193  1.1072
 5989SOL    HW229430   4.487   2.364   8.303 -0.7564  0.8928 -0.0374
 5990SOL     OW29431   2.847   2.211   2.115  0.1920 -0.0745  0.4433
 5990SOL    HW129432   2.856   2.306   2.128 -3.8577  0.1731  1.3883
 5990SOL    HW229433   2.935   2.183   2.142 -0.3746 -1.7124  0.6221
 5991SOL     OW29434   0.875   3.402  16.516  0.5238 -0.0409 -0.0929
 5991SOL    HW129435   0.820   3.479  16.531  0.3022 -0.6898  2.4054
 5991SOL    HW229436   0.949   3.427  16.461 -0.1400  1.3208 -0.3753
 5992SOL     OW29437   4.237   4.107  16.233  0.1074  0.0804  0.0197
 5992SOL    HW129438   4.247   4.106  16.138 -2.5306 -1.3669 -0.2473
 5992SOL    HW229439   4.318   4.143  16.269 -0.5028 -0.3901  1.9101
 5993SOL     OW29440   2.528   3.897   4.991  0.1772 -0.3535  0.2493
 5993SOL    HW129441   2.433   3.886   4.992 -0.1100  2.1001  0.3047
 5993SOL    HW229442   2.539   3.856   4.906  1.5152 -0.0310  0.2632
 5994SOL     OW29443   3.518   1.826  17.254 -0.3376  0.7370  0.2347
 5994SOL    HW129444   3.606   1.792  17.270 -1.6550 -3.3951 -1.3961
 5994SOL    HW229445   3.469   1.744  17.255  0.7066  0.1151  0.3438
 5995SOL     OW29446   0.342   3.054   2.665 -0.3843  0.0163 -0.1038
 5995SOL    HW129447   0.421   3.003   2.643 -1.9865 -1.8566 -1.5111
 5995SOL    HW229448   0.389   3.128   2.705  0.0181  0.8502 -2.1435
 5996SOL     OW29449   2.565   1.534   9.091  0.4053 -0.0820 -0.1582
 5996SOL    HW129450   2.562   1.453   9.040  3.3026 -0.1973 -0.1271
 5996SOL    HW229451   2.475   1.565   9.104  0.6488  1.7640 -2.9671
 5997SOL     OW29452   4.533   1.643  16.904  0.3776 -0.0935  0.2105
 5997SOL    HW129453   4.613   1.636  16.956  1.4417 -0.2413 -1.4366
 5997SOL    HW229454   4.464   1.644  16.970  0.1454  5.3699 -0.1304
 5998SOL     OW29455   4.644   4.054   8.108  0.3305  0.1749  0.1200
 5998SOL    HW129456   4.656   4.070   8.014  0.4326 -0.1857  0.0712
 5998SOL    HW229457   0.010   4.026   8.132 -0.4769 -0.1064  2.7160
 5999SOL     OW29458   2.404   4.583  10.430 -0.3782 -0.0819  0.2098
 5999SOL    HW129459   2.330   4.555  10.376  0.1605 -2.0852  0.5000
 5999SOL    HW229460   2.431   4.494  10.453  1.3388  0.0887 -1.1757
 6000SOL     OW29461   1.196   2.826   3.600 -0.1666 -0.2374 -0.5999
 6000SOL    HW129462   1.160   2.737   3.606 -1.0513  0.0865 -1.1511
 6000SOL    HW229463   1.246   2.839   3.520  0.0612  1.1577 -0.2328
 6001SOL     OW29464   1.286   2.612   4.775  0.1551 -0.3317 -0.4036
 6001SOL    HW129465   1.252   2.633   4.862  0.2801 -0.1322 -0.4035
 6001SOL    HW229466   1.207   2.580   4.733 -0.6805  1.5776 -0.2675
 6002SOL     OW29467   3.334   2.686   6.720  0.1650 -0.0648  0.1804
 6002SOL    HW129468   3.304   2.596   6.709  0.6544 -0.4240  1.8545
 6002SOL    HW229469   3.385   2.696   6.639 -1.4072 -0.1985 -0.8271
 6003SOL     OW29470   0.988   1.226   0.807  0.0758  0.2778  0.5037
 6003SOL    HW129471   1.012   1.135   0.791 -2.7632 -0.5222  0.8102
 6003SOL    HW229472   1.072   1.265   0.783 -0.4844  1.5154  0.5411
 6004SOL     OW29473   2.522   2.221   6.395 -0.2783  0.5641  0.5078
 6004SOL    HW129474   2.615   2.225   6.415 -0.5292  1.9422  1.3898
 6004SOL    HW229475   2.488   2.308   6.418  0.6335  0.6877  1.3368
 6005SOL     OW29476   1.304   1.973  15.016 -0.1258  0.5933 -0.1882
 6005SOL    HW129477   1.208   1.972  15.022 -0.0590 -1.3690  0.4069
 6005SOL    HW229478   1.315   2.065  14.991  1.5260  0.4096 -0.1293
 6006SOL     OW29479   3.892   0.002   0.001  0.0490  0.6113  0.2091
 6006SOL    HW129480   3.879   4.640  17.650  1.7480  0.4523 -0.0009
 6006SOL    HW229481   3.941   0.048  17.623 -1.7944 -3.1608 -3.5897
 6007SOL     OW29482   4.079   0.663   6.522  0.6869 -0.2610  0.5368
 6007SOL    HW129483   4.047   0.628   6.605 -1.1721  1.3977  0.5453
 6007SOL    HW229484   4.067   0.757   6.537 -0.0975 -0.5100  1.4616
 6008SOL     OW29485   4.114   2.017   8.059 -0.0946 -0.2229  0.1805
 6008SOL    HW129486   4.020   1.998   8.053  0.6409 -3.6720  0.0094
 6008SOL    HW229487   4.152   1.934   8.087  1.1446 -0.3226 -1.8548
 6009SOL     OW29488   0.351   4.668   2.768  0.1850  0.5405 -0.3537
 6009SOL    HW129489   0.341   4.695   2.677  2.5183  1.8675 -0.2405
 6009SOL    HW229490   0.441   4.635   2.773 -0.3825 -0.7771  1.1166
 6010SOL     OW29491   0.933   4.083   5.904 -0.5705  0.0725 -0.5307
 6010SOL    HW129492   0.913   3.994   5.936 -1.8083  0.3744 -0.4601
 6010SOL    HW229493   0.892   4.081   5.818 -1.4320  0.0809 -0.1254
 6011SOL     OW29494   1.963   2.127   0.124 -0.1480  0.8615 -0.1095
 6011SOL    HW129495   2.010   2.206   0.152 -1.4880  0.5355  3.0529
 6011SOL    HW229496   1.973   2.128   0.029  0.6815  1.6376 -0.0187
 6012SOL     OW29497   3.644   4.074   3.938  0.3677 -0.0684 -0.0035
 6012SOL    HW129498   3.655   4.086   3.844  2.2822 -2.0465 -0.0362
 6012SOL    HW229499   3.694   3.993   3.945  1.0501  0.3065 -0.6107
 6013SOL     OW29500   0.750   1.671   6.750 -1.0327  0.1047  0.1070
 6013SOL    HW129501   0.786   1.750   6.788  0.6242 -0.4454 -0.3358
 6013SOL    HW229502   0.754   1.616   6.828 -0.1861  1.0882  0.7429
 6014SOL     OW29503   2.174   1.008   2.252 -0.1941  0.1216  0.2905
 6014SOL    HW129504   2.253   0.969   2.213 -1.4736 -1.4596 -0.6915
 6014SOL    HW229505   2.193   1.085   2.307 -0.5613 -0.1665  0.8249
 6015SOL     OW29506   4.003   3.768   5.195  0.6256  0.2396 -0.4206
 6015SOL    HW129507   4.057   3.845   5.213  1.3778 -0.6021  0.9073
 6015SOL    HW229508   3.940   3.779   5.266 -0.2488  0.6186 -1.2613
 6016SOL     OW29509   0.720   1.808  14.820 -0.0885 -0.2249  0.6463
 6016SOL    HW129510   0.703   1.801  14.914  0.3499  1.0636  0.8175
 6016SOL    HW229511   0.659   1.743  14.786  3.0225 -2.6879 -0.1985
 6017SOL     OW29512   2.514   1.996   2.431  0.2679  0.2624  0.0631
 6017SOL    HW129513   2.445   1.969   2.370 -0.4468  0.0855  0.9366
 6017SOL    HW229514   2.549   2.072   2.385 -0.7617 -0.4346 -1.8807
 6018SOL     OW29515   2.709   0.651   0.598 -0.3546 -0.0134  0.6109
 6018SOL    HW129516   2.640   0.667   0.662 -1.0600 -3.2996  0.6784
 6018SOL    HW229517   2.672   0.695   0.521  0.1951 -0.0920  0.2976
 6019SOL     OW29518   0.066   3.422   0.319  0.2479  0.3028  0.1468
 6019SOL    HW129519   4.696   3.414   0.343  0.3224 -0.3862  0.1916
 6019SOL    HW229520   0.063   3.505   0.272 -1.7872  0.5638  0.7553
 6020SOL     OW29521   2.608   2.936   1.314 -0.5074 -0.3813  0.6209
 6020SOL    HW129522   2.673   2.951   1.384  0.5779  0.2613 -0.5215
 6020SOL    HW229523   2.666   2.944   1.238 -2.0254 -2.2917 -0.7352
 6021SOL     OW29524   0.366   1.870   0.730 -0.3685  0.3374 -0.0134
 6021SOL    HW129525   0.318   1.953   0.730 -2.9448 -1.1486 -0.9692
 6021SOL    HW229526   0.455   1.905   0.728  0.4143 -1.7652 -1.3940
 6022SOL     OW29527   0.055   1.820  12.092 -0.4912 -0.3995 -0.0583
 6022SOL    HW129528   0.092   1.860  12.013  2.0319  0.1042  1.4055
 6022SOL    HW229529   0.138   1.775  12.108 -0.9628 -0.5267  1.9563
 6023SOL     OW29530   3.489   0.226   3.347 -0.0580 -0.1534 -0.0648
 6023SOL    HW129531   3.407   0.177   3.340  2.2014 -4.0977  1.1743
 6023SOL    HW229532   3.513   0.200   3.435 -0.2413  0.0788  0.0531
 6024SOL     OW29533   3.709   2.686   3.665  0.7456  0.1346 -0.0772
 6024SOL    HW129534   3.694   2.604   3.712  2.5816  0.1835  0.5942
 6024SOL    HW229535   3.634   2.741   3.689  0.4174 -0.3471 -0.0059
 6025SOL     OW29536   1.245   0.191   7.390  0.3592 -0.0274  0.2821
 6025SOL    HW129537   1.316   0.247   7.421  1.7618 -1.9429  0.5712
 6025SOL    HW229538   1.234   0.131   7.463  1.2776 -0.4248  0.0931
 6026SOL     OW29539   2.454   3.255   9.116 -0.0439  0.5932 -0.2519
 6026SOL    HW129540   2.399   3.177   9.122 -0.5892  1.0838  1.0977
 6026SOL    HW229541   2.385   3.312   9.082  0.0211 -0.3026 -1.8725
 6027SOL     OW29542   0.917   2.891   8.995 -0.2499 -0.0646  0.1599
 6027SOL    HW129543   0.878   2.977   9.005  1.0610  0.4354  0.9187
 6027SOL    HW229544   1.007   2.912   9.019 -0.0294 -2.2874  1.2790
 6028SOL     OW29545   0.222   4.087   2.943  0.1095 -0.1896 -0.0533
 6028SOL    HW129546   0.229   4.164   3.000 -1.7913  0.7740 -1.1064
 6028SOL    HW229547   0.164   4.124   2.876  1.2121  2.2764  0.3646
 6029SOL     OW29548   2.579   2.434   2.075  0.4281  0.3033 -0.2141
 6029SOL    HW129549   2.669   2.462   2.089 -0.0041  1.4444  0.2721
 6029SOL    HW229550   2.569   2.388   2.158  0.1305 -2.6398 -1.8888
 6030SOL     OW29551   3.556   0.065   3.561 -0.4184  0.4320  0.4396
 6030SOL    HW129552   3.629   0.004   3.547 -0.9672 -0.3692  1.0598
 6030SOL    HW229553   3.528   0.055   3.652  0.5231 -0.0446  0.6812
 6031SOL     OW29554   2.465   3.120   6.786  0.1415 -0.3224 -0.6829
 6031SOL    HW129555   2.439   3.130   6.695  0.7438  1.1229 -0.6865
 6031SOL    HW229556   2.537   3.182   6.792  0.0291 -0.1445 -1.1596
 6032SOL     OW29557   0.065   3.488   9.461 -0.7495  0.2774  0.1838
 6032SOL    HW129558   0.076   3.565   9.517  1.2541 -0.3255  0.6306
 6032SOL    HW229559   4.699   3.457   9.480 -0.3205 -1.5813 -0.8563
 6033SOL     OW29560   4.384   3.154   2.277  0.0488  1.2096 -0.3736
 6033SOL    HW129561   4.418   3.085   2.220 -1.8517  0.0274 -0.0610
 6033SOL    HW229562   4.293   3.158   2.247 -0.0165  0.8043 -0.2236
 6034SOL     OW29563   2.808   3.304  14.822  0.1434  0.0244 -0.3370
 6034SOL    HW129564   2.858   3.325  14.901 -0.5235 -3.6503  1.0924
 6034SOL    HW229565   2.871   3.325  14.753  0.2800  1.8830  0.3711
 6035SOL     OW29566   1.663   2.655   8.233  0.3542  0.5458  0.3696
 6035SOL    HW129567   1.716   2.729   8.202  0.1901  0.7083  0.4780
 6035SOL    HW229568   1.738   2.595   8.238 -0.0617 -0.0463 -0.4273
 6036SOL     OW29569   0.682   4.224   8.251  0.2054 -0.1239  0.1663
 6036SOL    HW129570   0.593   4.194   8.267 -0.0574 -0.7009 -2.3100
 6036SOL    HW229571   0.720   4.174   8.323 -0.6073 -1.0329 -0.0419
 6037SOL     OW29572   4.256   2.252  17.364  0.4893 -0.0949  0.5549
 6037SOL    HW129573   4.179   2.210  17.403  0.0405 -0.2994 -0.5715
 6037SOL    HW229574   4.212   2.312  17.304  2.6411  0.7901 -0.1408
 6038SOL     OW29575   1.335   2.203   2.515 -0.3715 -0.3918  0.4753
 6038SOL    HW129576   1.292   2.136   2.568 -2.4559 -0.8298 -1.7787
 6038SOL    HW229577   1.397   2.147   2.468  0.2912  0.9739 -0.2700
 6039SOL     OW29578   3.417   0.697   1.861 -0.1403 -0.2723 -0.0954
 6039SOL    HW129579   3.388   0.699   1.952  0.9869  1.1357  0.2390
 6039SOL    HW229580   3.347   0.752   1.826  0.7748  0.8520 -0.1738
 6040SOL     OW29581   4.581   1.916   2.915  0.7800  0.2430 -0.3272
 6040SOL    HW129582   4.622   2.001   2.898 -0.0765  0.5265 -0.9499
 6040SOL    HW229583   4.501   1.942   2.959  1.1780 -1.3643  1.3934
 6041SOL     OW29584   0.111   1.042  10.716  0.7948 -0.1104  0.2999
 6041SOL    HW129585   0.100   1.100  10.791 -2.5303  0.5449 -0.7216
 6041SOL    HW229586   0.129   1.108  10.650  1.9631 -0.3226  0.3994
 6042SOL     OW29587   3.443   3.831   7.988 -0.2253 -0.1479  0.2121
 6042SOL    HW129588   3.439   3.856   7.895 -1.1249 -0.8147  0.0653
 6042SOL    HW229589   3.368   3.879   8.023 -0.0893  0.9882 -1.0728
 6043SOL     OW29590   2.082   1.852   6.772  0.0921 -0.4339 -0.1669
 6043SOL    HW129591   2.167   1.870   6.733  0.5223  0.1743  1.0713
 6043SOL    HW229592   2.116   1.792   6.839  2.7280 -0.6896 -1.7109
 6044SOL     OW29593   4.612   2.188   2.885 -0.2188  0.5091 -0.1831
 6044SOL    HW129594   4.676   2.243   2.931  2.2836 -0.3438 -2.5737
 6044SOL    HW229595   4.532   2.223   2.923  1.6780  0.4158  3.8303
 6045SOL     OW29596   1.402   3.005  17.155 -0.4093 -0.6950  0.0005
 6045SOL    HW129597   1.409   2.988  17.061  0.4288 -1.7714  0.2736
 6045SOL    HW229598   1.454   2.927  17.172  3.1516  1.5272 -0.7025
 6046SOL     OW29599   2.301   0.849  11.046  0.0609 -0.0304  0.6974
 6046SOL    HW129600   2.255   0.933  11.038  1.7233  1.0873  2.8755
 6046SOL    HW229601   2.265   0.817  11.129  1.9916 -1.9757  0.7731
 6047SOL     OW29602   0.812   1.236  17.647  0.1813 -0.2047 -0.2807
 6047SOL    HW129603   0.811   1.213  17.554  1.7688 -2.6777  0.3214
 6047SOL    HW229604   0.855   1.163  17.690 -0.5357 -0.4821 -0.0317
 6048SOL     OW29605   1.256   0.425   4.524  0.1270 -0.5013 -0.0580
 6048SOL    HW129606   1.210   0.369   4.461 -1.4897  0.0699  0.6129
 6048SOL    HW229607   1.206   0.401   4.603 -2.6298  0.7708 -1.3986
 6049SOL     OW29608   0.177   2.776  13.695 -0.1054  0.0561  0.2911
 6049SOL    HW129609   0.084   2.790  13.681  0.0112  0.0357 -0.5553
 6049SOL    HW229610   0.175   2.700  13.752  0.7086  0.6532  1.1218
 6050SOL     OW29611   2.241   2.516   9.201 -0.1288 -0.2546 -0.1418
 6050SOL    HW129612   2.153   2.530   9.165 -0.6195 -2.8249  0.0539
 6050SOL    HW229613   2.270   2.439   9.152  2.3645  2.0674 -2.2644
 6051SOL     OW29614   0.430   4.367  13.835  0.8393 -0.1785 -0.3805
 6051SOL    HW129615   0.481   4.291  13.862  0.5651  0.3101  1.5377
 6051SOL    HW229616   0.484   4.408  13.767  1.2808  0.7318  0.5077
 6052SOL     OW29617   2.913   1.863   2.675  0.5144 -0.4630 -0.3156
 6052SOL    HW129618   2.957   1.814   2.606  3.2830  0.8895  0.5170
 6052SOL    HW229619   2.925   1.953   2.644 -1.1516  0.0795  0.5557
 6053SOL     OW29620   4.357   2.189   0.951  0.3035  0.5232  0.7127
 6053SOL    HW129621   4.321   2.112   0.907 -0.4433  2.4156 -1.9846
 6053SOL    HW229622   4.394   2.239   0.878 -1.0747 -1.1513 -1.1307
 6054SOL     OW29623   4.137   0.835  17.038 -0.1232  0.0948  0.3302
 6054SOL    HW129624   4.180   0.753  17.013  0.2162  0.5812 -0.7074
 6054SOL    HW229625   4.070   0.808  17.100 -0.5783 -0.1815 -0.2820
 6055SOL     OW29626   1.090   4.289   5.846 -0.4608  0.1429  0.7224
 6055SOL    HW129627   1.027   4.344   5.798  0.4336 -0.0537 -0.6589
 6055SOL    HW229628   1.046   4.204   5.851 -2.4090  0.9747 -2.0262
 6056SOL     OW29629   1.476   4.571   3.686  0.0111  0.1500  0.1325
 6056SOL    HW129630   1.440   4.537   3.768  0.0146 -0.9338 -0.3100
 6056SOL    HW229631   1.425   4.650   3.667  2.0483  2.0300  2.5454
 6057SOL     OW29632   3.765   2.940   3.173  0.2190 -0.1904  0.3074
 6057SOL    HW129633   3.776   3.031   3.144  1.0668 -0.1364  0.7992
 6057SOL    HW229634   3.845   2.924   3.224 -0.6576 -1.6558  1.2357
 6058SOL     OW29635   0.337   1.999  15.859 -0.4944 -0.0194  0.1476
 6058SOL    HW129636   0.291   2.082  15.872  0.5132  0.2838  1.9042
 6058SOL    HW229637   0.340   1.977  15.953  0.7872 -0.7458 -0.0589
 6059SOL     OW29638   3.027   0.552   4.217  0.1305  0.2839  0.3548
 6059SOL    HW129639   3.021   0.458   4.200 -1.4287  0.2906  0.8625
 6059SOL    HW229640   2.942   0.580   4.183 -0.4437  1.3984  2.6536
 6060SOL     OW29641   2.237   2.691  11.173  0.0975 -0.7882  0.1916
 6060SOL    HW129642   2.202   2.705  11.261 -0.0729  0.6541 -0.0963
 6060SOL    HW229643   2.165   2.644  11.129  0.8215  0.4851 -2.3605
 6061SOL     OW29644   0.549   0.778   7.706 -0.1952  0.4498 -0.0229
 6061SOL    HW129645   0.610   0.745   7.641  0.4098  0.9511  0.2940
 6061SOL    HW229646   0.562   0.734   7.790 -2.8615  1.2659  0.8392
 6062SOL     OW29647   0.507   2.105   6.995 -0.0403  0.5544  0.6731
 6062SOL    HW129648   0.575   2.140   6.937 -0.2999 -0.8585 -0.5017
 6062SOL    HW229649   0.562   2.042   7.042  1.1539  1.2996  0.2817
 6063SOL     OW29650   1.368   2.967   6.692  0.7282  0.1808 -0.2314
 6063SOL    HW129651   1.439   3.029   6.710 -0.8262  1.9958 -0.3350
 6063SOL    HW229652   1.360   2.979   6.597  5.0440  1.9307 -0.3700
 6064SOL     OW29653   0.694   2.705   0.173 -0.0766  0.4724  0.2180
 6064SOL    HW129654   0.612   2.704   0.222  1.0747 -1.5312  2.1362
 6064SOL    HW229655   0.750   2.668   0.241 -0.8769 -0.3163  0.4508
 6065SOL     OW29656   2.598   1.730   2.477  0.4190 -0.1302  0.4080
 6065SOL    HW129657   2.593   1.812   2.526  0.5124  0.3500 -0.3935
 6065SOL    HW229658   2.559   1.765   2.396 -0.7809 -0.5151  0.8104
 6066SOL     OW29659   1.684   1.471   7.668  0.5279 -0.0988 -0.4267
 6066SOL    HW129660   1.760   1.445   7.719  1.9456  1.8093 -1.5747
 6066SOL    HW229661   1.701   1.562   7.643  0.1234  0.2701  0.6599
 6067SOL     OW29662   0.292   0.098   4.402 -0.2494 -0.7015  0.1897
 6067SOL    HW129663   0.387   0.106   4.397 -0.2923 -0.6023 -0.5355
 6067SOL    HW229664   0.281   0.141   4.486  0.9510  0.6031 -0.3200
 6068SOL     OW29665   2.318   4.634   8.941  0.7094  0.4959 -0.1963
 6068SOL    HW129666   2.317   0.003   8.913 -0.2295  1.0568  1.6490
 6068SOL    HW229667   2.324   4.581   8.862  2.0550 -1.1705  1.0012
 6069SOL     OW29668   0.252   1.903   8.520  0.1591 -0.2433  0.4369
 6069SOL    HW129669   0.243   1.808   8.511 -1.7335  0.0272 -0.5891
 6069SOL    HW229670   0.346   1.912   8.504  0.0802 -1.0976 -0.5163
 6070SOL     OW29671   1.452   3.354   9.967 -0.2617 -0.2431 -0.6547
 6070SOL    HW129672   1.382   3.391   9.913 -0.1580  1.1575  0.1511
 6070SOL    HW229673   1.409   3.346  10.052  1.9409  1.5908  0.6375
 6071SOL     OW29674   3.684   2.921  13.211  0.0375 -0.1507  0.8878
 6071SOL    HW129675   3.702   2.888  13.299  1.3622 -0.7427  0.3889
 6071SOL    HW229676   3.733   2.860  13.155  0.2853  1.4199 -0.6230
 6072SOL     OW29677   1.576   4.332   8.003  0.1023 -0.0238  0.0911
 6072SOL    HW129678   1.574   4.375   7.918 -3.2204 -0.8024 -0.2312
 6072SOL    HW229679   1.510   4.385   8.048  1.8082  2.7725 -0.7108
 6073SOL     OW29680   3.899   1.091   8.509 -0.1427  0.2494 -0.4316
 6073SOL    HW129681   3.981   1.108   8.463  0.9514 -1.0666  1.0164
 6073SOL    HW229682   3.924   1.036   8.583 -0.5136  2.0638  1.0357
 6074SOL     OW29683   3.287   4.468   2.875  0.2589 -0.1093  0.0192
 6074SOL    HW129684   3.334   4.540   2.833 -0.3974  0.7430  0.7403
 6074SOL    HW229685   3.277   4.405   2.804 -0.5008 -1.2901  1.1830
 6075SOL     OW29686   1.029   3.017  12.983  0.7357 -0.3564  0.4945
 6075SOL    HW129687   1.083   3.095  12.974  0.6097 -0.1951  1.1598
 6075SOL    HW229688   0.956   3.064  13.024  1.7719  1.0878  0.6851
 6076SOL     OW29689   1.433   4.068  10.343  0.7186 -0.4302 -0.6736
 6076SOL    HW129690   1.438   4.065  10.247 -0.4070 -1.6599 -0.6847
 6076SOL    HW229691   1.441   3.978  10.375  2.3956 -0.0789 -0.0561
 6077SOL     OW29692   2.330   1.153   3.457 -0.4974 -0.0614 -0.3724
 6077SOL    HW129693   2.261   1.207   3.497 -3.1113 -3.3593 -0.4645
 6077SOL    HW229694   2.295   1.125   3.373  0.3419 -3.0243  0.2755
 6078SOL     OW29695   4.223   1.980   9.136 -0.0938 -1.0783  0.1361
 6078SOL    HW129696   4.185   2.068   9.141 -0.0745 -1.1881  2.1949
 6078SOL    HW229697   4.232   1.964   9.230  1.9898 -0.4031  0.0565
 6079SOL     OW29698   2.631   0.430   7.833 -0.0885  0.9170 -0.5733
 6079SOL    HW129699   2.693   0.401   7.900 -0.5248  1.0887 -0.0912
 6079SOL    HW229700   2.547   0.429   7.879 -1.2713 -0.0119 -2.7645
 6080SOL     OW29701   3.026   2.409   6.993  0.0613  0.3317 -0.2368
 6080SOL    HW129702   3.045   2.499   6.965 -1.2533  0.7451  0.1639
 6080SOL    HW229703   3.106   2.382   7.036  0.0179  0.8342  0.1721
 6081SOL     OW29704   3.961   4.444   7.360  0.4404 -0.1614 -0.2265
 6081SOL    HW129705   3.951   4.477   7.270  0.2084 -0.7581 -0.4198
 6081SOL    HW229706   3.870   4.424   7.382  1.5580 -2.4186  2.3517
 6082SOL     OW29707   3.516   3.961  12.058 -0.3812  0.0239  0.0855
 6082SOL    HW129708   3.465   3.911  11.993  0.1631 -0.5384  0.0929
 6082SOL    HW229709   3.602   3.923  12.040 -0.1933  0.0686  0.9017
 6083SOL     OW29710   4.486   1.246   5.503  0.2649 -0.0158  0.2139
 6083SOL    HW129711   4.396   1.241   5.470  0.3844  0.4390 -0.1916
 6083SOL    HW229712   4.516   1.333   5.475  0.4182  0.7980  2.8827
 6084SOL     OW29713   2.103   4.309   2.645  0.4502  0.1932  0.1006
 6084SOL    HW129714   2.008   4.315   2.646  0.1436 -3.3360 -4.9406
 6084SOL    HW229715   2.121   4.314   2.551  0.7330 -1.9068  0.0393
 6085SOL     OW29716   1.416   2.259   7.941 -0.2415  0.3122 -0.2685
 6085SOL    HW129717   1.341   2.216   7.901  0.0660 -0.3495 -0.1265
 6085SOL    HW229718   1.440   2.186   7.998 -0.1091 -0.0621 -0.8120
 6086SOL     OW29719   4.181   4.048   8.632  0.0390 -0.2218  0.3769
 6086SOL    HW129720   4.165   4.059   8.538 -2.5776 -1.1885  0.7112
 6086SOL    HW229721   4.093   4.055   8.667 -0.4098  0.4574 -0.8782
 6087SOL     OW29722   1.836   2.552   6.792  0.5066 -0.2644  0.1999
 6087SOL    HW129723   1.872   2.613   6.857  2.5771  0.1305 -1.2945
 6087SOL    HW229724   1.742   2.557   6.810  0.1972 -1.1921 -1.1365
 6088SOL     OW29725   2.178   1.524   8.680 -0.1598 -0.0043 -0.2306
 6088SOL    HW129726   2.221   1.454   8.730  0.0680  1.1127  1.1643
 6088SOL    HW229727   2.207   1.508   8.590  2.4766 -1.1678  0.7955
 6089SOL     OW29728   3.972   2.139   2.909  0.1216 -0.1893 -0.1885
 6089SOL    HW129729   3.973   2.150   3.005  0.3840 -0.8819 -0.1111
 6089SOL    HW229730   3.889   2.182   2.891 -0.5679 -1.6669 -0.5212
 6090SOL     OW29731   3.858   3.160  10.980  0.2349 -0.3759  0.4797
 6090SOL    HW129732   3.863   3.252  11.004 -0.9418 -0.4107  0.8632
 6090SOL    HW229733   3.798   3.134  11.050  0.1294  0.5114  0.7203
 6091SOL     OW29734   1.210   4.065  12.141  0.2902  0.0936  0.4196
 6091SOL    HW129735   1.270   4.123  12.189 -0.5712  0.0190  1.5729
 6091SOL    HW229736   1.147   4.133  12.118 -0.4878 -0.9823 -0.6100
 6092SOL     OW29737   3.601   4.127  13.571  0.1387  0.1043 -0.1589
 6092SOL    HW129738   3.548   4.203  13.546  1.5170  0.4876 -1.9301
 6092SOL    HW229739   3.690   4.160  13.570 -0.3165  1.3311  1.9664
 6093SOL     OW29740   3.513   1.148   4.564 -0.0126  0.1929  0.0733
 6093SOL    HW129741   3.518   1.170   4.470 -0.6115 -0.6420 -0.1531
 6093SOL    HW229742   3.559   1.218   4.609  0.5370  0.1547 -0.4248
 6094SOL     OW29743   0.291   1.932   3.921  0.5250 -0.0538  0.3782
 6094SOL    HW129744   0.377   1.962   3.891  0.0235  0.8223 -0.1974
 6094SOL    HW229745   0.233   1.995   3.879 -2.4319 -2.3428  0.9807
 6095SOL     OW29746   1.012   2.262  11.181 -0.9387 -0.3033 -0.2651
 6095SOL    HW129747   0.930   2.294  11.144 -1.0911 -0.7661 -0.3304
 6095SOL    HW229748   1.058   2.343  11.203  0.0481 -0.9982  0.2017
 6096SOL     OW29749   2.184   4.295   3.918 -0.1483  0.5527  0.1037
 6096SOL    HW129750   2.168   4.388   3.901  0.0417  0.5186 -0.2552
 6096SOL    HW229751   2.194   4.281   4.012  0.2414  1.3620  0.1798
 6097SOL     OW29752   2.327   4.466   8.725  0.1450 -0.5277  0.5103
 6097SOL    HW129753   2.286   4.468   8.639 -0.5364 -0.1421  0.8476
 6097SOL    HW229754   2.412   4.441   8.689 -0.0572  0.0512 -0.3759
 6098SOL     OW29755   4.538   4.580   9.431 -0.5670 -0.1368 -0.1122
 6098SOL    HW129756   4.539   4.502   9.375 -1.6603  0.9288 -1.6087
 6098SOL    HW229757   4.615   4.565   9.486 -0.6628 -0.7190 -0.1342
 6099SOL     OW29758   3.595   2.616   3.261 -0.2283  0.4916  0.4754
 6099SOL    HW129759   3.505   2.610   3.295 -1.4200  0.2213 -2.6744
 6099SOL    HW229760   3.580   2.691   3.204  0.2755  2.2658  2.7101
 6100SOL     OW29761   0.158   2.255   8.344 -0.2696  0.4266  0.3993
 6100SOL    HW129762   0.236   2.226   8.297 -0.1427  0.1734  0.7661
 6100SOL    HW229763   0.181   2.338   8.385  1.9171 -0.7122  1.4804
 6101SOL     OW29764   1.967   0.874  14.098  0.1779  0.0397 -0.0618
 6101SOL    HW129765   2.043   0.840  14.050 -0.4412 -0.9624 -0.3346
 6101SOL    HW229766   1.988   0.966  14.081 -1.7176  0.4172 -0.3254
 6102SOL     OW29767   0.225   3.646   2.870 -0.6147  0.9770 -0.2901
 6102SOL    HW129768   0.252   3.595   2.794  2.5182  0.3482  1.2378
 6102SOL    HW229769   0.155   3.693   2.825 -1.8247 -0.4608  0.1030
 6103SOL     OW29770   3.689   2.675  13.030 -0.2847 -0.6026 -0.5509
 6103SOL    HW129771   3.771   2.656  12.986 -1.0021  0.8586 -2.4982
 6103SOL    HW229772   3.648   2.706  12.949 -3.4497 -3.4241 -0.0370
 6104SOL     OW29773   0.189   1.524   4.158 -0.1866 -0.8084  0.0596
 6104SOL    HW129774   0.160   1.559   4.074  0.0257  1.4968  0.9568
 6104SOL    HW229775   0.279   1.555   4.154  0.0504 -1.3879  0.8726
 6105SOL     OW29776   3.934   1.912   4.970  0.3664  0.6624 -0.1147
 6105SOL    HW129777   3.972   1.837   4.922  0.5313 -1.4626  3.3433
 6105SOL    HW229778   3.923   1.874   5.057  0.3000  1.7649  0.3479
 6106SOL     OW29779   0.451   3.268   6.812 -0.4006 -0.6242  0.1709
 6106SOL    HW129780   0.530   3.226   6.846 -1.2161 -2.2249  0.0517
 6106SOL    HW229781   0.385   3.216   6.857 -1.4139  1.0609  0.6469
 6107SOL     OW29782   3.922   2.313   0.240  0.1191  0.2543 -0.2540
 6107SOL    HW129783   3.913   2.302   0.145  2.3035  2.2234 -0.7019
 6107SOL    HW229784   3.908   2.407   0.251 -2.1136 -0.1144  0.1264
 6108SOL     OW29785   4.231   0.595   3.846  0.0849  0.1181  0.0736
 6108SOL    HW129786   4.162   0.543   3.806  1.1652 -1.1818 -0.1031
 6108SOL    HW229787   4.219   0.566   3.936  0.2251 -2.0012 -0.6063
 6109SOL     OW29788   0.939   4.015   1.256 -0.1834 -0.3944 -0.4156
 6109SOL    HW129789   0.973   3.942   1.308  2.6453  1.2215 -0.0127
 6109SOL    HW229790   0.863   4.039   1.309 -0.1229 -0.5778 -0.2435
 6110SOL     OW29791   0.893   1.282   4.648  0.3896 -0.4687 -0.2591
 6110SOL    HW129792   0.956   1.353   4.636  2.5508 -2.2717  0.5292
 6110SOL    HW229793   0.948   1.206   4.628  1.8547 -0.2413  3.0041
 6111SOL     OW29794   2.191   4.160   7.623 -0.7452  0.1916 -0.1320
 6111SOL    HW129795   2.234   4.079   7.651 -0.2803 -0.0565 -1.5180
 6111SOL    HW229796   2.273   4.207   7.607 -0.4197 -0.2324  0.2903
 6112SOL     OW29797   3.976   4.138  10.919  0.0194 -0.0817 -0.4529
 6112SOL    HW129798   4.025   4.205  10.967  1.0685 -1.4048  0.3145
 6112SOL    HW229799   4.049   4.083  10.890 -0.5988  0.0513 -2.2397
 6113SOL     OW29800   3.452   2.408   4.909 -0.0316  0.4020 -0.2840
 6113SOL    HW129801   3.504   2.481   4.875  1.4136  0.3578  1.7901
 6113SOL    HW229802   3.493   2.328   4.877 -1.1046  0.5806 -2.0882
 6114SOL     OW29803   1.873   0.694   5.478 -0.2510  0.6277  0.3780
 6114SOL    HW129804   1.894   0.776   5.522  3.9306 -0.2412  0.0484
 6114SOL    HW229805   1.810   0.728   5.415  0.0706 -0.4723 -0.5565
 6115SOL     OW29806   3.960   3.865   4.261  0.1226  0.4151  0.6411
 6115SOL    HW129807   4.048   3.832   4.243  0.3463  0.2214  2.0672
 6115SOL    HW229808   3.956   3.860   4.357  1.2432  0.6915  0.7031
 6116SOL     OW29809   0.296   0.641   8.002 -0.2917 -0.1341 -0.0133
 6116SOL    HW129810   0.297   0.563   7.948  1.4737 -0.0004 -0.1721
 6116SOL    HW229811   0.237   0.692   7.946 -0.6730 -0.9952 -0.3950
 6117SOL     OW29812   3.068   2.316  11.074 -0.6142 -0.0900 -0.2840
 6117SOL    HW129813   3.096   2.228  11.052  0.9523  0.1249  0.8936
 6117SOL    HW229814   3.124   2.360  11.010  0.4955 -1.6112 -0.3468
 6118SOL     OW29815   3.662   4.584  15.921  0.2893  0.3161 -0.2212
 6118SOL    HW129816   3.636   4.612  16.009  2.1587  1.8103 -0.1572
 6118SOL    HW229817   3.599   4.517  15.894  1.9946 -1.2779 -0.2215
 6119SOL     OW29818   1.170   4.135   8.984 -0.1530  0.5328  0.3116
 6119SOL    HW129819   1.103   4.157   9.048  0.4110  2.2545  0.3001
 6119SOL    HW229820   1.225   4.213   8.985 -0.6647  0.8973 -0.4101
 6120SOL     OW29821   2.966   4.550  15.417 -0.5465  0.1161  0.1918
 6120SOL    HW129822   3.025   4.575  15.345 -0.2963 -1.6793 -0.2134
 6120SOL    HW229823   3.009   4.470  15.446 -1.2962 -0.8523 -1.3164
 6121SOL     OW29824   4.054   2.430  14.266 -0.1742  0.2432  0.4205
 6121SOL    HW129825   4.105   2.351  14.286  0.2318  0.4139  0.0376
 6121SOL    HW229826   4.014   2.408  14.182  1.0172  0.4702 -0.1960
 6122SOL     OW29827   2.386   4.154   6.573 -0.0446 -0.1671 -0.0228
 6122SOL    HW129828   2.340   4.202   6.505 -0.3655 -0.5954 -0.1066
 6122SOL    HW229829   2.421   4.077   6.528  0.2608  1.0877 -1.9237
 6123SOL     OW29830   1.555   0.014   2.965  0.0649 -0.1150 -0.4116
 6123SOL    HW129831   1.566   0.081   3.032 -2.2475  0.5237 -0.6460
 6123SOL    HW229832   1.595   4.659   3.005 -0.2297  1.3159  2.6133
 6124SOL     OW29833   0.468   0.275   4.627 -0.2938  0.0444 -0.6422
 6124SOL    HW129834   0.426   0.326   4.557  0.2742  2.3263  0.7021
 6124SOL    HW229835   0.404   0.290   4.696 -1.2963  0.9372 -1.7472
 6125SOL     OW29836   2.054   0.138   3.459 -0.0835 -0.3736 -0.6760
 6125SOL    HW129837   2.104   0.087   3.395 -0.9784 -2.0081 -0.0825
 6125SOL    HW229838   2.044   0.225   3.421  2.4908  0.5093  0.6453
 6126SOL     OW29839   0.715   1.559   7.550  0.1660 -0.7322 -0.8853
 6126SOL    HW129840   0.743   1.650   7.562  2.6243 -1.6670  0.3957
 6126SOL    HW229841   0.632   1.566   7.503  1.3341  4.0438 -2.2326
 6127SOL     OW29842   2.947   4.035  12.762  0.0183 -0.0140  0.3434
 6127SOL    HW129843   3.000   4.114  12.766  1.7193 -1.1120 -0.3454
 6127SOL    HW229844   3.016   3.977  12.729 -0.6542 -0.9106  0.5115
 6128SOL     OW29845   0.620   1.693   3.985  0.3168  0.6247  0.0745
 6128SOL    HW129846   0.634   1.701   4.079 -0.4677 -0.6393  0.2898
 6128SOL    HW229847   0.706   1.686   3.943  0.6196  0.4003  0.7389
 6129SOL     OW29848   0.210   3.509   4.507  0.2095  0.1020  0.6552
 6129SOL    HW129849   0.266   3.474   4.437 -0.0821  1.7180 -0.3842
 6129SOL    HW229850   0.163   3.430   4.535  3.0182 -1.2709  1.4613
 6130SOL     OW29851   0.904   3.493   7.008  0.0053  0.3532  0.2904
 6130SOL    HW129852   0.847   3.558   6.967 -2.5144 -1.7071  0.5491
 6130SOL    HW229853   0.911   3.429   6.938 -0.3247  1.1584 -0.4708
 6131SOL     OW29854   2.945   2.814   8.503 -0.0673 -0.9624  0.0167
 6131SOL    HW129855   3.025   2.865   8.517 -0.6172  0.2303 -1.1120
 6131SOL    HW229856   2.891   2.862   8.565 -1.5036 -1.0240 -1.1975
 6132SOL     OW29857   0.519   0.436   9.324 -0.3753 -0.5538  0.3073
 6132SOL    HW129858   0.599   0.397   9.361 -0.2785 -0.0668  0.6059
 6132SOL    HW229859   0.537   0.442   9.230  0.3619 -1.3059  0.4011
 6133SOL     OW29860   2.729   0.147   6.286 -0.1118  0.0819  0.2923
 6133SOL    HW129861   2.687   0.085   6.346 -0.9183  0.3495  0.0064
 6133SOL    HW229862   2.817   0.165   6.320  1.1544 -1.8443 -1.9744
 6134SOL     OW29863   0.821   0.654   7.823  0.4830 -0.2115 -0.2193
 6134SOL    HW129864   0.811   0.715   7.749  1.4619 -1.2811 -1.2135
 6134SOL    HW229865   0.750   0.667   7.886  0.5016  0.0637 -0.2539
 6135SOL     OW29866   1.353   1.099   5.885  0.4150 -0.6052  0.1092
 6135SOL    HW129867   1.267   1.083   5.923 -0.4189  0.3520 -1.3724
 6135SOL    HW229868   1.400   1.022   5.915  2.3339  0.4538 -0.1711
 6136SOL     OW29869   4.232   0.076  13.668  0.8239 -0.3337 -0.0603
 6136SOL    HW129870   4.272   4.714  13.650 -0.4233 -1.0246  0.3706
 6136SOL    HW229871   4.217   0.083  13.763  1.3014 -0.1396  0.0004
 6137SOL     OW29872   2.054   0.846   5.825 -0.5632 -0.1244  0.0056
 6137SOL    HW129873   2.075   0.752   5.821 -0.4797 -0.0880 -0.5095
 6137SOL    HW229874   2.127   0.886   5.777 -1.6875 -1.0074 -2.4663
 6138SOL     OW29875   2.052   1.036   9.359 -0.1382 -0.0043  0.0534
 6138SOL    HW129876   2.049   1.012   9.266  0.5621 -1.3017  0.3618
 6138SOL    HW229877   2.110   0.967   9.391 -0.8971 -0.4942  0.3587
 6139SOL     OW29878   4.307   0.295  13.552 -0.3126  0.6751 -0.8544
 6139SOL    HW129879   4.279   0.207  13.577 -0.3198  0.9122  0.0041
 6139SOL    HW229880   4.389   0.266  13.512 -0.5368 -0.4923 -0.4570
 6140SOL     OW29881   0.516   1.504  14.955  0.1065  0.0493 -0.5830
 6140SOL    HW129882   0.551   1.417  14.933 -0.1081 -0.1122 -0.2874
 6140SOL    HW229883   0.436   1.504  14.902  1.1360  0.2190 -2.1613
 6141SOL     OW29884   0.472   2.286   2.417  0.5436  0.5635  0.6737
 6141SOL    HW129885   0.405   2.218   2.421  0.2611  0.7474 -0.8696
 6141SOL    HW229886   0.456   2.344   2.491 -1.6046 -0.0156  0.6789
 6142SOL     OW29887   4.530   2.333  16.846  0.1803 -0.8376  0.6610
 6142SOL    HW129888   4.463   2.341  16.914 -0.9807 -0.1896 -0.5689
 6142SOL    HW229889   4.539   2.420  16.807  2.7521 -1.3153  0.1509
 6143SOL     OW29890   0.652   4.297   5.124 -0.4293 -0.0884  0.4463
 6143SOL    HW129891   0.676   4.214   5.165 -0.1283  0.4735  1.4143
 6143SOL    HW229892   0.715   4.311   5.053 -0.6866 -0.7363  0.0977
 6144SOL     OW29893   2.552   0.299  11.552 -0.3558  0.3184  0.3777
 6144SOL    HW129894   2.635   0.300  11.504  0.1196  0.1483  1.2021
 6144SOL    HW229895   2.490   0.263  11.488  1.8500 -1.4044 -0.7693
 6145SOL     OW29896   0.307   1.905  13.945  0.1761  0.3758 -0.0441
 6145SOL    HW129897   0.224   1.936  13.983  0.7304  2.1669 -0.3365
 6145SOL    HW229898   0.357   1.923  14.024 -1.5358  0.6336  0.9761
 6146SOL     OW29899   4.527   1.524   7.608  0.1140 -0.1808  0.3336
 6146SOL    HW129900   4.475   1.486   7.678  0.4331  0.2741  0.8129
 6146SOL    HW229901   4.588   1.450   7.605 -0.9365 -1.0568  0.8576
 6147SOL     OW29902   0.108   3.933  13.263 -0.6171 -0.7886 -0.0979
 6147SOL    HW129903   0.150   3.914  13.180 -2.2872 -0.1294 -1.0893
 6147SOL    HW229904   0.077   4.023  13.248 -1.1024 -0.9634 -0.1388
 6148SOL     OW29905   3.541   0.045  14.112  0.4017  0.7191  0.1746
 6148SOL    HW129906   3.495   4.690  14.146 -0.0421  0.0074 -2.0341
 6148SOL    HW229907   3.480   0.074  14.044 -0.4852 -0.4099  0.4916
 6149SOL     OW29908   3.562   0.517   6.225 -0.3345 -0.4228 -0.6296
 6149SOL    HW129909   3.602   0.484   6.305  0.1904  0.6706 -0.4363
 6149SOL    HW229910   3.619   0.593   6.211  2.3094 -2.0236  1.4987
 6150SOL     OW29911   0.228   0.670  12.083 -0.0481  0.2491  0.4531
 6150SOL    HW129912   0.149   0.679  12.030  0.0165  0.9661  0.4844
 6150SOL    HW229913   0.256   0.588  12.042  1.8066  0.7804  0.6573
 6151SOL     OW29914   0.730   2.789   1.396 -0.5097 -0.1515  0.2548
 6151SOL    HW129915   0.806   2.818   1.345 -0.6319 -0.5054 -0.1376
 6151SOL    HW229916   0.729   2.851   1.469  0.3758  1.1204 -0.8091
 6152SOL     OW29917   0.193   4.178  14.271 -0.6277  0.8290 -0.3715
 6152SOL    HW129918   0.102   4.192  14.243 -0.0927 -1.1168 -3.1200
 6152SOL    HW229919   0.223   4.269  14.262 -3.0890  1.6794 -0.0459
 6153SOL     OW29920   4.066   3.339   0.108 -0.4826  0.0339 -0.4121
 6153SOL    HW129921   4.112   3.392   0.043 -1.3302  2.7491  1.1989
 6153SOL    HW229922   4.120   3.260   0.106 -1.3224 -0.4885 -2.2105
 6154SOL     OW29923   0.655   2.656  16.995  0.4014 -0.3179 -0.6148
 6154SOL    HW129924   0.743   2.684  16.968  0.1737  1.9691  0.9952
 6154SOL    HW229925   0.683   2.576  17.039 -2.3469 -0.0715  1.6157
 6155SOL     OW29926   4.100   3.296  10.095 -0.3154 -0.5377  0.7148
 6155SOL    HW129927   4.169   3.331  10.151  0.3439 -1.9299  0.7650
 6155SOL    HW229928   4.059   3.237  10.158 -1.9416 -0.8073 -0.5813
 6156SOL     OW29929   3.777   1.567   2.712 -0.3195  0.3455  0.4926
 6156SOL    HW129930   3.808   1.513   2.640 -2.1323  0.5892 -0.4833
 6156SOL    HW229931   3.710   1.616   2.664  0.3580  1.4299  0.6621
 6157SOL     OW29932   3.479   2.573   7.746  0.7492 -0.2814 -0.7580
 6157SOL    HW129933   3.467   2.478   7.742 -0.2933 -0.1972  0.3035
 6157SOL    HW229934   3.391   2.592   7.778  1.4665  0.9507  0.4947
 6158SOL     OW29935   2.364   0.116   6.783  0.0660 -0.2711 -0.1334
 6158SOL    HW129936   2.311   0.151   6.712  0.6339 -2.7949 -1.8214
 6158SOL    HW229937   2.339   0.024   6.781  0.2533 -0.3132 -0.7182
 6159SOL     OW29938   2.766   2.225   3.713  0.2120  0.4294 -0.4795
 6159SOL    HW129939   2.791   2.269   3.794 -2.1074  0.6719  0.0918
 6159SOL    HW229940   2.773   2.132   3.736  0.5935  1.2146  2.4916
 6160SOL     OW29941   0.835   0.156  14.737  0.2570  0.6198 -0.4538
 6160SOL    HW129942   0.840   0.176  14.644 -0.4862 -0.2755 -0.6867
 6160SOL    HW229943   0.925   0.136  14.763 -0.4613 -1.9152  0.0642
 6161SOL     OW29944   1.381   3.126   7.692  0.0073 -0.6086 -0.1645
 6161SOL    HW129945   1.291   3.139   7.660 -0.9409 -1.8791  2.0108
 6161SOL    HW229946   1.371   3.040   7.732  2.3691 -0.0873  1.5338
 6162SOL     OW29947   2.911   1.653   7.150  0.3259 -0.3337  0.5471
 6162SOL    HW129948   2.994   1.612   7.128 -0.6615 -2.2010  0.2844
 6162SOL    HW229949   2.935   1.745   7.161  1.8176 -0.8239  1.3473
 6163SOL     OW29950   1.996   4.106   1.660 -0.1217  0.3182  0.5728
 6163SOL    HW129951   2.027   4.161   1.588 -1.7662 -0.4344 -0.7008
 6163SOL    HW229952   1.974   4.180   1.718  1.1822  0.7790  0.4757
 6164SOL     OW29953   0.277   4.604   3.184  0.1027 -0.0489 -0.2392
 6164SOL    HW129954   0.217   4.655   3.129  0.5874  1.2384  0.4437
 6164SOL    HW229955   0.255   4.511   3.176 -1.4585  0.1795  1.2416
 6165SOL     OW29956   0.489   1.473  12.173 -0.2899  0.5925 -0.2759
 6165SOL    HW129957   0.484   1.399  12.234 -0.9563  0.9277  0.0813
 6165SOL    HW229958   0.506   1.419  12.096 -0.5148  0.5855 -0.3194
 6166SOL     OW29959   3.042   3.057   3.244 -0.2803 -0.5466 -0.2088
 6166SOL    HW129960   2.957   3.044   3.201  0.6506 -2.1010 -1.5600
 6166SOL    HW229961   3.099   3.094   3.177  1.6756 -0.7586  1.3359
 6167SOL     OW29962   3.446   4.601   5.296 -0.1835 -0.3314 -0.2757
 6167SOL    HW129963   3.486   4.667   5.239 -0.6369 -0.1010 -0.3203
 6167SOL    HW229964   3.418   4.538   5.229  0.2578  0.1617 -0.9276
 6168SOL     OW29965   0.800   0.095   0.033 -0.4036  0.7036 -0.3365
 6168SOL    HW129966   0.836   0.098   0.121  0.4336  1.3346 -0.7004
 6168SOL    HW229967   0.709   0.070   0.049  0.3903 -1.6609  0.4204
 6169SOL     OW29968   0.905   3.868  13.825  0.1535  0.2095 -0.1558
 6169SOL    HW129969   0.948   3.940  13.780  2.3227 -1.1340 -0.2430
 6169SOL    HW229970   0.824   3.882  13.776 -0.3661 -0.8723  0.3684
 6170SOL     OW29971   4.408   1.957  16.603 -0.4355 -0.0431  0.0037
 6170SOL    HW129972   4.373   1.868  16.597 -0.1519 -0.1407 -0.2097
 6170SOL    HW229973   4.346   1.985  16.671 -1.3795 -0.2613 -0.7656
 6171SOL     OW29974   0.460   3.054   1.670  0.1106 -0.2395  0.0899
 6171SOL    HW129975   0.393   2.998   1.632 -0.4776  0.3221  0.3030
 6171SOL    HW229976   0.432   3.138   1.634  2.1470 -0.0386 -1.0456
 6172SOL     OW29977   0.540   2.020   9.234  0.7088  0.0905  0.1303
 6172SOL    HW129978   0.480   1.947   9.218  1.1526 -0.0236 -0.9622
 6172SOL    HW229979   0.506   2.068   9.310  0.4895  0.9557 -0.5256
 6173SOL     OW29980   3.991   1.450  11.931 -0.2184 -0.1360 -0.8703
 6173SOL    HW129981   3.991   1.508  12.007 -1.0630 -1.5256  0.2011
 6173SOL    HW229982   3.928   1.487  11.870 -1.6338  1.2591  1.4323
 6174SOL     OW29983   4.560   0.492  13.005  0.6388 -0.1172  0.1054
 6174SOL    HW129984   4.550   0.587  12.995  1.6145  0.0385  0.6461
 6174SOL    HW229985   4.653   0.485  13.026  0.5363  0.0271  0.5895
 6175SOL     OW29986   4.295   3.754   3.184  0.0032 -0.4710 -0.0412
 6175SOL    HW129987   4.216   3.702   3.192  0.4354 -1.0179  0.6407
 6175SOL    HW229988   4.304   3.790   3.272  0.2100 -0.0551 -0.2299
 6176SOL     OW29989   0.340   3.103   3.038 -0.3385  0.2141  0.0734
 6176SOL    HW129990   0.314   3.195   3.041  2.4659  1.0174 -1.1776
 6176SOL    HW229991   0.329   3.063   3.124  2.5319 -1.0464 -0.1726
 6177SOL     OW29992   0.148   3.656   8.047  0.1073 -0.3128 -0.4906
 6177SOL    HW129993   0.120   3.573   8.008 -0.7485 -0.6827  0.9436
 6177SOL    HW229994   0.229   3.626   8.090  1.0452 -0.4239 -2.3041
 6178SOL     OW29995   2.635   0.743   2.720  0.0756  0.3088  0.3040
 6178SOL    HW129996   2.645   0.835   2.744  0.9007  0.1036  0.7321
 6178SOL    HW229997   2.725   0.728   2.692 -0.8134 -0.2192 -2.2327
 6179SOL     OW29998   1.072   1.133  13.353 -0.3538 -0.7135  0.2421
 6179SOL    HW129999   1.010   1.205  13.361 -1.2353 -1.2366 -2.0034
 6179SOL    HW230000   1.085   1.133  13.259 -0.6986  0.4574  0.2078
 6180SOL     OW30001   3.747   0.163   7.814  0.4839  0.0107  0.0571
 6180SOL    HW130002   3.716   0.085   7.768  3.0242 -0.9327 -0.0684
 6180SOL    HW230003   3.668   0.202   7.851  0.3237 -0.5434  0.3125
 6181SOL     OW30004   1.680   4.056   3.893  0.2673  0.0787  0.5267
 6181SOL    HW130005   1.753   4.113   3.917 -1.5509  2.6063  0.0883
 6181SOL    HW230006   1.614   4.109   3.849  0.6864 -0.1174 -0.3457
 6182SOL     OW30007   4.511   0.185   9.039  0.1559 -0.1015 -0.3140
 6182SOL    HW130008   4.544   0.167   9.127  0.6832 -2.9154 -1.1079
 6182SOL    HW230009   4.533   0.104   8.993 -0.6240 -0.5324  0.0597
 6183SOL     OW30010   3.679   1.177   2.877  0.4893  0.0747 -0.5057
 6183SOL    HW130011   3.651   1.265   2.900  0.1294 -0.0791 -0.3640
 6183SOL    HW230012   3.631   1.187   2.794 -1.1536 -2.2066  0.1608
 6184SOL     OW30013   0.107   2.281  12.858  0.4161 -0.2857 -0.4079
 6184SOL    HW130014   0.069   2.202  12.817 -0.1274 -0.0984 -0.2652
 6184SOL    HW230015   0.030   2.321  12.899 -0.0784 -1.4195 -0.2227
 6185SOL     OW30016   0.038   0.571   3.541  0.0565  0.3483  0.0618
 6185SOL    HW130017   0.068   0.658   3.564  3.0339 -0.7590  0.3716
 6185SOL    HW230018   0.050   0.577   3.446 -0.7271 -1.3125 -0.1541
 6186SOL     OW30019   1.763   0.857   9.792  0.0569 -0.5289 -0.1233
 6186SOL    HW130020   1.715   0.884   9.713  0.8152 -0.1043 -0.4363
 6186SOL    HW230021   1.763   0.763   9.776  0.5714 -0.9237  2.2768
 6187SOL     OW30022   0.142   3.126  12.799  0.0075  0.2075  0.2138
 6187SOL    HW130023   0.129   3.034  12.778 -0.6365  0.0849  1.1249
 6187SOL    HW230024   0.202   3.107  12.872  1.4808 -0.4875 -1.1755
 6188SOL     OW30025   4.287   4.630   8.461 -0.1605  0.3579  0.3206
 6188SOL    HW130026   4.252   4.719   8.456  0.0581  0.4237  0.0176
 6188SOL    HW230027   4.281   4.587   8.376 -0.8079  2.0058 -0.4756
 6189SOL     OW30028   0.799   0.086  13.250 -0.4918 -0.8186  0.2187
 6189SOL    HW130029   0.774   0.018  13.187 -0.7867  0.5138 -1.1214
 6189SOL    HW230030   0.866   0.138  13.205 -0.0298 -1.7843 -0.1924
 6190SOL     OW30031   1.595   4.264   7.357 -0.4852  0.8503  0.4040
 6190SOL    HW130032   1.613   4.222   7.441  1.4315 -2.5748 -1.7126
 6190SOL    HW230033   1.529   4.206   7.318  1.5190 -1.4856  0.4770
 6191SOL     OW30034   3.650   0.410   5.078  0.4086 -0.0849  0.3011
 6191SOL    HW130035   3.597   0.472   5.127 -1.1908 -0.6454 -0.7187
 6191SOL    HW230036   3.719   0.466   5.042  0.1015  0.2638  0.2440
 6192SOL     OW30037   2.090   0.958   3.005 -0.5582 -0.0558 -0.5832
 6192SOL    HW130038   2.000   0.970   3.035  0.5205  1.6962  1.9423
 6192SOL    HW230039   2.091   1.019   2.932  1.0116  2.4560  1.5551
 6193SOL     OW30040   3.653   2.969  17.366  0.5744  0.2783  0.0918
 6193SOL    HW130041   3.614   2.957  17.279  1.2397  1.2679 -0.3500
 6193SOL    HW230042   3.695   3.054  17.357  1.9390 -0.4583 -0.5119
 6194SOL     OW30043   2.757   3.699   1.543  0.3611  0.3399 -0.1674
 6194SOL    HW130044   2.837   3.673   1.499 -1.1747 -0.4892 -2.4639
 6194SOL    HW230045   2.718   3.611   1.546  0.5368  0.1636 -3.9641
 6195SOL     OW30046   0.116   0.530   8.507 -0.7584 -0.1971 -0.1889
 6195SOL    HW130047   0.071   0.499   8.428 -0.4001  4.2459 -2.1159
 6195SOL    HW230048   0.065   0.609   8.526  1.6992  1.2274  0.4294
 6196SOL     OW30049   4.023   3.313   7.238 -0.8315 -0.4048 -0.4741
 6196SOL    HW130050   3.967   3.365   7.180 -0.3918  0.8824  0.2388
 6196SOL    HW230051   3.992   3.347   7.322 -0.2328 -0.1872 -0.3401
 6197SOL     OW30052   2.937   1.015   7.510  0.1058 -0.1577  0.0859
 6197SOL    HW130053   2.933   1.108   7.490  1.7401 -0.1150 -0.0307
 6197SOL    HW230054   2.950   0.981   7.422  0.2573 -0.4117  0.2057
 6198SOL     OW30055   4.289   2.694   5.785  0.5462  0.1942  0.4417
 6198SOL    HW130056   4.361   2.633   5.801  0.2835 -0.7204 -1.9107
 6198SOL    HW230057   4.228   2.638   5.738  0.0860 -1.4431  3.0497
 6199SOL     OW30058   3.468   2.702   0.583  0.6718  0.4426 -0.2768
 6199SOL    HW130059   3.458   2.771   0.518  2.4902  2.1371  1.2409
 6199SOL    HW230060   3.419   2.733   0.659  3.2858  1.3316  1.0668
 6200SOL     OW30061   4.373   2.150   5.967 -0.3700 -0.0656 -0.4372
 6200SOL    HW130062   4.396   2.058   5.980  2.7207  0.4820 -2.1145
 6200SOL    HW230063   4.419   2.202   6.032 -0.8825 -0.7779  0.4854
 6201SOL     OW30064   0.600   3.589   3.903  0.5050  0.0274  0.3383
 6201SOL    HW130065   0.567   3.604   3.991 -0.4106 -1.5342  0.2621
 6201SOL    HW230066   0.643   3.504   3.912  2.2355  0.8868  0.3785
 6202SOL     OW30067   3.356   3.368  13.633  0.5012 -0.7500  0.0805
 6202SOL    HW130068   3.301   3.295  13.605  0.9200  0.0008 -2.7099
 6202SOL    HW230069   3.369   3.416  13.551  2.3222 -1.3428  0.0186
 6203SOL     OW30070   3.046   4.535  11.631  0.1772 -0.0882  0.0890
 6203SOL    HW130071   2.963   4.535  11.583  1.5867 -0.1259 -2.3468
 6203SOL    HW230072   3.095   4.595  11.575 -0.8645 -0.1119 -0.8415
 6204SOL     OW30073   2.635   1.245   7.445 -0.2660 -0.1539  0.1251
 6204SOL    HW130074   2.722   1.265   7.409  0.2406 -1.3349  0.6916
 6204SOL    HW230075   2.594   1.183   7.385 -2.9124  3.3633 -1.6644
 6205SOL     OW30076   3.646   2.805   0.267 -0.2493 -0.0898 -0.4109
 6205SOL    HW130077   3.612   2.895   0.270  1.1485  0.4099  0.4000
 6205SOL    HW230078   3.565   2.754   0.271 -0.1706 -0.1147  0.7258
 6206SOL     OW30079   0.162   0.410   2.663  0.7141  0.0524  0.8052
 6206SOL    HW130080   0.072   0.411   2.632  0.8205  1.0801  0.5206
 6206SOL    HW230081   0.203   0.336   2.619 -2.5283 -0.3397 -1.4990
 6207SOL     OW30082   3.056   2.055   3.354 -0.2656  0.2153 -0.1345
 6207SOL    HW130083   2.992   2.095   3.413 -0.8945  0.5054 -1.0039
 6207SOL    HW230084   3.124   2.119   3.375  1.1409 -1.2839 -0.0838
 6208SOL     OW30085   4.217   2.000   4.894  0.3444 -0.2287  0.3032
 6208SOL    HW130086   4.122   2.010   4.901  0.0876 -0.4957 -2.8118
 6208SOL    HW230087   4.241   2.077   4.844 -0.5919  0.8491  1.5044
 6209SOL     OW30088   3.533   3.134   8.912 -0.0161 -0.5065 -0.7090
 6209SOL    HW130089   3.500   3.165   8.997 -0.1423  0.5689 -1.1454
 6209SOL    HW230090   3.524   3.041   8.931 -1.0405  0.0280  1.4174
 6210SOL     OW30091   2.547   1.998  17.225 -0.4976 -0.0175 -0.2814
 6210SOL    HW130092   2.553   2.002  17.321  0.9964  1.1810 -0.4191
 6210SOL    HW230093   2.473   1.940  17.210 -0.8203  0.1311  0.7681
 6211SOL     OW30094   2.591   0.670   6.804  0.4013  0.1929 -0.3690
 6211SOL    HW130095   2.496   0.685   6.797 -0.2879 -3.3506  1.1292
 6211SOL    HW230096   2.593   0.629   6.891 -0.4681  0.5837 -0.1598
 6212SOL     OW30097   4.233   0.227  10.093  0.2634  0.4854 -0.1819
 6212SOL    HW130098   4.294   0.287  10.050  0.1357  1.5654  1.1343
 6212SOL    HW230099   4.221   0.269  10.178 -0.8275  0.2720 -0.2203
 6213SOL     OW30100   0.719   4.672  15.030  0.3960  0.2531  0.6015
 6213SOL    HW130101   0.794   4.662  14.972  1.6941 -0.5377  2.4214
 6213SOL    HW230102   0.662   4.705  14.961 -1.2073  1.6582  2.6023
 6214SOL     OW30103   3.595   1.251  12.474 -0.9356  0.1004 -0.3037
 6214SOL    HW130104   3.530   1.218  12.535 -0.8410  0.7061  0.1276
 6214SOL    HW230105   3.647   1.302  12.536 -0.7863 -1.0057  0.4759
 6215SOL     OW30106   3.220   2.125   5.039 -0.0869  0.2245 -0.7373
 6215SOL    HW130107   3.181   2.113   5.126  1.2336  0.4191 -0.1197
 6215SOL    HW230108   3.309   2.096   5.057 -1.0292 -2.4547 -0.5237
 6216SOL     OW30109   2.093   4.621   2.037  0.1271 -0.0004  0.4897
 6216SOL    HW130110   2.154   4.547   2.043 -0.1137 -0.2105  0.3622
 6216SOL    HW230111   2.024   4.583   1.982  2.1663 -1.8324 -0.7819
 6217SOL     OW30112   2.499   4.426   0.830 -0.8174 -0.3486 -0.8925
 6217SOL    HW130113   2.575   4.478   0.857 -1.5135  0.2124  0.0351
 6217SOL    HW230114   2.493   4.449   0.737  1.3191  1.5658 -0.5448
 6218SOL     OW30115   4.093   2.843   8.915  0.0563 -0.2294  0.3143
 6218SOL    HW130116   4.189   2.840   8.920  0.0835  0.8080  0.4221
 6218SOL    HW230117   4.081   2.926   8.960 -4.4832  0.6251 -2.5264
 6219SOL     OW30118   1.784   4.657  13.292  0.1701 -0.0890  0.0140
 6219SOL    HW130119   1.833   0.008  13.254 -0.7946  0.4154 -0.2585
 6219SOL    HW230120   1.835   4.654  13.373 -0.0221 -0.9922  0.1057
 6220SOL     OW30121   1.423   1.836   6.656  0.2376  0.0645 -0.1544
 6220SOL    HW130122   1.429   1.743   6.675  0.4171  0.3476  1.1634
 6220SOL    HW230123   1.471   1.865   6.733  2.4925 -0.8611 -1.2344
 6221SOL     OW30124   2.835   3.080   6.714  0.1931 -0.3727 -0.0173
 6221SOL    HW130125   2.796   3.167   6.727 -1.5223 -1.3522  1.2910
 6221SOL    HW230126   2.793   3.059   6.630 -0.2989  2.6118 -0.5432
 6222SOL     OW30127   2.706   3.552   7.573  0.6312  0.0928  0.4578
 6222SOL    HW130128   2.670   3.478   7.526 -0.1793  0.3009  0.7419
 6222SOL    HW230129   2.784   3.564   7.519  0.3075 -2.6517 -0.5867
 6223SOL     OW30130   0.479   4.481   3.365 -0.1298  0.2060  0.6222
 6223SOL    HW130131   0.525   4.480   3.281 -2.6065  1.9966 -0.7651
 6223SOL    HW230132   0.470   4.386   3.376 -0.3663  0.1872  0.2721
 6224SOL     OW30133   0.698   2.333  17.399 -0.1929 -0.1798  0.5247
 6224SOL    HW130134   0.751   2.285  17.462  1.9731 -1.2522 -2.1445
 6224SOL    HW230135   0.641   2.384  17.457  0.3362  1.1364 -0.1175
 6225SOL     OW30136   2.352   2.335  13.721  0.1570  0.3821 -0.2945
 6225SOL    HW130137   2.412   2.383  13.664  1.6662  1.4504  2.1741
 6225SOL    HW230138   2.333   2.261  13.664 -0.9181  1.4033 -1.2479
 6226SOL     OW30139   2.448   0.761   9.101  0.3745  0.5688  0.1129
 6226SOL    HW130140   2.439   0.855   9.087 -2.5085  0.5050  1.4167
 6226SOL    HW230141   2.519   0.756   9.166  1.1239  1.5891 -0.6347
 6227SOL     OW30142   1.837   0.487   9.803 -0.8058  0.1229 -0.4771
 6227SOL    HW130143   1.843   0.526   9.716  1.3199  1.8395  0.4376
 6227SOL    HW230144   1.923   0.445   9.810  0.0023  1.8551  0.0244
 6228SOL     OW30145   1.577   0.314   9.536 -0.2232  0.1323  0.1436
 6228SOL    HW130146   1.512   0.258   9.493 -0.2597  0.8364 -0.7055
 6228SOL    HW230147   1.650   0.253   9.547 -1.0384 -0.5555  1.6943
 6229SOL     OW30148   0.279   0.262   3.948 -0.1415  0.1283  0.3031
 6229SOL    HW130149   0.343   0.252   3.877 -0.5316 -0.6714  0.0656
 6229SOL    HW230150   0.215   0.203   3.908  0.5060 -1.1923  1.1988
 6230SOL     OW30151   4.295   3.124   0.256 -0.2124 -0.7845 -0.5725
 6230SOL    HW130152   4.266   3.075   0.333 -0.7019  0.5264  0.0655
 6230SOL    HW230153   4.231   3.095   0.190  0.6996 -1.2135 -1.2717
 6231SOL     OW30154   3.481   0.802   9.588 -0.0587  0.6359 -0.1387
 6231SOL    HW130155   3.571   0.833   9.579  0.4370 -0.6439  0.3323
 6231SOL    HW230156   3.445   0.883   9.624 -0.4876  1.4181 -2.3442
 6232SOL     OW30157   3.478   3.402   5.092 -0.0984  0.0591  0.3202
 6232SOL    HW130158   3.549   3.466   5.101 -0.2708  0.4696 -1.3217
 6232SOL    HW230159   3.523   3.318   5.094  3.0510  1.7162 -0.8186
 6233SOL     OW30160   4.526   2.927   2.672 -0.0727  0.2857 -0.1697
 6233SOL    HW130161   4.559   2.915   2.583 -0.1155  0.1078 -0.1613
 6233SOL    HW230162   4.609   2.932   2.719 -0.8292 -3.5934  1.5674
 6234SOL     OW30163   4.702   0.358   4.149  0.0681  0.2663 -0.4970
 6234SOL    HW130164   0.020   0.392   4.069  2.5469  1.2356  1.1677
 6234SOL    HW230165   4.625   0.414   4.161 -0.0169 -0.0319  0.3282
 6235SOL     OW30166   2.110   1.369   0.859 -0.1316 -0.0922  0.2850
 6235SOL    HW130167   2.202   1.344   0.871  0.2098  1.2683  0.4542
 6235SOL    HW230168   2.063   1.310   0.918  0.6597 -2.2306 -1.1857
 6236SOL     OW30169   1.154   2.805  10.431 -0.3625  0.6604 -0.1864
 6236SOL    HW130170   1.208   2.738  10.390 -2.3576 -0.6978 -0.5889
 6236SOL    HW230171   1.202   2.885  10.410 -0.2579  0.3335 -1.1665
 6237SOL     OW30172   4.194   0.642   9.501 -0.1712  0.3522 -0.0959
 6237SOL    HW130173   4.211   0.733   9.479 -3.3401  1.3608  1.5853
 6237SOL    HW230174   4.108   0.649   9.543 -0.9448  0.8509 -1.7694
 6238SOL     OW30175   0.991   3.809   7.495 -0.1192 -0.2764 -0.3139
 6238SOL    HW130176   1.072   3.802   7.545 -1.0545  1.2336  1.4255
 6238SOL    HW230177   1.025   3.824   7.407  1.0173  2.5013  0.6037
 6239SOL     OW30178   0.059   2.512   2.451  0.3737 -0.0525 -0.3747
 6239SOL    HW130179   0.150   2.542   2.455  0.5672 -0.7033  0.1909
 6239SOL    HW230180   0.019   2.596   2.474  0.6930  0.2302 -0.8712
 6240SOL     OW30181   0.565   1.924   2.580  0.1936  0.6000 -0.0904
 6240SOL    HW130182   0.471   1.919   2.599  0.4600  0.5180  1.2162
 6240SOL    HW230183   0.589   1.852   2.522 -0.2432 -0.5127  1.1093
 6241SOL     OW30184   0.366   1.829   9.193 -0.1364 -0.3139 -0.0215
 6241SOL    HW130185   0.431   1.764   9.167 -1.6774 -1.4018 -1.2311
 6241SOL    HW230186   0.342   1.850   9.103 -1.1437  0.2839  0.3869
 6242SOL     OW30187   3.185   3.179   6.353 -0.1112 -0.0058 -0.4489
 6242SOL    HW130188   3.120   3.136   6.297 -0.1021  0.8361 -1.1105
 6242SOL    HW230189   3.137   3.260   6.372  0.0450  0.2486 -1.1209
 6243SOL     OW30190   1.325   4.218   8.371 -0.0664 -0.0404 -0.0272
 6243SOL    HW130191   1.417   4.195   8.363  0.0392  0.1998  0.5139
 6243SOL    HW230192   1.283   4.141   8.334  0.8446 -0.7301  0.3977
 6244SOL     OW30193   0.027   2.243   7.622  0.1154 -0.0650  0.6368
 6244SOL    HW130194   0.103   2.192   7.648  0.1737  0.2845  1.1561
 6244SOL    HW230195   4.697   2.174   7.581 -0.4903 -0.9598  2.9645
 6245SOL     OW30196   4.114   0.300   6.380 -0.2789  0.6997 -0.5318
 6245SOL    HW130197   4.198   0.335   6.350  0.7025  0.3814  1.8921
 6245SOL    HW230198   4.134   0.207   6.389 -0.0981  0.8593  0.6115
 6246SOL     OW30199   1.181   3.674   9.892  0.1061  0.7581  0.6196
 6246SOL    HW130200   1.239   3.643   9.822 -0.6042 -1.1376  0.8744
 6246SOL    HW230201   1.098   3.629   9.877  0.3357  0.7127 -0.5787
 6247SOL     OW30202   3.209   3.395  15.407  0.1002 -0.1123 -0.3842
 6247SOL    HW130203   3.221   3.452  15.483 -2.5606  0.8242 -0.6558
 6247SOL    HW230204   3.173   3.467  15.356  0.4185  1.8183  2.1094
 6248SOL     OW30205   2.445   0.532   3.204  0.3242  0.8423  0.0485
 6248SOL    HW130206   2.453   0.565   3.115  0.0983  1.5693  0.2969
 6248SOL    HW230207   2.507   0.460   3.194 -0.7355 -0.0796 -0.0239
 6249SOL     OW30208   2.275   4.476   9.341  0.3507  0.0446 -0.4889
 6249SOL    HW130209   2.329   4.448   9.267  2.6485  1.3003  0.7404
 6249SOL    HW230210   2.350   4.485   9.400  0.8945  2.2546 -1.5530
 6250SOL     OW30211   2.120   2.577   1.565 -0.1023  0.1497 -0.3715
 6250SOL    HW130212   2.191   2.522   1.599  0.0495  0.9281  0.5768
 6250SOL    HW230213   2.051   2.511   1.571  0.0966 -0.2173 -2.1693
 6251SOL     OW30214   3.904   1.615  16.899  0.3461 -0.6372 -0.3512
 6251SOL    HW130215   3.849   1.694  16.905  3.0495  1.3825 -1.9884
 6251SOL    HW230216   3.849   1.557  16.848 -1.6888  1.0612 -0.0835
 6252SOL     OW30217   3.279   2.301   6.523 -0.4038 -0.2233  0.3520
 6252SOL    HW130218   3.366   2.332   6.547 -0.1467 -1.6170  1.2422
 6252SOL    HW230219   3.299   2.210   6.503  2.2568  0.6977 -1.1431
 6253SOL     OW30220   1.940   3.673  14.555  0.0353 -0.0396  0.1656
 6253SOL    HW130221   1.845   3.664  14.566  0.0193  0.0825  0.1202
 6253SOL    HW230222   1.981   3.620  14.624 -0.7651 -2.0142 -0.8769
 6254SOL     OW30223   4.547   1.827   2.145 -0.0205  0.5945 -0.9351
 6254SOL    HW130224   4.601   1.840   2.224  1.9024 -0.0696 -2.1492
 6254SOL    HW230225   4.565   1.735   2.124 -1.0460  0.0274  0.6427
 6255SOL     OW30226   2.401   3.587   7.979  0.2835 -0.0332  0.7338
 6255SOL    HW130227   2.474   3.526   7.978  1.4427  1.3956 -1.5096
 6255SOL    HW230228   2.425   3.654   7.915 -0.6742  0.0194  0.4261
 6256SOL     OW30229   1.009   0.963   0.688 -0.0452 -0.7506 -0.3838
 6256SOL    HW130230   0.958   0.993   0.612  0.7343 -0.4338 -0.7895
 6256SOL    HW230231   0.954   0.891   0.716  0.7675 -0.5109  1.7991
 6257SOL     OW30232   3.578   4.208  12.701 -0.3981 -0.0737 -0.0581
 6257SOL    HW130233   3.616   4.284  12.744  1.8372 -0.6810 -0.9702
 6257SOL    HW230234   3.507   4.245  12.648  0.8076  0.5248 -1.2667
 6258SOL     OW30235   1.226   2.265   4.301  0.1192  0.0852 -0.2154
 6258SOL    HW130236   1.163   2.267   4.372  1.3781 -1.4548  0.9623
 6258SOL    HW230237   1.243   2.358   4.292  0.5853  0.2415  2.2995
 6259SOL     OW30238   0.357   4.158  11.535 -0.0268 -0.0906 -0.4049
 6259SOL    HW130239   0.329   4.243  11.502  2.6529  0.8668 -0.2433
 6259SOL    HW230240   0.450   4.180  11.534 -0.4978  1.8302 -1.7955
 6260SOL     OW30241   4.441   3.038   4.039  0.1297  0.8512 -0.0779
 6260SOL    HW130242   4.497   2.966   4.010 -1.4893 -1.0852  1.5924
 6260SOL    HW230243   4.446   3.095   3.963  0.0496  0.5238 -0.3277
 6261SOL     OW30244   1.999   3.600   8.433  0.0647 -0.1264  0.2754
 6261SOL    HW130245   1.941   3.534   8.395  1.8852 -0.9206 -1.1508
 6261SOL    HW230246   1.938   3.670   8.456 -0.6648 -1.3158  2.0059
 6262SOL     OW30247   3.012   2.590   8.955  0.4734  0.5735 -0.6218
 6262SOL    HW130248   2.945   2.533   8.992 -0.1573 -0.4143 -3.2740
 6262SOL    HW230249   3.088   2.534   8.961  0.1532  0.2359  0.2184
 6263SOL     OW30250   1.870   2.294   6.775  0.0194 -0.8230  0.1547
 6263SOL    HW130251   1.966   2.286   6.778 -0.0216 -1.3256  0.0911
 6263SOL    HW230252   1.864   2.389   6.776  1.8172 -0.6967 -0.5951
 6264SOL     OW30253   2.209   2.401  15.057 -0.2342  0.1519 -0.0711
 6264SOL    HW130254   2.263   2.338  15.009 -2.0670 -0.8172 -0.8659
 6264SOL    HW230255   2.205   2.357  15.142 -1.8819 -1.0380 -0.7717
 6265SOL     OW30256   3.328   4.164   8.971 -0.3423  0.7764 -0.2354
 6265SOL    HW130257   3.400   4.187   8.913 -0.0336  0.7910  0.1516
 6265SOL    HW230258   3.290   4.088   8.929  2.9010 -0.4767 -0.8644
 6266SOL     OW30259   4.031   3.920   6.302 -0.3447  0.2303 -0.1774
 6266SOL    HW130260   4.030   3.845   6.362 -2.6545 -0.3680 -0.9756
 6266SOL    HW230261   4.122   3.948   6.313 -1.0293  2.1042  0.5963
 6267SOL     OW30262   2.212   3.961   3.839  0.0875 -0.1060  0.3252
 6267SOL    HW130263   2.307   3.960   3.852  0.2982 -0.9783 -1.2333
 6267SOL    HW230264   2.214   4.037   3.781  0.2239 -1.2656 -1.1834
 6268SOL     OW30265   4.176   0.427   4.085  0.0081  0.6574  0.7064
 6268SOL    HW130266   4.088   0.413   4.049  1.0910 -0.6864 -1.3959
 6268SOL    HW230267   4.204   0.339   4.108  0.1313 -0.0808 -2.2678
 6269SOL     OW30268   1.553   2.530   8.665 -0.4593  0.6760 -0.0469
 6269SOL    HW130269   1.570   2.462   8.600 -1.7096 -1.0592  1.4120
 6269SOL    HW230270   1.513   2.596   8.609  1.2784 -0.1494 -2.2562
 6270SOL     OW30271   4.445   3.257  12.100 -0.3027 -0.3405  0.2049
 6270SOL    HW130272   4.516   3.206  12.139 -0.8298 -0.1447  1.4007
 6270SOL    HW230273   4.487   3.342  12.107 -1.7416  0.4362 -0.5355
 6271SOL     OW30274   0.283   2.919   1.182 -0.6717  0.6785 -0.0773
 6271SOL    HW130275   0.265   2.985   1.249 -0.2954  0.7614 -0.0577
 6271SOL    HW230276   0.205   2.932   1.129 -0.9827 -1.0740 -0.0561
 6272SOL     OW30277   0.574   2.876  17.660 -0.1713 -0.6857  0.0277
 6272SOL    HW130278   0.591   2.966  17.689  1.2195  0.0706 -3.0547
 6272SOL    HW230279   0.634   2.833   0.030 -2.0486  1.3106  3.2310
 6273SOL     OW30280   0.638   3.179  16.081  0.0595 -0.0965  0.2090
 6273SOL    HW130281   0.627   3.196  16.175  1.9562  0.2423  0.3611
 6273SOL    HW230282   0.666   3.263  16.044  1.0304  0.7529  2.8859
 6274SOL     OW30283   3.406   3.423   3.743 -0.7519 -0.1290  0.1221
 6274SOL    HW130284   3.384   3.480   3.816  1.4912  1.2167 -0.2655
 6274SOL    HW230285   3.407   3.487   3.672 -3.3160 -1.2244 -0.9104
 6275SOL     OW30286   1.329   1.789   2.227 -0.4800 -0.0136  0.2155
 6275SOL    HW130287   1.273   1.748   2.294 -1.1501  1.6971  0.7184
 6275SOL    HW230288   1.395   1.721   2.217 -0.7754 -0.4045  0.9106
 6276SOL     OW30289   2.802   2.129   4.115  0.0734 -0.2498 -0.0406
 6276SOL    HW130290   2.828   2.207   4.066 -2.1473  0.7962  0.4779
 6276SOL    HW230291   2.783   2.062   4.050  1.2040 -1.0266  0.4230
 6277SOL     OW30292   2.358   1.972   4.913 -0.0654  0.0483 -0.0793
 6277SOL    HW130293   2.284   2.033   4.906 -0.1944  0.0542  1.3735
 6277SOL    HW230294   2.326   1.899   4.966 -1.6288  0.6356 -0.2047
 6278SOL     OW30295   1.679   3.080   2.936 -0.1328 -0.5670  0.2695
 6278SOL    HW130296   1.652   3.016   2.870  1.2572  0.9899 -1.8355
 6278SOL    HW230297   1.746   3.033   2.985  0.6063 -0.4026 -0.5709
 6279SOL     OW30298   4.503   4.166  10.394  0.3269  0.0223  0.7950
 6279SOL    HW130299   4.597   4.175  10.376 -0.1757  0.8323 -1.4967
 6279SOL    HW230300   4.490   4.218  10.473  0.9919 -1.0997  1.6247
 6280SOL     OW30301   2.132   0.918  14.439 -0.6917 -0.3181 -0.5843
 6280SOL    HW130302   2.194   0.904  14.511 -0.9369  1.7380  0.0359
 6280SOL    HW230303   2.186   0.886  14.367  0.5155 -0.4026  0.3499
 6281SOL     OW30304   1.727   2.625  16.145 -0.2782  0.1154 -0.0668
 6281SOL    HW130305   1.645   2.672  16.127 -1.0629 -1.1444  0.2317
 6281SOL    HW230306   1.755   2.627  16.054 -1.6709 -1.5140 -0.5262
 6282SOL     OW30307   4.267   4.710   4.426  0.1307 -0.1282 -0.2147
 6282SOL    HW130308   4.340   4.651   4.444  0.1320 -0.6010 -1.7585
 6282SOL    HW230309   4.248   0.026   4.511 -1.2450 -0.5849 -0.3090
 6283SOL     OW30310   0.307   3.471   7.849  0.0216  0.1849  0.0077
 6283SOL    HW130311   0.394   3.489   7.885  0.5511 -1.8663 -0.3035
 6283SOL    HW230312   0.267   3.556   7.830  0.1329  0.4571  1.0256
 6284SOL     OW30313   3.804   1.471   9.989  0.0328 -0.2481  0.0783
 6284SOL    HW130314   3.860   1.404   9.950 -0.8982  0.2054 -2.0028
 6284SOL    HW230315   3.747   1.499   9.918 -1.0186  0.3270  1.1437
 6285SOL     OW30316   0.775   3.807   3.775 -0.6698 -0.1073 -0.0867
 6285SOL    HW130317   0.859   3.766   3.756 -1.2171 -0.9431 -0.7303
 6285SOL    HW230318   0.712   3.734   3.779 -0.3361 -0.3963 -0.1297
 6286SOL     OW30319   2.957   3.907   9.849 -0.0662 -0.0870  0.3399
 6286SOL    HW130320   3.013   3.829   9.855 -0.6391 -0.5600 -0.5094
 6286SOL    HW230321   2.918   3.909   9.762 -1.1293 -1.8798  0.7860
 6287SOL     OW30322   0.912   4.438   5.709 -0.6505 -0.6716  0.4416
 6287SOL    HW130323   0.831   4.477   5.741  0.2432  1.2814  0.3530
 6287SOL    HW230324   0.877   4.394   5.632  1.2689  0.0596 -0.8426
 6288SOL     OW30325   0.175   4.312  17.254 -0.4647  0.3009 -0.2946
 6288SOL    HW130326   0.106   4.363  17.295  0.1505 -0.4289  1.6308
 6288SOL    HW230327   0.138   4.313  17.166  0.2862 -1.1539 -0.6429
 6289SOL     OW30328   1.927   2.385  15.124 -0.4614  0.4380  0.4321
 6289SOL    HW130329   1.987   2.440  15.175  0.3764  0.1210 -0.2049
 6289SOL    HW230330   1.940   2.307  15.178 -1.7228 -0.6917 -0.9300
 6290SOL     OW30331   1.040   1.711  12.973 -0.0370 -0.2587  0.0872
 6290SOL    HW130332   0.973   1.780  12.967  0.9146  0.7637  1.2908
 6290SOL    HW230333   0.990   1.637  13.007  0.3611 -0.6984 -0.2860
 6291SOL     OW30334   0.387   2.492   6.320 -0.1916 -0.0572  0.0712
 6291SOL    HW130335   0.439   2.434   6.265  1.0355  0.4550  0.6820
 6291SOL    HW230336   0.408   2.580   6.288 -1.4494 -0.4085 -1.6773
 6292SOL     OW30337   4.608   2.577   9.548 -0.2846 -0.0147 -0.0149
 6292SOL    HW130338   4.616   2.512   9.479 -1.5083  2.2640 -2.2939
 6292SOL    HW230339   4.601   2.522   9.626  1.2259  0.8829  0.7515
 6293SOL     OW30340   0.182   1.054   8.803 -0.3430 -0.8029  0.2496
 6293SOL    HW130341   0.117   1.077   8.870 -0.1188  0.1338  0.1433
 6293SOL    HW230342   0.207   1.141   8.773 -0.7032 -0.4959  0.8494
 6294SOL     OW30343   4.030   4.120   2.281 -0.6377 -0.3215 -0.2174
 6294SOL    HW130344   4.071   4.061   2.217 -0.2078 -0.1218 -0.1247
 6294SOL    HW230345   3.971   4.158   2.216  0.6311  3.1200  0.6924
 6295SOL     OW30346   1.811   3.171  14.921 -0.3883  0.1527  0.1009
 6295SOL    HW130347   1.819   3.254  14.874  0.5230  0.1230  0.1939
 6295SOL    HW230348   1.816   3.112  14.845  1.1419  1.3192 -0.6956
 6296SOL     OW30349   4.509   3.965   5.859 -0.1565 -0.7018 -0.3922
 6296SOL    HW130350   4.429   3.939   5.905 -0.2184  0.1297 -0.0302
 6296SOL    HW230351   4.555   3.989   5.940  1.6941  0.0794 -1.6856
 6297SOL     OW30352   3.912   3.716  16.258 -0.0172  0.0353  0.1495
 6297SOL    HW130353   3.932   3.655  16.330  1.0361 -0.7636 -0.8247
 6297SOL    HW230354   3.930   3.657  16.184  1.1495 -0.2106  0.6208
 6298SOL     OW30355   4.015   4.266  15.577 -0.0355  0.4856 -0.7178
 6298SOL    HW130356   4.073   4.293  15.648 -1.1958 -2.8189  1.4695
 6298SOL    HW230357   3.983   4.181  15.606 -0.0869  0.7335 -0.0611
 6299SOL     OW30358   4.222   3.266   7.030 -0.6566 -0.2185 -0.0806
 6299SOL    HW130359   4.155   3.212   6.989  0.3443 -2.2886  0.9898
 6299SOL    HW230360   4.173   3.308   7.100  3.6003  0.4291  2.4765
 6300SOL     OW30361   2.748   2.194   6.537 -0.1025  0.5630  0.5575
 6300SOL    HW130362   2.779   2.182   6.627 -0.7419 -0.6683  0.6069
 6300SOL    HW230363   2.819   2.248   6.503 -0.1434  1.8955  2.5804
 6301SOL     OW30364   1.099   3.816  13.997 -0.0702 -0.2316 -0.0666
 6301SOL    HW130365   1.126   3.904  14.025  1.5283 -0.8127  0.1781
 6301SOL    HW230366   1.045   3.831  13.920  1.1077  0.3702 -0.7608
 6302SOL     OW30367   3.492   2.405   1.441  0.3193  0.3903 -0.0118
 6302SOL    HW130368   3.478   2.362   1.357 -0.6238  0.2264  0.2292
 6302SOL    HW230369   3.403   2.437   1.456 -0.2644 -0.4218 -1.7943
 6303SOL     OW30370   2.022   3.221   1.339  0.3264  0.8600 -0.1718
 6303SOL    HW130371   2.095   3.283   1.345  0.9857  0.0739 -0.1605
 6303SOL    HW230372   2.015   3.174   1.422 -1.1870 -1.5353 -1.6559
 6304SOL     OW30373   0.621   1.183   6.176  0.0489 -0.2139 -0.3364
 6304SOL    HW130374   0.609   1.278   6.182  0.4608 -0.1243 -0.9669
 6304SOL    HW230375   0.636   1.174   6.270 -1.0209 -1.1445 -0.2582
 6305SOL     OW30376   1.026   3.449   0.538  0.1364  0.1066  0.4656
 6305SOL    HW130377   0.936   3.480   0.523 -0.0662 -0.7244 -0.0474
 6305SOL    HW230378   1.090   3.514   0.512  1.0691 -0.2034  2.0127
 6306SOL     OW30379   1.112   3.228   8.047 -0.1839  0.4206  0.6297
 6306SOL    HW130380   1.161   3.310   8.043  1.1379 -0.4709 -1.5161
 6306SOL    HW230381   1.027   3.252   8.010 -1.4784 -0.9949  2.6853
 6307SOL     OW30382   1.072   4.107   1.723 -0.0601  0.2221  0.8457
 6307SOL    HW130383   1.131   4.098   1.648 -1.1937  3.9123 -0.5178
 6307SOL    HW230384   1.008   4.166   1.683  0.1869 -0.5678 -0.7118
 6308SOL     OW30385   2.554   3.777   4.768  0.3462  0.0496  0.0880
 6308SOL    HW130386   2.567   3.685   4.745  0.1525  0.1551 -0.4356
 6308SOL    HW230387   2.484   3.796   4.705 -0.6093  0.4867  1.2734
 6309SOL     OW30388   3.054   2.201   6.415  0.0399 -0.2476 -0.4609
 6309SOL    HW130389   3.128   2.245   6.456  0.2529  1.1403 -2.3620
 6309SOL    HW230390   3.062   2.223   6.322  2.0855 -2.0408 -0.7115
 6310SOL     OW30391   3.999   1.611   8.227  0.3092  0.2049 -0.0246
 6310SOL    HW130392   3.950   1.575   8.301 -2.6355  0.8256 -1.6870
 6310SOL    HW230393   4.032   1.529   8.191  0.8841  1.1127 -1.5623
 6311SOL     OW30394   1.252   3.010   8.138  0.0809  0.2688  0.3353
 6311SOL    HW130395   1.251   3.104   8.120  2.0525  0.1015 -0.6732
 6311SOL    HW230396   1.346   2.994   8.139  0.1687  0.8053  0.6716
 6312SOL     OW30397   2.906   2.232   5.495 -0.4740 -0.0437  0.1620
 6312SOL    HW130398   2.841   2.270   5.435 -0.3453 -0.4114 -0.2145
 6312SOL    HW230399   2.956   2.308   5.525 -1.1528  1.3836 -2.3102
 6313SOL     OW30400   2.566   3.322   4.521 -0.1512  0.2295 -0.6472
 6313SOL    HW130401   2.634   3.258   4.544 -0.5772  0.3548  0.9292
 6313SOL    HW230402   2.562   3.323   4.425  0.1055  1.4145 -0.6440
 6314SOL     OW30403   2.626   1.876  13.939 -0.0982  0.1461 -0.0347
 6314SOL    HW130404   2.537   1.876  13.903 -0.9699  0.2797  2.0851
 6314SOL    HW230405   2.673   1.898  13.859 -0.3667 -1.1971 -0.5650
 6315SOL     OW30406   3.813   1.960   1.840  0.1846  0.0635 -0.7469
 6315SOL    HW130407   3.827   2.052   1.860 -1.1506 -0.0054  0.4893
 6315SOL    HW230408   3.732   1.965   1.790 -1.4745  1.1697  2.0553
 6316SOL     OW30409   4.513   0.749   4.971  0.7322  0.6553 -0.0955
 6316SOL    HW130410   4.496   0.749   5.065 -1.9393 -1.1863 -0.5950
 6316SOL    HW230411   4.438   0.709   4.928 -0.9113  2.2995  1.2595
 6317SOL     OW30412   3.283   3.853   0.901  0.3648 -0.4854  0.3768
 6317SOL    HW130413   3.253   3.763   0.899 -0.1892 -0.2882 -0.3424
 6317SOL    HW230414   3.346   3.852   0.973 -0.7399 -3.0141  1.2615
 6318SOL     OW30415   2.266   1.836   0.784  0.5479  0.0238  1.2871
 6318SOL    HW130416   2.285   1.889   0.706  0.3363  1.8183  2.4520
 6318SOL    HW230417   2.213   1.898   0.833 -0.3564  2.4695 -2.7764
 6319SOL     OW30418   3.828   4.552   4.708  0.6208  0.1612  0.2536
 6319SOL    HW130419   3.748   4.566   4.658 -0.7413  0.5307  2.5337
 6319SOL    HW230420   3.853   4.470   4.667 -0.6760  0.4389 -1.0693
 6320SOL     OW30421   4.588   3.758   7.918 -0.4090 -0.0493  0.1880
 6320SOL    HW130422   4.592   3.713   7.833 -0.7682  1.4303 -0.6104
 6320SOL    HW230423   4.680   3.759   7.945 -0.4799 -0.1119  0.4320
 6321SOL     OW30424   2.255   2.920   2.584  0.8601 -0.1166  0.3443
 6321SOL    HW130425   2.268   3.013   2.603  2.5876  0.0072 -1.3893
 6321SOL    HW230426   2.303   2.886   2.659  1.1214 -0.8417 -0.1511
 6322SOL     OW30427   4.024   3.955  14.255 -0.2198 -0.0996 -0.2301
 6322SOL    HW130428   3.967   4.031  14.255  1.6599  1.2968 -0.0749
 6322SOL    HW230429   3.951   3.896  14.272  0.2033 -0.1540  1.3687
 6323SOL     OW30430   2.822   0.763   5.761  0.7243 -0.1887 -0.4785
 6323SOL    HW130431   2.872   0.736   5.838 -0.7930  0.5229  0.7430
 6323SOL    HW230432   2.895   0.799   5.709  0.7766 -0.0961 -0.3421
 6324SOL     OW30433   0.776   1.862   6.238 -0.0533 -0.0246 -0.5184
 6324SOL    HW130434   0.796   1.821   6.322 -1.4337  0.7096  0.1679
 6324SOL    HW230435   0.743   1.785   6.192  0.9362 -1.0965  0.5590
 6325SOL     OW30436   0.103   1.931   5.466 -0.2181  0.0688  0.2711
 6325SOL    HW130437   0.167   1.962   5.531 -2.0939  4.2361  0.0925
 6325SOL    HW230438   0.019   1.961   5.502 -0.9257 -0.2339 -1.1274
 6326SOL     OW30439   2.363   0.633   6.119 -0.5968 -0.3723 -0.1616
 6326SOL    HW130440   2.327   0.674   6.197  1.3936 -0.8621  0.9980
 6326SOL    HW230441   2.412   0.560   6.156 -1.0058 -0.8613 -0.5881
 6327SOL     OW30442   1.976   3.374  15.484  0.3556  0.2177  0.0515
 6327SOL    HW130443   2.022   3.447  15.442  0.3730  1.5104  2.3283
 6327SOL    HW230444   2.008   3.366  15.573 -0.4222  0.2303  0.3323
 6328SOL     OW30445   1.968   0.747   8.991  0.7223 -0.3197  0.3985
 6328SOL    HW130446   1.941   0.735   9.082  1.0972  2.0745  0.8459
 6328SOL    HW230447   1.911   0.684   8.949  0.4548  0.0949  0.1356
 6329SOL     OW30448   1.577   4.401   2.599  0.0508 -0.3692 -0.7879
 6329SOL    HW130449   1.611   4.464   2.663  2.3146 -2.3507 -0.0126
 6329SOL    HW230450   1.496   4.445   2.573  0.7306  1.7386  0.6479
 6330SOL     OW30451   1.932   3.463   6.416  0.0000 -0.2409 -0.0610
 6330SOL    HW130452   1.993   3.390   6.408  1.4343  0.9705 -0.3092
 6330SOL    HW230453   1.849   3.421   6.435 -0.3248 -0.3580 -1.7795
 6331SOL     OW30454   1.585   2.924   8.714 -0.4909 -0.1473 -0.0851
 6331SOL    HW130455   1.663   2.869   8.715 -0.5156 -0.1646  0.6877
 6331SOL    HW230456   1.636   3.003   8.697 -1.4009 -0.1695 -3.0950
 6332SOL     OW30457   3.144   4.206   5.158 -0.0266 -0.0933  0.5091
 6332SOL    HW130458   3.082   4.244   5.096  0.0580  0.8032  0.9696
 6332SOL    HW230459   3.166   4.130   5.104 -1.9976  0.6462 -1.3756
 6333SOL     OW30460   2.627   3.339   6.428  0.1869  0.0589  0.5647
 6333SOL    HW130461   2.664   3.302   6.347  0.9109  0.1853  0.8419
 6333SOL    HW230462   2.536   3.343   6.399  0.1485  2.7283  0.9987
 6334SOL     OW30463   2.355   0.217  15.303  0.5187 -0.4197 -0.6749
 6334SOL    HW130464   2.270   0.200  15.342 -0.5559  2.4082 -1.7711
 6334SOL    HW230465   2.331   0.212  15.211 -0.0601 -0.8063 -0.5033
 6335SOL     OW30466   3.318   2.363   6.215  0.1941  0.7221  0.4043
 6335SOL    HW130467   3.346   2.446   6.176 -0.1229 -0.0063 -1.3750
 6335SOL    HW230468   3.335   2.388   6.306  0.5863 -0.8383  0.7543
 6336SOL     OW30469   1.985   3.601   3.010  0.2899  0.0557 -0.2504
 6336SOL    HW130470   1.924   3.562   3.073 -1.8466  0.0978 -2.2537
 6336SOL    HW230471   2.060   3.544   3.029 -0.1654 -0.3201  0.4396
 6337SOL     OW30472   0.877   0.061   6.144  0.3391  0.3634 -0.3373
 6337SOL    HW130473   0.949   0.121   6.126  0.5963 -0.7183 -2.8644
 6337SOL    HW230474   0.880   4.710   6.082  0.1247 -1.1582  1.4430
 6338SOL     OW30475   3.061   0.186   6.734  0.7776  0.0418 -0.5317
 6338SOL    HW130476   3.005   0.116   6.702  1.1521 -0.4713 -0.0559
 6338SOL    HW230477   3.103   0.156   6.815 -1.8844 -1.6881  0.1974
 6339SOL     OW30478   2.245   2.449   2.360  0.3387 -0.1662  0.0401
 6339SOL    HW130479   2.252   2.472   2.453  0.5693  0.3336 -0.1016
 6339SOL    HW230480   2.334   2.421   2.339  0.7991  1.3992 -0.1097
 6340SOL     OW30481   2.702   0.939   6.357  0.4126  0.3355 -0.9515
 6340SOL    HW130482   2.680   0.878   6.427  0.9271  2.1805  0.8083
 6340SOL    HW230483   2.657   0.898   6.283 -0.5472  1.2707 -0.8835
 6341SOL     OW30484   0.022   0.711   1.507 -0.2587  0.4036 -0.2686
 6341SOL    HW130485   0.098   0.769   1.518  1.2598 -1.8833  1.3133
 6341SOL    HW230486   0.049   0.620   1.504 -0.1205  0.4097  0.6791
 6342SOL     OW30487   4.607   3.515   7.438  0.2296 -0.7789  0.2192
 6342SOL    HW130488   4.514   3.505   7.419  0.0361  1.5726 -0.1037
 6342SOL    HW230489   4.650   3.470   7.365 -0.4672 -1.4049  0.1934
 6343SOL     OW30490   2.410   4.024   8.954 -0.5271  0.2938 -0.5942
 6343SOL    HW130491   2.450   3.944   8.985 -0.3474  0.2073 -1.0472
 6343SOL    HW230492   2.359   4.052   9.030  0.8376 -0.0199  0.4374
 6344SOL     OW30493   0.444   4.587  10.170 -0.0940  0.5969 -0.1189
 6344SOL    HW130494   0.520   4.528  10.179 -0.7285  0.1861  2.8383
 6344SOL    HW230495   0.469   4.633  10.090  0.7752 -3.6841 -2.3056
 6345SOL     OW30496   3.369   0.277  10.509  0.1888 -0.3682 -0.2635
 6345SOL    HW130497   3.429   0.208  10.537  0.1009 -0.2132  0.2969
 6345SOL    HW230498   3.380   0.336  10.584 -1.9111 -2.4262  1.6517
 6346SOL     OW30499   1.397   1.705   4.693  0.5047  0.1991 -0.5467
 6346SOL    HW130500   1.346   1.690   4.773  0.4505  0.6575 -0.4985
 6346SOL    HW230501   1.445   1.779   4.729  0.2423  0.2824 -0.3656
 6347SOL     OW30502   0.448   3.633  14.852 -0.0482 -0.0637  0.5005
 6347SOL    HW130503   0.503   3.669  14.922 -1.0365  1.1923  0.6296
 6347SOL    HW230504   0.494   3.549  14.851 -0.5823 -0.3415 -0.6222
 6348SOL     OW30505   4.004   1.485  10.587  0.1495  0.3537 -0.0021
 6348SOL    HW130506   4.064   1.486  10.513  1.0179 -0.0510  0.6955
 6348SOL    HW230507   3.922   1.447  10.555  0.3564  1.2885 -1.6352
 6349SOL     OW30508   3.892   0.051   3.875 -0.1527 -0.2771 -0.5153
 6349SOL    HW130509   3.981   0.072   3.847 -0.6479  0.3727 -1.6121
 6349SOL    HW230510   3.840   0.099   3.811  0.8613 -0.1383 -1.2506
 6350SOL     OW30511   0.766   2.264   9.963 -0.2653  0.2634  0.0172
 6350SOL    HW130512   0.780   2.329   9.894  0.3827 -1.2066 -1.2365
 6350SOL    HW230513   0.788   2.316  10.040 -2.0618 -0.1383  0.8099
 6351SOL     OW30514   1.332   0.208   2.501 -0.1920 -0.0583 -0.1615
 6351SOL    HW130515   1.388   0.197   2.577 -1.7892  1.2701  1.2107
 6351SOL    HW230516   1.265   0.141   2.518  2.1608 -3.7245 -5.3657
 6352SOL     OW30517   0.850   1.096  13.057  0.0444 -0.4985 -0.4788
 6352SOL    HW130518   0.840   1.032  12.987 -1.7950  0.4438 -1.0562
 6352SOL    HW230519   0.938   1.130  13.040 -0.2757  0.3799 -0.3744
 6353SOL     OW30520   3.933   0.093  12.621  0.3480 -0.0840 -0.3723
 6353SOL    HW130521   3.939   0.006  12.661 -1.0865 -0.0373 -0.0370
 6353SOL    HW230522   4.020   0.101  12.583  1.4637  0.3426  2.2409
 6354SOL     OW30523   3.060   1.791   1.472  0.1098 -0.2465  0.4075
 6354SOL    HW130524   3.116   1.860   1.509  0.3137  0.1324 -0.6161
 6354SOL    HW230525   3.066   1.813   1.380  0.9428  0.8523  0.7262
 6355SOL     OW30526   2.423   4.015   4.038 -0.0899  0.2551  0.3809
 6355SOL    HW130527   2.378   4.082   4.089  0.3890 -1.0080  2.4857
 6355SOL    HW230528   2.506   4.063   4.034 -1.5094  2.7593  1.2408
 6356SOL     OW30529   0.444   2.893   7.278  0.0741 -0.0488  0.1990
 6356SOL    HW130530   0.388   2.930   7.209 -1.1465  0.8393  1.6775
 6356SOL    HW230531   0.435   2.958   7.348 -1.4920 -0.0684  0.0155
 6357SOL     OW30532   0.525   3.977  15.658 -0.3932  0.1253 -0.5616
 6357SOL    HW130533   0.429   3.971  15.651 -0.5336  0.8770  0.7271
 6357SOL    HW230534   0.554   4.001  15.570 -0.4131 -2.0317 -1.1713
 6358SOL     OW30535   2.396   1.423   4.388 -0.1869  0.5477 -0.7461
 6358SOL    HW130536   2.362   1.336   4.366  0.6235  0.1452 -0.4292
 6358SOL    HW230537   2.491   1.412   4.387 -0.2503 -0.0390 -0.0611
 6359SOL     OW30538   4.565   2.845   3.916  0.4819 -0.0702  0.6235
 6359SOL    HW130539   4.659   2.862   3.907  0.4771  0.9678  2.4826
 6359SOL    HW230540   4.561   2.763   3.867 -0.6277 -0.2766  1.0518
 6360SOL     OW30541   0.933   1.256   8.431  0.1125 -0.6494  0.3717
 6360SOL    HW130542   0.940   1.351   8.427 -0.8447 -0.5832  0.3287
 6360SOL    HW230543   0.924   1.235   8.338  0.3184  0.4949  0.0910
 6361SOL     OW30544   2.690   1.778  13.295 -0.4844 -0.0209  0.5671
 6361SOL    HW130545   2.780   1.769  13.327  0.2617 -1.0422 -1.7831
 6361SOL    HW230546   2.686   1.872  13.282  0.9666 -0.2766 -1.8455
 6362SOL     OW30547   1.945   4.040  13.088  0.0824 -0.4569 -0.4938
 6362SOL    HW130548   1.967   4.133  13.091  1.5592 -0.8020 -0.5498
 6362SOL    HW230549   1.921   4.023  13.179 -0.7030  0.5742 -0.5054
 6363SOL     OW30550   0.147   2.086   3.491  0.5210  0.3265 -0.8516
 6363SOL    HW130551   0.217   2.140   3.527  0.7323 -0.4963 -0.0306
 6363SOL    HW230552   0.204   2.036   3.433 -0.3239  0.5804 -1.9052
 6364SOL     OW30553   4.666   4.691   4.586 -0.0567 -0.5645  0.4125
 6364SOL    HW130554   0.023   4.644   4.611  0.1190 -0.2702  0.4125
 6364SOL    HW230555   4.707   0.053   4.566  0.4092 -0.1329  3.1023
 6365SOL     OW30556   4.600   3.142  15.377  0.0522 -0.4451 -0.4062
 6365SOL    HW130557   4.624   3.066  15.325  0.4402 -0.8658  0.3951
 6365SOL    HW230558   4.622   3.122  15.468  0.3655  0.6977 -0.2206
 6366SOL     OW30559   2.908   1.750   7.641  0.1003  0.1777 -0.4013
 6366SOL    HW130560   2.915   1.821   7.704  0.0207  1.4683 -1.8652
 6366SOL    HW230561   2.936   1.793   7.560 -0.2293 -1.2172 -1.2642
 6367SOL     OW30562   2.549   3.824   9.018 -0.5066  0.0756  0.2525
 6367SOL    HW130563   2.605   3.783   9.084  0.5582  2.2980  0.7385
 6367SOL    HW230564   2.600   3.817   8.937 -2.5027  0.4851 -1.0464
 6368SOL     OW30565   2.069   4.307   9.354  0.0611 -0.1635 -0.1938
 6368SOL    HW130566   2.077   4.276   9.444  1.7900  0.6903 -0.0611
 6368SOL    HW230567   2.140   4.367   9.337  0.0173  0.2261  0.9802
 6369SOL     OW30568   4.363   2.246   9.950 -0.3247  0.3295  0.2840
 6369SOL    HW130569   4.392   2.306  10.019  1.4103  2.5742 -2.4233
 6369SOL    HW230570   4.439   2.188   9.955 -0.9998 -0.6509 -0.9493
 6370SOL     OW30571   0.884   2.804   7.202 -0.1101 -0.1588 -0.2378
 6370SOL    HW130572   0.793   2.832   7.190 -0.6773 -0.8107  2.5796
 6370SOL    HW230573   0.879   2.732   7.139  1.5537 -1.7850  1.5145
 6371SOL     OW30574   3.903   2.790   9.808 -0.1849 -0.5455 -0.2862
 6371SOL    HW130575   3.838   2.764   9.743 -0.7149  2.7967 -1.0970
 6371SOL    HW230576   3.981   2.767   9.756  0.4633 -1.8362  1.2680
 6372SOL     OW30577   0.539   1.259  14.181  0.1464 -0.1189  0.0795
 6372SOL    HW130578   0.449   1.228  14.173  0.0461  0.6853 -1.8540
 6372SOL    HW230579   0.568   1.283  14.093 -1.8400  1.0568 -0.2436
 6373SOL     OW30580   3.350   4.468   7.556 -0.8394 -0.8964 -0.2215
 6373SOL    HW130581   3.350   4.372   7.557 -0.2996 -0.9064 -2.1180
 6373SOL    HW230582   3.257   4.485   7.571 -0.7547 -0.2172 -0.4620
 6374SOL     OW30583   1.008   0.941  17.612  0.0638 -0.4162 -0.1540
 6374SOL    HW130584   1.053   0.982  17.538 -2.5468  0.5345 -1.2154
 6374SOL    HW230585   0.948   0.894  17.556  0.1374 -0.8193  0.1052
 6375SOL     OW30586   2.703   4.447   1.130  0.4400  0.1253 -0.1119
 6375SOL    HW130587   2.763   4.507   1.175  0.0929  0.0813  0.4189
 6375SOL    HW230588   2.708   4.477   1.040 -1.1687 -0.3487 -0.3590
 6376SOL     OW30589   4.718   2.968   6.022 -0.1114  0.4451  0.3061
 6376SOL    HW130590   4.687   3.056   6.047 -0.5694 -0.3666  2.5919
 6376SOL    HW230591   4.641   2.915   6.002  0.2203  0.1540 -0.1956
 6377SOL     OW30592   4.353   1.054   4.627 -0.9101  0.0173  0.1826
 6377SOL    HW130593   4.319   1.143   4.623  0.6086  0.6897  2.2070
 6377SOL    HW230594   4.287   0.998   4.587  2.9938 -2.1900 -3.2292
 6378SOL     OW30595   0.371   4.417   9.931  1.3925  0.7769  0.3489
 6378SOL    HW130596   0.377   4.408  10.026 -2.2128  3.3429  0.8179
 6378SOL    HW230597   0.464   4.404   9.913  1.5166  2.3912 -0.1933
 6379SOL     OW30598   3.255   4.646  12.709  0.1512  0.2300 -0.1729
 6379SOL    HW130599   3.295   4.651  12.622  2.0974  1.5248  0.7904
 6379SOL    HW230600   3.264   4.552  12.719 -1.4623  0.2203  1.1623
 6380SOL     OW30601   4.115   3.894   1.022 -0.0504  0.3148 -0.0402
 6380SOL    HW130602   4.192   3.838   1.024  0.5846  1.2120  0.7547
 6380SOL    HW230603   4.117   3.952   0.946  0.9146 -0.7772 -0.8310
 6381SOL     OW30604   2.660   2.364   4.802  0.2243 -0.2678  0.1184
 6381SOL    HW130605   2.743   2.326   4.772  2.0832  2.3037  1.9376
 6381SOL    HW230606   2.682   2.413   4.881 -0.4369  1.1822 -0.6023
 6382SOL     OW30607   3.020   4.365   9.907  0.0982  0.1621 -0.2729
 6382SOL    HW130608   3.030   4.408   9.992  0.3888  0.4705 -0.4627
 6382SOL    HW230609   2.932   4.378   9.872 -0.4664  0.9284  1.4190
 6383SOL     OW30610   2.832   3.543   6.438  0.2573 -0.0360  0.0692
 6383SOL    HW130611   2.755   3.488   6.425 -0.6727  1.8594 -2.3364
 6383SOL    HW230612   2.811   3.601   6.511  2.3419 -1.1034  1.5357
 6384SOL     OW30613   1.754   3.885   6.919  0.0117  0.7029  0.0528
 6384SOL    HW130614   1.762   3.935   7.000 -1.8055  0.1412  0.5703
 6384SOL    HW230615   1.756   3.961   6.861  1.3325  1.2607  0.8121
 6385SOL     OW30616   4.123   0.123   1.882  0.0559  0.6762 -0.2430
 6385SOL    HW130617   4.188   0.097   1.817  0.5954 -0.0744  0.5990
 6385SOL    HW230618   4.140   0.216   1.901 -0.2424  0.0662  3.0731
 6386SOL     OW30619   3.216   0.064   4.923  0.2467 -0.6874 -0.0691
 6386SOL    HW130620   3.281   0.134   4.935  0.5552 -0.6052 -2.2447
 6386SOL    HW230621   3.213   0.033   5.013  1.7403 -2.8570 -0.7616
 6387SOL     OW30622   0.013   3.368   1.100 -0.0425  0.6879  0.2360
 6387SOL    HW130623   4.693   3.376   1.185 -2.8986  0.2407 -1.1411
 6387SOL    HW230624   4.701   3.446   1.057 -0.6363 -0.3559 -1.1957
 6388SOL     OW30625   2.552   1.328  12.281  0.5021  0.4056  0.5559
 6388SOL    HW130626   2.612   1.292  12.346  0.5622 -2.7992 -1.2522
 6388SOL    HW230627   2.617   1.392  12.254  1.1294 -0.7604 -0.6260
 6389SOL     OW30628   4.250   0.092   7.693  0.7907  0.1419 -0.2441
 6389SOL    HW130629   4.254   0.188   7.695  0.4872  0.1795 -1.5460
 6389SOL    HW230630   4.155   0.082   7.688  0.6646  2.4168 -2.2433
 6390SOL     OW30631   0.453   2.105   8.471  0.2808 -0.1321  0.1840
 6390SOL    HW130632   0.445   2.168   8.399 -2.2752  0.5285  1.0383
 6390SOL    HW230633   0.500   2.039   8.420  1.0356 -0.4876  1.3466
 6391SOL     OW30634   0.374   0.183   8.887  0.1339  0.0533 -0.7529
 6391SOL    HW130635   0.332   0.146   8.810 -0.4206 -0.2235 -0.3177
 6391SOL    HW230636   0.462   0.144   8.888 -0.4637 -1.2041  1.7651
 6392SOL     OW30637   3.612   4.705   3.133 -0.1371 -0.4315 -0.1828
 6392SOL    HW130638   3.632   0.060   3.081  0.4422 -1.0962 -0.9570
 6392SOL    HW230639   3.551   0.014   3.200 -1.9587 -0.4023 -1.8675
 6393SOL     OW30640   3.614   4.616   4.524 -0.2503  0.8375  0.4859
 6393SOL    HW130641   3.610   4.711   4.534  0.3353  1.2048 -2.7490
 6393SOL    HW230642   3.619   4.609   4.429 -0.4337 -2.0342  0.7051
 6394SOL     OW30643   1.958   0.337   8.234 -0.5033 -0.5201  0.0101
 6394SOL    HW130644   1.917   0.357   8.150 -0.0507 -1.2220 -0.3747
 6394SOL    HW230645   1.895   0.275   8.270  0.7862 -2.0327 -0.3660
 6395SOL     OW30646   0.723   3.183   4.731  0.1767  1.0800  0.0346
 6395SOL    HW130647   0.693   3.218   4.815  0.2583 -0.5224  0.7338
 6395SOL    HW230648   0.756   3.099   4.764 -1.0405  0.3718 -0.5365
 6396SOL     OW30649   1.801   1.604  14.252 -0.7227  0.7266 -0.2094
 6396SOL    HW130650   1.750   1.600  14.333  1.1233 -1.4451  0.8659
 6396SOL    HW230651   1.881   1.655  14.269  1.0010 -1.6899 -0.9922
 6397SOL     OW30652   3.518   1.059  13.399  0.2681 -0.3568  0.1743
 6397SOL    HW130653   3.592   1.011  13.435  2.0175 -0.3626 -3.4352
 6397SOL    HW230654   3.494   1.016  13.316  1.4226 -0.8400  0.0921
 6398SOL     OW30655   3.198   2.781   8.955 -0.3139  0.2792  0.3440
 6398SOL    HW130656   3.232   2.741   8.875  1.3834 -0.4980  1.4357
 6398SOL    HW230657   3.131   2.714   8.971  1.7579 -1.6106  1.2717
 6399SOL     OW30658   0.368   2.885  15.728  0.0215 -0.2398 -0.8075
 6399SOL    HW130659   0.388   2.975  15.754  0.6472  0.0462 -2.2808
 6399SOL    HW230660   0.273   2.887  15.721 -0.2062 -0.4530  2.1616
 6400SOL     OW30661   1.066   2.535   3.194 -0.0411 -0.8263 -0.2287
 6400SOL    HW130662   0.997   2.528   3.260 -2.1764  1.0214 -2.2193
 6400SOL    HW230663   1.101   2.622   3.214  0.1545 -1.1862  0.9570
 6401SOL     OW30664   4.492   0.186   4.509 -0.2474 -0.5298 -0.3238
 6401SOL    HW130665   4.565   0.165   4.451  0.8463 -0.7899  1.1434
 6401SOL    HW230666   4.493   0.112   4.570 -1.3954  0.7213  1.2356
 6402SOL     OW30667   3.439   3.108   6.289 -0.1478  0.1518 -0.3845
 6402SOL    HW130668   3.356   3.152   6.308 -0.1637  0.1879 -0.5423
 6402SOL    HW230669   3.496   3.170   6.333 -1.2664 -0.4888  1.9936
 6403SOL     OW30670   0.086   3.612   3.374  0.2734  0.6075 -0.0878
 6403SOL    HW130671   0.116   3.606   3.284  2.2698  1.4204  0.5139
 6403SOL    HW230672   0.009   3.668   3.368 -0.2055  0.0879  1.2680
 6404SOL     OW30673   2.160   4.201   5.383  0.6288  0.1515  0.2509
 6404SOL    HW130674   2.220   4.162   5.447 -0.0305  1.0081  1.3820
 6404SOL    HW230675   2.227   4.242   5.327  0.9754 -0.4556  0.2159
 6405SOL     OW30676   4.391   1.674  12.172 -0.0772  0.3208 -0.8081
 6405SOL    HW130677   4.431   1.758  12.195  0.0211  0.0780 -0.1102
 6405SOL    HW230678   4.428   1.657  12.086  0.6588 -0.3330 -0.3602
 6406SOL     OW30679   0.435   3.460   3.147 -0.7765 -0.0563  0.0105
 6406SOL    HW130680   0.349   3.497   3.163 -0.6026  0.8915 -1.2364
 6406SOL    HW230681   0.474   3.529   3.094 -0.1935  0.8214  1.5820
 6407SOL     OW30682   1.634   4.652   2.721  0.3920 -0.5909  0.3110
 6407SOL    HW130683   1.578   4.702   2.663  0.8584  0.4221  0.7269
 6407SOL    HW230684   1.645   4.697   2.805 -1.1400 -0.2715  0.3220
 6408SOL     OW30685   1.389   0.425   6.420 -0.4746 -0.1274 -0.4704
 6408SOL    HW130686   1.396   0.473   6.503  0.2675 -0.7790 -0.1600
 6408SOL    HW230687   1.314   0.463   6.373 -0.3773 -1.1870 -1.4635
 6409SOL     OW30688   2.239   2.096   5.924 -0.2614 -0.3321 -0.2496
 6409SOL    HW130689   2.277   2.013   5.954  1.7224  0.2832 -1.0608
 6409SOL    HW230690   2.278   2.150   5.992  2.2380 -3.7085  0.9996
 6410SOL     OW30691   4.671   2.049   4.447 -0.0400  0.6934  0.0102
 6410SOL    HW130692   4.705   2.010   4.527  0.1348 -0.1892 -0.5003
 6410SOL    HW230693   4.721   2.130   4.452  0.5524  0.2189  1.5475
 6411SOL     OW30694   4.559   4.306   4.744 -0.4007  0.6097  0.6774
 6411SOL    HW130695   4.597   4.303   4.832  0.6689  0.6386  0.2201
 6411SOL    HW230696   4.644   4.293   4.701 -1.3121 -0.3438 -0.8375
 6412SOL     OW30697   2.196   2.618   1.253  0.0196  0.2397 -1.2885
 6412SOL    HW130698   2.260   2.656   1.312 -1.0593 -0.6185  0.4353
 6412SOL    HW230699   2.114   2.656   1.286  0.5959  0.2216  0.1420
 6413SOL     OW30700   0.477   1.714  16.561 -0.5481 -0.0665  0.7780
 6413SOL    HW130701   0.459   1.643  16.623 -0.0758 -1.3523 -0.5798
 6413SOL    HW230702   0.571   1.701  16.553 -0.6283 -0.5307  0.6043
 6414SOL     OW30703   0.752   0.321  15.731 -0.7995  0.5467  0.5511
 6414SOL    HW130704   0.812   0.273  15.673 -1.5574  1.4991 -1.0313
 6414SOL    HW230705   0.712   0.386  15.673 -0.6206  0.8488  0.7657
 6415SOL     OW30706   0.889   0.100   7.487 -0.2749 -0.1083  0.3516
 6415SOL    HW130707   0.933   0.167   7.435  0.8677 -0.2540  1.1238
 6415SOL    HW230708   0.906   0.023   7.432 -2.5203  0.6208 -1.3716
 6416SOL     OW30709   2.827   1.634   2.159  0.8277 -0.0437  0.2561
 6416SOL    HW130710   2.863   1.635   2.071  2.8535 -1.1263  1.0842
 6416SOL    HW230711   2.813   1.729   2.162  1.5004  0.0325  1.0455
 6417SOL     OW30712   2.374   0.425   3.454 -0.7562  0.1686 -0.3090
 6417SOL    HW130713   2.373   0.441   3.360  2.1310 -0.2108 -0.3868
 6417SOL    HW230714   2.435   0.496   3.476 -1.9865  0.7386  1.3297
 6418SOL     OW30715   0.926   2.963   7.685  0.3886  0.0356  0.2288
 6418SOL    HW130716   0.910   2.908   7.608  1.2114  0.2211 -0.0795
 6418SOL    HW230717   0.971   2.913   7.753  0.8988 -0.5296 -0.5244
 6419SOL     OW30718   3.501   0.910   3.525 -0.3070 -0.5458  0.2780
 6419SOL    HW130719   3.509   0.988   3.471 -0.6977 -0.0668  0.9151
 6419SOL    HW230720   3.504   0.953   3.611 -1.4218  1.7137 -0.8378
 6420SOL     OW30721   1.992   4.346   8.365  0.5698  0.4115 -0.0623
 6420SOL    HW130722   1.939   4.285   8.415  0.3930  0.6406  0.0325
 6420SOL    HW230723   1.924   4.371   8.303 -0.8881 -1.2256  0.8844
 6421SOL     OW30724   0.657   0.537   4.974 -1.1542  0.4620  0.7016
 6421SOL    HW130725   0.564   0.521   4.956 -0.7771  2.2910 -3.1035
 6421SOL    HW230726   0.669   0.625   4.938 -2.9990  0.4838  0.1136
 6422SOL     OW30727   4.630   3.605   6.764 -0.4026 -0.0511  0.1730
 6422SOL    HW130728   4.597   3.693   6.744 -3.1220 -0.7875  1.5411
 6422SOL    HW230729   4.644   3.565   6.678  1.2611 -1.7077  1.2158
 6423SOL     OW30730   2.452   2.969   9.455 -0.1995 -0.0650 -0.2415
 6423SOL    HW130731   2.432   2.900   9.517  0.8306 -0.1805 -0.0403
 6423SOL    HW230732   2.372   3.021   9.453 -1.4564 -1.9621  1.7507
 6424SOL     OW30733   4.432   0.955  16.026 -0.2600  0.1394 -0.7568
 6424SOL    HW130734   4.474   0.993  16.103  2.4159 -1.4039 -1.4303
 6424SOL    HW230735   4.397   1.033  15.982  2.2077  1.8786  0.3481
 6425SOL     OW30736   4.547   0.929   5.860  0.1297  0.0895  0.0525
 6425SOL    HW130737   4.481   0.897   5.798  1.6798  0.6909 -1.9398
 6425SOL    HW230738   4.622   0.932   5.800  0.5756 -2.4999  0.4965
 6426SOL     OW30739   3.114   4.510  10.851  0.1646 -0.3163 -0.0124
 6426SOL    HW130740   3.061   4.578  10.894  1.2735  1.1203 -0.9096
 6426SOL    HW230741   3.197   4.556  10.843 -1.4022  2.3424 -1.1200
 6427SOL     OW30742   2.389   4.363   4.147 -0.1227 -0.1275 -0.1961
 6427SOL    HW130743   2.408   4.398   4.059 -0.3426 -2.8403 -1.3258
 6427SOL    HW230744   2.419   4.440   4.194  3.2496  1.1563 -4.3698
 6428SOL     OW30745   2.252   0.951   9.607  0.4838  0.4064  0.6208
 6428SOL    HW130746   2.340   0.937   9.573  1.0025  1.7117  1.4321
 6428SOL    HW230747   2.263   1.041   9.639 -0.0496  0.8336 -0.3925
 6429SOL     OW30748   3.770   1.633   4.445 -0.2762 -0.0684  0.0456
 6429SOL    HW130749   3.676   1.619   4.458 -0.3847 -1.0147 -1.7666
 6429SOL    HW230750   3.778   1.712   4.392 -0.7255 -1.2714 -1.8121
 6430SOL     OW30751   0.581   3.082   3.302 -0.0990 -0.3170  0.1517
 6430SOL    HW130752   0.672   3.106   3.322  0.7260 -1.4803 -2.0996
 6430SOL    HW230753   0.588   3.106   3.209 -1.3122  2.5699  0.7953
 6431SOL     OW30754   1.316   2.178   2.201  0.7981  0.1034  0.2401
 6431SOL    HW130755   1.327   2.207   2.111  0.1163  2.1965  0.8425
 6431SOL    HW230756   1.399   2.202   2.241 -0.0864 -0.1831  2.2543
 6432SOL     OW30757   0.086   1.031  13.752  0.1635 -0.1342  0.0436
 6432SOL    HW130758   0.118   1.107  13.704 -2.3607  1.9267  1.6220
 6432SOL    HW230759   4.718   1.040  13.720 -0.2950  3.1635  2.2673
 6433SOL     OW30760   0.102   2.264   2.687  0.2003  0.6346 -0.0475
 6433SOL    HW130761   0.070   2.313   2.762  1.6552  0.1096  0.9125
 6433SOL    HW230762   0.195   2.280   2.697  0.2404  0.3018  0.1136
 6434SOL     OW30763   4.222   2.142   5.483 -0.1139  0.4713 -0.0376
 6434SOL    HW130764   4.246   2.210   5.546 -1.3318  1.5959 -0.7837
 6434SOL    HW230765   4.230   2.061   5.533 -1.0540  0.4118  0.0142
 6435SOL     OW30766   0.971   0.273   1.140  0.2429 -0.2142  0.2906
 6435SOL    HW130767   0.951   0.186   1.177  0.8979 -0.5814 -0.2363
 6435SOL    HW230768   0.897   0.330   1.161  0.6450  0.5193 -0.3076
 6436SOL     OW30769   1.289   0.852   4.666 -0.0766 -0.1218 -0.3076
 6436SOL    HW130770   1.348   0.794   4.618 -0.9136  0.8454 -2.4937
 6436SOL    HW230771   1.226   0.857   4.594 -0.1909 -1.2441 -0.2803
 6437SOL     OW30772   4.075   3.628  14.466  0.5815  0.4846 -0.1961
 6437SOL    HW130773   4.135   3.554  14.476 -0.1132  0.0766  0.9181
 6437SOL    HW230774   4.130   3.706  14.462  0.3802  0.5704 -1.3290
 6438SOL     OW30775   2.790   1.004  12.060 -0.8857 -0.3199 -0.5270
 6438SOL    HW130776   2.836   1.069  12.007  0.8496 -2.7453 -1.9416
 6438SOL    HW230777   2.706   0.985  12.017 -2.0870 -1.4494  2.2777
 6439SOL     OW30778   0.877   1.703   3.794  0.0158  0.7611  0.0028
 6439SOL    HW130779   0.908   1.792   3.777  0.6044  0.6349  0.3775
 6439SOL    HW230780   0.860   1.674   3.705 -0.4787 -0.6492  0.5473
 6440SOL     OW30781   0.355   4.704   1.976 -0.7824  0.4237  0.3627
 6440SOL    HW130782   0.407   0.018   2.048 -0.6917  0.3341  0.3413
 6440SOL    HW230783   0.296   4.658   2.035 -1.1158 -0.8806 -0.9767
 6441SOL     OW30784   1.733   2.965   5.711 -0.6221  0.8530  0.0485
 6441SOL    HW130785   1.760   2.948   5.620 -2.0911  1.4510 -0.5058
 6441SOL    HW230786   1.757   3.057   5.711  1.9146  0.1749  1.1277
 6442SOL     OW30787   1.269   3.344  10.574  0.0428  0.8782  0.2613
 6442SOL    HW130788   1.197   3.284  10.552  1.7611 -1.6670  1.5700
 6442SOL    HW230789   1.246   3.368  10.664 -0.1189 -2.2090  1.0562
 6443SOL     OW30790   1.001   2.246   6.910 -0.2020 -0.1601 -0.6209
 6443SOL    HW130791   0.979   2.230   6.818 -0.8206 -1.9024 -0.1706
 6443SOL    HW230792   1.038   2.159   6.928  0.7724 -0.0895 -2.2783
 6444SOL     OW30793   4.711   0.786   4.751 -0.1475 -0.1410  0.3797
 6444SOL    HW130794   4.641   0.787   4.817 -0.4600 -4.4807  0.1306
 6444SOL    HW230795   0.062   0.798   4.811  0.2988 -1.9420  0.1924
 6445SOL     OW30796   1.642   0.643  14.185  0.3045 -0.1898 -0.2326
 6445SOL    HW130797   1.678   0.579  14.245 -0.1177 -1.2673 -1.1238
 6445SOL    HW230798   1.552   0.611  14.177 -0.0476  0.2919  1.7328
 6446SOL     OW30799   3.550   1.713  12.155 -0.4582  0.2421 -0.4233
 6446SOL    HW130800   3.561   1.666  12.238  1.5780 -1.2406 -1.5363
 6446SOL    HW230801   3.591   1.794  12.184 -1.8862  0.8269 -0.0411
 6447SOL     OW30802   3.999   0.843   8.968  0.0078 -0.5155  0.5282
 6447SOL    HW130803   3.970   0.752   8.956 -2.6490  0.5901 -1.2721
 6447SOL    HW230804   4.018   0.848   9.062  1.1604 -0.9097  0.3169
 6448SOL     OW30805   3.942   0.479   9.165  0.1493  0.1372  0.3365
 6448SOL    HW130806   3.933   0.537   9.090  0.1081 -0.1210  0.1442
 6448SOL    HW230807   3.868   0.424   9.139 -0.4945  1.7927 -1.3537
 6449SOL     OW30808   4.259   3.325   5.219  0.1258 -0.7116 -0.3605
 6449SOL    HW130809   4.295   3.397   5.167  1.5635  0.5332  2.3357
 6449SOL    HW230810   4.186   3.377   5.251  0.7810 -1.2058  1.9868
 6450SOL     OW30811   0.630   0.712   6.588  0.5752 -0.1059  0.1613
 6450SOL    HW130812   0.589   0.721   6.673 -2.4422  0.4745 -1.3673
 6450SOL    HW230813   0.602   0.625   6.557  0.5125 -0.1675  0.3942
 6451SOL     OW30814   4.566   0.404   3.785 -0.4737  0.4609  0.6987
 6451SOL    HW130815   4.616   0.343   3.730  0.3538 -0.1021  2.0790
 6451SOL    HW230816   4.626   0.458   3.836 -1.2725 -0.1024  2.2280
 6452SOL     OW30817   4.565   2.774   0.746  0.8511 -0.3877  0.2783
 6452SOL    HW130818   4.482   2.733   0.772  0.5734  0.1449  0.2357
 6452SOL    HW230819   4.529   2.833   0.679  2.1379 -0.8296 -0.8168
 6453SOL     OW30820   1.300   4.293   7.246 -0.3206 -0.5829  0.3239
 6453SOL    HW130821   1.270   4.305   7.156  1.1135  4.7656  0.5502
 6453SOL    HW230822   1.223   4.288   7.302  1.4095  2.5586  2.9726
 6454SOL     OW30823   2.642   4.193  15.996 -0.3157 -0.0210  0.0676
 6454SOL    HW130824   2.732   4.158  15.991 -1.4642 -3.0343  0.3624
 6454SOL    HW230825   2.597   4.118  16.035  0.0606 -0.8739 -1.1049
 6455SOL     OW30826   2.701   1.004   2.112  0.2186 -0.2265  0.5691
 6455SOL    HW130827   2.690   1.086   2.064 -1.3934  0.3693  1.9573
 6455SOL    HW230828   2.791   1.019   2.140  0.8011 -2.0970 -0.2932
 6456SOL     OW30829   0.722   3.503   4.976 -0.7475 -0.2662  0.1103
 6456SOL    HW130830   0.643   3.551   5.000 -0.0370  0.0542  1.8420
 6456SOL    HW230831   0.754   3.562   4.907 -0.5751 -0.5137 -0.0205
 6457SOL     OW30832   4.676   3.633   4.572  0.3142 -0.0769  0.0273
 6457SOL    HW130833   4.599   3.687   4.558  0.6019  0.1428 -0.7386
 6457SOL    HW230834   4.667   3.564   4.507  1.6517 -0.2227 -0.0015
 6458SOL     OW30835   2.190   1.862   6.324  0.2273  0.5913 -0.0153
 6458SOL    HW130836   2.275   1.819   6.324  0.8609  1.8426  0.2800
 6458SOL    HW230837   2.150   1.808   6.392  1.8921  0.1258  0.5911
 6459SOL     OW30838   3.292   2.370   4.573  0.1524  0.2609  0.3877
 6459SOL    HW130839   3.379   2.408   4.581  0.1143  0.4018  0.1590
 6459SOL    HW230840   3.302   2.301   4.637  1.3758  2.7182  2.8313
 6460SOL     OW30841   0.698   2.945   1.611  0.3990 -0.4169  0.0497
 6460SOL    HW130842   0.687   2.921   1.703 -4.1888  1.1331 -0.0937
 6460SOL    HW230843   0.619   2.999   1.613 -0.5337 -1.7890  0.2734
 6461SOL     OW30844   0.787   2.359  11.022 -0.2281 -0.0524  0.1515
 6461SOL    HW130845   0.726   2.359  10.948 -1.4091  0.5358  1.1439
 6461SOL    HW230846   0.738   2.348  11.103 -2.1149 -1.3451 -1.1559
 6462SOL     OW30847   1.421   2.673   2.506  0.2833 -0.5955 -0.0106
 6462SOL    HW130848   1.512   2.703   2.501 -0.5077  2.1083  1.8290
 6462SOL    HW230849   1.370   2.746   2.540  2.2466  1.0078 -0.5142
 6463SOL     OW30850   2.529   4.667   1.947  0.4238 -0.3345  0.2086
 6463SOL    HW130851   2.624   4.656   1.955  0.0803 -1.7302  2.5159
 6463SOL    HW230852   2.507   4.585   1.903 -2.0464  0.3116  0.2649
 6464SOL     OW30853   3.032   2.140   1.151  0.1599 -0.5108 -0.1891
 6464SOL    HW130854   3.097   2.179   1.092 -2.0573 -0.2973 -2.5005
 6464SOL    HW230855   2.953   2.122   1.100 -0.4512  0.5150  0.3845
 6465SOL     OW30856   2.409   0.873  12.411 -0.1183 -0.2279  0.9029
 6465SOL    HW130857   2.315   0.854  12.405 -0.3071  0.9419  0.1049
 6465SOL    HW230858   2.449   0.791  12.381 -1.3337 -0.3803 -0.3514
 6466SOL     OW30859   3.772   1.560  14.509  0.8249 -0.0987  0.6042
 6466SOL    HW130860   3.714   1.632  14.484  1.6140  1.1124  2.2998
 6466SOL    HW230861   3.826   1.602  14.575  0.8302 -0.0324  0.5573
 6467SOL     OW30862   4.463   3.994   5.242  0.1748  0.2420  0.0973
 6467SOL    HW130863   4.398   3.962   5.305 -0.8691 -0.7436 -1.4804
 6467SOL    HW230864   4.459   4.083   5.276 -4.1167 -0.1776  0.6381
 6468SOL     OW30865   1.323   1.918   7.624  0.3520 -0.0841 -0.1865
 6468SOL    HW130866   1.392   1.910   7.558  0.0111  0.9530 -0.6602
 6468SOL    HW230867   1.344   1.837   7.671 -1.5363 -0.4219  0.0972
 6469SOL     OW30868   3.569   1.602   7.887  0.1437 -0.4826 -0.3723
 6469SOL    HW130869   3.601   1.675   7.834 -0.1647 -0.2104 -0.1855
 6469SOL    HW230870   3.505   1.644   7.944 -0.3757 -0.6501 -0.8369
 6470SOL     OW30871   1.703   0.837  15.055  0.1240 -0.4125  0.0547
 6470SOL    HW130872   1.696   0.766  14.991  1.8015  1.5524 -2.2985
 6470SOL    HW230873   1.760   0.890  14.999  0.7677 -0.5845  0.5507
 6471SOL     OW30874   2.373   2.397   8.994  0.2564 -0.5911 -0.2234
 6471SOL    HW130875   2.346   2.427   8.907  1.1285 -1.7242 -0.8952
 6471SOL    HW230876   2.368   2.302   8.981  1.6848 -0.5669 -0.9351
 6472SOL     OW30877   3.826   4.030  11.108 -0.1158  0.5305  0.0850
 6472SOL    HW130878   3.886   3.970  11.152 -1.5178 -1.2692 -0.4680
 6472SOL    HW230879   3.890   4.069  11.049  0.1382 -1.0804 -0.6893
 6473SOL     OW30880   1.472   2.621   7.764 -0.1209  0.1017 -0.4318
 6473SOL    HW130881   1.488   2.641   7.857  1.4217  3.7311 -1.4616
 6473SOL    HW230882   1.511   2.700   7.727  0.0636  1.3247  2.3165
 6474SOL     OW30883   3.558   3.588   6.857 -0.2318 -0.3341  0.4773
 6474SOL    HW130884   3.483   3.644   6.838 -0.4024 -0.6664  0.1875
 6474SOL    HW230885   3.557   3.514   6.797  1.8870 -0.9016  1.1480
 6475SOL     OW30886   4.347   4.667   6.600 -0.0698  0.0440 -0.0877
 6475SOL    HW130887   4.414   4.629   6.544  1.8647  1.7178  1.0878
 6475SOL    HW230888   4.317   4.598   6.660 -0.1257  0.0908 -0.0619
 6476SOL     OW30889   1.369   0.072   4.410  0.6476  0.0653 -0.0209
 6476SOL    HW130890   1.432   0.001   4.423  0.3850  0.1044  1.3768
 6476SOL    HW230891   1.358   0.071   4.314  2.2017 -1.7147 -0.1773
 6477SOL     OW30892   1.909   0.097   9.729  0.3527  0.0549 -0.3263
 6477SOL    HW130893   1.912   0.181   9.684  0.2735 -0.5824 -1.5242
 6477SOL    HW230894   1.881   0.031   9.666 -1.1847  0.4810 -0.0787
 6478SOL     OW30895   4.236   3.214   0.991 -0.4126  0.2025 -0.5630
 6478SOL    HW130896   4.187   3.138   1.020  0.5845 -0.3158 -0.2367
 6478SOL    HW230897   4.240   3.213   0.895  0.8228 -0.6792 -0.5064
 6479SOL     OW30898   1.061   4.400   6.585  0.3092  1.1214  0.4395
 6479SOL    HW130899   1.090   4.318   6.544  0.6941  1.2332  0.4898
 6479SOL    HW230900   1.132   4.456   6.555  0.2719  1.1360  0.3787
 6480SOL     OW30901   1.757   2.752  13.334 -0.3174  0.3041 -0.0447
 6480SOL    HW130902   1.692   2.781  13.399 -1.6133 -1.9209 -0.3343
 6480SOL    HW230903   1.835   2.802  13.357 -1.2475  2.4128 -1.4279
 6481SOL     OW30904   3.914   2.753   2.316  0.4139  0.0807  0.2694
 6481SOL    HW130905   3.857   2.776   2.389 -0.3314  1.2500 -0.6858
 6481SOL    HW230906   3.852   2.735   2.245 -1.5790 -1.0531  2.2724
 6482SOL     OW30907   3.451   4.542   8.035  0.0267 -0.3646 -0.6498
 6482SOL    HW130908   3.414   4.490   8.107 -0.6940  0.1818 -0.6282
 6482SOL    HW230909   3.494   4.619   8.071  2.4448 -2.4705  0.9612
 6483SOL     OW30910   3.378   4.419   8.264 -0.5162 -0.1949 -0.3036
 6483SOL    HW130911   3.346   4.332   8.286 -0.2860 -0.3748 -0.6909
 6483SOL    HW230912   3.327   4.475   8.323  1.5073 -0.4857  1.7130
 6484SOL     OW30913   1.191   4.332   5.109  0.0223 -0.4162  0.2760
 6484SOL    HW130914   1.123   4.310   5.046  0.0526 -0.0181  0.1025
 6484SOL    HW230915   1.220   4.420   5.083 -2.8728  0.4355 -0.0027
 6485SOL     OW30916   2.393   2.182  15.450  0.7170  0.1161  0.3254
 6485SOL    HW130917   2.484   2.211  15.446 -0.2229  3.1245  0.6922
 6485SOL    HW230918   2.413   2.107  15.506 -2.2250 -1.1771 -0.3773
 6486SOL     OW30919   1.139   0.574   6.376 -0.2103  0.0306  0.0296
 6486SOL    HW130920   1.082   0.570   6.453  1.2914  2.4332  1.2601
 6486SOL    HW230921   1.097   0.502   6.329 -1.4635  0.3541  0.6371
 6487SOL     OW30922   1.078   0.066   6.576  0.2788  0.3004  0.3576
 6487SOL    HW130923   1.009   0.072   6.509 -1.9872 -0.3658  2.6173
 6487SOL    HW230924   1.024   0.087   6.652 -1.2553 -1.6041 -0.2026
 6488SOL     OW30925   0.847   2.462  12.634  0.4056  0.4656 -0.1442
 6488SOL    HW130926   0.833   2.403  12.560 -0.9133  1.1918 -0.4871
 6488SOL    HW230927   0.854   2.541  12.581 -0.1536  2.0086  2.1011
 6489SOL     OW30928   0.100   0.765  12.954  0.0965 -0.4620 -0.6408
 6489SOL    HW130929   0.106   0.816  13.034 -2.3426 -2.4128  0.7540
 6489SOL    HW230930   0.008   0.774  12.929  0.0804 -0.2164 -0.4900
 6490SOL     OW30931   2.648   2.599  14.448  0.0634 -0.4108  0.0565
 6490SOL    HW130932   2.592   2.593  14.526 -1.6507  0.3225 -1.1088
 6490SOL    HW230933   2.717   2.663  14.465  0.1920 -0.2874 -0.9143
 6491SOL     OW30934   0.617   2.879   7.968 -0.0129  0.2007 -0.6460
 6491SOL    HW130935   0.574   2.793   7.968  0.5904 -0.0898  1.0293
 6491SOL    HW230936   0.625   2.889   8.062  2.0013 -1.4288 -0.6261
 6492SOL     OW30937   3.121   1.062   2.707  0.1034  0.2839 -0.2017
 6492SOL    HW130938   3.166   1.086   2.626  1.9137 -1.8565  0.1534
 6492SOL    HW230939   3.137   0.968   2.710 -0.8436  0.0867 -1.3724
 6493SOL     OW30940   3.737   4.032   3.688  0.5188 -0.4434  0.3997
 6493SOL    HW130941   3.807   3.981   3.648 -0.1125 -2.0946  1.4023
 6493SOL    HW230942   3.671   4.031   3.618 -0.1863  0.6779  1.0308
 6494SOL     OW30943   4.479   0.688   5.233 -0.3321 -0.0112  0.0216
 6494SOL    HW130944   4.524   0.681   5.317 -0.0018  0.3092 -0.1275
 6494SOL    HW230945   4.392   0.707   5.267  0.4379  0.9206  1.4731
 6495SOL     OW30946   4.375   2.806  15.640  0.1042 -0.5185  0.5461
 6495SOL    HW130947   4.423   2.826  15.559 -0.1570  1.5526  0.9112
 6495SOL    HW230948   4.451   2.808  15.698 -0.3167 -2.5871  1.1757
 6496SOL     OW30949   4.005   2.637   9.081 -0.5438  0.8822 -0.1924
 6496SOL    HW130950   4.036   2.706   9.023 -1.3732  0.8121 -0.7187
 6496SOL    HW230951   3.956   2.583   9.018 -2.1776  0.3225  1.5512
 6497SOL     OW30952   2.202   1.203   2.425 -0.2044 -0.2725 -0.3315
 6497SOL    HW130953   2.199   1.299   2.426 -2.8315 -0.3633  2.2344
 6497SOL    HW230954   2.121   1.187   2.474  1.7557  1.0096  3.3112
 6498SOL     OW30955   4.678   0.831  12.273  0.5624 -0.5338 -0.1520
 6498SOL    HW130956   4.584   0.833  12.291  0.5881  0.3707 -0.1515
 6498SOL    HW230957   4.710   0.918  12.297  0.3877  0.1766 -2.4766
 6499SOL     OW30958   4.016   2.400   3.307  0.1432  0.7287 -0.4206
 6499SOL    HW130959   4.095   2.420   3.357  0.7169  0.6041 -1.2840
 6499SOL    HW230960   3.948   2.450   3.351 -0.2496  1.5734 -1.9863
 6500SOL     OW30961   4.090   2.656   0.122  0.0065  0.2637  0.1423
 6500SOL    HW130962   4.006   2.619   0.098  0.7247 -1.0455 -0.3273
 6500SOL    HW230963   4.059   2.742   0.151 -0.2814  0.6650 -1.3834
 6501SOL     OW30964   4.280   1.083   4.142  0.7125 -0.2970 -0.4184
 6501SOL    HW130965   4.280   0.987   4.147 -1.0375 -0.3030 -0.3186
 6501SOL    HW230966   4.344   1.092   4.212 -1.5183  0.7394  1.4758
 6502SOL     OW30967   4.010   0.054  17.049  0.2366 -0.2866 -0.0786
 6502SOL    HW130968   3.976   4.691  17.075  0.3724 -0.5919 -0.9145
 6502SOL    HW230969   3.993   0.100  17.132  1.9828 -0.6822  0.5038
 6503SOL     OW30970   2.873   2.075   3.016  0.1909 -0.3743  0.0874
 6503SOL    HW130971   2.874   2.156   3.066  0.6766 -0.5459  0.3565
 6503SOL    HW230972   2.960   2.094   2.980 -0.1606  1.9199  0.4560
 6504SOL     OW30973   0.565   3.853   8.368  0.1712 -0.8043  0.1450
 6504SOL    HW130974   0.616   3.775   8.388 -0.4003 -2.1516 -3.7203
 6504SOL    HW230975   0.557   3.883   8.459 -2.2820 -0.1465 -0.2639
 6505SOL     OW30976   4.517   1.842  11.697  0.0202 -0.4829 -0.0017
 6505SOL    HW130977   4.562   1.759  11.715  0.9749  0.1125  0.3734
 6505SOL    HW230978   4.431   1.812  11.668 -0.3716 -0.7352  1.4359
 6506SOL     OW30979   2.144   4.335   5.740 -0.1783 -0.2429  0.1791
 6506SOL    HW130980   2.089   4.275   5.791  0.4051  0.3342  1.4802
 6506SOL    HW230981   2.201   4.281   5.685  0.2950 -1.5592  1.9654
 6507SOL     OW30982   0.946   2.914   1.225 -0.4131  0.7735  0.2859
 6507SOL    HW130983   0.978   2.985   1.280 -1.4753  1.9206 -0.5917
 6507SOL    HW230984   0.914   2.956   1.145 -2.2576  0.8225  1.0666
 6508SOL     OW30985   0.295   4.319  13.252 -0.2489 -0.1123 -0.0892
 6508SOL    HW130986   0.202   4.307  13.270 -1.0124  2.2241 -2.4376
 6508SOL    HW230987   0.340   4.281  13.328  0.3608  0.5704 -0.1054
 6509SOL     OW30988   4.259   2.280   4.104  0.0202 -0.1886 -0.2010
 6509SOL    HW130989   4.230   2.190   4.097 -1.5401  0.2966 -0.0960
 6509SOL    HW230990   4.278   2.290   4.197 -0.6825  2.0478 -0.2828
 6510SOL     OW30991   2.527   4.178   1.385  0.0957 -0.1694  0.0749
 6510SOL    HW130992   2.491   4.147   1.468 -0.3208 -1.8285 -0.7245
 6510SOL    HW230993   2.601   4.118   1.373 -0.9487 -1.1137 -1.6646
 6511SOL     OW30994   0.735   1.300  14.872  0.0979 -0.0960  0.2248
 6511SOL    HW130995   0.744   1.384  14.826 -0.8033  0.0076  0.2461
 6511SOL    HW230996   0.762   1.234  14.808  0.4586  2.4204 -2.2663
 6512SOL     OW30997   3.211   1.386   2.378 -0.5331 -0.2891  0.0923
 6512SOL    HW130998   3.272   1.428   2.318 -1.0644  0.1714 -0.1350
 6512SOL    HW230999   3.228   1.430   2.461  1.6744  0.7154 -0.9034
 6513SOL     OW31000   3.039   3.477  12.226  0.2145  0.0473 -0.0717
 6513SOL    HW131001   3.019   3.390  12.263  0.3039 -0.3110 -0.8753
 6513SOL    HW231002   3.038   3.468  12.131 -0.4737 -0.3657 -0.0262
 6514SOL     OW31003   4.644   1.815   2.433 -0.2265 -0.2093 -0.1781
 6514SOL    HW131004   4.646   1.807   2.528 -0.3103  0.5662 -0.1093
 6514SOL    HW231005   4.665   1.908   2.436 -0.4793 -0.1901  0.7988
 6515SOL     OW31006   3.080   3.016   8.875  0.3208  0.2569 -0.0620
 6515SOL    HW131007   3.144   3.086   8.870 -1.2483  1.7364  0.7244
 6515SOL    HW231008   3.137   2.944   8.902 -0.2330 -0.5423 -1.0076
 6516SOL     OW31009   1.697   4.172   2.190 -0.2599  0.5801  0.2304
 6516SOL    HW131010   1.763   4.144   2.253 -0.5542 -1.3267 -0.3112
 6516SOL    HW231011   1.672   4.083   2.165 -0.7052  0.1323  2.2394
 6517SOL     OW31012   3.245   1.294   8.287 -0.1824  0.6577 -0.1988
 6517SOL    HW131013   3.197   1.330   8.212  1.5950 -0.3887 -1.8450
 6517SOL    HW231014   3.319   1.354   8.285  1.3379 -1.1929  0.1247
 6518SOL     OW31015   3.184   4.600   6.018  0.0233  0.2909 -0.0923
 6518SOL    HW131016   3.257   4.579   6.076 -1.1487 -0.3841  1.1318
 6518SOL    HW231017   3.126   4.523   6.016 -3.1568  2.6993 -0.2373
 6519SOL     OW31018   3.011   4.018  17.290 -0.4064 -0.4552  0.2692
 6519SOL    HW131019   3.036   3.951  17.353 -2.0804 -0.9569  0.4167
 6519SOL    HW231020   3.096   4.014  17.248  0.4820 -0.0177  2.0154
 6520SOL     OW31021   2.157   0.109   3.017  0.3525  0.1714  0.1747
 6520SOL    HW131022   2.175   0.202   3.026 -2.9678  0.8962 -0.6306
 6520SOL    HW231023   2.124   0.118   2.928 -1.5106  1.9537  1.0650
 6521SOL     OW31024   1.035   2.560   5.625 -0.0237  0.2737 -0.2674
 6521SOL    HW131025   0.942   2.567   5.602 -0.6318  0.8581  2.3722
 6521SOL    HW231026   1.073   2.526   5.545  3.3481 -0.1644  1.5490
 6522SOL     OW31027   0.876   3.425   3.219  0.2058 -0.9174 -0.1467
 6522SOL    HW131028   0.929   3.482   3.164 -0.5064  0.0674  0.2012
 6522SOL    HW231029   0.938   3.411   3.290  1.0068 -0.5607 -0.7716
 6523SOL     OW31030   2.004   4.623  16.115  0.3310  0.1846  0.1877
 6523SOL    HW131031   2.039   4.586  16.034 -0.1449  0.1286  0.0086
 6523SOL    HW231032   2.079   4.659  16.162  1.6318  0.9279 -2.5077
 6524SOL     OW31033   4.485   1.314   7.282  0.2626  0.6532 -0.5726
 6524SOL    HW131034   4.400   1.347   7.253 -0.8964 -1.6151  0.2149
 6524SOL    HW231035   4.530   1.396   7.303 -0.3104  1.3797 -2.1426
 6525SOL     OW31036   2.532   2.794  16.114  0.4209  0.1515  0.0103
 6525SOL    HW131037   2.452   2.750  16.085  1.5286 -0.9546 -1.3655
 6525SOL    HW231038   2.564   2.718  16.164  0.1161 -0.4805 -0.7551
 6526SOL     OW31039   4.668   1.899   9.914  0.0811 -0.5774 -0.3314
 6526SOL    HW131040   4.667   1.850   9.996  0.2000 -1.4227 -0.8331
 6526SOL    HW231041   4.710   1.825   9.871  0.2290 -1.1702  0.8239
 6527SOL     OW31042   1.255   3.246  12.900  0.4439 -0.6656  0.0661
 6527SOL    HW131043   1.298   3.166  12.868  0.6233 -0.0190 -1.3030
 6527SOL    HW231044   1.331   3.292  12.936 -0.1050 -0.1161  0.5260
 6528SOL     OW31045   4.249   3.450   7.565 -0.0900 -0.6177  0.2755
 6528SOL    HW131046   4.246   3.497   7.649 -0.1128  1.6964 -1.0268
 6528SOL    HW231047   4.341   3.459   7.541 -0.0188  1.6326  1.4270
 6529SOL     OW31048   2.059   2.394  15.849 -0.1742 -0.3615  0.2936
 6529SOL    HW131049   2.008   2.351  15.781  0.1346  1.7732 -1.2895
 6529SOL    HW231050   1.998   2.464  15.874  1.6713  0.3714  2.8455
 6530SOL     OW31051   4.038   1.177   3.120 -0.0421  0.5355  0.9191
 6530SOL    HW131052   4.102   1.173   3.191  0.6352  0.4110  0.2995
 6530SOL    HW231053   3.963   1.201   3.175 -1.3410 -1.6395  0.1098
 6531SOL     OW31054   0.409   1.239   8.190  0.3403 -0.2603  0.6188
 6531SOL    HW131055   0.386   1.294   8.115  2.4665 -0.9668 -0.5556
 6531SOL    HW231056   0.491   1.285   8.208 -1.1683  2.4305  0.7491
 6532SOL     OW31057   0.159   3.601  10.324  0.2698 -0.0467  0.4612
 6532SOL    HW131058   0.070   3.579  10.297  0.1549  0.2996  0.5503
 6532SOL    HW231059   0.126   3.656  10.395 -1.4966 -0.4028 -0.0812
 6533SOL     OW31060   1.918   3.355   9.170  0.2522 -0.0512 -0.4233
 6533SOL    HW131061   1.908   3.418   9.242 -1.1417 -0.1309 -0.5515
 6533SOL    HW231062   1.940   3.275   9.220 -0.5064 -1.8816 -3.0554
 6534SOL     OW31063   1.240   1.358   3.142 -0.3021 -0.4778 -0.0427
 6534SOL    HW131064   1.256   1.402   3.225  0.1834 -1.4759  0.3978
 6534SOL    HW231065   1.173   1.293   3.162 -0.3585 -0.6714 -0.8715
 6535SOL     OW31066   1.818   4.143   5.792 -0.5143  0.4197 -0.1797
 6535SOL    HW131067   1.738   4.117   5.747  0.0913 -0.3761 -0.7853
 6535SOL    HW231068   1.844   4.186   5.711  0.5712 -1.0180 -0.5904
 6536SOL     OW31069   0.336   4.573   8.137 -0.4544 -0.0353 -0.6670
 6536SOL    HW131070   0.375   4.486   8.128 -0.1966  0.0364 -0.2616
 6536SOL    HW231071   0.284   4.554   8.215  0.9754 -0.4721  0.2023
 6537SOL     OW31072   0.674   1.138   4.551  0.5194 -0.0247  0.2624
 6537SOL    HW131073   0.715   1.051   4.554  0.1351 -0.2265 -0.3956
 6537SOL    HW231074   0.749   1.187   4.586  0.0046 -0.6384  2.2230
 6538SOL     OW31075   3.279   3.531   6.914  0.4997  0.4453 -0.5979
 6538SOL    HW131076   3.186   3.508   6.927  0.4086  1.6689  0.8463
 6538SOL    HW231077   3.299   3.474   6.839 -0.1863  0.5817 -0.8929
 6539SOL     OW31078   0.531   0.639   4.378  0.3841  0.3946 -0.6274
 6539SOL    HW131079   0.521   0.545   4.360  1.9698 -0.1294  1.1276
 6539SOL    HW231080   0.488   0.652   4.462  0.1743 -1.1978 -0.4961
 6540SOL     OW31081   4.149   2.457   2.631  0.1697 -0.1783  0.3059
 6540SOL    HW131082   4.086   2.461   2.559 -1.3455  0.6316  1.7007
 6540SOL    HW231083   4.217   2.406   2.587 -1.3352 -1.5285 -0.4847
 6541SOL     OW31084   3.934   2.403  16.083 -0.1292 -0.5909  0.3197
 6541SOL    HW131085   3.929   2.313  16.115  1.8456 -0.8145  0.0112
 6541SOL    HW231086   3.979   2.396  15.999 -2.6910  0.2528 -1.1375
 6542SOL     OW31087   2.103   2.133   8.968  0.9508  0.0337  0.0314
 6542SOL    HW131088   2.166   2.077   9.013  0.4441 -1.7512 -1.4747
 6542SOL    HW231089   2.066   2.079   8.898  0.3985  0.8135 -0.2822
 6543SOL     OW31090   4.082   3.671   0.431  0.4938  0.2904 -0.7042
 6543SOL    HW131091   4.055   3.583   0.407  1.7428 -0.3896  0.3426
 6543SOL    HW231092   4.159   3.650   0.485  0.8951 -0.2844 -1.5110
 6544SOL     OW31093   1.919   1.021  10.759 -0.9414  0.4304  0.1606
 6544SOL    HW131094   1.963   0.951  10.711 -0.3087  0.6040  0.4840
 6544SOL    HW231095   1.827   1.012  10.733 -0.1899 -0.9592 -1.9992
 6545SOL     OW31096   0.383   3.144   4.856 -0.5408 -0.6153 -0.0651
 6545SOL    HW131097   0.325   3.200   4.908  1.3983  1.7478 -0.4200
 6545SOL    HW231098   0.467   3.165   4.897  0.8784 -3.6868 -1.4588
 6546SOL     OW31099   2.692   1.009   0.701  0.3706  0.0067 -0.4561
 6546SOL    HW131100   2.635   0.964   0.638 -0.6150 -0.6813  0.9365
 6546SOL    HW231101   2.682   0.952   0.777  0.5125 -0.3964 -0.7377
 6547SOL     OW31102   3.286   3.301   1.352  0.5280  0.0936  0.6805
 6547SOL    HW131103   3.316   3.330   1.438 -0.3768  0.7802  0.7720
 6547SOL    HW231104   3.329   3.365   1.295 -1.1432 -1.1066 -1.9177
 6548SOL     OW31105   3.041   4.238  10.829 -0.0334  0.2493 -0.3299
 6548SOL    HW131106   2.949   4.255  10.810  0.2628 -0.6147 -2.6135
 6548SOL    HW231107   3.070   4.326  10.852  1.4086 -0.6226  1.2040
 6549SOL     OW31108   0.023   4.250   5.833 -0.2929  0.2540 -0.4617
 6549SOL    HW131109   0.113   4.282   5.841 -0.5237  1.5842 -3.1944
 6549SOL    HW231110   0.027   4.181   5.767  3.1787  0.7736 -0.7717
 6550SOL     OW31111   2.474   2.588   7.254  0.3850 -0.0424 -0.4360
 6550SOL    HW131112   2.432   2.504   7.237 -3.9207  1.7177  1.3490
 6550SOL    HW231113   2.544   2.564   7.314  0.0425 -0.5757 -0.2529
 6551SOL     OW31114   3.905   3.474   6.414  0.0907 -0.3939  0.1267
 6551SOL    HW131115   3.971   3.404   6.417  0.6096  0.1252  0.8726
 6551SOL    HW231116   3.906   3.497   6.321 -0.3317  0.7284  0.3987
 6552SOL     OW31117   3.044   2.713   7.298 -0.4599 -0.4066 -0.1676
 6552SOL    HW131118   3.120   2.754   7.257 -0.4290  0.6280  0.9426
 6552SOL    HW231119   2.965   2.753   7.262  0.6623 -0.7998 -3.0805
 6553SOL     OW31120   4.632   0.524  11.650 -0.1746  0.1735 -0.0171
 6553SOL    HW131121   4.560   0.477  11.691  0.7725 -0.9224  0.3888
 6553SOL    HW231122   4.589   0.590  11.595 -0.4717 -1.4984 -1.7937
 6554SOL     OW31123   2.992   0.356  14.855 -0.4126  0.0478  0.2776
 6554SOL    HW131124   3.039   0.347  14.938  1.9333  0.4596 -0.9930
 6554SOL    HW231125   2.914   0.402  14.885  0.9952  1.0333  2.4601
 6555SOL     OW31126   4.283   2.527   3.392  0.0144  0.0678  0.2757
 6555SOL    HW131127   4.302   2.554   3.303 -0.0484 -1.2063 -0.1323
 6555SOL    HW231128   4.293   2.433   3.378  0.6882  0.4761 -1.8456
 6556SOL     OW31129   3.325   3.496   6.464 -0.3653 -0.1745 -0.2348
 6556SOL    HW131130   3.327   3.433   6.536 -1.0287  0.6086  0.4705
 6556SOL    HW231131   3.244   3.482   6.416  0.1450  0.9029 -1.4039
 6557SOL     OW31132   2.835   3.488   7.944 -0.2905  0.0950  0.3657
 6557SOL    HW131133   2.845   3.556   7.878  0.5436 -0.3690  0.0254
 6557SOL    HW231134   2.903   3.425   7.922 -1.9135 -1.0443 -1.4093
 6558SOL     OW31135   1.531   3.543   8.889 -0.2198 -0.0526 -0.9530
 6558SOL    HW131136   1.496   3.462   8.852  0.5322  1.3163 -4.6124
 6558SOL    HW231137   1.552   3.523   8.980  1.0782  0.1158 -1.2206
 6559SOL     OW31138   3.400   3.514   4.421 -0.0287  0.1711  0.0490
 6559SOL    HW131139   3.337   3.442   4.428  0.1343  0.2013  1.6383
 6559SOL    HW231140   3.426   3.502   4.329  0.7984  1.0090  0.1835
 6560SOL     OW31141   2.608   3.935   7.290  0.3766  0.2756  0.0923
 6560SOL    HW131142   2.654   3.923   7.373 -0.5251 -0.0505  0.5457
 6560SOL    HW231143   2.523   3.892   7.298 -0.1160  0.8719 -1.8435
 6561SOL     OW31144   2.829   4.303   5.607  0.0769 -0.4407  0.2543
 6561SOL    HW131145   2.863   4.334   5.691  0.8347  0.0987 -0.2587
 6561SOL    HW231146   2.738   4.331   5.623 -0.4588 -1.4625 -1.0192
 6562SOL     OW31147   0.700   3.196  14.795 -0.5699  0.2717 -0.2828
 6562SOL    HW131148   0.780   3.179  14.746 -1.7370 -0.5608 -1.8828
 6562SOL    HW231149   0.705   3.146  14.877 -1.1234  3.0077  1.4146
 6563SOL     OW31150   1.795   4.352   2.441  0.0501 -0.6146 -0.0176
 6563SOL    HW131151   1.708   4.368   2.477 -0.6739 -1.5297 -1.3784
 6563SOL    HW231152   1.833   4.433   2.474 -0.7850 -0.3367  0.2685
 6564SOL     OW31153   2.854   2.346   3.941 -0.3024  0.6853  0.1891
 6564SOL    HW131154   2.896   2.370   4.024 -1.6751  0.5328  0.9212
 6564SOL    HW231155   2.826   2.431   3.907  0.1498 -0.1328 -2.2449
 6565SOL     OW31156   2.668   2.633   8.825 -0.4610 -0.3073  0.0679
 6565SOL    HW131157   2.734   2.638   8.756  1.7377 -0.9609  2.0746
 6565SOL    HW231158   2.706   2.703   8.879 -1.7585 -0.2828  0.9605
 6566SOL     OW31159   1.926   0.309  11.483 -0.4139  0.5822  0.8475
 6566SOL    HW131160   1.929   0.314  11.578  1.6714 -0.0630  0.8253
 6566SOL    HW231161   1.931   0.398  11.448  2.4199 -0.6653 -1.9359
 6567SOL     OW31162   3.754   3.378   7.931  0.1303  0.4666 -0.1874
 6567SOL    HW131163   3.761   3.411   8.021  0.7100 -0.4457  0.1078
 6567SOL    HW231164   3.818   3.308   7.924  0.1872  0.3954  1.0309
 6568SOL     OW31165   1.754   1.566   3.211 -0.4216  0.1161  0.0681
 6568SOL    HW131166   1.738   1.477   3.180  0.3468 -0.5922  1.7183
 6568SOL    HW231167   1.662   1.595   3.217  0.2242  2.6325 -1.9274
 6569SOL     OW31168   1.841   3.214   2.647  0.0079 -0.4229  0.1960
 6569SOL    HW131169   1.934   3.236   2.658  0.1354 -0.7920 -0.1184
 6569SOL    HW231170   1.822   3.185   2.736  0.5808  1.8905  1.0433
 6570SOL     OW31171   0.532   1.936   6.049 -0.1733 -0.2452  0.2699
 6570SOL    HW131172   0.600   1.965   5.988  0.0074  0.6661  0.9084
 6570SOL    HW231173   0.549   1.992   6.124  0.7721  1.4942 -1.2531
 6571SOL     OW31174   2.920   0.872   5.265  0.3583  0.5082  0.8395
 6571SOL    HW131175   2.923   0.859   5.170  1.0492  1.1191  0.7764
 6571SOL    HW231176   3.011   0.847   5.282  0.4826  1.2560  1.3174
 6572SOL     OW31177   1.066   0.241   3.529 -0.0222 -0.2061 -0.3583
 6572SOL    HW131178   1.139   0.220   3.470 -0.6865  1.5692 -1.8202
 6572SOL    HW231179   1.008   0.302   3.483 -0.2974  0.4016  0.8110
 6573SOL     OW31180   2.630   2.770   2.094 -0.0666 -0.0268  0.3536
 6573SOL    HW131181   2.568   2.717   2.044  1.5025  0.0929 -1.7165
 6573SOL    HW231182   2.706   2.753   2.038  0.3977  3.0028  0.0754
 6574SOL     OW31183   4.647   4.490  15.455 -0.2310 -0.5938  0.0347
 6574SOL    HW131184   4.694   4.461  15.533  2.8083  1.4366 -1.0492
 6574SOL    HW231185   4.655   4.584  15.471  0.1602 -0.5780 -0.2372
 6575SOL     OW31186   4.225   3.778   4.645 -0.2729 -0.3621  0.0344
 6575SOL    HW131187   4.256   3.718   4.576  0.0585  0.0169 -0.1463
 6575SOL    HW231188   4.308   3.816   4.674 -0.9974  0.8557  0.4795
 6576SOL     OW31189   3.815   1.923   0.215 -0.7124  0.0866 -0.5099
 6576SOL    HW131190   3.750   1.943   0.148 -0.4997 -3.0176 -1.6207
 6576SOL    HW231191   3.775   1.854   0.269  0.8579  1.7330  2.7745
 6577SOL     OW31192   4.416   1.090  13.400 -0.0355 -0.0433 -0.0247
 6577SOL    HW131193   4.379   1.119  13.316  0.9404  1.7730  0.1696
 6577SOL    HW231194   4.381   1.001  13.411 -0.6305  0.4408  1.9180
 6578SOL     OW31195   2.868   1.874  15.512  0.1020  0.0386  0.1251
 6578SOL    HW131196   2.873   1.970  15.514  0.2647  0.0307  0.0801
 6578SOL    HW231197   2.798   1.860  15.448 -0.1274 -1.8007  0.8007
 6579SOL     OW31198   0.051   2.208   1.099  0.4148  0.1414  0.2798
 6579SOL    HW131199   0.033   2.127   1.146  2.4433 -0.3301  0.2522
 6579SOL    HW231200   0.051   2.268   1.174  0.4100  0.8042 -0.2523
 6580SOL     OW31201   0.046   4.469   8.034  0.0024  0.4898  0.2353
 6580SOL    HW131202   0.126   4.521   8.040  0.5415 -0.5860  2.3830
 6580SOL    HW231203   4.703   4.530   8.068 -1.2861 -0.4104 -0.6063
 6581SOL     OW31204   0.030   4.598   7.726  0.3578  0.3477 -0.3404
 6581SOL    HW131205   0.085   4.676   7.732  2.1898 -0.9058 -0.9517
 6581SOL    HW231206   0.101   4.538   7.746 -1.1764 -0.6754  1.9778
 6582SOL     OW31207   4.666   0.216  16.160  0.4178  0.2660  0.6253
 6582SOL    HW131208   4.655   0.207  16.065 -0.1683 -1.3470  0.8480
 6582SOL    HW231209   4.622   0.298  16.182  0.3311 -0.2027  2.2475
 6583SOL     OW31210   4.583   4.158   1.387  0.1227  0.0023 -0.0993
 6583SOL    HW131211   4.530   4.193   1.458 -2.7830 -2.5642 -0.9612
 6583SOL    HW231212   4.613   4.236   1.340  1.2533  0.7690  1.9090
 6584SOL     OW31213   3.450   1.748   2.159 -0.0821 -0.0120  0.0787
 6584SOL    HW131214   3.381   1.797   2.201 -0.3297 -0.4714  0.2068
 6584SOL    HW231215   3.530   1.794   2.186  0.8161 -0.6444 -1.4828
 6585SOL     OW31216   1.471   0.975   1.723 -0.3222 -0.1979 -0.1358
 6585SOL    HW131217   1.427   0.938   1.799 -0.3499 -2.6911 -1.3755
 6585SOL    HW231218   1.544   0.914   1.713 -0.2965 -0.1885 -0.0068
 6586SOL     OW31219   1.390   3.400   7.823 -0.1690  0.1007  0.1137
 6586SOL    HW131220   1.486   3.395   7.823 -0.1751 -0.0027  0.2799
 6586SOL    HW231221   1.362   3.326   7.769 -1.3382 -0.6606  1.7744
 6587SOL     OW31222   2.706   3.341   4.278 -0.6116 -0.4666  0.6674
 6587SOL    HW131223   2.772   3.294   4.226  0.6713  0.5991  1.3072
 6587SOL    HW231224   2.774   3.385   4.330 -2.0935  1.6899  0.8030
 6588SOL     OW31225   3.260   0.124   8.072  0.1662 -0.6872  0.4035
 6588SOL    HW131226   3.316   0.094   8.144  0.1756 -0.3451  0.5389
 6588SOL    HW231227   3.183   0.069   8.079 -0.4000 -0.3421 -3.2188
 6589SOL     OW31228   4.479   1.551   9.670  0.1579  0.5337  0.2479
 6589SOL    HW131229   4.533   1.600   9.733  0.6815 -0.7467  0.7962
 6589SOL    HW231230   4.437   1.492   9.732 -2.0040  1.1110 -0.6958
 6590SOL     OW31231   4.447   1.662   5.089 -0.4363  0.5263  0.0579
 6590SOL    HW131232   4.374   1.609   5.121  0.0113  1.7175  2.9960
 6590SOL    HW231233   4.475   1.596   5.024  1.6463  3.2372 -1.7877
 6591SOL     OW31234   3.112   4.303   1.784 -0.5377  0.1033 -0.0030
 6591SOL    HW131235   3.123   4.288   1.878  0.0824 -0.0938 -0.1068
 6591SOL    HW231236   3.031   4.354   1.789  0.7427  1.8278  3.8634
 6592SOL     OW31237   0.069   1.835   6.441 -0.2319  0.4186 -0.1439
 6592SOL    HW131238   0.157   1.850   6.406 -1.0457  4.4356 -0.4478
 6592SOL    HW231239   0.014   1.909   6.414 -0.8080  0.1920  0.4024
 6593SOL     OW31240   1.730   3.025   9.314  0.6563 -0.0618  0.1793
 6593SOL    HW131241   1.699   3.042   9.403  1.5842  0.0537  0.4779
 6593SOL    HW231242   1.655   3.061   9.268  0.5338  1.2591  1.4322
 6594SOL     OW31243   2.015   3.201   4.309  0.6443 -0.6050  0.2828
 6594SOL    HW131244   2.005   3.122   4.255 -0.6379 -0.2207 -0.0321
 6594SOL    HW231245   2.054   3.174   4.392 -1.8503  5.1578  3.3275
 6595SOL     OW31246   4.473   2.692   9.829  0.8947 -0.1857  0.5769
 6595SOL    HW131247   4.448   2.599   9.829  0.0305  0.0364  1.7081
 6595SOL    HW231248   4.391   2.739   9.843  2.3981  2.1929  1.2941
 6596SOL     OW31249   3.083   3.340  13.538  0.7586  0.3389  0.0335
 6596SOL    HW131250   3.055   3.324  13.628 -2.2530 -1.6298 -1.2434
 6596SOL    HW231251   3.039   3.265  13.497  1.0344  0.8122 -1.1364
 6597SOL     OW31252   0.784   4.064   7.577 -0.2207 -0.3854 -0.4308
 6597SOL    HW131253   0.689   4.071   7.576 -0.2973 -0.9232  2.6785
 6597SOL    HW231254   0.807   4.044   7.667 -2.4860 -1.9649 -0.2143
 6598SOL     OW31255   4.170   2.339  12.592 -0.3775 -0.4717  0.1098
 6598SOL    HW131256   4.168   2.281  12.668  0.4859  0.0520  0.5360
 6598SOL    HW231257   4.259   2.339  12.557  0.2963 -1.0847  1.8043
 6599SOL     OW31258   3.830   2.720  17.325  0.4128  0.0909 -0.0972
 6599SOL    HW131259   3.754   2.762  17.365  1.8389 -1.0668  3.8639
 6599SOL    HW231260   3.869   2.793  17.276  1.0813  0.0075  0.3211
 6600SOL     OW31261   1.025   2.545   7.881  0.2755 -0.5326 -0.6822
 6600SOL    HW131262   1.091   2.562   7.814  2.0806  0.5578  1.3974
 6600SOL    HW231263   1.064   2.475   7.933  0.7265 -0.3033 -0.7160
 6601SOL     OW31264   1.381   0.661  10.566  0.1243  0.3246 -0.2055
 6601SOL    HW131265   1.469   0.639  10.597  0.5746  1.0640 -0.9789
 6601SOL    HW231266   1.398   0.711  10.486  1.3886 -0.1394 -0.2300
 6602SOL     OW31267   3.840   4.538   6.529  0.3259 -0.1251 -0.2709
 6602SOL    HW131268   3.803   4.471   6.586  0.4814  1.5522  1.8117
 6602SOL    HW231269   3.932   4.512   6.522  1.1223  2.5654  0.2410
 6603SOL     OW31270   0.242   1.825   4.624  0.9569  0.3827 -0.2589
 6603SOL    HW131271   0.217   1.769   4.550  0.4921  0.0832  0.1232
 6603SOL    HW231272   0.286   1.762   4.681  0.4384  1.7262  1.5960
 6604SOL     OW31273   4.549   0.990   1.604 -0.1706 -0.4704  0.3075
 6604SOL    HW131274   4.552   1.032   1.690 -1.4639  0.9434 -0.3219
 6604SOL    HW231275   4.603   1.054   1.557 -1.4207 -0.4586 -1.1307
 6605SOL     OW31276   0.850   2.060   4.121 -0.6100  0.4824 -0.1578
 6605SOL    HW131277   0.773   2.043   4.174 -1.4176  0.4006 -1.3532
 6605SOL    HW231278   0.918   2.013   4.169 -0.2749  1.6394  0.4779
 6606SOL     OW31279   0.423   2.564   8.269  0.3733  0.4850 -0.0950
 6606SOL    HW131280   0.502   2.615   8.287 -0.5038  1.2613  1.5358
 6606SOL    HW231281   0.353   2.617   8.307 -0.3925 -0.7219  0.1498
 6607SOL     OW31282   3.493   3.549   8.959 -0.3132  0.6901 -0.3297
 6607SOL    HW131283   3.581   3.576   8.934 -1.0819  2.2758 -1.3610
 6607SOL    HW231284   3.504   3.561   9.053  0.8669 -1.9457 -0.1234
 6608SOL     OW31285   2.456   3.902   7.017  0.6567  0.1785 -0.1452
 6608SOL    HW131286   2.538   3.922   7.062  0.5002 -1.2006  0.7375
 6608SOL    HW231287   2.444   3.978   6.960  1.5331 -0.7793 -1.5911
 6609SOL     OW31288   1.171   1.699   8.593 -0.0706 -0.2654  0.3083
 6609SOL    HW131289   1.102   1.756   8.627  0.7668  0.0919  1.4338
 6609SOL    HW231290   1.225   1.756   8.539  2.0587 -0.8054  1.8626
 6610SOL     OW31291   1.823   2.831   0.336  0.4875  0.3022  0.0821
 6610SOL    HW131292   1.738   2.797   0.364  0.1556  1.3977  0.4188
 6610SOL    HW231293   1.876   2.800   0.409 -0.1948 -1.3929 -0.1430
 6611SOL     OW31294   0.280   1.275   2.704 -0.0474 -0.2749  0.8381
 6611SOL    HW131295   0.376   1.276   2.701 -0.0832 -0.6658 -0.6766
 6611SOL    HW231296   0.258   1.244   2.616 -2.8187 -1.1832  1.8618
 6612SOL     OW31297   4.037   2.992   6.878  0.1297  0.2147 -0.4397
 6612SOL    HW131298   3.978   3.067   6.873 -1.5860 -1.2208 -1.6935
 6612SOL    HW231299   3.993   2.915   6.913  0.7389 -0.0921 -0.3513
 6613SOL     OW31300   1.914   4.116   8.583 -1.2388 -0.3679  0.2170
 6613SOL    HW131301   1.929   4.166   8.663  0.8243 -1.6725  0.6580
 6613SOL    HW231302   1.820   4.097   8.583 -1.0842 -1.1495  0.9607
 6614SOL     OW31303   0.763   1.722  16.667 -0.1273  0.5605 -0.6018
 6614SOL    HW131304   0.797   1.713  16.578  0.0776 -2.5664 -0.2028
 6614SOL    HW231305   0.818   1.655  16.707  0.4527  1.5025  0.1917
 6615SOL     OW31306   4.357   4.442   0.488 -0.2102  0.9193  0.7340
 6615SOL    HW131307   4.265   4.447   0.463  0.8976  2.2518 -3.0547
 6615SOL    HW231308   4.387   4.524   0.449  0.6236 -0.7095 -1.9691
 6616SOL     OW31309   2.402   2.339  12.992  0.2385 -0.2240  0.4556
 6616SOL    HW131310   2.469   2.404  12.971 -0.5296  0.9658  1.6409
 6616SOL    HW231311   2.441   2.284  13.059 -0.8228 -3.6732 -1.7907
 6617SOL     OW31312   1.940   2.241  10.169  0.3636  0.3497  0.6954
 6617SOL    HW131313   2.022   2.259  10.122 -0.9274 -0.8973 -2.0606
 6617SOL    HW231314   1.891   2.192  10.103  0.4525 -1.0640  1.6805
 6618SOL     OW31315   2.274   0.228   4.022 -0.2532 -0.6315  0.7936
 6618SOL    HW131316   2.236   0.316   4.016 -0.6706 -1.0302 -2.4101
 6618SOL    HW231317   2.304   0.232   4.113 -1.5413  2.5261  1.0989
 6619SOL     OW31318   0.950   4.702  10.920  0.2886 -0.3741 -0.2080
 6619SOL    HW131319   1.035   4.707  10.875  0.9250  0.5282  1.0762
 6619SOL    HW231320   0.961   0.018  11.007 -0.2122  0.1853 -0.3945
 6620SOL     OW31321   2.891   4.385   1.419 -0.1950  0.9917  0.4487
 6620SOL    HW131322   2.854   4.451   1.361  1.5273  1.4151 -0.1778
 6620SOL    HW231323   2.985   4.402   1.408  0.2023 -1.0452  0.6182
 6621SOL     OW31324   3.341   1.059   2.964  0.0736  0.2000  0.0631
 6621SOL    HW131325   3.421   1.009   2.949 -1.8041 -2.3125 -1.4893
 6621SOL    HW231326   3.278   0.999   2.924  1.8928 -1.1637 -0.7588
 6622SOL     OW31327   4.461   4.652   5.822 -0.5595 -0.2260  0.2675
 6622SOL    HW131328   4.533   4.714   5.834  0.0059 -1.0699  1.2652
 6622SOL    HW231329   4.413   4.687   5.747 -1.5028 -0.5205  0.7281
 6623SOL     OW31330   4.300   2.228   7.196  0.0133  0.2237 -0.4841
 6623SOL    HW131331   4.307   2.319   7.168  1.1459  0.6363  1.1914
 6623SOL    HW231332   4.237   2.196   7.131 -0.3241  2.1310 -1.0865
 6624SOL     OW31333   4.519   2.386   0.463 -0.1912 -0.0037  0.3457
 6624SOL    HW131334   4.511   2.320   0.394 -0.8264  4.5857 -3.9038
 6624SOL    HW231335   4.576   2.358   0.535 -0.4076  0.7953  0.8238
 6625SOL     OW31336   4.106   2.389   3.037 -0.6375 -0.4853 -0.2419
 6625SOL    HW131337   4.077   2.402   3.127  1.7954  2.5051  0.1010
 6625SOL    HW231338   4.031   2.352   2.989  0.2012 -0.2003 -1.7865
 6626SOL     OW31339   1.861   3.505   1.568  0.0831 -0.7269  0.0448
 6626SOL    HW131340   1.778   3.465   1.595  0.6123 -1.6564  0.3174
 6626SOL    HW231341   1.840   3.514   1.476 -1.1806  0.1475  0.4255
 6627SOL     OW31342   3.050   3.198   4.710 -0.2684 -0.0947  0.8537
 6627SOL    HW131343   2.972   3.241   4.745  0.6942  1.6798  0.8324
 6627SOL    HW231344   3.034   3.114   4.752  1.9046  0.3461  2.5355
 6628SOL     OW31345   3.336   4.288   5.656 -0.3393  0.6589  0.2361
 6628SOL    HW131346   3.276   4.337   5.599  0.3842 -0.3990 -1.4479
 6628SOL    HW231347   3.371   4.232   5.587  0.8428 -0.4335  1.7097
 6629SOL     OW31348   0.205   1.427   5.966 -0.1486  0.0599  0.2270
 6629SOL    HW131349   0.243   1.408   6.052 -0.3291 -1.7083 -0.1039
 6629SOL    HW231350   0.141   1.357   5.959  1.5750 -1.4209 -0.5914
 6630SOL     OW31351   4.471   4.209   2.878  0.1267  0.3309 -0.2286
 6630SOL    HW131352   4.397   4.213   2.818  0.4899 -0.2497 -0.7122
 6630SOL    HW231353   4.508   4.296   2.867  1.2077 -0.1548 -0.4126
 6631SOL     OW31354   2.833   2.879   2.292 -0.0569  1.2180 -0.6715
 6631SOL    HW131355   2.926   2.865   2.273 -0.5935 -1.4453 -1.3712
 6631SOL    HW231356   2.806   2.838   2.209  2.2556 -0.6985 -0.4832
 6632SOL     OW31357   4.194   1.233  14.998  0.2418  0.1009 -0.0053
 6632SOL    HW131358   4.103   1.250  15.022  0.2196  0.1979 -0.1619
 6632SOL    HW231359   4.201   1.278  14.914 -1.9741 -1.0693 -0.8316
 6633SOL     OW31360   3.206   3.574   9.110  0.2583  0.0206 -0.2289
 6633SOL    HW131361   3.220   3.480   9.122 -2.3601 -0.4898 -1.0213
 6633SOL    HW231362   3.271   3.606   9.171  0.1102 -0.7919  0.3585
 6634SOL     OW31363   4.347   2.728   4.697 -0.3524  0.1428 -0.4463
 6634SOL    HW131364   4.280   2.755   4.759 -1.4060  0.1813 -1.6063
 6634SOL    HW231365   4.375   2.815   4.667 -1.5949  1.5083  2.3792
 6635SOL     OW31366   2.710   0.376   6.698  0.3155  0.4165  0.6017
 6635SOL    HW131367   2.701   0.285   6.726  0.8378  0.2791  0.3222
 6635SOL    HW231368   2.630   0.385   6.646  0.6728  1.2754  0.1892
 6636SOL     OW31369   1.383   0.660   8.182 -0.0783 -0.1307  0.1661
 6636SOL    HW131370   1.368   0.566   8.176  2.4209 -0.5658  0.4280
 6636SOL    HW231371   1.447   0.663   8.254 -2.6012 -1.8147  2.4675
 6637SOL     OW31372   2.532   0.781   7.299 -0.2876  0.4011 -0.0899
 6637SOL    HW131373   2.584   0.814   7.373 -1.8654  3.2275 -0.2207
 6637SOL    HW231374   2.566   0.839   7.232 -2.1837 -0.7783 -2.0784
 6638SOL     OW31375   4.353   0.510   2.179 -0.1526 -0.2424  0.4381
 6638SOL    HW131376   4.359   0.458   2.099  0.8706 -1.2717  1.1801
 6638SOL    HW231377   4.282   0.571   2.159  2.8739  2.9550 -0.5373
 6639SOL     OW31378   2.995   0.431   1.876 -0.2281 -0.2925 -0.0989
 6639SOL    HW131379   3.072   0.482   1.854 -0.3617  1.4950  3.6102
 6639SOL    HW231380   2.934   0.470   1.813 -0.8909 -0.0056  0.7180
 6640SOL     OW31381   0.398   4.347  13.555 -0.7286 -0.4201  0.2613
 6640SOL    HW131382   0.361   4.388  13.633 -1.8336 -1.6023  0.3757
 6640SOL    HW231383   0.488   4.379  13.554 -1.3791  1.4532  2.4919
 6641SOL     OW31384   3.035   2.787   0.074  0.5049 -0.0443 -0.5140
 6641SOL    HW131385   2.997   2.873   0.093  2.0611  0.7745 -1.1127
 6641SOL    HW231386   3.050   2.743   0.157 -0.5124 -0.6257 -0.6399
 6642SOL     OW31387   3.940   1.329   2.168  0.3979 -0.3111 -0.5466
 6642SOL    HW131388   4.027   1.291   2.157  0.9059  0.3775  1.1219
 6642SOL    HW231389   3.967   1.417   2.195 -1.0995  0.0827 -0.3617
 6643SOL     OW31390   2.397   1.712   6.413  0.4280 -0.3972  0.2322
 6643SOL    HW131391   2.356   1.647   6.355  1.3599  0.4533 -1.3988
 6643SOL    HW231392   2.487   1.718   6.381 -0.3623 -1.4885 -2.2015
 6644SOL     OW31393   0.108   3.197   6.181 -0.0880 -0.0956  0.0806
 6644SOL    HW131394   0.108   3.230   6.091  1.1096  1.0112  0.4913
 6644SOL    HW231395   0.102   3.283   6.222 -1.6567 -0.4064  0.5295
 6645SOL     OW31396   1.231   3.659  12.184  0.5538  0.1629  0.1822
 6645SOL    HW131397   1.197   3.654  12.094 -0.9889 -0.4005  0.7964
 6645SOL    HW231398   1.165   3.714  12.226 -1.1976  0.3059 -2.7480
 6646SOL     OW31399   2.672   1.672   4.500  0.3000  0.3416 -0.6797
 6646SOL    HW131400   2.613   1.620   4.555  0.5785  1.0559  0.2907
 6646SOL    HW231401   2.608   1.710   4.441  0.0935  1.2949  0.1470
 6647SOL     OW31402   1.416   4.689   8.984 -0.5151  0.0797  0.2720
 6647SOL    HW131403   1.321   4.684   8.972 -0.5986 -0.5102  1.2017
 6647SOL    HW231404   1.429   4.699   9.078 -4.3618 -3.0180  1.1142
 6648SOL     OW31405   3.295   3.320   0.994  0.1235 -0.2017  0.3923
 6648SOL    HW131406   3.342   3.391   0.951  0.6329  0.0152  1.2992
 6648SOL    HW231407   3.308   3.251   0.928 -2.5310  0.5215 -0.8663
 6649SOL     OW31408   4.506   0.195   5.168  0.2853  0.1855  0.5537
 6649SOL    HW131409   4.444   0.166   5.234  0.5199  1.1931  1.2027
 6649SOL    HW231410   4.500   0.123   5.104 -1.8065 -0.6312  1.6683
 6650SOL     OW31411   1.934   2.479   1.980 -0.4097  0.4924 -0.3235
 6650SOL    HW131412   2.000   2.518   2.037 -0.6266 -0.0123  0.2784
 6650SOL    HW231413   1.917   2.562   1.935 -2.7592 -0.3505 -1.0134
 6651SOL     OW31414   3.298   0.275   8.861  0.8918 -0.1204  0.4272
 6651SOL    HW131415   3.215   0.231   8.843  0.9435  0.2838 -0.8606
 6651SOL    HW231416   3.354   0.198   8.876  0.7641 -0.2167  0.4049
 6652SOL     OW31417   4.683   1.746  14.250 -0.3850 -0.2689  0.4704
 6652SOL    HW131418   4.626   1.693  14.306 -0.7589  0.2762  0.6043
 6652SOL    HW231419   4.619   1.817  14.249  0.5985  0.6255  0.4582
 6653SOL     OW31420   2.897   4.252   8.612 -0.0597 -0.2879  0.3884
 6653SOL    HW131421   2.988   4.223   8.608 -0.8594 -2.8472  0.9523
 6653SOL    HW231422   2.858   4.179   8.660 -1.8437 -0.6179 -1.5423
 6654SOL     OW31423   3.297   4.007   7.400  0.7511  0.3917 -0.7423
 6654SOL    HW131424   3.212   3.969   7.380  0.3418  0.1896  1.4031
 6654SOL    HW231425   3.350   3.928   7.413  0.5732  0.4410  0.2294
 6655SOL     OW31426   3.799   3.218   8.772  0.4582 -0.0194  0.0163
 6655SOL    HW131427   3.850   3.270   8.835 -0.6843  0.5624  0.4669
 6655SOL    HW231428   3.713   3.260   8.775  1.1106  1.3737 -1.1471
 6656SOL     OW31429   3.843   3.247   3.326  0.5263  0.2858  0.4249
 6656SOL    HW131430   3.753   3.278   3.335  0.3967 -0.2011  0.7671
 6656SOL    HW231431   3.874   3.316   3.267 -0.0695  0.6527  0.5424
 6657SOL     OW31432   0.324   2.672   2.367  0.2200  0.1361  0.0917
 6657SOL    HW131433   0.353   2.601   2.310  1.9076 -1.4470  2.9525
 6657SOL    HW231434   0.318   2.746   2.306  0.7477  0.3925  0.3534
 6658SOL     OW31435   3.457   0.240  13.169  0.0531  0.2745  0.8030
 6658SOL    HW131436   3.420   0.216  13.254 -4.1256 -1.2777 -1.4899
 6658SOL    HW231437   3.454   0.151  13.134  0.1015  0.8801 -0.7323
 6659SOL     OW31438   3.049   0.327   8.258 -0.3377 -0.4016  0.3012
 6659SOL    HW131439   3.092   0.346   8.341 -0.1069 -1.6521  0.4538
 6659SOL    HW231440   3.122   0.328   8.196 -0.8078 -0.0028 -0.2477
 6660SOL     OW31441   4.328   1.133  15.745 -0.4310 -0.0619 -0.5182
 6660SOL    HW131442   4.269   1.059  15.750 -1.1175  0.3234 -2.8422
 6660SOL    HW231443   4.312   1.166  15.833  1.0971  0.0748 -0.2824
 6661SOL     OW31444   0.478   2.199   4.980 -0.4202  0.1347 -0.1902
 6661SOL    HW131445   0.525   2.195   5.064  0.0759 -0.0260 -0.4778
 6661SOL    HW231446   0.390   2.225   5.009  0.3291  3.5160 -0.9108
 6662SOL     OW31447   4.087   1.076  13.422 -0.1299  0.4077  0.0721
 6662SOL    HW131448   4.099   1.125  13.504  1.4784 -1.0792  0.7164
 6662SOL    HW231449   4.128   1.137  13.361 -1.5646  0.9910 -0.3168
 6663SOL     OW31450   2.753   0.686  10.932  0.8148 -0.3352  0.7354
 6663SOL    HW131451   2.811   0.611  10.948  0.7613 -0.1293  1.8989
 6663SOL    HW231452   2.809   0.744  10.881  0.5151 -2.3364 -1.8707
 6664SOL     OW31453   0.166   0.365   1.195 -0.1823  0.5474 -0.6590
 6664SOL    HW131454   0.144   0.351   1.287  2.1151  1.9775  0.0978
 6664SOL    HW231455   0.199   0.455   1.193 -0.5043  0.7155  1.5319
 6665SOL     OW31456   1.723   2.122   6.921 -0.4303 -0.2533 -0.3813
 6665SOL    HW131457   1.701   2.199   6.973 -1.2213 -0.7774  0.0569
 6665SOL    HW231458   1.779   2.159   6.852 -0.0106 -1.0779 -0.4809
 6666SOL     OW31459   2.413   0.126   5.423  0.2054 -0.1755  0.2466
 6666SOL    HW131460   2.385   0.188   5.355  1.3580 -1.4995 -1.4331
 6666SOL    HW231461   2.460   0.178   5.488  0.4139 -0.5317  0.3768
 6667SOL     OW31462   3.939   0.005   4.183  0.1089 -0.0218  0.2293
 6667SOL    HW131463   3.909   4.661   4.121 -0.5768  0.5360 -0.0369
 6667SOL    HW231464   3.974   4.669   4.250  0.4538 -0.7458 -0.5707
 6668SOL     OW31465   1.240   3.598   0.428  0.0525  0.3745 -0.2034
 6668SOL    HW131466   1.330   3.567   0.416 -0.5897 -2.1536  1.4160
 6668SOL    HW231467   1.203   3.560   0.348 -0.0839  4.4175 -2.0428
 6669SOL     OW31468   3.555   0.802   3.202  0.3323  0.4869 -0.1115
 6669SOL    HW131469   3.489   0.821   3.268  0.6016  0.0718  0.2782
 6669SOL    HW231470   3.591   0.718   3.231  0.0434 -0.5350 -2.7741
 6670SOL     OW31471   0.106   1.344  15.777  0.0854 -0.5813  0.4747
 6670SOL    HW131472   0.021   1.375  15.744 -0.3879 -1.4940  0.8183
 6670SOL    HW231473   0.121   1.258  15.737 -4.2066  1.1789 -5.0267
 6671SOL     OW31474   2.513   3.032   4.774 -0.3092  0.7214 -0.7479
 6671SOL    HW131475   2.542   2.987   4.854 -3.3229 -0.1796 -0.1551
 6671SOL    HW231476   2.475   2.961   4.723 -0.6666 -0.5546  1.3009
 6672SOL     OW31477   0.827   3.189   1.328  0.0558 -0.3921  0.3760
 6672SOL    HW131478   0.909   3.148   1.353  0.4371 -0.5011 -1.0493
 6672SOL    HW231479   0.784   3.205   1.412  1.9251  0.7897  1.0977
 6673SOL     OW31480   1.067   2.272   6.242 -0.2735 -0.0593 -0.0576
 6673SOL    HW131481   1.032   2.271   6.153  1.0695 -0.3688 -0.5802
 6673SOL    HW231482   1.161   2.279   6.225 -0.1529 -2.0148 -0.1972
 6674SOL     OW31483   3.535   0.581   0.494 -0.0003 -0.3482  0.2852
 6674SOL    HW131484   3.492   0.556   0.576  0.1639  0.6935  0.6864
 6674SOL    HW231485   3.569   0.668   0.512 -1.1204  0.5329 -1.7774
 6675SOL     OW31486   2.621   1.176  15.464  0.2786 -0.6059 -0.3062
 6675SOL    HW131487   2.557   1.107  15.482 -0.1544  0.0624  0.7944
 6675SOL    HW231488   2.688   1.137  15.409  0.6793  0.5165 -0.6220
 6676SOL     OW31489   0.024   3.991   3.352 -0.1867 -0.5009  0.1783
 6676SOL    HW131490   4.675   3.928   3.351 -0.6136 -0.0793  3.1583
 6676SOL    HW231491   0.074   3.951   3.423 -1.0945  0.0792  1.1421
 6677SOL     OW31492   1.511   4.379   5.770  0.4667 -0.9195 -0.0070
 6677SOL    HW131493   1.452   4.422   5.708  2.1926  0.4996 -0.6660
 6677SOL    HW231494   1.586   4.363   5.712 -0.5598  0.4009 -1.6841
 6678SOL     OW31495   2.414   2.337   2.805 -0.9765  0.4901 -0.2706
 6678SOL    HW131496   2.462   2.355   2.886  1.6742  1.2490 -2.0126
 6678SOL    HW231497   2.396   2.425   2.771 -2.8689  0.1357 -0.1824
 6679SOL     OW31498   2.699   4.378   4.092 -0.5232  0.1078  0.3171
 6679SOL    HW131499   2.691   4.283   4.087  0.0734  0.1218 -0.8947
 6679SOL    HW231500   2.610   4.382   4.056 -0.2100 -0.1447 -0.4787
 6680SOL     OW31501   4.608   1.658  10.433  0.2117 -0.1585  0.2870
 6680SOL    HW131502   4.606   1.750  10.460 -1.6675 -0.0373 -0.2640
 6680SOL    HW231503   4.550   1.630  10.504 -1.1841  0.6761 -0.5219
 6681SOL     OW31504   2.649   3.559   4.633  0.0600  0.0783 -0.0863
 6681SOL    HW131505   2.604   3.484   4.593  1.2143 -0.4608 -0.3781
 6681SOL    HW231506   2.741   3.537   4.617 -0.0293 -0.3514  0.0091
 6682SOL     OW31507   0.177   0.065   5.117  0.5450 -0.3018  0.2319
 6682SOL    HW131508   0.198   0.121   5.043 -0.7838  0.5233  0.4665
 6682SOL    HW231509   0.123   4.716   5.081  1.4115  0.9303 -3.4447
 6683SOL     OW31510   2.541   1.889   8.637 -0.2338  0.6080 -0.1404
 6683SOL    HW131511   2.630   1.854   8.628 -0.4653  0.3327 -1.4327
 6683SOL    HW231512   2.495   1.824   8.583 -2.2724  1.3578  0.7049
 6684SOL     OW31513   1.143   3.515   7.868 -1.1567 -0.2149  0.3525
 6684SOL    HW131514   1.066   3.496   7.814 -0.5147 -2.3743  0.2290
 6684SOL    HW231515   1.207   3.457   7.827  0.6720  1.8847  0.2293
 6685SOL     OW31516   4.589   1.545  17.270  0.4975 -0.2404 -0.2269
 6685SOL    HW131517   4.635   1.623  17.238 -3.5227  2.4992  0.6421
 6685SOL    HW231518   4.598   1.488  17.193  1.5594  0.7741 -0.8627
 6686SOL     OW31519   0.062   3.950   7.649  0.2140  0.0088  0.0301
 6686SOL    HW131520   0.139   3.991   7.687 -0.7305  1.8632 -0.0568
 6686SOL    HW231521   0.004   4.022   7.624 -1.2952 -0.6199  1.6669
 6687SOL     OW31522   1.193   0.173  12.181 -0.7884  0.5052 -0.2358
 6687SOL    HW131523   1.206   0.095  12.236 -2.6989 -0.3409 -1.0137
 6687SOL    HW231524   1.186   0.234  12.255  0.7576  0.0894  0.2657
 6688SOL     OW31525   3.463   1.613  11.296  0.0121  0.7345  0.0812
 6688SOL    HW131526   3.501   1.691  11.335  0.8920 -0.4320  1.5594
 6688SOL    HW231527   3.427   1.649  11.215 -1.3884  0.5534  0.6114
 6689SOL     OW31528   4.048   1.560   2.843 -0.5050  0.9940  0.1976
 6689SOL    HW131529   4.034   1.466   2.830 -0.5225  0.7827  1.8162
 6689SOL    HW231530   3.962   1.602   2.847 -0.7668  0.3684  1.1931
 6690SOL     OW31531   3.051   3.391   6.437 -0.1866 -0.1761 -0.4865
 6690SOL    HW131532   3.052   3.378   6.532  0.3129  1.8288 -0.2043
 6690SOL    HW231533   2.962   3.427   6.427  0.1527  0.6317 -0.5890
 6691SOL     OW31534   1.991   1.944  15.567  0.1187 -0.2932 -0.0367
 6691SOL    HW131535   1.978   1.856  15.601  0.4254  0.4703  2.0621
 6691SOL    HW231536   2.063   1.921  15.507 -0.2739 -0.6461 -0.3696
 6692SOL     OW31537   2.875   3.246  12.272 -0.1629  0.2450  0.3228
 6692SOL    HW131538   2.796   3.199  12.248 -0.1422 -0.4100  1.5522
 6692SOL    HW231539   2.858   3.255  12.366  0.1070 -0.9557  0.4827
 6693SOL     OW31540   3.167   4.418  10.586  0.2426 -0.1669 -0.3798
 6693SOL    HW131541   3.157   4.438  10.679 -1.9539  0.7510 -0.8306
 6693SOL    HW231542   3.126   4.333  10.577  0.1389 -0.1518 -0.0476
 6694SOL     OW31543   3.895   0.358  14.954 -0.3512 -0.3308  0.2043
 6694SOL    HW131544   3.990   0.370  14.947 -0.6386  2.4087  0.7778
 6694SOL    HW231545   3.867   0.450  14.951 -2.4833 -0.9129  2.0358
 6695SOL     OW31546   3.708   1.458  17.653  0.1389 -0.1519  0.1679
 6695SOL    HW131547   3.645   1.469   0.033 -1.2365 -0.1501 -1.0714
 6695SOL    HW231548   3.756   1.385   0.001 -1.6352 -1.0666  0.6309
 6696SOL     OW31549   0.649   3.323   3.091 -0.5477 -0.1346 -0.4135
 6696SOL    HW131550   0.565   3.362   3.115 -1.0974 -1.4244 -0.2543
 6696SOL    HW231551   0.704   3.378   3.146  1.3713 -1.4122 -1.0712
 6697SOL     OW31552   0.490   0.718   7.079 -0.0448  0.3618 -0.4756
 6697SOL    HW131553   0.558   0.724   7.012  0.2590  0.5134 -0.1583
 6697SOL    HW231554   0.468   0.625   7.071  2.6183 -0.1421 -2.0292
 6698SOL     OW31555   3.039   4.117   6.303  0.3349  0.2511 -0.7556
 6698SOL    HW131556   3.004   4.137   6.390  4.2524  2.8910  0.2229
 6698SOL    HW231557   3.132   4.129   6.324 -0.3526  2.2249  1.1148
 6699SOL     OW31558   0.544   3.608   8.641 -0.5824 -0.0410  0.6908
 6699SOL    HW131559   0.619   3.564   8.601 -1.1569  0.1227 -0.5580
 6699SOL    HW231560   0.598   3.667   8.693 -2.1406 -1.1100  3.5137
 6700SOL     OW31561   1.008   3.710   6.417  0.1475  0.5135 -0.3501
 6700SOL    HW131562   1.097   3.718   6.450  0.4081  0.3000 -1.0062
 6700SOL    HW231563   0.962   3.665   6.489  0.8467  0.0449 -0.1883
 6701SOL     OW31564   3.794   2.112   7.097 -0.0703  0.0046 -0.0220
 6701SOL    HW131565   3.814   2.206   7.091  0.4500 -0.1050 -0.0433
 6701SOL    HW231566   3.844   2.080   7.022 -0.6140  3.4982 -1.8964
 6702SOL     OW31567   4.086   2.060   1.674  0.1074 -0.1833  0.1266
 6702SOL    HW131568   4.055   2.087   1.760  0.6481  0.0214  0.2576
 6702SOL    HW231569   4.124   2.139   1.636  2.4598 -1.8402 -0.9877
 6703SOL     OW31570   4.343   0.945   9.552 -0.0745 -0.0446 -0.2222
 6703SOL    HW131571   4.371   1.032   9.524  0.0357  1.3094  4.0719
 6703SOL    HW231572   4.380   0.938   9.640 -1.3403 -0.1446  0.2962
 6704SOL     OW31573   4.606   0.103   9.276 -0.3364 -0.3857  0.1025
 6704SOL    HW131574   4.579   0.040   9.342  0.2788  1.3124  1.9826
 6704SOL    HW231575   4.685   0.063   9.240 -0.6795 -2.6843  1.9298
 6705SOL     OW31576   0.162   2.624  12.849 -0.0287 -0.3792  0.0290
 6705SOL    HW131577   0.250   2.599  12.875  0.5958 -0.1409 -1.8905
 6705SOL    HW231578   0.136   2.549  12.796 -1.9976 -1.1052  2.0205
 6706SOL     OW31579   1.334   2.019  17.616  0.1532  0.0812  0.2924
 6706SOL    HW131580   1.346   1.932  17.654  0.6386  0.0881  0.1591
 6706SOL    HW231581   1.242   2.016  17.590  0.5066 -1.5592 -0.8082
 6707SOL     OW31582   3.028   0.533   8.729  0.5966  0.0735  0.5433
 6707SOL    HW131583   2.990   0.617   8.702  0.4356  0.2464  1.3056
 6707SOL    HW231584   3.062   0.550   8.816 -0.4485  1.4052  0.7089
 6708SOL     OW31585   2.726   0.773   8.328  0.3632 -0.5818  0.1455
 6708SOL    HW131586   2.680   0.782   8.244  2.4106  0.7193 -0.8239
 6708SOL    HW231587   2.778   0.694   8.315  0.5665 -0.4334  0.0591
 6709SOL     OW31588   2.340   2.004   6.990 -0.1021 -0.6373  0.1949
 6709SOL    HW131589   2.268   2.065   7.002 -1.0415 -1.4798 -1.0681
 6709SOL    HW231590   2.338   1.997   6.894 -1.3665 -0.8354  0.2391
 6710SOL     OW31591   4.007   2.332  17.241 -0.0754  0.1856 -0.2780
 6710SOL    HW131592   3.977   2.317  17.152 -0.1460 -0.3923 -0.1538
 6710SOL    HW231593   3.955   2.275  17.297 -2.8401  1.4796 -1.5609
 6711SOL     OW31594   3.071   1.946   8.020  0.2641  0.0681  0.3689
 6711SOL    HW131595   3.136   1.998   8.067  2.0185  0.1741 -2.1934
 6711SOL    HW231596   3.053   1.888   8.095 -1.1645 -0.8425 -0.6863
 6712SOL     OW31597   0.161   2.507   9.044  0.0852  0.0827  0.0626
 6712SOL    HW131598   0.068   2.486   9.043  0.0778  0.1500 -0.8166
 6712SOL    HW231599   0.162   2.580   9.105 -1.1180  1.5620 -1.7044
 6713SOL     OW31600   4.389   0.426   2.448 -0.2851  0.0548 -0.3673
 6713SOL    HW131601   4.354   0.452   2.362 -0.7499  1.1637  0.1552
 6713SOL    HW231602   4.466   0.377   2.420 -1.1867 -0.2410 -2.3212
 6714SOL     OW31603   3.329   2.289   3.889 -0.2957 -0.7915 -0.5921
 6714SOL    HW131604   3.385   2.229   3.937 -0.6915 -0.5458  0.1745
 6714SOL    HW231605   3.275   2.230   3.836  1.0666 -4.3060  1.9298
 6715SOL     OW31606   3.217   1.717   2.776  0.7535 -0.1340  0.3990
 6715SOL    HW131607   3.312   1.720   2.785  1.0986 -0.5589 -3.2508
 6715SOL    HW231608   3.213   1.804   2.816 -0.4654  0.0186 -0.0387
 6716SOL     OW31609   2.388   2.769   9.616  0.2129  0.2807 -0.1385
 6716SOL    HW131610   2.363   2.700   9.555  1.0956  0.3605 -0.5733
 6716SOL    HW231611   2.430   2.715   9.683 -0.6889  1.0074  1.0183
 6717SOL     OW31612   3.967   0.206  15.639  0.0318  0.1229  0.7030
 6717SOL    HW131613   3.994   0.282  15.587  0.0738  0.4702  1.2331
 6717SOL    HW231614   3.995   0.134  15.582  0.4062  2.0166 -1.4965
 6718SOL     OW31615   1.208   2.795  16.535 -0.2207  0.2397 -0.7601
 6718SOL    HW131616   1.184   2.830  16.621  0.6821 -1.0623  0.0283
 6718SOL    HW231617   1.228   2.704  16.559 -3.3433 -0.2046  0.1329
 6719SOL     OW31618   0.409   2.629   4.166  0.8217 -0.4256  0.1226
 6719SOL    HW131619   0.476   2.645   4.100 -0.4870 -0.4978 -1.2440
 6719SOL    HW231620   0.455   2.633   4.250 -1.0696  2.8482  1.0134
 6720SOL     OW31621   3.868   2.203   1.943 -0.0861  0.2533 -0.1320
 6720SOL    HW131622   3.957   2.168   1.944  0.2141  1.1043  3.1600
 6720SOL    HW231623   3.883   2.294   1.916 -4.2142  0.5150 -1.4679
 6721SOL     OW31624   0.376   4.155   4.860 -0.0945  0.1202  0.3300
 6721SOL    HW131625   0.443   4.117   4.918  2.8991 -0.0824 -3.2591
 6721SOL    HW231626   0.428   4.167   4.781  0.2489  0.5806  0.6310
 6722SOL     OW31627   1.959   1.956  11.136 -0.0241  0.6731 -0.2022
 6722SOL    HW131628   1.908   1.893  11.085 -0.9090  1.7305 -0.6277
 6722SOL    HW231629   1.924   1.938  11.223  0.2540 -0.7781 -0.3818
 6723SOL     OW31630   2.673   0.245   6.045  0.3913  0.0462 -0.0729
 6723SOL    HW131631   2.699   0.217   6.133  1.2715  1.1619  0.0107
 6723SOL    HW231632   2.750   0.288   6.008 -0.9481  2.2317 -0.3375
 6724SOL     OW31633   3.539   3.884   0.273 -0.1095  0.1270  0.1549
 6724SOL    HW131634   3.540   3.858   0.366  0.5932 -1.0787 -0.1897
 6724SOL    HW231635   3.589   3.966   0.269 -0.3640  0.1198 -2.9672
 6725SOL     OW31636   2.444   1.368  15.999 -0.0326 -0.0360 -0.0997
 6725SOL    HW131637   2.496   1.350  15.921 -3.2304 -1.0890 -1.9661
 6725SOL    HW231638   2.485   1.436  16.052 -0.7821  0.3439 -0.0054
 6726SOL     OW31639   4.160   0.660   0.770  0.0309  0.1224 -0.0393
 6726SOL    HW131640   4.165   0.713   0.690 -0.8340 -0.7721 -0.7015
 6726SOL    HW231641   4.114   0.582   0.737  2.2543 -1.0787 -0.3287
 6727SOL     OW31642   2.644   0.717   3.892  0.2463 -0.4820  0.2882
 6727SOL    HW131643   2.672   0.628   3.912 -3.4190 -1.0831  2.7671
 6727SOL    HW231644   2.629   0.763   3.975  2.6679 -0.4522  0.7203
 6728SOL     OW31645   3.000   1.099   3.886 -0.0270  0.6016 -0.0752
 6728SOL    HW131646   2.921   1.154   3.892 -1.3703 -1.5362  1.7019
 6728SOL    HW231647   2.965   1.031   3.828 -2.7665  2.3027 -0.4565
 6729SOL     OW31648   3.626   3.286  13.769  0.5012  0.0292 -0.0721
 6729SOL    HW131649   3.681   3.274  13.691  0.1061  1.5785 -0.5946
 6729SOL    HW231650   3.547   3.309  13.719  0.4344  0.7961  0.3985
 6730SOL     OW31651   0.925   2.027   7.433  0.0459  0.3644  0.2752
 6730SOL    HW131652   0.840   1.982   7.429 -0.2933  1.0084  0.1478
 6730SOL    HW231653   0.909   2.107   7.383 -1.9961 -1.0987 -1.4108
 6731SOL     OW31654   3.213   2.833   6.311 -0.6394  0.6855  0.2468
 6731SOL    HW131655   3.152   2.874   6.249  0.3388 -0.0509 -1.2074
 6731SOL    HW231656   3.260   2.912   6.338 -1.5367  0.0335  3.6543
 6732SOL     OW31657   4.570   3.712  16.896  0.9380  0.0967 -0.2087
 6732SOL    HW131658   4.484   3.688  16.931  0.7718 -1.4491 -1.6943
 6732SOL    HW231659   4.609   3.628  16.874  1.7020  0.4143 -0.0598
 6733SOL     OW31660   3.635   3.977   2.464 -0.5653 -0.1107 -0.0658
 6733SOL    HW131661   3.639   4.065   2.426  2.3473 -0.3462 -0.2322
 6733SOL    HW231662   3.726   3.952   2.477 -0.1512  2.0523  1.3354
 6734SOL     OW31663   0.838   0.055   9.139  0.0702 -0.3016 -0.4539
 6734SOL    HW131664   0.867   0.109   9.065 -1.8856 -0.4967 -1.3693
 6734SOL    HW231665   0.746   0.078   9.148  0.1479  0.0678 -0.6186
 6735SOL     OW31666   2.730   3.098   7.644 -0.4562  0.7581 -0.0056
 6735SOL    HW131667   2.729   3.124   7.735  1.2843  0.6384  0.0496
 6735SOL    HW231668   2.678   3.166   7.603  0.3426  2.0893  1.2129
 6736SOL     OW31669   3.474   4.112  13.201 -0.2128  0.4673 -0.0904
 6736SOL    HW131670   3.389   4.131  13.161  0.2155 -0.4085 -1.4133
 6736SOL    HW231671   3.457   4.073  13.287 -2.5017  2.2002  0.2427
 6737SOL     OW31672   2.563   1.452   1.009 -0.0962 -0.0195  0.3987
 6737SOL    HW131673   2.510   1.517   0.963 -0.2196 -0.0673  0.4738
 6737SOL    HW231674   2.624   1.419   0.942 -0.9393 -0.2846 -0.2340
 6738SOL     OW31675   1.291   4.374   8.963  0.1577  0.0031  0.0445
 6738SOL    HW131676   1.304   4.449   8.906  1.0305 -0.8474 -0.8835
 6738SOL    HW231677   1.377   4.374   9.005 -0.6450  1.0846  1.6579
 6739SOL     OW31678   2.644   1.822   5.820  0.2655  0.1406 -0.0361
 6739SOL    HW131679   2.627   1.736   5.782 -0.4322  0.6311 -0.8327
 6739SOL    HW231680   2.626   1.874   5.743  0.6226  1.0278  0.4769
 6740SOL     OW31681   2.486   3.934   6.449  0.2745 -0.3799 -0.1089
 6740SOL    HW131682   2.575   3.935   6.412 -0.0277  0.5210 -0.8040
 6740SOL    HW231683   2.490   3.843   6.478  0.4316 -0.8921 -1.7018
 6741SOL     OW31684   0.714   4.437   8.081 -0.1460 -0.1466 -0.7513
 6741SOL    HW131685   0.698   4.400   7.995  0.0308 -1.5239 -0.1901
 6741SOL    HW231686   0.704   4.356   8.130 -3.7938 -0.6176 -2.2727
 6742SOL     OW31687   2.234   2.920   6.902 -0.5012  0.4818 -0.2506
 6742SOL    HW131688   2.227   3.016   6.898 -0.3244  0.5522  1.0757
 6742SOL    HW231689   2.283   2.917   6.985 -2.3746 -4.2143  0.6863
 6743SOL     OW31690   0.117   4.207   9.776 -0.2088 -0.0099 -0.2735
 6743SOL    HW131691   0.129   4.302   9.782  1.1611 -0.2504  0.9109
 6743SOL    HW231692   0.191   4.185   9.833  0.7997  0.3791 -1.4270
 6744SOL     OW31693   1.997   1.859   3.665  0.1187 -0.3419 -0.0049
 6744SOL    HW131694   1.977   1.779   3.618  0.2260  0.2874 -1.1281
 6744SOL    HW231695   2.093   1.863   3.664  0.1419 -1.1071 -0.1903
 6745SOL     OW31696   3.543   3.529  17.029  0.3422  1.0586  0.1709
 6745SOL    HW131697   3.478   3.497  16.967 -0.3722  0.4681  1.2331
 6745SOL    HW231698   3.534   3.624  17.033  0.6253  1.0873  0.1264
 6746SOL     OW31699   3.043   1.118   1.638 -0.6182 -0.7355 -0.6699
 6746SOL    HW131700   3.049   1.168   1.720 -1.4034 -3.3251  0.9386
 6746SOL    HW231701   3.121   1.146   1.591  0.1132 -0.3710  0.7515
 6747SOL     OW31702   4.184   4.267  14.738 -0.3338  0.5616  0.4635
 6747SOL    HW131703   4.091   4.271  14.719 -0.0739 -2.1227 -1.3746
 6747SOL    HW231704   4.204   4.211  14.813 -0.5194  1.8391  1.4837
 6748SOL     OW31705   3.875   3.491  14.642 -0.0945 -0.0574  0.0408
 6748SOL    HW131706   3.919   3.452  14.717  0.2551  0.3384  0.0386
 6748SOL    HW231707   3.937   3.554  14.606 -1.0672 -0.1311 -1.7619
 6749SOL     OW31708   1.690   1.400   4.416  0.0511  0.5625  0.0005
 6749SOL    HW131709   1.677   1.319   4.465  1.6763 -0.1677 -0.7832
 6749SOL    HW231710   1.610   1.443   4.447  0.9905  1.3457  1.3577
 6750SOL     OW31711   3.452   4.482  16.565  0.4307  0.5471 -0.1968
 6750SOL    HW131712   3.400   4.555  16.599 -0.7300 -1.0120  1.3879
 6750SOL    HW231713   3.515   4.537  16.518 -0.6898  0.8256 -1.3625
 6751SOL     OW31714   0.936   3.629   3.621  0.1988  0.2664 -0.3867
 6751SOL    HW131715   0.972   3.646   3.533  0.8753 -1.0138 -0.3526
 6751SOL    HW231716   0.883   3.550   3.608 -0.4640  0.5113  0.8304
 6752SOL     OW31717   1.794   4.309  13.775 -0.0942  0.3520  0.3129
 6752SOL    HW131718   1.797   4.219  13.742 -0.2690 -0.3233  2.1348
 6752SOL    HW231719   1.762   4.283  13.862 -2.8022 -0.3962 -0.9236
 6753SOL     OW31720   0.882   4.080   6.525 -0.0344 -0.6456  0.1115
 6753SOL    HW131721   0.889   4.075   6.621 -3.2957  1.9656  0.5083
 6753SOL    HW231722   0.794   4.112   6.504  0.6422  0.4185 -1.0311
 6754SOL     OW31723   2.138   2.708   0.999 -0.2049 -0.8062 -0.2477
 6754SOL    HW131724   2.089   2.769   1.055  0.3493 -1.0588  0.5034
 6754SOL    HW231725   2.192   2.666   1.066 -0.2262  2.9244  2.1167
 6755SOL     OW31726   0.086   4.438  15.660 -0.2468 -0.2567  0.1128
 6755SOL    HW131727   0.170   4.395  15.675 -0.1360 -0.1582 -0.2269
 6755SOL    HW231728   0.078   4.495  15.737  0.8016 -0.1332  0.1274
 6756SOL     OW31729   0.083   1.438   6.660  0.5072 -0.2670 -0.0207
 6756SOL    HW131730   0.121   1.360   6.621 -1.2503 -0.2750 -1.7513
 6756SOL    HW231731   0.057   1.403   6.745  0.5673  0.7060  0.3914
 6757SOL     OW31732   3.462   4.021  12.884 -0.0138  0.8379  0.4592
 6757SOL    HW131733   3.515   3.997  12.960 -2.6947 -1.5646  1.5778
 6757SOL    HW231734   3.520   4.072  12.828 -2.5643  1.0471 -2.0076
 6758SOL     OW31735   2.107   3.951  12.376  0.4147  0.3570 -0.4262
 6758SOL    HW131736   2.201   3.933  12.378  0.2287 -0.6169 -0.2973
 6758SOL    HW231737   2.074   3.861  12.370 -1.4947  1.0638 -0.2611
 6759SOL     OW31738   3.175   2.351   4.883 -0.0738  0.2370  0.2594
 6759SOL    HW131739   3.257   2.399   4.898  0.4471 -0.3699 -0.6216
 6759SOL    HW231740   3.185   2.267   4.928  0.5842  0.5713  0.7334
 6760SOL     OW31741   3.727   2.725   0.703  0.1759 -0.2183  0.1302
 6760SOL    HW131742   3.651   2.694   0.653 -0.6392  1.7205  0.1905
 6760SOL    HW231743   3.731   2.818   0.680  1.7535 -0.3740 -0.2101
 6761SOL     OW31744   4.573   3.464   3.042 -0.3681 -0.7603 -0.1057
 6761SOL    HW131745   4.617   3.466   2.957 -0.6251  0.5793 -0.2016
 6761SOL    HW231746   4.517   3.387   3.031  0.9089 -1.8702  1.2181
 6762SOL     OW31747   0.862   2.545   7.576  0.3416 -0.1641  0.3767
 6762SOL    HW131748   0.900   2.486   7.511  1.1225 -1.0097  1.5990
 6762SOL    HW231749   0.893   2.633   7.553  1.6769 -0.2581  1.8628
 6763SOL     OW31750   2.355   4.186   0.977  0.0317 -0.2926 -0.0801
 6763SOL    HW131751   2.304   4.180   0.896  0.1992  1.0993 -0.2878
 6763SOL    HW231752   2.428   4.237   0.942 -1.4511  2.2098  0.4659
 6764SOL     OW31753   1.572   3.590   9.274  0.2283  0.5967 -0.1642
 6764SOL    HW131754   1.637   3.638   9.223 -1.6031  3.8892  0.5332
 6764SOL    HW231755   1.553   3.515   9.218 -0.0059  0.7203 -0.2490
 6765SOL     OW31756   4.520   4.097  15.936  0.1332  0.0492 -0.0358
 6765SOL    HW131757   4.431   4.134  15.942 -0.7328 -1.8527 -1.0315
 6765SOL    HW231758   4.536   4.102  15.842 -4.8847 -1.1827 -0.9889
 6766SOL     OW31759   2.718   0.012   4.165  0.0442 -0.1693  0.5921
 6766SOL    HW131760   2.768   0.091   4.183  1.1416 -0.3129 -1.8136
 6766SOL    HW231761   2.700   0.028   4.072 -0.5413 -0.3899  0.6656
 6767SOL     OW31762   4.148   4.397  15.846  0.1796  0.1888  0.3538
 6767SOL    HW131763   4.071   4.382  15.901 -0.2033 -0.1297 -0.2797
 6767SOL    HW231764   4.131   4.489  15.828 -3.6439 -0.3892  0.8654
 6768SOL     OW31765   2.551   0.512   4.546  0.0784  0.0167  0.3427
 6768SOL    HW131766   2.627   0.508   4.604  0.7302  0.7841 -0.4475
 6768SOL    HW231767   2.503   0.448   4.599 -2.3985  0.5497 -1.2287
 6769SOL     OW31768   2.939   0.721   7.466  0.1450 -0.0112 -0.3928
 6769SOL    HW131769   2.975   0.782   7.530 -0.5713 -0.1877  0.1663
 6769SOL    HW231770   2.875   0.674   7.520 -1.2480  1.5695 -0.6721
 6770SOL     OW31771   4.214   1.155  12.286 -0.6978  0.0690 -0.0586
 6770SOL    HW131772   4.278   1.226  12.279 -1.1221  0.6588  2.1923
 6770SOL    HW231773   4.194   1.123  12.198  0.7889 -0.8443 -0.0566
 6771SOL     OW31774   3.881   3.263   9.484  0.0136  0.2506 -0.6404
 6771SOL    HW131775   3.837   3.347   9.495 -1.3337  0.0193 -4.0969
 6771SOL    HW231776   3.968   3.301   9.469 -0.0555  0.9233  0.7272
 6772SOL     OW31777   3.959   0.579   6.268  0.6367  0.0801 -0.6495
 6772SOL    HW131778   4.006   0.591   6.350  1.3609  1.0041 -1.2065
 6772SOL    HW231779   3.875   0.561   6.310  0.6482  2.6098  0.4476
 6773SOL     OW31780   0.742   0.626   8.995 -0.8582 -0.1771 -0.1026
 6773SOL    HW131781   0.777   0.667   9.074  0.5476 -0.0783 -0.7564
 6773SOL    HW231782   0.670   0.688   8.985  1.9707  3.0836 -0.7425
 6774SOL     OW31783   3.102   2.131  14.237 -0.1323  1.1047  0.1163
 6774SOL    HW131784   3.139   2.196  14.178  0.1382 -0.1275 -1.0774
 6774SOL    HW231785   3.031   2.175  14.284 -0.0413  0.4464  0.8712
 6775SOL     OW31786   3.677   3.779   7.692  0.2148  0.3910  0.0218
 6775SOL    HW131787   3.743   3.736   7.745  1.9610  2.8697 -0.1459
 6775SOL    HW231788   3.600   3.723   7.697 -0.6937  1.4433 -1.8555
 6776SOL     OW31789   1.343   2.893   3.369 -0.2493  0.5490  0.5275
 6776SOL    HW131790   1.408   2.831   3.402  0.2317  0.8172  0.0615
 6776SOL    HW231791   1.396   2.934   3.301 -0.2935 -1.3845 -0.6688
 6777SOL     OW31792   0.414   1.526   0.175 -0.2992 -0.2168 -0.3794
 6777SOL    HW131793   0.458   1.443   0.154  1.1767 -0.0314  2.0446
 6777SOL    HW231794   0.489   1.580   0.199 -0.7677  0.1577  0.2214
 6778SOL     OW31795   3.754   4.137  13.216  0.0600 -0.5921  0.1106
 6778SOL    HW131796   3.660   4.117  13.223  0.4702 -1.8683  2.0237
 6778SOL    HW231797   3.789   4.130  13.305 -1.6854  1.5274  0.9845
 6779SOL     OW31798   2.343   2.849   1.663  0.1041 -0.5560  0.0648
 6779SOL    HW131799   2.347   2.841   1.568  0.7013 -1.1720  0.1480
 6779SOL    HW231800   2.436   2.849   1.686  0.0122 -1.1078  0.4388
 6780SOL     OW31801   3.532   3.839   5.138 -0.1181  0.1618 -0.0244
 6780SOL    HW131802   3.482   3.917   5.158 -1.5724  0.0797 -3.3447
 6780SOL    HW231803   3.561   3.868   5.052  0.6420 -0.2353  0.0925
 6781SOL     OW31804   3.675   2.543   2.874  1.2160  0.4584 -0.0852
 6781SOL    HW131805   3.617   2.606   2.831  0.2532 -0.5682 -0.2742
 6781SOL    HW231806   3.690   2.583   2.959  1.1760 -0.9758  0.5953
 6782SOL     OW31807   4.641   4.350   5.450 -0.1726  0.5195  0.0934
 6782SOL    HW131808   4.646   4.410   5.525  1.5318  1.2635 -0.6243
 6782SOL    HW231809   0.002   4.361   5.404 -1.6523  0.0595 -2.6807
 6783SOL     OW31810   2.010   0.836  15.168 -0.2107 -0.0996  0.3887
 6783SOL    HW131811   1.981   0.872  15.252 -2.5978 -1.6263  0.2182
 6783SOL    HW231812   1.929   0.824  15.119 -1.0738 -0.8781  2.0198
 6784SOL     OW31813   1.852   2.069   8.495  0.0362  0.3924 -0.2224
 6784SOL    HW131814   1.845   2.096   8.404  0.0680 -0.0044 -0.3429
 6784SOL    HW231815   1.771   2.019   8.502  0.2323  0.1054  0.0128
 6785SOL     OW31816   2.990   4.619   4.570  0.3765  0.0139 -0.3506
 6785SOL    HW131817   2.961   4.705   4.600  2.1755  0.1700  0.9577
 6785SOL    HW231818   3.018   4.584   4.655 -1.0524 -0.7406 -0.1721
 6786SOL     OW31819   2.237   2.220   8.299  0.0215  0.2796  0.1614
 6786SOL    HW131820   2.243   2.158   8.227  0.7696  1.1713 -0.5543
 6786SOL    HW231821   2.190   2.160   8.357  2.1901 -0.7153  0.9016
 6787SOL     OW31822   3.507   1.529   4.420 -0.1960  0.3269  0.2949
 6787SOL    HW131823   3.413   1.525   4.438  0.1452  0.1565  2.0626
 6787SOL    HW231824   3.524   1.437   4.398 -0.4218  0.0145  1.3940
 6788SOL     OW31825   4.551   2.136   8.670 -0.6764 -0.5603  0.0093
 6788SOL    HW131826   4.615   2.194   8.711  0.1499 -1.4732  0.0159
 6788SOL    HW231827   4.609   2.093   8.606 -0.3321  0.0816 -0.1100
 6789SOL     OW31828   4.578   2.997   5.029 -0.2847  0.3123  0.3718
 6789SOL    HW131829   4.522   3.020   4.955 -0.0676 -1.1630 -0.2484
 6789SOL    HW231830   4.532   3.049   5.095 -1.6374 -0.9004  0.3952
 6790SOL     OW31831   4.427   4.531   1.913 -0.4919  0.1790  0.4227
 6790SOL    HW131832   4.402   4.591   1.843  0.6996  1.4396  1.0729
 6790SOL    HW231833   4.441   4.445   1.872 -1.9079  0.5566 -0.8523
 6791SOL     OW31834   0.392   0.666   4.611 -0.3528  0.1598  0.4012
 6791SOL    HW131835   0.348   0.733   4.663  1.0649  1.0197  0.5209
 6791SOL    HW231836   0.464   0.652   4.672  2.4671  0.0058 -2.9109
 6792SOL     OW31837   1.695   0.309  16.951  0.0501 -0.2075  0.1481
 6792SOL    HW131838   1.683   0.300  16.856  1.8756  0.1356 -0.1254
 6792SOL    HW231839   1.790   0.312  16.959  0.1184 -1.6689 -0.0289
 6793SOL     OW31840   0.604   3.030   1.267  0.0027  0.3085 -0.3412
 6793SOL    HW131841   0.609   2.954   1.209 -0.1607 -0.0677  0.1401
 6793SOL    HW231842   0.694   3.060   1.256  0.3892 -0.6695  0.1627
 6794SOL     OW31843   1.834   3.213   6.737  0.0152 -0.0389 -0.5352
 6794SOL    HW131844   1.839   3.299   6.777 -0.9045  0.0729 -0.6536
 6794SOL    HW231845   1.921   3.206   6.698 -1.0505  0.2194 -3.0192
 6795SOL     OW31846   2.570   3.497   1.554  0.1563  0.3648 -0.0779
 6795SOL    HW131847   2.562   3.484   1.460 -3.0511 -1.7554  0.4762
 6795SOL    HW231848   2.524   3.579   1.571  1.4634  1.5250 -2.1651
 6796SOL     OW31849   0.783   3.396   4.003  0.3106  0.1705 -0.2906
 6796SOL    HW131850   0.764   3.305   4.022 -0.5904  0.8603  2.0447
 6796SOL    HW231851   0.844   3.416   4.074 -0.1607 -0.2066  0.2197
 6797SOL     OW31852   2.942   2.490  11.303 -0.1480  0.4720  0.1586
 6797SOL    HW131853   2.999   2.484  11.380  2.1821  1.1314 -1.5131
 6797SOL    HW231854   2.995   2.470  11.225  1.3405  2.2516  0.7084
 6798SOL     OW31855   3.458   4.117   3.114 -0.0828 -0.1482  0.1812
 6798SOL    HW131856   3.528   4.143   3.174 -0.5544 -1.8030  1.4436
 6798SOL    HW231857   3.469   4.179   3.041  0.8081  0.4361  0.8084
 6799SOL     OW31858   0.172   2.131   3.819  0.3913  0.0522 -0.0792
 6799SOL    HW131859   0.188   2.218   3.856  2.4201 -0.3212 -0.1014
 6799SOL    HW231860   0.086   2.129   3.778  0.8385 -0.0516 -1.0015
 6800SOL     OW31861   1.402   2.737   0.965  0.4388  0.1426 -0.7667
 6800SOL    HW131862   1.318   2.692   0.976  0.4362  0.5211  0.7107
 6800SOL    HW231863   1.437   2.739   1.054  1.1952 -0.1325 -1.0543
 6801SOL     OW31864   0.795   1.598   4.710  0.4681  0.0022 -0.4714
 6801SOL    HW131865   0.866   1.644   4.755 -0.3367  1.8249 -1.0847
 6801SOL    HW231866   0.727   1.606   4.777  1.1074  0.8029  0.0760
 6802SOL     OW31867   1.178   4.058   8.150 -0.2076  0.6297  0.0099
 6802SOL    HW131868   1.207   4.091   8.065 -0.9336  0.2828 -0.3795
 6802SOL    HW231869   1.093   4.102   8.145 -0.7492 -0.3402  0.6910
 6803SOL     OW31870   3.103   2.681   2.801 -0.6195 -0.0994 -0.2564
 6803SOL    HW131871   3.072   2.741   2.732 -0.2599 -0.0464 -0.3678
 6803SOL    HW231872   3.052   2.711   2.877  0.6099 -2.1555  1.3675
 6804SOL     OW31873   2.173   2.223  13.012 -0.0690 -0.1930 -0.1299
 6804SOL    HW131874   2.261   2.260  13.016  0.7206 -1.9473 -1.5128
 6804SOL    HW231875   2.186   2.143  12.961 -1.8485 -1.7378  1.8305
 6805SOL     OW31876   1.115   1.084   6.819 -0.0133 -0.0143  0.4687
 6805SOL    HW131877   1.157   1.123   6.897 -0.9631  2.0973 -0.0750
 6805SOL    HW231878   1.189   1.031   6.791  1.1307  2.4012 -1.0695
 6806SOL     OW31879   2.380   0.923   0.550  0.7423  0.0523  0.4621
 6806SOL    HW131880   2.333   0.965   0.477  1.3421  0.4268  0.2871
 6806SOL    HW231881   2.341   0.956   0.631  1.0598 -0.1126  0.6821
 6807SOL     OW31882   3.460   2.209   1.234  0.5893 -0.1009 -0.4775
 6807SOL    HW131883   3.456   2.184   1.141  0.2465 -0.8181 -0.2710
 6807SOL    HW231884   3.381   2.262   1.245 -0.6331 -1.8134 -0.9427
 6808SOL     OW31885   1.076   4.218   7.402 -0.1470  0.5724  0.1201
 6808SOL    HW131886   1.009   4.168   7.356  1.7709 -0.5436 -1.4179
 6808SOL    HW231887   1.111   4.151   7.461  0.8473  1.6928  0.8293
 6809SOL     OW31888   3.692   1.746   3.781 -0.7416 -0.2163 -0.8236
 6809SOL    HW131889   3.724   1.820   3.730  0.9410  0.5341  1.3145
 6809SOL    HW231890   3.680   1.677   3.716  0.3168 -2.6670  1.6144
 6810SOL     OW31891   0.895   2.225   0.684 -0.0744 -0.2828 -0.1851
 6810SOL    HW131892   0.951   2.274   0.743 -1.4206  0.8031  0.1791
 6810SOL    HW231893   0.832   2.293   0.661 -0.2334 -1.1175 -2.3029
 6811SOL     OW31894   4.066   2.899  17.561  0.1650  0.8467  0.3091
 6811SOL    HW131895   4.028   2.820  17.522 -0.8768  1.5565 -0.1166
 6811SOL    HW231896   4.112   2.940  17.488 -0.6382  1.0748 -0.0736
 6812SOL     OW31897   0.715   4.075   3.812 -0.6732 -0.0695 -0.2464
 6812SOL    HW131898   0.740   4.103   3.723  1.6174 -0.4418  0.2822
 6812SOL    HW231899   0.736   3.982   3.808 -0.1928  0.0162  0.2763
 6813SOL     OW31900   0.245   4.467   8.847 -0.3891  0.8087  0.1046
 6813SOL    HW131901   0.318   4.409   8.823 -0.6871  0.2207  0.6342
 6813SOL    HW231902   0.181   4.447   8.778  0.2066  1.0411 -0.5238
 6814SOL     OW31903   0.630   0.336   5.748  0.9632  0.2620  0.3419
 6814SOL    HW131904   0.554   0.300   5.794 -1.8682 -0.3536 -4.8292
 6814SOL    HW231905   0.599   0.353   5.659  2.9207 -2.3483 -0.8617
 6815SOL     OW31906   0.146   4.314   7.837 -0.5912 -0.0608 -0.2447
 6815SOL    HW131907   0.103   4.367   7.904 -1.7949 -1.5503  0.1750
 6815SOL    HW231908   0.182   4.244   7.892 -1.0934 -1.6398 -1.9146
 6816SOL     OW31909   0.461   3.702   4.719  0.5028  0.3359  0.2374
 6816SOL    HW131910   0.460   3.607   4.733  2.6597 -0.0395 -2.0932
 6816SOL    HW231911   0.371   3.732   4.727  0.2000 -0.6775  0.6745
 6817SOL     OW31912   4.249   1.975   3.376  0.1063 -0.0840 -0.3999
 6817SOL    HW131913   4.156   1.992   3.363  0.0240 -0.8542 -0.8568
 6817SOL    HW231914   4.248   1.967   3.471 -2.1868  2.8835 -0.2012
 6818SOL     OW31915   4.627   3.780   2.371  0.7766 -0.3503  0.0596
 6818SOL    HW131916   4.702   3.726   2.394  0.3629 -1.5664 -1.4838
 6818SOL    HW231917   4.639   3.852   2.433 -0.3021 -0.6782  0.6424
 6819SOL     OW31918   1.929   2.482   3.214  0.4751  0.6005 -0.2227
 6819SOL    HW131919   1.958   2.410   3.269 -0.2526  0.9907  0.6749
 6819SOL    HW231920   1.977   2.470   3.132  0.9157  0.9609 -0.0146
 6820SOL     OW31921   1.695   3.443  16.973 -0.0518  0.5316 -0.4984
 6820SOL    HW131922   1.783   3.471  16.999  1.7199 -3.0612 -2.4747
 6820SOL    HW231923   1.646   3.449  17.055 -0.3350 -1.1049 -0.5450
 6821SOL     OW31924   2.117   1.788   4.155 -0.1406 -0.0032 -0.1169
 6821SOL    HW131925   2.130   1.718   4.218 -0.8639 -1.6029 -1.7291
 6821SOL    HW231926   2.052   1.848   4.192 -0.1497  0.0382 -0.1988
 6822SOL     OW31927   4.038   2.630  15.313 -0.2413  0.4293 -0.2116
 6822SOL    HW131928   4.010   2.677  15.391  0.8302 -0.3976  0.6728
 6822SOL    HW231929   4.112   2.577  15.342  0.0926  1.6907  1.1881
 6823SOL     OW31930   1.400   0.132   5.346 -0.0877 -0.1806  0.2278
 6823SOL    HW131931   1.341   0.133   5.421 -0.3173  0.0111  0.0474
 6823SOL    HW231932   1.461   0.198   5.378 -0.4719  0.7727 -0.9740
 6824SOL     OW31933   1.856   0.801   7.092 -0.2519  0.5892  0.3697
 6824SOL    HW131934   1.929   0.820   7.151  0.8000  0.6044 -0.9246
 6824SOL    HW231935   1.842   0.708   7.113  0.6982  0.4419  0.3641
 6825SOL     OW31936   1.623   0.625   9.906  0.1860 -0.1286  0.0727
 6825SOL    HW131937   1.543   0.591   9.865 -0.1796 -1.8367  2.2042
 6825SOL    HW231938   1.681   0.560   9.868 -0.3830 -0.1226 -0.8135
 6826SOL     OW31939   3.159   1.809  11.904  0.8945 -0.5151  0.0112
 6826SOL    HW131940   3.119   1.825  11.819  2.3161  1.0006 -0.3875
 6826SOL    HW231941   3.084   1.781  11.957  0.7511 -0.3401 -0.0978
 6827SOL     OW31942   1.892   2.542   4.479 -0.2714  0.3933 -0.0401
 6827SOL    HW131943   1.983   2.562   4.460 -0.1632 -0.9932 -1.0039
 6827SOL    HW231944   1.858   2.617   4.528  3.4260  1.1642  1.3285
 6828SOL     OW31945   0.421   2.747   6.213 -0.6884 -0.2875  0.4303
 6828SOL    HW131946   0.507   2.773   6.246 -0.2405 -0.6221 -0.4686
 6828SOL    HW231947   0.371   2.825   6.236 -1.5028 -0.8315  0.5254
 6829SOL     OW31948   4.062   1.847  16.952  0.6318 -0.4562  0.0417
 6829SOL    HW131949   4.048   1.874  17.043  1.6473  1.9353 -0.5063
 6829SOL    HW231950   3.996   1.778  16.945 -1.1819  1.0844  1.8322
 6830SOL     OW31951   0.538   4.660  16.970  0.0224 -0.0533 -0.1200
 6830SOL    HW131952   0.581   0.001  16.913  1.0838 -0.5156  0.1659
 6830SOL    HW231953   0.552   4.699  17.056  1.0159 -0.7121  0.0097
 6831SOL     OW31954   3.291   4.267   2.249 -0.1629  0.3728 -0.1238
 6831SOL    HW131955   3.380   4.300   2.247 -1.1443  3.1468  2.4913
 6831SOL    HW231956   3.319   4.180   2.276 -1.6323 -0.6377 -1.8382
 6832SOL     OW31957   1.311   1.571   6.571 -0.0570  0.0229 -0.2960
 6832SOL    HW131958   1.328   1.603   6.483 -0.4036 -0.4440 -0.5312
 6832SOL    HW231959   1.234   1.517   6.551  0.0884  0.1180 -1.0825
 6833SOL     OW31960   1.981   4.373   2.222  0.4256 -0.2040  0.3663
 6833SOL    HW131961   1.936   4.457   2.211  0.0346 -0.8165 -2.7434
 6833SOL    HW231962   1.941   4.339   2.301 -0.8091 -3.6700 -1.7521
 6834SOL     OW31963   2.579   1.834   5.314 -0.0171  0.8792 -0.2723
 6834SOL    HW131964   2.517   1.768   5.283 -0.5096  0.7506  0.9678
 6834SOL    HW231965   2.602   1.874   5.230  2.0863  0.2420 -0.0019
 6835SOL     OW31966   4.435   2.841   9.170  0.4254  0.3732  0.5169
 6835SOL    HW131967   4.515   2.893   9.161  2.6568 -3.1239 -0.0005
 6835SOL    HW231968   4.398   2.890   9.243  0.1816 -1.8030  1.8350
 6836SOL     OW31969   3.133   4.314   4.219  0.1996 -0.0433  0.1649
 6836SOL    HW131970   3.084   4.395   4.205 -1.3646 -0.7354  1.7287
 6836SOL    HW231971   3.119   4.291   4.127  1.2688 -2.0805  0.5164
 6837SOL     OW31972   4.202   1.795   8.202  0.0252  0.5525 -0.0980
 6837SOL    HW131973   4.157   1.822   8.282 -0.6883 -0.6102 -0.1141
 6837SOL    HW231974   4.163   1.709   8.186  1.1639  0.2635 -1.3158
 6838SOL     OW31975   1.889   2.869  15.803 -0.3380 -0.1431  0.4503
 6838SOL    HW131976   1.805   2.881  15.847 -0.6147  0.6803 -0.2977
 6838SOL    HW231977   1.894   2.958  15.768 -0.7919 -0.4016 -0.2845
 6839SOL     OW31978   2.818   4.057  16.937 -0.0036  0.2228  0.4756
 6839SOL    HW131979   2.835   4.108  17.016 -1.1110  2.3536 -0.6486
 6839SOL    HW231980   2.893   3.998  16.936 -0.2737 -0.1106 -0.3878
 6840SOL     OW31981   2.906   0.409   7.983 -0.1707 -0.4226  0.3654
 6840SOL    HW131982   2.927   0.368   7.899 -0.9674  1.6035 -0.8052
 6840SOL    HW231983   2.935   0.500   7.978 -1.4494  0.0674  2.2047
 6841SOL     OW31984   2.817   3.883   7.124  0.0880 -0.4783 -0.6903
 6841SOL    HW131985   2.730   3.868   7.161 -0.8340  0.5490 -2.3956
 6841SOL    HW231986   2.820   3.837   7.040  1.1963 -2.1071  0.2543
 6842SOL     OW31987   4.580   1.869  15.022  0.2555 -0.0500 -0.0735
 6842SOL    HW131988   4.599   1.850  15.114 -0.7761  1.3443  0.4174
 6842SOL    HW231989   4.557   1.779  14.998 -2.3009  0.6671 -0.2330
 6843SOL     OW31990   1.502   2.046   8.072  0.1503 -0.0045  0.5349
 6843SOL    HW131991   1.525   1.983   8.004 -1.7108  1.6321 -1.6002
 6843SOL    HW231992   1.454   1.990   8.133 -0.0975 -0.4683 -0.0969
 6844SOL     OW31993   3.127   1.717   0.368  0.0516  0.4016 -0.1368
 6844SOL    HW131994   3.060   1.765   0.319  0.6733 -0.9056 -2.2527
 6844SOL    HW231995   3.127   1.756   0.456  2.7967 -2.5859  1.1742
 6845SOL     OW31996   2.824   0.580  13.597  0.2453  0.2393  0.7481
 6845SOL    HW131997   2.782   0.520  13.658  0.2209  0.5138  1.0026
 6845SOL    HW231998   2.808   0.662  13.643  1.7593  1.1986 -0.4096
 6846SOL     OW31999   1.969   4.617  16.431 -0.1203 -0.3638 -0.5584
 6846SOL    HW132000   1.906   4.548  16.448  1.9049 -2.5128 -1.7484
 6846SOL    HW232001   2.053   4.574  16.451  0.5911  1.5301  0.5683
 6847SOL     OW32002   4.119   3.440   4.421 -0.1335  0.1023 -0.0038
 6847SOL    HW132003   4.064   3.472   4.493 -0.4961 -1.4423  0.4156
 6847SOL    HW232004   4.186   3.388   4.467 -0.0725 -0.1085 -0.3326
 6848SOL     OW32005   4.685   0.550   6.710 -0.2755  0.0398  0.7091
 6848SOL    HW132006   4.701   0.455   6.703 -0.0123  0.1295  0.0848
 6848SOL    HW232007   4.696   0.561   6.805  0.6869 -1.0170  0.7334
 6849SOL     OW32008   3.827   1.400  16.730  0.3617  0.2398  0.2789
 6849SOL    HW132009   3.857   1.415  16.641  0.7740  0.2257  0.4138
 6849SOL    HW232010   3.790   1.312  16.717  0.7429  0.1825 -0.3803
 6850SOL     OW32011   1.391   3.288   3.270 -0.7811  0.1447  0.4515
 6850SOL    HW132012   1.358   3.336   3.194 -0.1758  1.9165  1.3063
 6850SOL    HW232013   1.448   3.350   3.316 -0.4352 -0.5847  1.0125
 6851SOL     OW32014   3.411   3.747  11.267  0.2583  0.1706 -0.0557
 6851SOL    HW132015   3.355   3.816  11.231  1.8905  0.4006 -2.1412
 6851SOL    HW232016   3.431   3.793  11.349 -0.5060  0.3018  0.0537
 6852SOL     OW32017   1.932   4.313  13.092  0.5843 -0.3660 -0.8116
 6852SOL    HW132018   1.986   4.358  13.026  0.0781  1.4334  0.0103
 6852SOL    HW232019   1.869   4.385  13.095  0.9795 -0.0959  1.1200
 6853SOL     OW32020   2.238   1.061   0.348  0.3760  0.3009  0.0079
 6853SOL    HW132021   2.237   1.154   0.326 -1.0613 -0.0126 -1.2281
 6853SOL    HW232022   2.145   1.044   0.362  0.5671 -1.1301 -0.4528
 6854SOL     OW32023   2.957   0.904   1.817  0.2486  0.1243 -0.3975
 6854SOL    HW132024   2.975   0.970   1.750 -0.7907 -1.2699 -2.0380
 6854SOL    HW232025   2.864   0.882   1.819  0.0605  1.0201  1.3087
 6855SOL     OW32026   0.473   2.392   1.581 -0.3318  0.4615  0.1674
 6855SOL    HW132027   0.511   2.470   1.622 -1.8470  2.3259 -2.0016
 6855SOL    HW232028   0.393   2.439   1.559  0.2576  1.7063  0.6485
 6856SOL     OW32029   3.772   2.397   8.943 -0.8610  0.2927  0.2121
 6856SOL    HW132030   3.722   2.323   8.908 -1.0923  0.7202 -0.3503
 6856SOL    HW232031   3.830   2.423   8.871  1.4138 -2.9649  0.8036
 6857SOL     OW32032   3.465   0.890  13.199  0.0588 -0.3198  0.2299
 6857SOL    HW132033   3.370   0.894  13.205 -0.1841 -2.3607 -2.1412
 6857SOL    HW232034   3.487   0.800  13.225 -0.9303 -0.8565 -0.7704
 6858SOL     OW32035   2.876   1.309  12.043  0.4373  0.4535  0.2415
 6858SOL    HW132036   2.790   1.329  12.004  0.1927 -1.7267 -0.3199
 6858SOL    HW232037   2.860   1.345  12.130  1.2278  0.5553  0.3385
 6859SOL     OW32038   0.050   1.289  15.455  0.2959  0.0008 -0.3415
 6859SOL    HW132039   0.116   1.235  15.500 -0.3619  0.6352  1.3736
 6859SOL    HW232040   4.688   1.247  15.473 -0.1950  1.3335  0.4222
 6860SOL     OW32041   2.464   0.232   4.226  0.2259 -0.6331  0.2253
 6860SOL    HW132042   2.522   0.261   4.297  0.3014  1.6033 -0.7545
 6860SOL    HW232043   2.513   0.261   4.149 -2.0673  0.9462 -0.6484
 6861SOL     OW32044   4.368   0.652   4.737  0.1581  0.2440 -0.2707
 6861SOL    HW132045   4.291   0.605   4.706 -0.5553  0.0616  1.7897
 6861SOL    HW232046   4.442   0.591   4.731 -0.0404 -0.0142 -0.0878
 6862SOL     OW32047   0.018   2.666  15.372  0.1755 -0.2424 -0.1442
 6862SOL    HW132048   0.106   2.682  15.405 -0.1342  1.6568 -0.2499
 6862SOL    HW232049   0.038   2.626  15.287 -0.1254 -0.3470 -0.1627
 6863SOL     OW32050   1.696   0.692   2.985  0.2465  0.4200 -0.1614
 6863SOL    HW132051   1.608   0.726   2.999  0.3813  0.8235 -0.3083
 6863SOL    HW232052   1.748   0.770   3.004 -0.3656  0.6542  0.5244
 6864SOL     OW32053   2.915   4.577  13.511 -0.1900 -0.2452 -0.2846
 6864SOL    HW132054   2.913   4.629  13.590 -2.5581 -0.8617  0.0455
 6864SOL    HW232055   2.845   4.515  13.531 -0.1093 -0.2951 -0.1611
 6865SOL     OW32056   1.325   2.768  13.618  0.2051  0.3212  0.5412
 6865SOL    HW132057   1.326   2.676  13.590  0.9788  0.8395 -1.1147
 6865SOL    HW232058   1.406   2.805  13.583  0.3854 -1.0566 -0.5149
 6866SOL     OW32059   3.530   3.384  14.198  0.3433 -0.0695  0.1127
 6866SOL    HW132060   3.568   3.299  14.178 -0.3713  0.0839 -1.8840
 6866SOL    HW232061   3.527   3.435  14.117 -1.5453 -0.6306 -0.1621
 6867SOL     OW32062   0.964   4.143   2.211 -0.3487  0.5494 -0.8932
 6867SOL    HW132063   1.000   4.089   2.141  0.8758  1.3641 -0.8944
 6867SOL    HW232064   1.019   4.128   2.288 -2.6200  0.5150  0.7310
 6868SOL     OW32065   1.189   0.635  16.953  0.4933 -0.4516 -0.5752
 6868SOL    HW132066   1.280   0.622  16.927  0.2859  1.5193 -2.2666
 6868SOL    HW232067   1.176   0.568  17.020  2.1326 -0.8005 -0.5937
 6869SOL     OW32068   1.842   0.270   5.317 -0.3747  0.4465  0.0308
 6869SOL    HW132069   1.813   0.191   5.362  0.4491 -0.5234 -1.1394
 6869SOL    HW232070   1.922   0.242   5.273 -0.0056  0.7498  0.4967
 6870SOL     OW32071   3.470   1.743   9.404  1.1229 -0.3847  0.0298
 6870SOL    HW132072   3.385   1.707   9.427  1.8050 -1.0395  1.5685
 6870SOL    HW232073   3.523   1.717   9.480 -1.6774 -1.6242  1.5271
 6871SOL     OW32074   0.194   4.430   5.346 -0.9130 -0.0933 -0.2815
 6871SOL    HW132075   0.271   4.397   5.391 -1.1013 -0.6135 -0.3476
 6871SOL    HW232076   0.223   4.469   5.264 -0.3309 -0.2526 -0.1479
 6872SOL     OW32077   2.308   0.564   8.998  0.3719  0.3957 -0.6582
 6872SOL    HW132078   2.305   0.569   8.903  2.7648 -0.4145 -0.7699
 6872SOL    HW232079   2.358   0.643   9.015 -2.7292  2.3278 -0.4317
 6873SOL     OW32080   0.898   2.428  10.439 -0.4376  0.2957  0.2058
 6873SOL    HW132081   0.990   2.423  10.465 -0.0770  1.6341 -0.8503
 6873SOL    HW232082   0.843   2.393  10.510  1.1577 -1.2109  0.7022
 6874SOL     OW32083   3.805   1.317   7.403  0.1585 -0.1469  0.3125
 6874SOL    HW132084   3.745   1.293   7.332  0.5252  0.9105 -0.3561
 6874SOL    HW232085   3.784   1.249   7.466  1.2188 -0.0603  0.7588
 6875SOL     OW32086   3.027   2.499   3.409 -0.5336  0.0342  0.8745
 6875SOL    HW132087   2.953   2.560   3.415 -1.5129 -1.3662  2.9309
 6875SOL    HW232088   3.029   2.494   3.313  2.4947  1.3042  0.8599
 6876SOL     OW32089   0.289   0.668  12.586  0.0914 -0.5809 -0.8885
 6876SOL    HW132090   0.235   0.628  12.518  0.3689 -1.1427 -0.7731
 6876SOL    HW232091   0.377   0.670  12.548  0.5764  0.1422  0.2779
 6877SOL     OW32092   4.445   4.162   3.662  0.0119  0.3901  1.1298
 6877SOL    HW132093   4.501   4.148   3.739 -0.0467 -2.7642  0.6092
 6877SOL    HW232094   4.409   4.247   3.687 -0.0655  0.6660  0.0700
 6878SOL     OW32095   2.084   1.769   8.582 -0.1003  0.4352  0.2627
 6878SOL    HW132096   1.991   1.744   8.584 -0.6798  2.5725  0.6745
 6878SOL    HW232097   2.129   1.713   8.645  0.2494  0.2454 -0.1614
 6879SOL     OW32098   0.452   3.942   3.132 -0.3004  0.8636  0.7361
 6879SOL    HW132099   0.510   3.875   3.169  0.9864  0.8921 -1.2126
 6879SOL    HW232100   0.369   3.909   3.166 -1.8283  0.1396 -3.6387
 6880SOL     OW32101   2.353   2.127  15.939  0.1822  0.0399 -0.3327
 6880SOL    HW132102   2.308   2.045  15.915  1.1011 -0.4817 -0.2652
 6880SOL    HW232103   2.343   2.176  15.858  3.5324 -1.7970 -1.8334
 6881SOL     OW32104   2.413   1.493  16.445 -0.2608 -0.3375  0.2732
 6881SOL    HW132105   2.380   1.549  16.516  0.9609  0.8538 -0.1071
 6881SOL    HW232106   2.354   1.517  16.373  1.2336 -1.7535 -1.4287
 6882SOL     OW32107   2.535   1.860   7.962  0.5367  0.2829 -0.3388
 6882SOL    HW132108   2.470   1.918   7.923  0.4522 -0.7178 -1.6843
 6882SOL    HW232109   2.616   1.886   7.917  0.8368  0.4688  0.3142
 6883SOL     OW32110   2.471   2.148   8.502 -0.1287 -0.3480  0.5687
 6883SOL    HW132111   2.376   2.141   8.491 -0.1060  0.5002 -0.2236
 6883SOL    HW232112   2.509   2.061   8.510  1.1265  0.4236  2.8481
 6884SOL     OW32113   3.900   1.362   6.127 -0.1498 -0.4097  0.3514
 6884SOL    HW132114   3.879   1.281   6.080 -0.8037  0.7439 -1.3578
 6884SOL    HW232115   3.931   1.327   6.210 -0.0214 -2.5475 -0.5860
 6885SOL     OW32116   3.684   3.881   5.377 -0.0740  0.0958 -0.1804
 6885SOL    HW132117   3.623   3.871   5.303 -2.6585  0.8547  1.8558
 6885SOL    HW232118   3.624   3.873   5.451  0.5763 -2.0910  0.1154
 6886SOL     OW32119   2.987   4.538   3.548  0.0562  0.5150 -0.0458
 6886SOL    HW132120   3.013   4.613   3.494 -1.0595  1.4323  0.6963
 6886SOL    HW232121   2.938   4.486   3.484 -0.9102  2.1125 -0.6083
 6887SOL     OW32122   2.612   3.584   2.153  0.1259  0.6816  0.1061
 6887SOL    HW132123   2.572   3.499   2.172  1.8913 -0.7730 -2.6338
 6887SOL    HW232124   2.584   3.601   2.063 -1.4671  1.7455  0.7931
 6888SOL     OW32125   2.253   3.349   7.142 -0.1676  0.2459 -0.1658
 6888SOL    HW132126   2.256   3.438   7.178 -1.0129  1.0498 -2.0683
 6888SOL    HW232127   2.169   3.357   7.096  0.8756  1.8849 -1.8022
 6889SOL     OW32128   3.629   2.140  13.993  0.2687 -0.5313 -0.3304
 6889SOL    HW132129   3.578   2.148  13.912  4.4308  1.7927 -2.7407
 6889SOL    HW232130   3.689   2.214  13.984  0.7113 -0.6945  1.2370
 6890SOL     OW32131   2.360   3.197   2.557 -0.1071  0.3287  0.3900
 6890SOL    HW132132   2.405   3.223   2.477 -0.6286  0.2297  0.0655
 6890SOL    HW232133   2.410   3.238   2.628  2.1150 -0.6156 -0.6324
 6891SOL     OW32134   4.380   4.114   5.673  0.1324  0.2126  0.0642
 6891SOL    HW132135   4.395   4.061   5.751  0.3768  0.7004  0.3445
 6891SOL    HW232136   4.442   4.185   5.685 -0.2277  0.7645 -1.3009
 6892SOL     OW32137   2.152   3.866   5.726  0.4984  0.4474  0.7645
 6892SOL    HW132138   2.126   3.947   5.771 -1.7697  0.3649 -0.3634
 6892SOL    HW232139   2.081   3.860   5.662 -0.3099  2.1183  1.4984
 6893SOL     OW32140   3.957   2.336  14.025 -0.1258 -0.2942  0.9038
 6893SOL    HW132141   3.884   2.397  14.010  0.1838 -0.4281 -1.1002
 6893SOL    HW232142   3.978   2.304  13.938 -2.5298  1.6925 -0.4246
 6894SOL     OW32143   3.830   0.947   6.700  0.4071  0.1086  0.6359
 6894SOL    HW132144   3.741   0.917   6.721  0.6695 -0.0288  1.5403
 6894SOL    HW232145   3.886   0.885   6.747  1.6902  0.0455 -0.9827
 6895SOL     OW32146   4.144   3.469  11.263 -0.3563 -0.1614 -0.3980
 6895SOL    HW132147   4.202   3.524  11.211 -0.3986 -1.6082 -1.9678
 6895SOL    HW232148   4.210   3.430  11.320  0.5956 -0.0879 -1.4581
 6896SOL     OW32149   3.798   3.071   4.305 -0.4546 -0.2788 -0.3016
 6896SOL    HW132150   3.810   2.999   4.243  0.4187 -0.7578  0.4185
 6896SOL    HW232151   3.713   3.105   4.279 -0.0904  0.3943 -0.6035
 6897SOL     OW32152   3.515   0.920   6.334  0.7477 -0.0398  0.7224
 6897SOL    HW132153   3.525   1.011   6.308  2.7291 -1.1650 -2.4742
 6897SOL    HW232154   3.465   0.893   6.257 -1.3235 -0.2639  2.1482
 6898SOL     OW32155   0.990   1.086  11.705  0.2964 -0.5191  0.1444
 6898SOL    HW132156   1.035   1.116  11.784  1.2154  1.1713 -1.0192
 6898SOL    HW232157   0.958   1.170  11.672  0.9173 -0.5299 -0.5061
 6899SOL     OW32158   3.951   0.618   8.147 -0.1306  0.4334 -0.6975
 6899SOL    HW132159   3.911   0.593   8.231  1.4807 -0.3622 -0.1664
 6899SOL    HW232160   3.987   0.704   8.169  0.1421  0.0508  0.3493
 6900SOL     OW32161   4.530   4.218  11.910 -0.7507  0.0605  0.1619
 6900SOL    HW132162   4.552   4.263  11.991 -2.5233  1.6569 -0.2320
 6900SOL    HW232163   4.448   4.175  11.936 -1.5289  0.9310 -0.8305
 6901SOL     OW32164   1.778   1.400   1.067  0.0616 -0.1402 -0.1384
 6901SOL    HW132165   1.782   1.317   1.114  1.2610  1.0808  1.9115
 6901SOL    HW232166   1.872   1.415   1.058 -0.4581  1.0075 -3.7475
 6902SOL     OW32167   0.072   1.354   5.538 -0.6334  0.0528  0.2473
 6902SOL    HW132168   0.110   1.442   5.532 -0.4766 -0.3513 -4.4933
 6902SOL    HW232169   0.068   1.327   5.446  0.7423 -1.2249  0.5681
 6903SOL     OW32170   1.929   0.318   6.511 -0.5612  0.0989  0.3285
 6903SOL    HW132171   1.886   0.302   6.427  1.2502  1.0574 -0.7718
 6903SOL    HW232172   1.880   0.253   6.562  2.0755 -1.5778  0.7285
 6904SOL     OW32173   4.361   0.351   7.501 -0.0894  0.8495 -0.1343
 6904SOL    HW132174   4.321   0.398   7.428  0.6725  1.8088  0.0665
 6904SOL    HW232175   4.291   0.349   7.566 -0.6028 -0.9929 -0.7404
 6905SOL     OW32176   0.495   3.468  12.271  0.3450  0.3981 -0.3881
 6905SOL    HW132177   0.511   3.374  12.267 -0.7783  0.1210  1.3112
 6905SOL    HW232178   0.585   3.498  12.256  0.3656  0.6472  0.2385
 6906SOL     OW32179   2.451   0.884   1.603  0.7128  0.0397  0.0505
 6906SOL    HW132180   2.461   0.792   1.578  1.6697  0.0713  0.3179
 6906SOL    HW232181   2.382   0.877   1.669  3.1031 -0.5012  2.4483
 6907SOL     OW32182   3.923   1.488  13.681  0.6253  0.3059 -0.3810
 6907SOL    HW132183   3.913   1.394  13.690  0.6059  0.5034  1.5964
 6907SOL    HW232184   3.849   1.522  13.731 -0.0742  1.7507 -2.3703
 6908SOL     OW32185   1.864   0.074   3.190  0.3653 -0.4291 -0.7158
 6908SOL    HW132186   1.926   0.023   3.138 -1.3811 -0.1303 -3.0708
 6908SOL    HW232187   1.787   0.038   3.147 -2.4708  1.6399  2.6540
 6909SOL     OW32188   3.404   1.160   4.009  0.1859 -0.2711 -0.1705
 6909SOL    HW132189   3.431   1.127   3.923  1.4442  0.4063 -0.0187
 6909SOL    HW232190   3.424   1.253   4.002  1.0356 -0.4604 -0.1698
 6910SOL     OW32191   2.619   2.609  14.182 -0.0305 -0.4521 -0.2966
 6910SOL    HW132192   2.529   2.639  14.167 -0.2003  0.2883  2.1156
 6910SOL    HW232193   2.622   2.600  14.277  0.7123 -0.9766 -0.3737
 6911SOL     OW32194   2.870   4.124   6.550  0.0294 -0.0403  0.1087
 6911SOL    HW132195   2.883   4.218   6.537  0.6740  0.0844  1.6337
 6911SOL    HW232196   2.816   4.121   6.629  0.8550  2.6211  0.7703
 6912SOL     OW32197   3.993   1.139   2.534 -0.3143 -0.5437  0.3973
 6912SOL    HW132198   3.994   1.086   2.614 -0.0817 -1.6084 -0.3241
 6912SOL    HW232199   3.907   1.116   2.499  0.0425  0.3454 -1.0541
 6913SOL     OW32200   3.453   1.190   8.501  0.1524 -0.6937 -0.1248
 6913SOL    HW132201   3.533   1.242   8.501  1.9993 -3.5863 -2.0409
 6913SOL    HW232202   3.387   1.251   8.467  2.4943  1.2731 -1.1645
 6914SOL     OW32203   1.533   4.367   1.115 -0.0155  0.2397  0.1195
 6914SOL    HW132204   1.469   4.296   1.127  2.4055 -2.2916 -1.9289
 6914SOL    HW232205   1.504   4.414   1.036  0.1458 -0.4551 -0.3546
 6915SOL     OW32206   0.008   1.959   9.395  0.1622  0.5327  0.5061
 6915SOL    HW132207   4.694   1.991   9.478 -2.5093 -0.0906 -0.4239
 6915SOL    HW232208   4.682   1.877   9.389  1.1311 -0.0197  0.2242
 6916SOL     OW32209   4.039   1.485   1.818  0.0274 -0.3164  0.0177
 6916SOL    HW132210   3.958   1.434   1.825  1.3331 -2.2588  1.0359
 6916SOL    HW232211   4.004   1.567   1.853  0.3084  1.0363 -2.8603
 6917SOL     OW32212   4.110   0.219   8.678 -0.0993 -0.3613  0.3424
 6917SOL    HW132213   4.193   0.200   8.722  0.2483  1.7820  0.6194
 6917SOL    HW232214   4.117   0.179   8.592 -1.3644  0.6842 -0.2531
 6918SOL     OW32215   1.217   0.110  12.766 -0.4652 -0.3807  0.5955
 6918SOL    HW132216   1.125   0.111  12.793 -1.5092 -0.5732 -2.8809
 6918SOL    HW232217   1.242   0.202  12.759 -1.4346 -0.1896 -0.3574
 6919SOL     OW32218   3.731   1.069   2.516  0.5569  0.3636  0.4640
 6919SOL    HW132219   3.677   1.008   2.467  0.3424 -0.0389  1.2025
 6919SOL    HW232220   3.668   1.113   2.573  1.5755  1.1697  0.9954
 6920SOL     OW32221   2.397   2.523   8.754  0.3946 -0.1817  0.5860
 6920SOL    HW132222   2.439   2.462   8.694 -0.5330 -0.0528 -0.1799
 6920SOL    HW232223   2.473   2.567   8.793  0.9585 -1.4689  0.9289
 6921SOL     OW32224   0.299   4.167   6.286  0.5547 -0.0692 -0.1917
 6921SOL    HW132225   0.336   4.256   6.283 -1.1113  0.6454  0.7866
 6921SOL    HW232226   0.377   4.111   6.284  0.7271  0.1304  0.9288
 6922SOL     OW32227   2.002   1.746   4.519  0.0807 -0.2118  0.3485
 6922SOL    HW132228   1.968   1.834   4.539  1.6191  0.2410  0.9463
 6922SOL    HW232229   2.002   1.739   4.424  1.2021 -2.1248  0.4932
 6923SOL     OW32230   1.399   3.762   5.638  0.0228 -0.8338  0.9855
 6923SOL    HW132231   1.343   3.840   5.646  0.8177 -0.2092  0.4205
 6923SOL    HW232232   1.337   3.701   5.679 -2.7728  0.9047 -0.6572
 6924SOL     OW32233   1.113   1.101   8.266  0.1601  0.8007 -0.1893
 6924SOL    HW132234   1.057   1.024   8.256  1.2137  0.1306 -0.8652
 6924SOL    HW232235   1.186   1.066   8.316  1.6760  4.1810 -0.0293
 6925SOL     OW32236   4.540   1.910  12.223  0.0011 -0.6230 -0.1275
 6925SOL    HW132237   4.621   1.880  12.181  0.4038 -0.6310  0.6567
 6925SOL    HW232238   4.514   1.978  12.161 -0.7666 -0.9800 -0.1937
 6926SOL     OW32239   3.374   1.925   4.227 -0.5343  0.2099  0.1731
 6926SOL    HW132240   3.318   1.942   4.151  1.2868 -0.1732 -1.2658
 6926SOL    HW232241   3.382   1.830   4.217  0.2770  0.0581  2.3079
 6927SOL     OW32242   4.249   2.916   8.086 -0.2743  0.0977  0.4384
 6927SOL    HW132243   4.326   2.859   8.090 -0.3345 -0.0546 -0.6391
 6927SOL    HW232244   4.227   2.920   7.993  0.2671  0.4486  0.3239
 6928SOL     OW32245   1.044   3.618   8.494  0.3083 -0.4045  0.0992
 6928SOL    HW132246   1.019   3.657   8.578 -3.1707  0.6940 -1.4190
 6928SOL    HW232247   1.104   3.555   8.533  0.3748 -0.5807 -0.2942
 6929SOL     OW32248   4.100   0.118   9.142 -0.0645  0.2313  0.0232
 6929SOL    HW132249   4.159   0.056   9.097  1.1065 -0.5328  2.6391
 6929SOL    HW232250   4.022   0.080   9.102 -0.0247 -1.0215  1.1173
 6930SOL     OW32251   1.854   2.207   4.056  0.5892 -0.6141 -0.0995
 6930SOL    HW132252   1.862   2.116   4.084 -0.2747 -0.4655  0.6164
 6930SOL    HW232253   1.878   2.259   4.133 -1.3167 -1.2295  0.9130
 6931SOL     OW32254   0.843   3.239  10.247 -0.4631 -0.1721 -1.1804
 6931SOL    HW132255   0.815   3.149  10.260 -0.0930 -0.2082 -0.6573
 6931SOL    HW232256   0.755   3.278  10.254 -0.7247 -1.1616  0.8640
 6932SOL     OW32257   0.945   0.753   8.803  0.1151  0.5969  0.2796
 6932SOL    HW132258   0.959   0.752   8.708 -0.1232 -1.5724  0.2631
 6932SOL    HW232259   0.888   0.682   8.832  2.0192 -1.4698 -1.0593
 6933SOL     OW32260   4.488   2.165   7.360  0.5515  0.3911 -0.3101
 6933SOL    HW132261   4.410   2.186   7.310 -1.4443 -3.1918  1.2687
 6933SOL    HW232262   4.547   2.216   7.304  1.7522 -0.5653  0.0772
 6934SOL     OW32263   1.425   3.944  13.062  0.0077  0.4643  0.6919
 6934SOL    HW132264   1.371   3.958  12.984  0.4130 -1.8925 -0.0245
 6934SOL    HW232265   1.367   3.977  13.130  0.2721  1.4836  0.4291
 6935SOL     OW32266   4.658   4.623   1.364  0.1568  0.4144 -0.2026
 6935SOL    HW132267   4.694   4.699   1.318 -2.1940 -0.1622 -2.9687
 6935SOL    HW232268   4.682   4.545   1.314 -0.4008  0.7975 -1.0611
 6936SOL     OW32269   0.157   2.190  16.724  0.2157  0.6848 -0.2355
 6936SOL    HW132270   0.062   2.196  16.712  0.2863  2.2978 -0.0049
 6936SOL    HW232271   0.167   2.257  16.792  1.4409 -0.4184  0.6640
 6937SOL     OW32272   2.816   1.879   0.444  0.3432  0.8893 -0.2832
 6937SOL    HW132273   2.879   1.885   0.373 -0.3605  0.8028 -0.9101
 6937SOL    HW232274   2.867   1.887   0.525 -0.7000 -0.2030  0.4790
 6938SOL     OW32275   2.204   1.517   5.360 -0.0565  0.5413 -0.0385
 6938SOL    HW132276   2.124   1.498   5.408  0.2544  0.8011  0.5868
 6938SOL    HW232277   2.242   1.430   5.345 -1.7727 -0.3499  0.8070
 6939SOL     OW32278   2.827   3.370   1.047 -0.3184  0.1663 -0.4930
 6939SOL    HW132279   2.751   3.322   1.081  0.4670 -0.5298  0.2595
 6939SOL    HW232280   2.789   3.458   1.043 -2.6796 -0.8258 -0.1228
 6940SOL     OW32281   3.396   2.891  12.864 -0.2522  0.4211  0.3748
 6940SOL    HW132282   3.435   2.804  12.866 -0.2843  0.3973 -0.0988
 6940SOL    HW232283   3.395   2.904  12.959  2.0185  0.5205  0.3771
 6941SOL     OW32284   3.817   3.472   3.147  0.0207  0.1039 -0.2589
 6941SOL    HW132285   3.783   3.552   3.107 -1.0097 -0.6650 -0.8866
 6941SOL    HW232286   3.759   3.407   3.108 -2.5210 -0.2804  4.1977
 6942SOL     OW32287   2.756   0.663   7.706  0.0314  0.3145 -0.5065
 6942SOL    HW132288   2.748   0.570   7.725  1.2057  0.3024 -0.0799
 6942SOL    HW232289   2.758   0.693   7.797 -2.9026 -3.8159  0.9011
 6943SOL     OW32290   1.757   2.500   3.780 -0.1449 -0.6342  0.5397
 6943SOL    HW132291   1.666   2.528   3.786  0.1866  0.6231 -0.2856
 6943SOL    HW232292   1.800   2.546   3.852  1.1313  0.5728 -1.0019
 6944SOL     OW32293   4.425   4.349   8.476 -0.6692  0.3715 -0.5373
 6944SOL    HW132294   4.420   4.255   8.458  1.0234 -0.0440  1.1891
 6944SOL    HW232295   4.364   4.384   8.411 -0.7919 -0.5129 -0.9050
 6945SOL     OW32296   2.508   2.307   5.143  0.2674  0.2833 -0.2920
 6945SOL    HW132297   2.477   2.346   5.061  1.9936  1.7451 -0.2554
 6945SOL    HW232298   2.434   2.259   5.180 -1.3091  1.0174 -2.4826
 6946SOL     OW32299   3.830   4.210  17.136 -0.9133 -0.0148 -0.1026
 6946SOL    HW132300   3.757   4.265  17.164  0.8155  2.4109 -0.3632
 6946SOL    HW232301   3.887   4.273  17.093 -1.2642 -0.0820 -0.6592
 6947SOL     OW32302   0.931   2.146  11.440  0.1738  0.3410  0.1515
 6947SOL    HW132303   0.851   2.198  11.454  0.1640 -0.1576  2.0311
 6947SOL    HW232304   0.975   2.194  11.370 -0.7483 -0.9356 -1.2869
 6948SOL     OW32305   2.818   3.493   3.600  0.1386  0.7505  0.3261
 6948SOL    HW132306   2.739   3.547   3.592 -0.3118  0.0023 -0.4042
 6948SOL    HW232307   2.876   3.525   3.531 -0.3876  1.9836  0.4549
 6949SOL     OW32308   0.827   2.402  10.193  0.5411 -0.2032 -0.1995
 6949SOL    HW132309   0.863   2.401  10.282  0.9152  1.1518 -0.3323
 6949SOL    HW232310   0.734   2.424  10.204  0.8800  2.0798 -1.7185
 6950SOL     OW32311   0.471   1.447  16.667 -0.2250 -0.3463 -0.1680
 6950SOL    HW132312   0.539   1.407  16.721  0.5400 -0.0044 -0.8728
 6950SOL    HW232313   0.523   1.443  16.588  1.3844 -0.3295  0.8860
 6951SOL     OW32314   2.126   0.178   5.744 -0.3302  0.3002  0.1546
 6951SOL    HW132315   2.053   0.219   5.698 -1.7499  0.4713  2.5783
 6951SOL    HW232316   2.078   0.097   5.760 -1.4650  0.8043 -0.7350
 6952SOL     OW32317   0.867   0.846   3.426 -0.3696 -0.0439 -0.2863
 6952SOL    HW132318   0.773   0.859   3.414 -0.8757 -3.1209  0.2361
 6952SOL    HW232319   0.885   0.769   3.372 -2.3662 -0.9878  0.3796
 6953SOL     OW32320   4.015   3.120  10.291 -0.3807 -0.1612  0.0480
 6953SOL    HW132321   3.963   3.143  10.368  0.1316 -3.2213  1.2874
 6953SOL    HW232322   4.103   3.140  10.324 -0.1005 -1.7617  0.2432
 6954SOL     OW32323   3.781   0.881   1.528 -0.1913 -0.2484  0.0343
 6954SOL    HW132324   3.747   0.971   1.532  1.0365  0.1709  1.0672
 6954SOL    HW232325   3.873   0.898   1.549 -0.4097 -0.6222  1.2913
 6955SOL     OW32326   2.517   2.863   5.234  0.1850  0.3886 -0.1193
 6955SOL    HW132327   2.598   2.878   5.282 -0.0297  0.5912  0.1802
 6955SOL    HW232328   2.490   2.782   5.277 -0.2431  0.7392  0.2780
 6956SOL     OW32329   0.100   2.851   0.853  0.2779  0.5370  0.2416
 6956SOL    HW132330   0.099   2.931   0.904  3.1129  1.3047 -0.8985
 6956SOL    HW232331   0.006   2.829   0.852  1.0079 -2.5632  0.7227
 6957SOL     OW32332   0.965   3.311   6.768 -0.4533  0.1356 -0.1744
 6957SOL    HW132333   1.004   3.329   6.682  1.0981 -0.4457  0.3990
 6957SOL    HW232334   0.909   3.238   6.742 -0.9729  0.6144 -0.3965
 6958SOL     OW32335   0.090   2.825   6.231 -0.1097  0.4391 -0.2652
 6958SOL    HW132336   0.048   2.878   6.163 -0.7825 -1.7523 -1.5585
 6958SOL    HW232337   0.147   2.884   6.279  0.0080 -0.0593  0.2025
 6959SOL     OW32338   4.116   4.049   2.542  0.2006  0.0115 -0.0077
 6959SOL    HW132339   4.066   4.061   2.462 -0.0569 -1.5313 -0.0786
 6959SOL    HW232340   4.192   3.997   2.515  1.2259  1.9112 -0.7414
 6960SOL     OW32341   3.533   4.602   7.707  0.0580 -0.5897  0.4816
 6960SOL    HW132342   3.570   4.525   7.749 -0.6789 -0.0824  2.0611
 6960SOL    HW232343   3.463   4.563   7.655  0.6434 -1.5436  0.4134
 6961SOL     OW32344   3.715   2.359   9.472 -0.5410 -0.5519 -0.4246
 6961SOL    HW132345   3.640   2.417   9.461  0.7003  1.3474  1.2364
 6961SOL    HW232346   3.685   2.312   9.550 -0.9445 -0.2606 -0.4097
 6962SOL     OW32347   1.604   2.187  16.547  0.4021 -0.0890  0.0968
 6962SOL    HW132348   1.510   2.186  16.563 -0.0936 -4.0837 -2.7958
 6962SOL    HW232349   1.622   2.277  16.573  1.6706 -1.2545  3.2149
 6963SOL     OW32350   2.008   1.165   3.545 -0.2492 -0.0900 -0.2892
 6963SOL    HW132351   2.021   1.208   3.630  0.2769 -0.5474 -0.1334
 6963SOL    HW232352   1.987   1.240   3.491 -2.8523 -0.6373 -0.0352
 6964SOL     OW32353   2.968   0.211   3.085 -0.5197 -0.5639  0.2353
 6964SOL    HW132354   2.996   0.273   3.152 -1.5613 -0.2510  0.3809
 6964SOL    HW232355   3.049   0.224   3.036 -0.2623  0.2843  0.8843
 6965SOL     OW32356   0.589   2.672   7.211 -0.1762  0.1881  0.7282
 6965SOL    HW132357   0.538   2.738   7.258 -2.5523 -0.5464 -0.8074
 6965SOL    HW232358   0.566   2.593   7.260 -0.4208 -0.7599 -0.9346
 6966SOL     OW32359   0.435   3.055   9.022 -0.7541 -0.2304  0.4550
 6966SOL    HW132360   0.444   3.082   9.114 -0.0236  1.9281 -0.2522
 6966SOL    HW232361   0.412   3.135   8.976  1.0695  0.5886  0.9716
 6967SOL     OW32362   4.296   2.697   3.145  0.1306 -0.0916 -0.4456
 6967SOL    HW132363   4.221   2.673   3.090 -0.4495 -1.4960  0.9576
 6967SOL    HW232364   4.284   2.791   3.159  1.2062 -0.1552  0.9126
 6968SOL     OW32365   0.261   1.421   4.450 -0.4264 -0.7101  0.0915
 6968SOL    HW132366   0.265   1.516   4.435  0.8268 -0.6196  1.0131
 6968SOL    HW232367   0.201   1.396   4.379 -0.3797 -1.5651  0.3527
 6969SOL     OW32368   1.424   0.031   8.490 -0.5791 -0.1749  0.1935
 6969SOL    HW132369   1.391   4.665   8.509 -0.7114  0.1495  1.4407
 6969SOL    HW232370   1.389   0.087   8.559 -0.9210  0.6178 -0.6191
 6970SOL     OW32371   4.213   1.910   8.886 -0.1641 -0.2758  0.1239
 6970SOL    HW132372   4.155   1.834   8.886 -0.0327 -0.3622  2.7663
 6970SOL    HW232373   4.209   1.937   8.977 -2.0240  1.1844 -0.3760
 6971SOL     OW32374   1.411   3.762   1.952 -0.4096  0.0052  0.3490
 6971SOL    HW132375   1.460   3.843   1.960  0.9005 -0.6558 -0.9377
 6971SOL    HW232376   1.467   3.704   1.899 -0.8831 -0.5250  0.4220
 6972SOL     OW32377   4.672   4.008   4.587  0.2755 -0.5602  0.3388
 6972SOL    HW132378   4.698   4.079   4.646  1.4073  0.3966 -1.2899
 6972SOL    HW232379   0.007   4.010   4.510  0.1975 -0.4210  0.2844
 6973SOL     OW32380   2.809   2.949   3.867 -0.0316 -0.6558 -0.0376
 6973SOL    HW132381   2.756   2.982   3.939  2.6097 -0.5396  1.8801
 6973SOL    HW232382   2.891   2.967   3.913 -0.4156  0.3293  0.2634
 6974SOL     OW32383   1.377   1.412  14.934  0.7835 -0.3235  0.4741
 6974SOL    HW132384   1.289   1.399  14.900 -0.4808  1.7627  2.9305
 6974SOL    HW232385   1.404   1.330  14.977  0.0050 -0.6706  0.3039
 6975SOL     OW32386   2.843   2.081   0.939 -0.6150 -0.3749 -0.2264
 6975SOL    HW132387   2.755   2.113   0.919  0.4307  1.6887 -1.5464
 6975SOL    HW232388   2.810   1.996   0.970  2.0597 -2.3323 -2.7645
 6976SOL     OW32389   3.035   3.765   6.575  0.2587 -0.5834 -0.6190
 6976SOL    HW132390   2.999   3.834   6.631  2.7971  0.4238 -0.2288
 6976SOL    HW232391   3.022   3.683   6.623  2.3577  0.7884  2.3385
 6977SOL     OW32392   2.212   1.456   2.175 -0.3388 -0.1272 -0.1050
 6977SOL    HW132393   2.248   1.373   2.142 -0.1985 -0.1496  0.1015
 6977SOL    HW232394   2.119   1.443   2.156 -0.3793  2.0197 -1.3203
 6978SOL     OW32395   2.390   0.697  15.877 -0.2145 -0.3641 -0.2711
 6978SOL    HW132396   2.417   0.787  15.889 -3.1919  0.7906 -2.1956
 6978SOL    HW232397   2.460   0.654  15.828  1.2196  1.2354  0.4176
 6979SOL     OW32398   3.823   3.305   6.124 -0.1793 -0.1179 -0.6641
 6979SOL    HW132399   3.837   3.229   6.180  2.3640  1.3470  0.7164
 6979SOL    HW232400   3.804   3.261   6.041 -0.5803 -1.8156  0.3382
 6980SOL     OW32401   4.646   0.059   2.505 -0.3794  0.2408 -0.0966
 6980SOL    HW132402   4.697   0.104   2.437 -2.4224  2.2571 -0.2726
 6980SOL    HW232403   4.677   4.691   2.496  0.1126  0.2973  1.0077
 6981SOL     OW32404   1.265   3.911   2.278 -0.0437  0.0068  0.0195
 6981SOL    HW132405   1.245   3.821   2.253  1.1425 -0.7562  1.7988
 6981SOL    HW232406   1.358   3.910   2.302  0.5580  1.3635 -2.1935
 6982SOL     OW32407   4.198   2.185   6.852 -0.3341 -0.4766  0.0155
 6982SOL    HW132408   4.243   2.268   6.832 -0.9415  0.8203  4.1192
 6982SOL    HW232409   4.140   2.182   6.775 -0.1587  1.7025 -0.2166
 6983SOL     OW32410   4.271   3.423  14.471  0.4139  0.0808  0.1689
 6983SOL    HW132411   4.325   3.464  14.403  1.0252 -0.9202  0.0489
 6983SOL    HW232412   4.337   3.411  14.539 -1.5751 -2.7195  1.6119
 6984SOL     OW32413   1.177   3.586  14.239 -0.1496  0.0161  0.1688
 6984SOL    HW132414   1.116   3.656  14.264  1.1332  0.7807  1.1616
 6984SOL    HW232415   1.202   3.604  14.148 -2.1387  0.1344 -0.3460
 6985SOL     OW32416   0.100   4.257   4.646 -0.4251  0.2448 -0.2756
 6985SOL    HW132417   0.093   4.305   4.564  0.4745 -1.0157 -1.0988
 6985SOL    HW232418   0.193   4.237   4.634 -0.0167  0.6726  2.0697
 6986SOL     OW32419   2.527   4.412  15.270 -0.2523 -0.7233  0.1636
 6986SOL    HW132420   2.594   4.390  15.335 -0.0885 -0.6534  0.0178
 6986SOL    HW232421   2.482   4.485  15.313 -1.0931 -1.5259  0.6377
 6987SOL     OW32422   1.508   2.193   4.907  0.2493  0.3920  0.4153
 6987SOL    HW132423   1.532   2.219   4.996  2.3261 -0.0762 -0.0088
 6987SOL    HW232424   1.556   2.254   4.850 -0.6201 -0.3475 -1.1058
 6988SOL     OW32425   4.101   4.314   6.521  0.1207 -0.1146  0.4593
 6988SOL    HW132426   4.191   4.319   6.490 -0.3091 -0.9994 -0.9465
 6988SOL    HW232427   4.115   4.305   6.615 -0.8770  2.4044  0.8439
 6989SOL     OW32428   4.207   2.409   4.375 -0.6100  0.1233 -0.3601
 6989SOL    HW132429   4.210   2.502   4.396 -1.4105  0.1506 -0.3626
 6989SOL    HW232430   4.241   2.370   4.455 -1.2805  2.9558  1.3174
 6990SOL     OW32431   4.084   1.105   8.719  0.0620  0.0089 -0.5133
 6990SOL    HW132432   4.022   1.106   8.792  0.3322  1.1802 -0.3040
 6990SOL    HW232433   4.110   1.195   8.702 -1.6935  0.5963 -0.0268
 6991SOL     OW32434   0.213   3.717   5.980 -0.0663 -0.2894  0.2302
 6991SOL    HW132435   0.125   3.692   6.006  0.2858  0.4213  2.0980
 6991SOL    HW232436   0.242   3.757   6.062 -2.3076  0.8834  0.4478
 6992SOL     OW32437   2.300   0.154  15.064  0.4599 -0.0518  0.2165
 6992SOL    HW132438   2.255   0.070  15.065 -3.1287  1.8695 -1.5785
 6992SOL    HW232439   2.380   0.103  15.073  0.4555  0.0269  0.7002
 6993SOL     OW32440   2.372   3.594   7.335  0.2302 -0.4014  0.3162
 6993SOL    HW132441   2.459   3.579   7.297  0.2566  1.4772 -0.3716
 6993SOL    HW232442   2.386   3.684   7.366  0.2928 -1.1794  2.4961
 6994SOL     OW32443   3.743   3.815  13.233 -0.3657 -1.0636 -0.0155
 6994SOL    HW132444   3.803   3.864  13.177 -1.3388 -1.6968 -1.6339
 6994SOL    HW232445   3.673   3.808  13.168  0.5857 -1.0658 -1.0381
 6995SOL     OW32446   3.608   4.690  16.487 -0.4697  0.0511  0.5962
 6995SOL    HW132447   3.697   4.722  16.500 -1.0315  2.6975 -2.0675
 6995SOL    HW232448   3.570   0.054  16.472  1.3444  0.3440 -2.3067
 6996SOL     OW32449   4.341   1.913   5.136 -0.4076 -0.5545  0.3695
 6996SOL    HW132450   4.290   1.937   5.059  0.8160 -0.6131 -0.4535
 6996SOL    HW232451   4.402   1.853   5.094  0.7523 -0.4507  1.9198
 6997SOL     OW32452   3.821   1.459  11.325  0.4249  0.5002 -0.3481
 6997SOL    HW132453   3.815   1.471  11.230  0.0837 -1.9163 -0.6294
 6997SOL    HW232454   3.731   1.432  11.340  0.8165  0.3787  1.8015
 6998SOL     OW32455   0.690   0.025   7.657  0.1155  0.4405 -0.7114
 6998SOL    HW132456   0.764   0.067   7.612 -0.8025  1.7433 -1.0218
 6998SOL    HW232457   0.710   4.662   7.695 -1.4017 -0.0838 -1.0901
 6999SOL     OW32458   1.697   4.246  16.751  0.3022 -0.0456 -0.3113
 6999SOL    HW132459   1.682   4.272  16.842  1.4344  1.3015 -0.5122
 6999SOL    HW232460   1.607   4.268  16.729  0.6102  1.7278  0.2406
 7000SOL     OW32461   3.011   1.883   5.619  0.7372 -0.2369  0.3293
 7000SOL    HW132462   2.954   1.893   5.543  1.4841  1.1159 -0.0581
 7000SOL    HW232463   3.087   1.934   5.590  2.2196 -1.3917  2.2089
 7001SOL     OW32464   4.070   0.909   1.578 -0.1441  0.4633 -0.0343
 7001SOL    HW132465   4.107   0.867   1.656 -1.2278  2.1260  1.3693
 7001SOL    HW232466   4.094   1.001   1.589  1.1745  0.0135  0.8882
 7002SOL     OW32467   3.839   4.341   8.686 -0.3494  0.3893 -0.3197
 7002SOL    HW132468   3.860   4.249   8.669  1.0681  0.5472  0.5975
 7002SOL    HW232469   3.857   4.387   8.603 -1.0790  2.3445  0.6036
 7003SOL     OW32470   1.494   4.368   7.721 -0.2976  0.2451 -0.2699
 7003SOL    HW132471   1.410   4.364   7.766 -1.2197 -1.7204 -2.1261
 7003SOL    HW232472   1.481   4.446   7.666 -1.4544  0.0141 -0.3195
 7004SOL     OW32473   0.168   1.701   3.950  0.0419 -0.0479 -0.2649
 7004SOL    HW132474   0.091   1.717   3.895 -1.3879  0.8393  1.9813
 7004SOL    HW232475   0.229   1.775   3.945  0.0388  0.1677  2.8452
 7005SOL     OW32476   0.203   2.068  10.553 -0.0108  0.0266  0.0655
 7005SOL    HW132477   0.148   2.146  10.563 -2.2232 -1.5614  0.3108
 7005SOL    HW232478   0.267   2.078  10.623  0.3849 -3.9393  0.3104
 7006SOL     OW32479   3.395   1.494   8.474 -0.5654  0.1780  0.9539
 7006SOL    HW132480   3.456   1.513   8.545  0.6069  3.6947 -0.9847
 7006SOL    HW232481   3.398   1.578   8.427 -0.0185 -1.0958 -1.2975
 7007SOL     OW32482   3.249   2.299   7.083  0.1201 -0.1891 -0.3977
 7007SOL    HW132483   3.321   2.362   7.084 -0.7678  0.8129 -0.2604
 7007SOL    HW232484   3.275   2.258   7.166  1.5921 -1.6733 -1.5750
 7008SOL     OW32485   3.006   3.947   0.893  0.6415 -0.1634 -0.0123
 7008SOL    HW132486   2.949   3.889   0.944  1.8793 -1.9411 -0.6786
 7008SOL    HW232487   3.090   3.922   0.932  0.0734 -1.8410  0.1204
 7009SOL     OW32488   0.031   1.056   6.203 -0.1150 -0.3542 -0.1306
 7009SOL    HW132489   0.051   1.053   6.296  4.0862  1.8473 -0.9821
 7009SOL    HW232490   4.659   1.074   6.201  0.1605  0.8536 -1.9614
 7010SOL     OW32491   2.299   1.851   3.943 -0.1539 -0.4785 -0.0916
 7010SOL    HW132492   2.231   1.820   4.003  0.0949  0.7823  0.8323
 7010SOL    HW232493   2.360   1.889   4.005 -2.0968  1.6290  0.5296
 7011SOL     OW32494   4.019   0.949   2.746 -0.7577 -0.5665  0.9641
 7011SOL    HW132495   4.077   0.990   2.810  0.8634 -0.3565 -0.6531
 7011SOL    HW232496   3.939   0.945   2.799  0.0089  0.1513  2.1977
 7012SOL     OW32497   2.682   0.761  13.965 -0.2797  0.1786  0.2453
 7012SOL    HW132498   2.732   0.697  14.015 -1.6935 -0.5014  0.7999
 7012SOL    HW232499   2.735   0.765  13.885 -1.4055  2.5945 -0.4075
 7013SOL     OW32500   1.425   0.477   6.725  0.4042  0.2396  0.1440
 7013SOL    HW132501   1.362   0.460   6.795  0.8307  1.3104  0.7852
 7013SOL    HW232502   1.479   0.542   6.769 -2.8587  2.8964  0.2013
 7014SOL     OW32503   0.376   0.922   4.767 -0.3515  0.0475 -0.3578
 7014SOL    HW132504   0.286   0.939   4.792  0.5593  1.9710  1.5730
 7014SOL    HW232505   0.409   1.012   4.764 -0.5212  0.2057  2.5655
 7015SOL     OW32506   3.043   2.906   6.790  0.2525 -0.8331  0.1380
 7015SOL    HW132507   2.957   2.948   6.797 -1.2561 -3.6722 -1.3271
 7015SOL    HW232508   3.032   2.863   6.705 -0.2860  0.8103 -0.6188
 7016SOL     OW32509   3.404   4.258  11.728  0.6066 -0.6868  0.4698
 7016SOL    HW132510   3.405   4.354  11.727  0.5364 -0.6887 -0.0093
 7016SOL    HW232511   3.310   4.241  11.735  0.4914  0.8593  2.8018
 7017SOL     OW32512   1.644   0.798   3.713 -0.2634  0.7447  0.1528
 7017SOL    HW132513   1.673   0.782   3.803 -1.2481  0.7346  0.4685
 7017SOL    HW232514   1.656   0.893   3.705  0.3632  0.6947  0.4846
 7018SOL     OW32515   4.346   0.134   8.802  0.2598  0.2030 -0.0068
 7018SOL    HW132516   4.364   0.052   8.847 -1.2091  1.8795  3.6385
 7018SOL    HW232517   4.435   0.163   8.782  0.2149  0.4362  0.1299
 7019SOL     OW32518   1.898   1.486  11.714  0.1452 -0.3744 -0.4229
 7019SOL    HW132519   1.943   1.418  11.763  1.1887 -0.0716 -0.9468
 7019SOL    HW232520   1.806   1.490  11.741 -0.2222 -1.0977 -1.5545
 7020SOL     OW32521   3.902   2.737   6.559  0.1196  0.2919 -0.0168
 7020SOL    HW132522   3.931   2.790   6.484  2.3131  0.1539  0.7442
 7020SOL    HW232523   3.859   2.805   6.612  0.3886 -1.3446  2.2972
 7021SOL     OW32524   2.576   1.059   6.686 -0.1933 -0.1587  0.3959
 7021SOL    HW132525   2.549   0.978   6.731 -0.7797 -0.0252  0.2800
 7021SOL    HW232526   2.623   1.103   6.757 -2.0401  1.6566  0.4851
 7022SOL     OW32527   2.644   2.861   1.668 -0.2284 -0.0922 -0.0157
 7022SOL    HW132528   2.693   2.879   1.588  0.9840  1.5543  1.0751
 7022SOL    HW232529   2.673   2.926   1.733 -0.5138  1.3864 -1.3516
 7023SOL     OW32530   1.600   1.770   9.844 -0.1296  0.5689 -0.1261
 7023SOL    HW132531   1.505   1.776   9.835  0.0713 -0.5796 -2.9898
 7023SOL    HW232532   1.622   1.840   9.782  0.6165  1.4282  1.1024
 7024SOL     OW32533   2.357   3.968  13.188  0.2753 -0.4341  0.4872
 7024SOL    HW132534   2.424   4.028  13.155 -0.3500  0.6169  1.1257
 7024SOL    HW232535   2.310   4.018  13.254  0.4814 -1.0327  1.0849
 7025SOL     OW32536   1.297   4.601   0.516  0.2689  0.1999 -0.0742
 7025SOL    HW132537   1.208   4.568   0.521  0.2659 -0.2650 -3.1490
 7025SOL    HW232538   1.322   4.572   0.603 -1.1924 -2.1138 -0.4297
 7026SOL     OW32539   0.970   0.271  12.881  0.5785 -0.0306  0.0480
 7026SOL    HW132540   1.025   0.280  12.959  2.0964  0.7716 -1.1198
 7026SOL    HW232541   0.988   0.350  12.830 -0.2810 -0.9928 -1.7463
 7027SOL     OW32542   3.480   1.709   2.793 -0.2111 -0.0519 -0.6961
 7027SOL    HW132543   3.551   1.719   2.856  0.4386  0.7931 -1.5668
 7027SOL    HW232544   3.485   1.774   2.723  0.9969 -0.8077 -1.3219
 7028SOL     OW32545   3.349   3.400   8.604 -0.5047  0.2572  0.1801
 7028SOL    HW132546   3.331   3.389   8.697 -0.8715 -0.0996  0.0659
 7028SOL    HW232547   3.382   3.312   8.584 -0.1736  1.1581 -3.2394
 7029SOL     OW32548   1.162   1.675   6.108 -0.1071  0.4099 -0.1494
 7029SOL    HW132549   1.209   1.678   6.025  1.1695 -1.4463  0.5163
 7029SOL    HW232550   1.091   1.618   6.079  0.6105 -1.5195  1.8661
 7030SOL     OW32551   0.336   1.363  14.619 -0.2717 -0.2268  0.3166
 7030SOL    HW132552   0.259   1.409  14.585 -0.7882  0.2818  2.1691
 7030SOL    HW232553   0.315   1.335  14.708 -1.4967 -0.0003  0.0935
 7031SOL     OW32554   2.580   3.126   7.907  0.1981  0.3058 -0.3709
 7031SOL    HW132555   2.507   3.103   7.965  0.4531 -0.0602 -0.1974
 7031SOL    HW232556   2.632   3.046   7.904 -0.1457  0.2135 -3.4247
 7032SOL     OW32557   0.070   3.211  10.215 -0.5316  0.1154  0.2051
 7032SOL    HW132558   0.138   3.144  10.216 -0.7024 -0.0796 -1.1873
 7032SOL    HW232559   0.017   3.195  10.136  0.6382 -0.6289 -0.4342
 7033SOL     OW32560   1.366   2.086   4.718  0.0723 -0.3261  0.2967
 7033SOL    HW132561   1.384   2.138   4.640  1.0296 -0.4983  0.4047
 7033SOL    HW232562   1.411   2.139   4.783 -0.4633 -1.5190  1.6558
 7034SOL     OW32563   2.487   2.526   5.315 -0.0807 -0.0444 -0.2399
 7034SOL    HW132564   2.555   2.520   5.383 -1.2842  0.8943  1.0429
 7034SOL    HW232565   2.516   2.464   5.247  2.0689 -2.0743  2.4747
 7035SOL     OW32566   2.071   4.059   5.883 -0.3743 -0.8060 -0.3020
 7035SOL    HW132567   1.980   4.059   5.852 -0.3387  0.6067 -0.4008
 7035SOL    HW232568   2.077   3.983   5.940  0.1187 -0.0382  0.6757
 7036SOL     OW32569   3.272   1.174   1.502  0.1524  0.2572  0.9724
 7036SOL    HW132570   3.287   1.110   1.433 -0.6294  0.5644  0.5167
 7036SOL    HW232571   3.360   1.200   1.528 -0.1463  1.1055  1.1322
 7037SOL     OW32572   4.373   0.186  17.484 -0.1700  0.1516 -0.1011
 7037SOL    HW132573   4.384   0.281  17.492  0.1524 -0.0028  1.3001
 7037SOL    HW232574   4.450   0.173  17.429  0.0059 -0.6057  0.3266
 7038SOL     OW32575   2.214   1.272   7.737 -0.5695 -0.0937 -0.5139
 7038SOL    HW132576   2.295   1.252   7.784 -0.1952  1.5847 -0.4622
 7038SOL    HW232577   2.189   1.363   7.753 -1.0582 -0.9211  3.4812
 7039SOL     OW32578   4.611   3.552   8.551  0.1917 -0.2699  0.0038
 7039SOL    HW132579   4.651   3.506   8.625 -2.7159  0.7362  2.2192
 7039SOL    HW232580   4.680   3.574   8.489 -1.0990  0.0633 -1.3083
 7040SOL     OW32581   0.634   3.113  11.235 -0.0269 -0.0013  0.0224
 7040SOL    HW132582   0.571   3.051  11.272 -0.8477  0.3222 -0.8539
 7040SOL    HW232583   0.610   3.120  11.143  1.0914  0.3199 -0.2535
 7041SOL     OW32584   3.382   2.076   6.326  0.1312  0.2465 -0.0405
 7041SOL    HW132585   3.386   2.079   6.230 -0.6160 -1.2732 -0.1184
 7041SOL    HW232586   3.474   2.090   6.350 -0.3439  1.5362  0.9506
 7042SOL     OW32587   0.846   1.478   0.108  0.1268  0.3705 -0.1941
 7042SOL    HW132588   0.911   1.546   0.092 -0.4926  0.7864 -0.9528
 7042SOL    HW232589   0.876   1.401   0.060 -0.1717  0.5866 -0.7399
 7043SOL     OW32590   1.657   1.175   5.810  0.2810 -0.1606  0.3802
 7043SOL    HW132591   1.572   1.185   5.767  0.6732 -1.5322 -0.7173
 7043SOL    HW232592   1.695   1.113   5.748  1.1048  0.3614  0.3620
 7044SOL     OW32593   1.382   1.098  11.995 -0.0814 -0.0684  0.0833
 7044SOL    HW132594   1.413   1.088  12.085  1.3854  2.4482 -0.1408
 7044SOL    HW232595   1.467   1.098  11.951 -0.5776  1.6174 -0.8467
 7045SOL     OW32596   1.746   0.234   8.598  0.0228 -0.2362 -0.1644
 7045SOL    HW132597   1.667   0.266   8.555  0.5080  0.3459 -0.6262
 7045SOL    HW232598   1.714   0.187   8.674 -1.6612 -0.3696 -0.9664
 7046SOL     OW32599   3.122   0.742  14.651  0.3399 -0.5650 -0.5105
 7046SOL    HW132600   3.180   0.737  14.575 -0.4737 -0.1658 -1.1620
 7046SOL    HW232601   3.120   0.838  14.656 -2.1689 -0.5751 -1.4502
 7047SOL     OW32602   2.168   0.581   1.638  0.0619 -0.3193  0.1360
 7047SOL    HW132603   2.106   0.537   1.580  1.4466 -0.5483 -1.1788
 7047SOL    HW232604   2.216   0.637   1.578 -1.3611  2.0710  1.2234
 7048SOL     OW32605   1.159   0.381   7.960  0.2004  0.0499 -0.1916
 7048SOL    HW132606   1.113   0.311   8.006 -1.2552  1.9188  1.2446
 7048SOL    HW232607   1.231   0.335   7.917 -1.4768 -1.2280 -1.6224
 7049SOL     OW32608   1.405   3.799  10.084  0.4265 -0.6488  0.1191
 7049SOL    HW132609   1.359   3.748  10.150  0.2358 -1.1027 -0.3653
 7049SOL    HW232610   1.338   3.808  10.016  0.4880  1.0190  0.2775
 7050SOL     OW32611   1.838   2.937   5.976  0.3902  0.3010 -0.3240
 7050SOL    HW132612   1.803   2.892   5.899  1.8779 -2.7762  0.7696
 7050SOL    HW232613   1.807   2.870   6.037 -2.3407  2.2519  0.4439
 7051SOL     OW32614   0.456   3.176   5.765 -0.8320 -0.2547  0.0989
 7051SOL    HW132615   0.540   3.220   5.775 -0.6298 -0.3734 -1.1126
 7051SOL    HW232616   0.450   3.130   5.849  3.0120  0.4556  0.7620
 7052SOL     OW32617   0.121   4.450  13.003  0.3865  0.1369  0.3194
 7052SOL    HW132618   0.114   4.464  13.097 -1.7933  3.0475 -0.2532
 7052SOL    HW232619   0.027   4.445  12.983  0.3620  2.4413 -0.0706
 7053SOL     OW32620   0.685   2.552   7.831  0.1715 -0.2393  0.4921
 7053SOL    HW132621   0.625   2.576   7.902 -0.2518  1.3053 -0.4056
 7053SOL    HW232622   0.640   2.589   7.755 -0.5423  1.0740  1.5546
 7054SOL     OW32623   2.263   0.120   6.065 -0.0164  0.1956 -0.7676
 7054SOL    HW132624   2.174   0.144   6.091  0.0506  1.7637 -1.9447
 7054SOL    HW232625   2.255   0.025   6.077  1.4651  0.1062 -0.4807
 7055SOL     OW32626   2.754   3.318  10.818 -0.6667 -0.5754 -0.0736
 7055SOL    HW132627   2.764   3.264  10.896 -0.7720  0.6905  0.8103
 7055SOL    HW232628   2.660   3.333  10.821 -0.5995 -0.2105  0.2370
 7056SOL     OW32629   1.789   0.036   7.133  0.1313  0.4084 -0.7604
 7056SOL    HW132630   1.710   0.070   7.177  1.0736  0.0930  1.1505
 7056SOL    HW232631   1.846   0.004   7.202  1.1278  3.0233 -0.3574
 7057SOL     OW32632   0.535   3.527   7.975 -0.3128 -0.3002 -0.2781
 7057SOL    HW132633   0.573   3.491   8.055  1.0474 -0.1448 -0.8531
 7057SOL    HW232634   0.605   3.592   7.963  0.0167 -0.8697 -1.4293
 7058SOL     OW32635   3.985   4.178   5.791 -0.0792 -0.0499 -0.1429
 7058SOL    HW132636   3.987   4.161   5.885  1.5350 -0.0754 -0.1808
 7058SOL    HW232637   4.014   4.269   5.790  1.2015 -0.4668  0.1406
 7059SOL     OW32638   3.165   3.708   5.252  0.8078  0.6535 -0.3777
 7059SOL    HW132639   3.176   3.697   5.347 -1.5166 -0.4661 -0.2171
 7059SOL    HW232640   3.108   3.784   5.247  1.5576  1.1259 -1.7034
 7060SOL     OW32641   1.861   3.538   1.982 -0.1502 -0.0845  0.1106
 7060SOL    HW132642   1.954   3.517   1.989 -0.1482 -0.0448  0.1991
 7060SOL    HW232643   1.829   3.469   2.041 -2.3042  0.1445 -0.7664
 7061SOL     OW32644   1.889   4.365   6.348  0.5739  0.1744  0.8092
 7061SOL    HW132645   1.845   4.422   6.411 -1.8604  0.3237 -1.0467
 7061SOL    HW232646   1.901   4.422   6.272 -1.3255 -0.2586  0.1801
 7062SOL     OW32647   4.680   2.557   4.705 -0.5430  0.9714 -0.2193
 7062SOL    HW132648   4.713   2.472   4.735 -0.0243  1.1119 -0.3940
 7062SOL    HW232649   4.591   2.559   4.740 -0.9688 -1.3159 -1.1517
 7063SOL     OW32650   0.994   2.399   0.876  0.6082  0.4341 -0.1917
 7063SOL    HW132651   0.969   2.346   0.952 -2.4369  1.1829 -0.6586
 7063SOL    HW232652   0.932   2.469   0.899  1.2426  1.1626 -0.7091
 7064SOL     OW32653   3.477   3.797   3.432 -0.0434 -0.1078  0.0339
 7064SOL    HW132654   3.549   3.737   3.410  0.8909 -0.0945  3.0970
 7064SOL    HW232655   3.440   3.804   3.344  0.7005 -2.1546 -0.4446
 7065SOL     OW32656   1.812   2.775   2.729 -0.3643 -0.3716 -0.1307
 7065SOL    HW132657   1.779   2.839   2.666 -0.3630 -0.5388 -0.3060
 7065SOL    HW232658   1.727   2.749   2.765  0.1858 -0.1489  1.3060
 7066SOL     OW32659   0.986   4.512   2.790  0.0801  0.1435  0.2758
 7066SOL    HW132660   0.983   4.576   2.862 -0.9405 -2.4183  2.5246
 7066SOL    HW232661   1.075   4.518   2.755  0.2180  0.5137  0.6853
 7067SOL     OW32662   3.723   2.263   3.470 -0.0173 -0.1878 -0.8701
 7067SOL    HW132663   3.629   2.279   3.479  0.0374  1.1181 -2.5757
 7067SOL    HW232664   3.758   2.347   3.440  1.0795 -0.5936 -0.6993
 7068SOL     OW32665   1.140   2.641   0.807  0.1465 -0.4819  0.0676
 7068SOL    HW132666   1.207   2.596   0.756  1.0446  1.7920 -0.7734
 7068SOL    HW232667   1.086   2.568   0.838  0.3592 -0.6351  0.0748
 7069SOL     OW32668   2.758   3.651   5.421  0.2586 -0.2112  0.1484
 7069SOL    HW132669   2.749   3.629   5.328  0.4452  1.2686 -0.2257
 7069SOL    HW232670   2.805   3.734   5.411  0.1626 -0.2267 -0.4181
 7070SOL     OW32671   3.846   1.381   5.749 -0.2078  0.0918 -0.1895
 7070SOL    HW132672   3.860   1.300   5.699  0.8533 -0.5812  1.2108
 7070SOL    HW232673   3.757   1.401   5.719 -0.1242 -1.7396 -1.6635
 7071SOL     OW32674   3.740   1.778   6.137  0.0348  0.1728  0.2261
 7071SOL    HW132675   3.761   1.718   6.065  1.3908  0.5616  0.2875
 7071SOL    HW232676   3.682   1.840   6.093 -0.6429  0.2829  1.2807
 7072SOL     OW32677   2.427   3.953   2.171 -0.0512  0.1740  0.0261
 7072SOL    HW132678   2.435   3.872   2.221  0.4838 -0.8222 -1.6634
 7072SOL    HW232679   2.416   3.912   2.085  2.9951  3.1085 -1.7872
 7073SOL     OW32680   0.259   0.537  13.801  0.1321  0.5318  0.2343
 7073SOL    HW132681   0.291   0.470  13.741 -1.6894  2.2164 -2.6093
 7073SOL    HW232682   0.212   0.603  13.749 -2.1549  0.0925  1.7767
 7074SOL     OW32683   3.318   0.728   1.228  0.1883  0.8363 -0.5417
 7074SOL    HW132684   3.403   0.733   1.185  0.8393  0.5885  0.7079
 7074SOL    HW232685   3.294   0.636   1.215 -0.2786  1.0333 -1.0978
 7075SOL     OW32686   4.054   4.082  12.432  0.3044  0.1477 -0.1019
 7075SOL    HW132687   3.989   4.153  12.424 -0.2881 -0.3151  0.5430
 7075SOL    HW232688   4.128   4.120  12.385 -0.2494  0.3571 -0.8077
 7076SOL     OW32689   1.259   4.362  12.998 -0.7104 -0.1022  0.5076
 7076SOL    HW132690   1.214   4.307  12.934 -0.7564  0.9781 -0.3889
 7076SOL    HW232691   1.352   4.347  12.983 -0.3063  2.8180  0.0792
 7077SOL     OW32692   4.210   0.791   4.912 -0.1400 -0.5445 -0.2989
 7077SOL    HW132693   4.251   0.733   4.848  0.4350 -0.2507 -0.1998
 7077SOL    HW232694   4.164   0.722   4.961  0.8475 -0.5286  0.6600
 7078SOL     OW32695   2.123   2.704  11.417  0.8471  0.2045  0.1163
 7078SOL    HW132696   2.115   2.790  11.457  1.7403  0.8078 -1.0182
 7078SOL    HW232697   2.158   2.664  11.497 -1.1784  0.7158  1.2550
 7079SOL     OW32698   3.484   3.786   4.435 -0.1548 -0.3121 -0.2597
 7079SOL    HW132699   3.570   3.767   4.397 -0.5805 -1.2730 -0.7096
 7079SOL    HW232700   3.437   3.703   4.426 -0.9313  0.1190 -0.1718
 7080SOL     OW32701   3.960   3.527   4.010 -0.2647 -0.6902 -0.2789
 7080SOL    HW132702   3.875   3.551   4.047  0.5385  0.9793  0.4782
 7080SOL    HW232703   3.961   3.438   4.045  0.2488  0.2393  2.0446
 7081SOL     OW32704   2.867   4.091   0.720 -0.2121 -0.0583 -0.1048
 7081SOL    HW132705   2.901   4.031   0.786  1.2830  1.1691  0.2370
 7081SOL    HW232706   2.812   4.032   0.670 -0.8555 -0.7639  1.4166
 7082SOL     OW32707   3.857   4.101   4.744 -0.4444 -0.4599  0.5934
 7082SOL    HW132708   3.839   4.043   4.671 -2.1303  0.8170 -0.0231
 7082SOL    HW232709   3.948   4.082   4.764 -1.1232 -4.7138 -0.4771
 7083SOL     OW32710   2.471   0.998  12.829 -0.0496  0.0293 -0.7115
 7083SOL    HW132711   2.405   1.007  12.897 -0.5810  0.3557 -1.2650
 7083SOL    HW232712   2.548   0.968  12.877 -0.2571  0.7627  0.0759
 7084SOL     OW32713   4.526   3.727   3.030 -0.4627 -0.3267 -0.0919
 7084SOL    HW132714   4.557   3.638   3.014  0.3479 -0.1764  0.6544
 7084SOL    HW232715   4.441   3.702   3.066  0.2932 -2.3510  0.3106
 7085SOL     OW32716   3.197   3.199   8.167  0.1402  0.0784 -0.3560
 7085SOL    HW132717   3.249   3.265   8.120 -1.0575 -0.6766 -2.7607
 7085SOL    HW232718   3.266   3.194   8.233  0.2102  1.1717 -0.3498
 7086SOL     OW32719   2.750   0.466   9.173  0.3075 -0.9087  0.5728
 7086SOL    HW132720   2.757   0.524   9.097 -0.0951 -0.9486  0.5048
 7086SOL    HW232721   2.825   0.500   9.221 -0.2866 -0.2366  1.0383
 7087SOL     OW32722   4.159   1.291   5.465 -0.4910 -0.7581  0.3112
 7087SOL    HW132723   4.131   1.269   5.554  2.5301 -0.5317  1.3257
 7087SOL    HW232724   4.198   1.375   5.489 -1.2851 -0.2949 -0.0359
 7088SOL     OW32725   2.224   0.516   3.687 -0.7494  0.1728  0.0058
 7088SOL    HW132726   2.204   0.609   3.680  2.4563  0.9466  1.1337
 7088SOL    HW232727   2.270   0.487   3.607  1.0153  1.0756  0.7010
 7089SOL     OW32728   3.476   3.021   2.945 -0.4072  0.2029 -0.3858
 7089SOL    HW132729   3.531   3.087   2.903 -0.1219  1.1690  1.4865
 7089SOL    HW232730   3.386   3.037   2.918 -0.7579  1.5929  1.6096
 7090SOL     OW32731   3.524   4.570   6.670  0.1514  0.2821  0.1434
 7090SOL    HW132732   3.507   4.483   6.707  3.2085 -0.8845 -1.2324
 7090SOL    HW232733   3.606   4.591   6.715  0.6889  2.3446 -1.8374
 7091SOL     OW32734   4.123   2.805  10.838  0.4771  0.1679  0.2200
 7091SOL    HW132735   4.125   2.897  10.866  0.9478  0.5824 -1.2191
 7091SOL    HW232736   4.044   2.803  10.783  1.7073  0.1991 -1.5338
 7092SOL     OW32737   4.051   3.197   4.713  0.7210  0.1111 -0.1495
 7092SOL    HW132738   3.995   3.231   4.643  1.8464 -0.0578 -1.1443
 7092SOL    HW232739   4.139   3.213   4.679  0.0193  0.8411 -1.6202
 7093SOL     OW32740   4.383   0.755   7.545  1.0164 -0.3999  0.0440
 7093SOL    HW132741   4.290   0.757   7.567  0.6710 -2.4493 -1.1987
 7093SOL    HW232742   4.372   0.727   7.454 -0.7826  1.4259 -0.2973
 7094SOL     OW32743   1.847   2.683   7.359  0.2186  0.1416  0.1072
 7094SOL    HW132744   1.938   2.711   7.354  0.3102 -0.0853  0.5258
 7094SOL    HW232745   1.845   2.600   7.407 -1.6600 -1.8117 -3.3977
 7095SOL     OW32746   2.438   4.111   7.816  0.3574  0.0529  0.1222
 7095SOL    HW132747   2.373   4.045   7.795 -0.5751  1.1905 -0.5863
 7095SOL    HW232748   2.395   4.160   7.886 -0.8191  1.6553 -1.7062
 7096SOL     OW32749   3.437   3.986  11.792 -0.3177 -0.3742  0.1780
 7096SOL    HW132750   3.346   4.001  11.816  0.1926  0.2484  1.7618
 7096SOL    HW232751   3.456   4.051  11.724  0.2215  0.4195  1.0819
 7097SOL     OW32752   4.391   0.322   4.928 -0.0255 -0.3996  0.7932
 7097SOL    HW132753   4.431   0.317   4.841 -1.8156 -2.1246  0.0619
 7097SOL    HW232754   4.432   0.258   4.986 -1.9749 -3.1528 -0.8453
 7098SOL     OW32755   3.611   2.181  11.216 -0.4548 -0.8273  0.4347
 7098SOL    HW132756   3.680   2.158  11.154  0.2082  0.1686  0.8088
 7098SOL    HW232757   3.641   2.136  11.295  3.1127  1.4139  0.3388
 7099SOL     OW32758   2.687   2.462   2.742  0.7159 -0.3002 -0.0310
 7099SOL    HW132759   2.709   2.554   2.729  0.2182 -0.2375 -0.4450
 7099SOL    HW232760   2.659   2.434   2.654  2.4531  3.1303 -1.6736
 7100SOL     OW32761   0.943   2.382   7.373  0.5859  1.1633 -0.1036
 7100SOL    HW132762   0.861   2.336   7.359  0.4377  1.5837 -0.6057
 7100SOL    HW232763   0.983   2.365   7.288  2.3461 -0.6131  1.0635
 7101SOL     OW32764   2.214   4.401   7.205 -0.0419 -0.2187  0.3014
 7101SOL    HW132765   2.241   4.492   7.214  2.1913 -0.7503 -1.0692
 7101SOL    HW232766   2.155   4.390   7.280  1.5541 -0.8500  1.4524
 7102SOL     OW32767   3.313   3.963   8.760 -0.3935 -0.0048 -0.3454
 7102SOL    HW132768   3.231   3.957   8.711 -0.7745 -2.3660  0.5856
 7102SOL    HW232769   3.298   3.885   8.814  0.5383  0.8705  1.2125
 7103SOL     OW32770   1.879   3.328  11.984  0.3096 -0.2064 -0.1989
 7103SOL    HW132771   1.917   3.244  11.957 -3.0102 -1.8564  0.3028
 7103SOL    HW232772   1.909   3.382  11.911 -0.3577 -0.0663 -0.3729
 7104SOL     OW32773   2.603   3.128  14.917  0.8218 -0.2129  0.2174
 7104SOL    HW132774   2.680   3.178  14.889  1.0763 -0.8854 -0.2748
 7104SOL    HW232775   2.623   3.086  15.000  1.6224 -0.3126 -0.0238
 7105SOL     OW32776   4.188   2.258   3.650  0.2335 -0.0848  0.4464
 7105SOL    HW132777   4.236   2.340   3.654  1.8528 -0.9732 -0.5228
 7105SOL    HW232778   4.096   2.281   3.662  0.4749 -0.0451  2.2154
 7106SOL     OW32779   3.689   1.866   9.280 -0.6047 -0.5296  0.1281
 7106SOL    HW132780   3.669   1.959   9.267 -0.8348 -0.3847  1.4833
 7106SOL    HW232781   3.609   1.829   9.318 -1.0202 -0.1666 -0.3746
 7107SOL     OW32782   0.024   2.598  12.236 -0.0603 -0.3216  0.1894
 7107SOL    HW132783   4.695   2.517  12.239  1.7463 -1.5362 -1.2416
 7107SOL    HW232784   4.720   2.652  12.310 -1.7978 -2.8648  1.4464
 7108SOL     OW32785   4.252   3.530   0.581  0.5320 -0.6691  0.2567
 7108SOL    HW132786   4.336   3.553   0.541  0.3327 -0.3094  0.0364
 7108SOL    HW232787   4.263   3.471   0.656  2.1351 -0.0817  0.4813
 7109SOL     OW32788   2.418   0.478   8.011 -0.2109  0.2030 -1.0013
 7109SOL    HW132789   2.326   0.496   7.996 -0.5168 -0.4335  0.1419
 7109SOL    HW232790   2.424   0.430   8.093  2.3436 -0.4207 -1.5498
 7110SOL     OW32791   1.655   1.782   9.486 -0.1736  0.4977 -0.0252
 7110SOL    HW132792   1.594   1.856   9.487 -1.7821 -0.8271 -0.4785
 7110SOL    HW232793   1.608   1.708   9.526  1.5936 -1.0702 -0.8609
 7111SOL     OW32794   3.483   0.431   4.739 -0.2028 -0.2096  0.1698
 7111SOL    HW132795   3.431   0.497   4.785  0.8455  0.9292 -0.2912
 7111SOL    HW232796   3.473   0.458   4.648 -1.1537  1.2981  0.7264
 7112SOL     OW32797   4.265   2.623   7.737 -0.9825 -0.3578 -0.0561
 7112SOL    HW132798   4.223   2.670   7.666 -1.9709  0.2000  0.9013
 7112SOL    HW232799   4.284   2.535   7.703  0.5704  0.4453 -1.2410
 7113SOL     OW32800   1.419   3.206   2.845 -0.2088 -0.3325  0.5446
 7113SOL    HW132801   1.471   3.225   2.766 -0.2099  0.3101  0.6929
 7113SOL    HW232802   1.484   3.170   2.905  2.2528 -1.6438 -2.8670
 7114SOL     OW32803   3.070   2.610   1.151 -0.3421  0.1450 -0.5213
 7114SOL    HW132804   3.056   2.681   1.089  0.2163  1.1368  0.4819
 7114SOL    HW232805   3.144   2.650   1.196  0.4618  0.2081 -1.8948
 7115SOL     OW32806   2.573   1.957   7.542  0.7478 -0.2170  0.6194
 7115SOL    HW132807   2.607   1.954   7.453 -0.3960 -0.9912  0.2117
 7115SOL    HW232808   2.577   2.051   7.559  1.0668  0.5888 -4.0672
 7116SOL     OW32809   2.279   4.600  16.289 -0.1533  0.1702  0.1962
 7116SOL    HW132810   2.239   4.539  16.352  2.7675  0.7504  2.5837
 7116SOL    HW232811   2.306   4.672  16.346 -1.6743  1.3176 -0.5382
 7117SOL     OW32812   4.613   4.325   4.203  0.7934 -0.0052 -0.3847
 7117SOL    HW132813   4.540   4.375   4.239 -0.2962 -1.2455 -0.8723
 7117SOL    HW232814   4.661   4.284   4.275  0.6615  0.1969 -0.1826
 7118SOL     OW32815   3.775   1.899   8.521 -0.6280  0.6796 -0.2096
 7118SOL    HW132816   3.728   1.958   8.462  0.8800  1.4539 -0.6353
 7118SOL    HW232817   3.702   1.865   8.573 -0.7972  0.4067 -0.6246
 7119SOL     OW32818   4.661   3.664   6.055 -0.2628 -0.2788  0.4911
 7119SOL    HW132819   4.643   3.600   5.986  0.4623 -0.3101  0.3330
 7119SOL    HW232820   4.573   3.670   6.093  0.5649 -0.0696  2.3956
 7120SOL     OW32821   3.469   0.775   4.376 -0.0939  0.0864 -0.3694
 7120SOL    HW132822   3.434   0.770   4.465  2.5395 -1.4698  0.5981
 7120SOL    HW232823   3.414   0.848   4.348  1.4749  1.1828 -0.5718
 7121SOL     OW32824   3.193   0.818   1.562 -0.3743  0.3919 -0.1146
 7121SOL    HW132825   3.278   0.813   1.519 -1.9198  0.2780 -3.0886
 7121SOL    HW232826   3.168   0.910   1.556  1.4289  0.6819 -2.7492
 7122SOL     OW32827   4.243   3.058  13.412  0.5858 -0.0636  0.0921
 7122SOL    HW132828   4.232   3.150  13.436  1.5950  0.3546 -1.0265
 7122SOL    HW232829   4.177   3.010  13.462  1.2937 -1.2692 -0.1476
 7123SOL     OW32830   1.733   3.435   5.513 -0.3622 -0.6175  0.4239
 7123SOL    HW132831   1.809   3.445   5.455  0.3845 -0.5785  1.4092
 7123SOL    HW232832   1.769   3.377   5.580 -3.0631 -0.7713  1.7224
 7124SOL     OW32833   0.293   0.165  17.238  0.9145 -0.5887 -0.3352
 7124SOL    HW132834   0.278   0.075  17.212 -0.1384 -0.8367  1.0929
 7124SOL    HW232835   0.364   0.189  17.178  0.9011  0.0599 -0.0951
 7125SOL     OW32836   1.777   0.458   4.649 -0.1984  0.3852  0.3083
 7125SOL    HW132837   1.683   0.465   4.666 -0.5813  0.3342 -1.8743
 7125SOL    HW232838   1.811   0.475   4.737 -0.5076  1.9527  0.1119
 7126SOL     OW32839   0.628   3.404   4.571  0.7757  0.2880 -0.8763
 7126SOL    HW132840   0.554   3.404   4.632  1.1726 -0.9750 -0.3945
 7126SOL    HW232841   0.670   3.323   4.601  1.5542  0.3578 -1.7681
 7127SOL     OW32842   3.098   4.452  12.448  0.0079 -0.5162 -0.1204
 7127SOL    HW132843   3.130   4.377  12.499  0.5764 -0.0677  0.1936
 7127SOL    HW232844   3.085   4.412  12.363 -0.7457  1.9218 -1.1524
 7128SOL     OW32845   1.038   3.842  12.223 -0.4085  0.4218 -0.1287
 7128SOL    HW132846   0.956   3.872  12.262 -1.6269 -1.5106 -1.1494
 7128SOL    HW232847   1.072   3.918  12.177 -1.2010  1.3895  0.8867
 7129SOL     OW32848   3.996   2.833   8.555  0.2249  0.2690  0.3607
 7129SOL    HW132849   3.992   2.885   8.474  0.1937 -1.6292 -0.8666
 7129SOL    HW232850   4.046   2.885   8.618 -0.0048  1.5754 -0.5257
 7130SOL     OW32851   3.183   2.637   9.964  0.3103 -0.3148 -0.1683
 7130SOL    HW132852   3.221   2.582  10.032 -0.9492  1.7524  2.1828
 7130SOL    HW232853   3.236   2.613   9.887  0.1570  1.5491 -0.8612
 7131SOL     OW32854   2.000   2.160  17.535 -0.3109  0.2366 -0.0200
 7131SOL    HW132855   1.951   2.079  17.523 -0.7518  0.3711  0.8494
 7131SOL    HW232856   2.088   2.125  17.523 -0.3959 -0.1982  0.6798
 7132SOL     OW32857   4.590   0.726  16.241  0.8822  0.5062 -0.6077
 7132SOL    HW132858   4.502   0.741  16.274  1.0103 -0.6747  0.2920
 7132SOL    HW232859   4.619   0.817  16.245  4.0535 -0.6173  2.1761
 7133SOL     OW32860   0.227   0.860  11.844 -0.3508  0.5468  0.1722
 7133SOL    HW132861   0.277   0.880  11.923 -1.4573 -1.7265  1.4461
 7133SOL    HW232862   0.304   0.839  11.790 -0.4629 -1.4104  0.7636
 7134SOL     OW32863   0.184   4.429   7.493 -0.4916  0.3284 -0.3826
 7134SOL    HW132864   0.229   4.499   7.541 -0.7633  0.7411 -0.7302
 7134SOL    HW232865   0.222   4.428   7.405 -0.9872 -0.8142 -0.5893
 7135SOL     OW32866   1.032   3.906   3.984 -0.0994 -0.3570  0.8573
 7135SOL    HW132867   1.106   3.866   4.029  0.8256  0.2971 -0.1051
 7135SOL    HW232868   1.032   3.835   3.921 -0.4244 -0.7189  1.2619
 7136SOL     OW32869   4.584   1.818   5.724  0.1757 -0.1079 -0.6423
 7136SOL    HW132870   4.597   1.905   5.686  1.4125  0.3569  0.8398
 7136SOL    HW232871   4.628   1.830   5.808  0.2293 -1.6856 -0.4397
 7137SOL     OW32872   2.875   0.912   0.473 -0.1321  0.6262 -0.3625
 7137SOL    HW132873   2.791   0.882   0.437 -0.2332  0.1649  0.2573
 7137SOL    HW232874   2.835   0.969   0.538  2.5425 -0.5440  2.2804
 7138SOL     OW32875   2.205   4.299   6.948 -0.3367  0.2141 -0.1512
 7138SOL    HW132876   2.216   4.345   7.032  0.2515  0.0951 -0.1650
 7138SOL    HW232877   2.109   4.293   6.951 -0.3392  1.0139  1.3646
 7139SOL     OW32878   2.657   2.194  15.385 -0.4140  0.4490  0.1105
 7139SOL    HW132879   2.666   2.273  15.331 -0.0475  0.5521  0.3245
 7139SOL    HW232880   2.691   2.128  15.326  0.0377 -0.4747  1.3999
 7140SOL     OW32881   2.452   2.410  16.366  0.5228  0.1486  0.2225
 7140SOL    HW132882   2.418   2.404  16.455 -1.8470  0.4770 -0.6634
 7140SOL    HW232883   2.372   2.418  16.314  0.9691 -1.0386 -0.6383
 7141SOL     OW32884   3.439   1.401  17.576  0.1007  0.3220 -0.0256
 7141SOL    HW132885   3.533   1.403  17.592  0.7078  1.1323 -3.7370
 7141SOL    HW232886   3.444   1.386  17.482  2.6037 -0.5681  0.2609
 7142SOL     OW32887   4.198   1.002   3.867 -0.2908  0.4398  0.4006
 7142SOL    HW132888   4.231   0.932   3.812  1.6299  0.2064  1.8845
 7142SOL    HW232889   4.278   1.037   3.905 -0.0265 -0.1107  0.3372
 7143SOL     OW32890   0.573   3.978   4.678 -0.3853 -0.2051  0.4824
 7143SOL    HW132891   0.633   4.052   4.667 -0.8440  0.5919  3.2557
 7143SOL    HW232892   0.561   3.988   4.773  1.7232  0.9016  0.6343
 7144SOL     OW32893   2.028   2.305  14.844 -0.2396 -0.2178 -0.5887
 7144SOL    HW132894   1.947   2.268  14.880 -1.2518  0.1723 -2.4709
 7144SOL    HW232895   2.058   2.346  14.925  0.4190  1.8058 -1.8647
 7145SOL     OW32896   4.628   2.398   3.630  0.4404  1.0843  0.2472
 7145SOL    HW132897   4.582   2.314   3.636 -2.5748  2.4063 -4.7122
 7145SOL    HW232898   4.590   2.422   3.546 -2.1718 -0.3637  0.9870
 7146SOL     OW32899   3.791   2.739   7.784 -0.4693  0.3809 -0.7029
 7146SOL    HW132900   3.845   2.706   7.857 -2.7659  0.9386  1.2676
 7146SOL    HW232901   3.772   2.662   7.731  0.8929 -0.7049  0.3898
 7147SOL     OW32902   2.745   2.002  11.905  0.6730 -0.5039 -0.3487
 7147SOL    HW132903   2.795   2.069  11.859  1.9759 -1.0858  0.2096
 7147SOL    HW232904   2.783   2.023  11.990 -1.0876  0.2003  0.2675
 7148SOL     OW32905   1.654   2.092  11.843  0.6354 -0.0734 -0.6377
 7148SOL    HW132906   1.628   2.165  11.786 -0.4022 -0.9605 -1.2831
 7148SOL    HW232907   1.668   2.136  11.927  0.0226  0.1880 -0.6693
 7149SOL     OW32908   4.322   2.123   9.617 -0.5068  0.0858  0.1570
 7149SOL    HW132909   4.296   2.215   9.605  1.1139  0.5573  0.3000
 7149SOL    HW232910   4.237   2.081   9.631 -0.3217  0.0289  1.0659
 7150SOL     OW32911   1.778   4.085   9.834  0.1742  0.0085 -0.3086
 7150SOL    HW132912   1.734   4.000   9.838  4.2147 -2.1642 -1.7479
 7150SOL    HW232913   1.735   4.115   9.753 -1.2109  3.4469  1.7025
 7151SOL     OW32914   2.602   2.232   7.511 -0.3111 -0.1274 -0.0358
 7151SOL    HW132915   2.688   2.261   7.543  0.1431 -1.5189  0.0109
 7151SOL    HW232916   2.549   2.277   7.576 -2.3907 -1.8567 -0.5608
 7152SOL     OW32917   0.666   3.139   6.912  0.6385 -0.1506  0.2241
 7152SOL    HW132918   0.700   3.152   7.001  0.9693 -0.3501  0.1271
 7152SOL    HW232919   0.692   3.051   6.883 -4.8424 -1.3103 -1.0078
 7153SOL     OW32920   1.896   4.704   8.826  0.4363 -0.2262  0.2937
 7153SOL    HW132921   1.924   4.626   8.874  0.7326  0.2032  0.8142
 7153SOL    HW232922   1.805   4.677   8.813  0.3096  0.0212  0.6818
 7154SOL     OW32923   1.461   1.326   3.384 -0.0775 -0.1361  0.0316
 7154SOL    HW132924   1.431   1.236   3.390 -0.1751  0.0052  1.7001
 7154SOL    HW232925   1.385   1.376   3.414 -0.5605 -1.7910  1.5381
 7155SOL     OW32926   2.626   3.620   1.033 -0.5664  0.2622 -0.1131
 7155SOL    HW132927   2.542   3.574   1.037  0.4910 -1.8265 -1.9088
 7155SOL    HW232928   2.599   3.666   0.953 -1.2787 -0.1046 -0.0876
 7156SOL     OW32929   2.331   4.152   7.255  0.0729 -0.1181  0.2319
 7156SOL    HW132930   2.367   4.113   7.176  2.5666 -2.2256  2.3929
 7156SOL    HW232931   2.304   4.240   7.231  1.6814  0.2085 -0.3595
 7157SOL     OW32932   2.379   2.611  15.985 -0.1209 -0.8155  0.6825
 7157SOL    HW132933   2.335   2.688  15.948  3.2393  0.4413 -0.7113
 7157SOL    HW232934   2.307   2.554  16.011  0.2915 -0.9268  1.6102
 7158SOL     OW32935   2.605   2.561   7.485 -0.5944 -0.4403 -0.5831
 7158SOL    HW132936   2.649   2.638   7.520  1.9838 -1.3932 -1.7293
 7158SOL    HW232937   2.583   2.518   7.567  1.3973  0.1972  0.2877
 7159SOL     OW32938   4.275   0.859  13.368  0.3705  0.3872 -0.6260
 7159SOL    HW132939   4.239   0.816  13.290  0.8234 -0.8260 -0.1631
 7159SOL    HW232940   4.196   0.909  13.388  1.7011  2.4976 -0.5940
 7160SOL     OW32941   1.616   1.096   4.803  0.3756 -0.4593  0.0047
 7160SOL    HW132942   1.699   1.111   4.757 -0.9022  1.7607 -1.5784
 7160SOL    HW232943   1.560   1.168   4.776 -1.8261 -1.9285  0.6383
 7161SOL     OW32944   1.503   2.607  16.736  0.2720  0.3556 -0.5450
 7161SOL    HW132945   1.417   2.572  16.709  0.7708 -1.4045  0.1305
 7161SOL    HW232946   1.469   2.688  16.774  1.1757  0.0086  0.9963
 7162SOL     OW32947   3.007   3.767  17.377  0.3009 -0.1541 -0.3624
 7162SOL    HW132948   3.100   3.742  17.384  0.7461  1.3622 -0.9198
 7162SOL    HW232949   2.961   3.692  17.414  0.0798 -0.7700 -1.8529
 7163SOL     OW32950   4.278   3.301  13.075  0.1517 -0.5889 -0.3257
 7163SOL    HW132951   4.253   3.364  13.008  0.7830 -0.8720 -0.8210
 7163SOL    HW232952   4.361   3.337  13.104 -0.4871  0.1308  0.6236
 7164SOL     OW32953   0.872   2.212   6.033 -0.2167 -0.1520 -0.0529
 7164SOL    HW132954   0.856   2.130   5.984 -0.4617  0.7946 -1.5649
 7164SOL    HW232955   0.854   2.282   5.971 -1.1460 -2.3250 -2.2808
 7165SOL     OW32956   0.122   1.371  12.721  0.0442 -0.1360  0.1739
 7165SOL    HW132957   0.060   1.443  12.731 -0.1962 -0.4029  0.5789
 7165SOL    HW232958   0.061   1.301  12.701 -0.2356  0.1991 -0.1454
 7166SOL     OW32959   3.204   4.603   3.094 -0.0086  0.0795  0.5783
 7166SOL    HW132960   3.253   4.684   3.113 -0.2359  0.1010  1.0509
 7166SOL    HW232961   3.243   4.572   3.012  1.5822  0.2034  1.2777
 7167SOL     OW32962   2.933   2.999   2.764  0.3493 -0.0760  0.3332
 7167SOL    HW132963   2.839   2.987   2.751  0.2172 -0.4604  1.6373
 7167SOL    HW232964   2.955   3.053   2.688  0.1985  0.7280  0.8642
 7168SOL     OW32965   2.044   4.719   8.254  0.1282  0.6717 -0.0715
 7168SOL    HW132966   1.955   0.030   8.241 -0.1304  0.2443  0.6246
 7168SOL    HW232967   2.055   0.007   8.348  0.6128  0.2135 -0.0814
 7169SOL     OW32968   2.862   3.754   6.227 -0.2446  0.3431 -0.3192
 7169SOL    HW132969   2.840   3.669   6.267 -0.4577 -0.0458 -1.2467
 7169SOL    HW232970   2.957   3.759   6.234 -0.1986 -0.4489 -0.2775
 7170SOL     OW32971   3.248   2.082  13.684  0.0517 -0.8369 -0.1337
 7170SOL    HW132972   3.295   2.149  13.733 -0.4758 -2.6557  2.8623
 7170SOL    HW232973   3.203   2.129  13.615 -0.5365  0.5040  1.1679
 7171SOL     OW32974   3.466   1.198  10.247  0.5240 -0.2080 -0.5358
 7171SOL    HW132975   3.487   1.142  10.321  0.8159  0.7797  0.1194
 7171SOL    HW232976   3.371   1.181  10.245  1.1006 -3.5397  0.3681
 7172SOL     OW32977   3.798   1.726   6.411  0.4214 -0.0147 -0.0900
 7172SOL    HW132978   3.865   1.657   6.411 -0.0026 -0.4333  0.3657
 7172SOL    HW232979   3.792   1.743   6.317 -1.4194 -0.0820  0.0108
 7173SOL     OW32980   0.541   4.701  17.244  0.0243  0.5070 -0.2924
 7173SOL    HW132981   0.501   4.616  17.266  2.8019 -0.9703 -0.9965
 7173SOL    HW232982   0.615   4.704  17.304  0.0731 -0.5491 -0.2901
 7174SOL     OW32983   1.667   0.616  17.385  0.2592  0.3067 -0.1498
 7174SOL    HW132984   1.759   0.590  17.378  0.6127  1.0444  1.6135
 7174SOL    HW232985   1.621   0.557  17.326 -0.9411  0.5055  0.5866
 7175SOL     OW32986   1.407   1.084   3.701 -0.0267  0.5633  0.4112
 7175SOL    HW132987   1.378   1.150   3.764 -0.6361 -0.3718  1.1044
 7175SOL    HW232988   1.499   1.071   3.727  0.0416  0.3536  0.0567
 7176SOL     OW32989   3.226   3.086  14.965  0.2593  0.4299 -0.2591
 7176SOL    HW132990   3.202   3.138  14.889  1.1996  0.8196 -0.2847
 7176SOL    HW232991   3.171   3.120  15.035  2.0246  0.5560  1.0667
 7177SOL     OW32992   2.969   0.054   2.789  0.6159  0.1548  0.3955
 7177SOL    HW132993   2.983   4.689   2.827 -1.5714  0.0719  1.0170
 7177SOL    HW232994   2.880   0.047   2.753  0.9842  0.6557 -0.5956
 7178SOL     OW32995   4.098   2.147   9.864 -0.2891 -0.5501 -0.0676
 7178SOL    HW132996   4.039   2.193   9.923 -0.6970  0.4124 -1.2431
 7178SOL    HW232997   4.177   2.192   9.895  0.1791 -0.6360 -1.1481
 7179SOL     OW32998   4.371   1.704   0.321  0.3138  0.2218 -0.6274
 7179SOL    HW132999   4.349   1.742   0.236 -2.6613 -2.8758 -1.2208
 7179SOL    HW233000   4.463   1.729   0.333  0.4920  0.2166 -1.9589
 7180SOL     OW33001   2.491   2.891   9.168 -0.6059 -0.4107 -0.4238
 7180SOL    HW133002   2.426   2.941   9.119 -1.2678  1.1315  1.9664
 7180SOL    HW233003   2.441   2.853   9.240  2.6775 -2.7675  0.6475
 7181SOL     OW33004   0.596   4.425   4.372  0.0852 -0.3615  0.2568
 7181SOL    HW133005   0.550   4.492   4.320  0.7720  0.5601  0.8391
 7181SOL    HW233006   0.681   4.418   4.329  1.2120  2.1475  2.0613
 7182SOL     OW33007   2.209   1.694   4.988 -0.0498 -0.6230 -0.2435
 7182SOL    HW133008   2.173   1.736   4.911  2.0630  0.5075 -0.6235
 7182SOL    HW233009   2.176   1.605   4.975  0.0882 -0.8220  0.7357
 7183SOL     OW33010   2.582   3.554   1.875 -0.4174  0.0716 -0.0660
 7183SOL    HW133011   2.637   3.629   1.852 -2.0486  1.8508  1.8614
 7183SOL    HW233012   2.512   3.559   1.809  0.4736 -1.7089 -1.1392
 7184SOL     OW33013   1.853   2.240   3.754  0.5250 -0.0075 -0.3252
 7184SOL    HW133014   1.868   2.233   3.848  2.6280 -2.2399 -0.8272
 7184SOL    HW233015   1.801   2.319   3.741 -0.9729 -0.5310  2.4814
 7185SOL     OW33016   1.768   3.329   2.167 -0.1200  0.2264 -0.0211
 7185SOL    HW133017   1.835   3.277   2.211 -0.0012  0.8376  0.5138
 7185SOL    HW233018   1.746   3.276   2.090 -1.1030 -1.0959  1.1843
 7186SOL     OW33019   3.935   3.908   6.967  0.0670 -0.0820  0.0692
 7186SOL    HW133020   3.965   3.877   7.053 -1.9313 -1.2231  0.3523
 7186SOL    HW233021   3.874   3.840   6.937 -0.0024 -0.3894  0.8861
 7187SOL     OW33022   3.797   3.510   2.807  0.3734  0.2527 -0.1438
 7187SOL    HW133023   3.721   3.504   2.749  1.1504 -0.7428 -1.0499
 7187SOL    HW233024   3.774   3.573   2.876  2.5695 -0.0241  0.8493
 7188SOL     OW33025   2.531   3.759   2.348  0.5663  0.2844 -0.2590
 7188SOL    HW133026   2.616   3.792   2.375  0.6480  0.7859 -1.1269
 7188SOL    HW233027   2.555   3.680   2.300 -3.1530 -1.9796  1.5918
 7189SOL     OW33028   3.713   1.276   2.307 -0.1206 -0.4065 -0.0043
 7189SOL    HW133029   3.763   1.268   2.225 -1.1722  0.6327 -0.7445
 7189SOL    HW233030   3.699   1.189   2.344  1.6518 -0.9753 -0.6559
 7190SOL     OW33031   0.972   3.153   8.812  0.2464 -0.2926  0.0189
 7190SOL    HW133032   0.936   3.163   8.900 -0.0660 -0.8136 -0.0485
 7190SOL    HW233033   0.925   3.071   8.795 -0.0863 -0.5450  2.1818
 7191SOL     OW33034   2.614   3.790   4.087  0.0685 -0.4320 -0.4524
 7191SOL    HW133035   2.686   3.846   4.059 -0.5971  0.0522 -1.1785
 7191SOL    HW233036   2.535   3.833   4.055  0.5917  0.3434 -0.7235
 7192SOL     OW33037   2.139   2.949   5.575  0.2956 -0.0348  0.4502
 7192SOL    HW133038   2.197   2.976   5.647 -2.4600  2.5814  1.6385
 7192SOL    HW233039   2.124   3.037   5.541 -0.7160 -0.4742 -0.2349
 7193SOL     OW33040   4.017   0.172  10.457 -0.2797 -0.1152 -0.6209
 7193SOL    HW133041   4.108   0.151  10.475 -0.3124 -0.4676 -0.8582
 7193SOL    HW233042   3.970   0.088  10.463 -1.0749  0.2143 -2.1596
 7194SOL     OW33043   4.214   4.345   3.750 -0.1478 -0.7857  0.2628
 7194SOL    HW133044   4.227   4.406   3.678 -1.6969  1.0222  1.5199
 7194SOL    HW233045   4.137   4.396   3.776  1.6582  1.5731  0.9290
 7195SOL     OW33046   1.635   2.656  16.396  0.2981 -0.1441  0.0253
 7195SOL    HW133047   1.675   2.655  16.309  1.6230  0.1209  0.6367
 7195SOL    HW233048   1.545   2.624  16.383  0.5816 -1.3748  1.0778
 7196SOL     OW33049   2.825   0.218  11.927 -0.0450  0.3487 -0.1470
 7196SOL    HW133050   2.835   0.258  11.840 -0.9011 -0.3366 -0.5559
 7196SOL    HW233051   2.902   0.257  11.968  0.2319 -0.7530  0.3577
 7197SOL     OW33052   2.787   4.156   2.825 -0.8281 -0.1465 -0.0025
 7197SOL    HW133053   2.866   4.192   2.784 -0.8198 -1.1844 -0.9297
 7197SOL    HW233054   2.739   4.142   2.743 -2.0557  2.1613  0.3210
 7198SOL     OW33055   0.786   1.509  14.684  0.3667 -0.1209 -0.2326
 7198SOL    HW133056   0.863   1.487  14.631  0.9255 -2.5675  1.5639
 7198SOL    HW233057   0.721   1.500  14.614 -0.3200 -4.3234  0.9217
 7199SOL     OW33058   4.492   2.580   6.917 -0.1703  0.4067 -0.2032
 7199SOL    HW133059   4.546   2.515   6.960 -2.6545 -0.1111  2.1581
 7199SOL    HW233060   4.436   2.533   6.854  1.0031  1.5042 -2.0771
 7200SOL     OW33061   2.593   0.484  13.857  0.5993 -0.0780 -0.4837
 7200SOL    HW133062   2.622   0.505  13.946 -2.4275  0.6882  0.3035
 7200SOL    HW233063   2.535   0.558  13.840 -2.2963 -2.6805 -1.8191
 7201SOL     OW33064   2.418   4.137   6.846 -0.0392 -0.3091 -0.2204
 7201SOL    HW133065   2.362   4.209   6.875 -1.8084 -0.7165 -2.7013
 7201SOL    HW233066   2.408   4.155   6.753 -5.1491  0.6133  0.5571
 7202SOL     OW33067   2.275   3.505   7.573  0.0978 -0.7300 -0.3037
 7202SOL    HW133068   2.287   3.540   7.485  2.7977  2.2061  1.1998
 7202SOL    HW233069   2.185   3.481   7.554 -0.0106 -1.5628  1.2953
 7203SOL     OW33070   2.417   1.163   8.359  0.2112  0.4030 -0.0502
 7203SOL    HW133071   2.409   1.078   8.401  1.5508  0.2294 -0.1314
 7203SOL    HW233072   2.331   1.178   8.321 -0.2824  1.0362  1.3198
 7204SOL     OW33073   1.429   3.984   9.659 -0.1202 -0.6529 -0.0273
 7204SOL    HW133074   1.376   3.937   9.593  0.4709 -3.0884  1.2297
 7204SOL    HW233075   1.381   3.958   9.737 -0.0546 -2.6373 -0.6374
 7205SOL     OW33076   0.306   4.402  11.420 -0.5814  0.6007 -0.1550
 7205SOL    HW133077   0.270   4.437  11.338 -2.9791 -1.1271  0.1672
 7205SOL    HW233078   0.262   4.465  11.478  0.3529 -0.6846  1.9287
 7206SOL     OW33079   3.699   1.407   4.123  0.3230  0.2486 -0.4442
 7206SOL    HW133080   3.749   1.471   4.073  0.3138 -0.3411 -1.1935
 7206SOL    HW233081   3.764   1.359   4.175 -1.1413  0.9932  2.1079
 7207SOL     OW33082   3.266   1.909   1.620 -0.2525  0.1106  0.3133
 7207SOL    HW133083   3.303   1.962   1.691 -1.0243  2.2051 -0.8499
 7207SOL    HW233084   3.339   1.898   1.560 -0.7265 -1.2737 -0.0236
 7208SOL     OW33085   1.366   2.250   6.295 -0.2442 -0.2492  0.2427
 7208SOL    HW133086   1.412   2.223   6.215 -0.7888 -2.6646  0.7488
 7208SOL    HW233087   1.391   2.182   6.358 -0.1850 -0.8666 -0.4365
 7209SOL     OW33088   4.558   1.347   8.134  0.2272  0.5107  0.5542
 7209SOL    HW133089   4.501   1.421   8.154 -0.5896  0.2307 -0.7543
 7209SOL    HW233090   4.587   1.319   8.220  1.5361 -0.7569 -0.3043
 7210SOL     OW33091   0.803   4.106   5.266 -0.4691  0.4806  0.4449
 7210SOL    HW133092   0.843   4.074   5.185 -1.7724  0.1112 -0.0562
 7210SOL    HW233093   0.855   4.065   5.335  1.2557 -1.8550 -2.1960
 7211SOL     OW33094   2.370   3.709   2.584 -0.0015  0.5469 -0.2928
 7211SOL    HW133095   2.312   3.786   2.589  1.1348  1.3764  0.1114
 7211SOL    HW233096   2.442   3.744   2.532  1.7245  0.5833  2.1772
 7212SOL     OW33097   1.636   0.957   7.012 -0.2648  0.2049  0.1469
 7212SOL    HW133098   1.710   0.903   7.042  0.2045  0.0230 -1.3583
 7212SOL    HW233099   1.655   1.050   7.026  1.6501 -0.2576  0.6319
 7213SOL     OW33100   3.707   4.291  15.803 -0.1791  0.1460  0.3177
 7213SOL    HW133101   3.616   4.317  15.791 -0.3487 -0.2767  0.7145
 7213SOL    HW233102   3.763   4.341  15.743  0.2786  1.3008  1.7015
 7214SOL     OW33103   0.273   1.466  17.202 -0.0682  0.3007  0.3481
 7214SOL    HW133104   0.322   1.477  17.120 -0.5275 -1.3475 -0.1415
 7214SOL    HW233105   0.340   1.442  17.266 -2.1791  0.3127  2.5544
 7215SOL     OW33106   0.555   2.193   4.071  0.4739 -0.4735  0.0481
 7215SOL    HW133107   0.570   2.255   3.999  1.3838  0.8008  1.3505
 7215SOL    HW233108   0.549   2.113   4.018  0.5964 -0.7163  0.4066
 7216SOL     OW33109   2.255   3.774   6.283  0.3158 -0.3459  0.1945
 7216SOL    HW133110   2.328   3.834   6.272 -0.5021  0.5575 -0.2502
 7216SOL    HW233111   2.192   3.813   6.343  0.8605 -0.7732  1.0491
 7217SOL     OW33112   3.090   0.023   0.992  0.3132 -0.4041  0.1800
 7217SOL    HW133113   3.082   4.653   1.017 -1.6819  0.3696  2.4033
 7217SOL    HW233114   3.010   0.036   0.943  0.9503 -2.7747 -1.4999
 7218SOL     OW33115   2.746   3.229   6.220 -0.2518  0.1171 -0.4592
 7218SOL    HW133116   2.740   3.201   6.129  1.4454  3.9456 -1.7391
 7218SOL    HW233117   2.787   3.315   6.212  0.1747  0.1375  1.7430
 7219SOL     OW33118   1.845   1.446   2.157  0.6039 -0.7028 -0.3140
 7219SOL    HW133119   1.775   1.437   2.092 -0.1263  0.9063  0.2527
 7219SOL    HW233120   1.843   1.358   2.194  0.4387 -0.7158 -0.3541
 7220SOL     OW33121   1.974   3.177  16.676  0.6403  0.1853  0.2782
 7220SOL    HW133122   2.023   3.225  16.742 -0.2734  0.6781  0.5934
 7220SOL    HW233123   2.006   3.091  16.703  0.1676 -0.3050 -0.6973
 7221SOL     OW33124   0.452   2.599  15.145 -0.3914 -0.2034  0.4816
 7221SOL    HW133125   0.494   2.632  15.225  0.2938  1.5419 -0.6096
 7221SOL    HW233126   0.485   2.509  15.143  1.3205  0.4341  0.3321
 7222SOL     OW33127   4.500   2.062   5.368 -0.6316  0.3305  0.5429
 7222SOL    HW133128   4.538   2.076   5.281 -1.6638  1.4433  0.2799
 7222SOL    HW233129   4.409   2.076   5.344 -0.3109  0.0411 -0.8100
 7223SOL     OW33130   3.894   3.939  14.708  0.2236 -0.5250 -0.0183
 7223SOL    HW133131   3.893   3.980  14.794  0.1229 -0.5018 -0.0300
 7223SOL    HW233132   3.959   3.870  14.724 -0.2996 -0.4160  2.4589
 7224SOL     OW33133   4.303   2.415   6.754  0.4291  0.1401 -0.3144
 7224SOL    HW133134   4.240   2.472   6.709  1.8198  3.8330  2.4479
 7224SOL    HW233135   4.367   2.401   6.684 -0.4666 -1.0387 -0.9004
 7225SOL     OW33136   1.298   4.375   6.196 -0.0638 -0.0861  0.4689
 7225SOL    HW133137   1.267   4.464   6.208 -0.5603 -0.4856  2.1712
 7225SOL    HW233138   1.383   4.377   6.242  1.4685 -0.4994 -2.3389
 7226SOL     OW33139   3.902   2.878   3.601 -0.4025  0.3079 -0.0091
 7226SOL    HW133140   3.836   2.946   3.611  0.7821  1.3213  0.8928
 7226SOL    HW233141   3.853   2.796   3.613  0.4890 -0.4059 -1.2043
 7227SOL     OW33142   1.616   1.167  11.890 -0.4660  0.1758 -0.1895
 7227SOL    HW133143   1.678   1.119  11.944 -1.2774 -0.2087  0.4082
 7227SOL    HW233144   1.655   1.160  11.803 -2.9072 -2.2370 -1.0879
 7228SOL     OW33145   4.160   2.529  11.284 -0.2361 -0.2234  0.1976
 7228SOL    HW133146   4.158   2.610  11.232  2.3588  0.2121  0.7444
 7228SOL    HW233147   4.095   2.479  11.236 -0.8596  0.2230  0.5666
 7229SOL     OW33148   4.014   2.958   3.325 -0.3014 -0.4338  0.0571
 7229SOL    HW133149   4.104   2.926   3.328 -0.4951 -1.0896 -1.1229
 7229SOL    HW233150   3.977   2.952   3.413 -1.8385 -0.3809 -0.5785
 7230SOL     OW33151   1.398   3.776  12.422  0.3982  0.2207  0.2051
 7230SOL    HW133152   1.478   3.817  12.390  1.0411  0.7873  2.5020
 7230SOL    HW233153   1.343   3.782  12.344  0.3578 -0.5683  0.1706
 7231SOL     OW33154   0.035   2.241   4.059  0.2681 -0.1088  0.1928
 7231SOL    HW133155   0.114   2.189   4.044 -0.8956 -1.5540 -1.0621
 7231SOL    HW233156   0.060   2.323   4.016 -2.6103 -0.2733 -1.8605
 7232SOL     OW33157   2.426   0.701  13.878  0.0722 -0.0459  0.1928
 7232SOL    HW133158   2.505   0.749  13.901 -1.4638  1.3800  2.4593
 7232SOL    HW233159   2.365   0.738  13.941  2.2988  1.3280  1.5149
 7233SOL     OW33160   4.495   3.384   8.159 -0.4145 -0.8266 -0.2450
 7233SOL    HW133161   4.453   3.456   8.207 -0.3123 -1.7339  1.2098
 7233SOL    HW233162   4.578   3.416   8.124 -1.7869  2.6764 -0.3929
 7234SOL     OW33163   0.963   0.612   9.458 -0.4298  0.3353 -0.2148
 7234SOL    HW133164   0.947   0.667   9.381  1.1536 -0.4218 -1.0808
 7234SOL    HW233165   0.971   0.523   9.423 -1.6942  0.6268 -1.2488
 7235SOL     OW33166   2.336   4.178   2.738 -0.4664  0.3417 -0.1037
 7235SOL    HW133167   2.242   4.195   2.729 -0.2037  0.8819 -1.7903
 7235SOL    HW233168   2.372   4.155   2.652 -0.1826  2.0183 -0.4249
 7236SOL     OW33169   2.787   1.267   5.824  0.1929  0.3519 -0.1452
 7236SOL    HW133170   2.807   1.360   5.838 -1.4289  0.8453 -1.1088
 7236SOL    HW233171   2.852   1.215   5.871 -2.4743 -0.2927  2.8337
 7237SOL     OW33172   3.746   1.721  17.649  0.1044  0.2729 -0.5358
 7237SOL    HW133173   3.818   1.687   0.011 -1.0584 -0.0180  0.8365
 7237SOL    HW233174   3.726   1.644  17.596 -1.6876 -0.1704  0.7994
 7238SOL     OW33175   0.147   0.548   5.216  0.5144 -0.3564 -0.0984
 7238SOL    HW133176   0.067   0.497   5.201 -0.7102  0.9059  2.1118
 7238SOL    HW233177   0.118   0.634   5.187 -1.0920  0.1745  3.1152
 7239SOL     OW33178   3.511   1.101   3.343 -0.6930 -0.1108  0.4605
 7239SOL    HW133179   3.562   1.069   3.268  0.9108  0.4240  1.3281
 7239SOL    HW233180   3.420   1.083   3.320 -0.3446 -0.6648 -0.5019
 7240SOL     OW33181   1.472   4.525   7.330 -0.0350 -0.1104  0.2081
 7240SOL    HW133182   1.561   4.492   7.317  0.7970  1.4823  1.9006
 7240SOL    HW233183   1.415   4.464   7.284 -0.2443 -0.6746  1.2022
 7241SOL     OW33184   3.181   3.867  15.153  0.2028 -0.2764 -0.1575
 7241SOL    HW133185   3.107   3.858  15.092 -1.1977 -3.0515  1.9661
 7241SOL    HW233186   3.170   3.791  15.210  0.1706 -1.5887 -1.8939
 7242SOL     OW33187   0.724   1.751   4.267  0.4770 -0.0008 -0.0404
 7242SOL    HW133188   0.700   1.840   4.292  1.7660  0.7954 -1.5936
 7242SOL    HW233189   0.664   1.705   4.326  1.4033 -2.8692 -1.3357
 7243SOL     OW33190   3.582   4.600   4.899 -0.2453 -0.3791 -0.2062
 7243SOL    HW133191   3.561   4.507   4.899 -1.2329 -0.1664 -3.6088
 7243SOL    HW233192   3.652   4.593   4.834 -0.0770  0.3730 -0.1114
 7244SOL     OW33193   3.611   2.634   4.810 -0.0926 -0.4977  0.4552
 7244SOL    HW133194   3.698   2.625   4.772 -0.0172  0.8744  0.3085
 7244SOL    HW233195   3.602   2.728   4.824 -1.6884 -0.1824 -2.6948
 7245SOL     OW33196   0.500   4.523   4.126  0.4912 -0.0612 -0.2238
 7245SOL    HW133197   0.462   4.610   4.115  1.1026  0.0413 -1.4772
 7245SOL    HW233198   0.581   4.525   4.075  0.5796 -3.3932 -0.2157
 7246SOL     OW33199   1.278   4.426   4.709  0.2473  0.1629  0.0913
 7246SOL    HW133200   1.244   4.498   4.762  1.3981 -0.1493  1.2678
 7246SOL    HW233201   1.371   4.429   4.732  0.6873  0.6051 -1.7230
 7247SOL     OW33202   4.251   4.441   8.240  0.4135 -0.0642 -0.1970
 7247SOL    HW133203   4.324   4.436   8.178  0.7751  0.0892  0.2173
 7247SOL    HW233204   4.233   4.348   8.256  0.4941 -0.0150  0.1774
 7248SOL     OW33205   0.194   4.300  11.080  0.1431 -0.5335 -0.2953
 7248SOL    HW133206   0.100   4.305  11.063 -0.3971  0.3966  2.9228
 7248SOL    HW233207   0.212   4.384  11.122  0.2719 -0.5378 -0.3425
 7249SOL     OW33208   3.366   3.373   5.445  0.2629  0.2128  0.7581
 7249SOL    HW133209   3.291   3.349   5.498  1.1018  0.5001  2.0635
 7249SOL    HW233210   3.331   3.348   5.359  1.3257  0.2787  0.3010
 7250SOL     OW33211   2.371   4.179   8.708  0.5324 -0.3065 -0.0549
 7250SOL    HW133212   2.354   4.127   8.786 -1.0835  1.7022  0.9276
 7250SOL    HW233213   2.332   4.261   8.737 -0.0354 -1.3549  2.1590
 7251SOL     OW33214   3.870   1.908   6.599  0.3152 -0.9640  0.7063
 7251SOL    HW133215   3.849   1.841   6.535 -0.8759  1.1817 -1.1794
 7251SOL    HW233216   3.902   1.855   6.672  0.0923 -0.8901  0.8589
 7252SOL     OW33217   4.430   4.211   4.384  0.3050  0.4827 -0.0081
 7252SOL    HW133218   4.439   4.236   4.476  0.5211 -0.5435  0.2448
 7252SOL    HW233219   4.403   4.119   4.375 -0.5163  0.7206 -0.0308
 7253SOL     OW33220   1.697   0.253   3.892 -0.0443 -0.3685  0.4677
 7253SOL    HW133221   1.719   0.224   3.803  0.2227  0.0742  0.3843
 7253SOL    HW233222   1.785   0.250   3.931  0.0088  0.4507  0.4138
 7254SOL     OW33223   1.648   4.549   6.971 -0.2248 -0.6243  0.4003
 7254SOL    HW133224   1.739   4.571   6.989 -0.6267  1.1550  0.2182
 7254SOL    HW233225   1.654   4.547   6.876  1.2021 -1.5821  0.5112
 7255SOL     OW33226   2.861   4.265   2.388 -0.1099 -0.2991 -0.5141
 7255SOL    HW133227   2.930   4.330   2.373 -2.1078  1.7019 -1.1355
 7255SOL    HW233228   2.872   4.192   2.327 -0.0934 -0.6532 -0.0882
 7256SOL     OW33229   2.137   1.540   3.877 -0.2980 -0.1860  0.5223
 7256SOL    HW133230   2.142   1.628   3.915 -0.5703  0.7565 -1.6378
 7256SOL    HW233231   2.053   1.509   3.911 -0.6710  2.1072  1.7135
 7257SOL     OW33232   2.042   0.490   6.786  0.1213  0.3097 -0.3001
 7257SOL    HW133233   1.951   0.511   6.763  0.6623  1.4170 -1.3890
 7257SOL    HW233234   2.061   0.533   6.870  1.0637  0.3524 -0.5406
 7258SOL     OW33235   0.651   4.386  13.639 -0.4004  0.1670 -0.0415
 7258SOL    HW133236   0.701   4.437  13.576  0.6843 -0.1388  0.5772
 7258SOL    HW233237   0.704   4.308  13.655 -1.4692 -0.4631  0.4357
 7259SOL     OW33238   0.760   0.878   6.107 -0.1581  0.8174  0.3445
 7259SOL    HW133239   0.789   0.829   6.030  1.0241 -0.5687  1.6751
 7259SOL    HW233240   0.818   0.840   6.173 -0.9986  1.1185  1.2593
 7260SOL     OW33241   0.556   1.492   1.941  0.0549  0.3905  0.0321
 7260SOL    HW133242   0.497   1.542   1.886  0.7647 -0.1009 -1.1788
 7260SOL    HW233243   0.626   1.468   1.879  0.6893  0.4344  0.7264
 7261SOL     OW33244   4.623   3.420   5.172  0.3229  0.4896  0.0604
 7261SOL    HW133245   4.601   3.370   5.251  0.1286  0.7165  0.1494
 7261SOL    HW233246   4.600   3.361   5.101  1.6860 -0.3645  0.3296
 7262SOL     OW33247   2.598   3.253   1.663 -0.0670  0.7763  0.4248
 7262SOL    HW133248   2.511   3.248   1.624  0.4931 -1.5802 -0.4954
 7262SOL    HW233249   2.611   3.346   1.644  4.6248 -0.3277 -1.6577
 7263SOL     OW33250   1.947   1.984  13.044 -0.2168 -0.2546 -0.1997
 7263SOL    HW133251   1.890   2.040  13.097 -0.4172 -0.2694 -0.3999
 7263SOL    HW233252   2.030   2.005  13.087 -0.7011  1.7820 -0.2822
 7264SOL     OW33253   4.213   4.188   7.293  0.1757  0.3364  0.1865
 7264SOL    HW133254   4.174   4.230   7.369  1.4668  0.0589  1.0013
 7264SOL    HW233255   4.303   4.186   7.324  0.0629  1.0429  0.5564
 7265SOL     OW33256   1.543   4.572  13.194 -0.4474 -0.5997  0.0149
 7265SOL    HW133257   1.494   4.534  13.268  0.3954  0.8052  1.2828
 7265SOL    HW233258   1.608   4.621  13.243 -1.2117  0.1274  0.3124
 7266SOL     OW33259   1.638   4.596   8.854  0.1977 -0.5493 -0.4142
 7266SOL    HW133260   1.659   4.591   8.947  0.4864 -0.6736 -0.4867
 7266SOL    HW233261   1.545   4.606   8.873  0.9365  2.2858  1.7295
 7267SOL     OW33262   1.153   4.415  13.506  0.5129 -0.2443  0.4183
 7267SOL    HW133263   1.172   4.507  13.522  0.5765  0.0138 -1.1347
 7267SOL    HW233264   1.058   4.409  13.513  0.2984  4.0744  1.1622
 7268SOL     OW33265   3.893   0.508   6.768  0.6335  0.1664  0.5591
 7268SOL    HW133266   3.852   0.446   6.828  1.1661  1.8824  2.7073
 7268SOL    HW233267   3.890   0.449   6.693  1.5224  1.1422 -0.2532
 7269SOL     OW33268   3.279   2.637  14.884  0.1702  0.0571 -0.3353
 7269SOL    HW133269   3.333   2.705  14.923  0.7879  0.5468 -2.0480
 7269SOL    HW233270   3.341   2.592  14.827  1.4912 -1.4740  2.2886
 7270SOL     OW33271   1.925   1.195   6.458  0.3538  0.7261 -0.2607
 7270SOL    HW133272   1.872   1.195   6.538 -2.5983  2.2675 -2.2281
 7270SOL    HW233273   1.859   1.212   6.391 -0.2088 -0.7527 -0.0787
 7271SOL     OW33274   0.980   3.737   3.370  0.1222  0.1266  0.1400
 7271SOL    HW133275   1.014   3.827   3.377  2.0719 -0.7386  1.9166
 7271SOL    HW233276   0.997   3.700   3.283 -1.7764 -0.3895 -0.0132
 7272SOL     OW33277   3.802   1.044  11.914 -0.0937  0.2543  0.0455
 7272SOL    HW133278   3.741   1.113  11.941 -2.3083 -2.0754  0.9426
 7272SOL    HW233279   3.785   1.059  11.821 -1.1195  0.0209  0.1941
 7273SOL     OW33280   1.711   3.202  16.841  0.0632  0.4696  0.2836
 7273SOL    HW133281   1.692   3.287  16.881  0.4315  0.4408  0.5146
 7273SOL    HW233282   1.754   3.228  16.760  0.9757  0.6650  0.8288
 7274SOL     OW33283   2.178   3.668  13.619 -0.3418 -0.2140  0.0815
 7274SOL    HW133284   2.207   3.754  13.589  0.8951 -1.6482 -2.7936
 7274SOL    HW233285   2.084   3.669  13.604 -0.0524  1.7049 -1.5612
 7275SOL     OW33286   0.565   0.692   5.528 -0.5787 -0.3817  0.2148
 7275SOL    HW133287   0.555   0.597   5.528  1.9784 -0.6399  0.0308
 7275SOL    HW233288   0.486   0.720   5.481  0.1741  0.1674 -0.7240
 7276SOL     OW33289   1.168   1.937   4.791 -0.1508 -0.5210 -0.4049
 7276SOL    HW133290   1.101   2.004   4.771 -0.8394 -1.2430 -0.5152
 7276SOL    HW233291   1.247   1.979   4.758  0.8295 -0.9411  1.4457
 7277SOL     OW33292   4.505   1.427   3.381 -0.1304  0.5015  0.6438
 7277SOL    HW133293   4.469   1.376   3.308  2.4414  2.1979 -1.7936
 7277SOL    HW233294   4.472   1.514   3.358 -1.7852  0.3552  2.4402
 7278SOL     OW33295   3.372   2.020   5.748 -0.0805 -0.4269  0.0623
 7278SOL    HW133296   3.286   2.004   5.786 -0.9593  0.1438 -1.6924
 7278SOL    HW233297   3.361   1.981   5.661 -1.1177  0.1182 -0.0551
 7279SOL     OW33298   4.326   3.292  11.830  0.7802  0.1742 -0.7837
 7279SOL    HW133299   4.371   3.355  11.774  2.7160  0.8406  1.5159
 7279SOL    HW233300   4.373   3.303  11.913 -0.3636 -0.5168 -0.0415
 7280SOL     OW33301   0.315   2.686  15.466  0.1248  0.1265  0.5550
 7280SOL    HW133302   0.409   2.699  15.476  0.5704 -1.6354 -1.5996
 7280SOL    HW233303   0.294   2.606  15.514  0.5442  1.0866  2.3718
 7281SOL     OW33304   2.484   1.644   8.217  0.6121 -0.0519 -1.1015
 7281SOL    HW133305   2.559   1.628   8.160  1.4262  3.3386 -1.0159
 7281SOL    HW233306   2.423   1.581   8.180 -0.6749  0.2008  0.5596
 7282SOL     OW33307   3.008   0.055   3.428 -0.1255 -0.1363 -0.1738
 7282SOL    HW133308   2.962   0.069   3.511  0.7990 -1.0678  0.4942
 7282SOL    HW233309   3.024   0.142   3.393 -0.7675 -0.0211 -0.1820
 7283SOL     OW33310   2.485   3.326   4.804  0.0987 -0.1500  0.2522
 7283SOL    HW133311   2.456   3.310   4.715 -0.2202 -0.3033  0.3837
 7283SOL    HW233312   2.494   3.232   4.823 -0.7055 -0.5755 -1.5162
 7284SOL     OW33313   2.698   2.620   4.570  0.3629  0.2202 -0.1270
 7284SOL    HW133314   2.625   2.637   4.629 -0.2445  0.2677 -0.8919
 7284SOL    HW233315   2.763   2.683   4.600  1.2101 -0.2924 -0.9152
 7285SOL     OW33316   1.475   2.981  16.580  0.5721 -0.2825  0.1394
 7285SOL    HW133317   1.383   3.007  16.585  0.0982 -1.9464  0.0660
 7285SOL    HW233318   1.510   3.033  16.652 -0.0595  3.0193 -1.9427
 7286SOL     OW33319   1.351   0.653  16.564 -0.8349 -0.5402 -0.6220
 7286SOL    HW133320   1.301   0.638  16.484 -2.2642  2.5177 -0.3080
 7286SOL    HW233321   1.309   0.731  16.599 -0.9137  0.9567 -4.1294
 7287SOL     OW33322   0.057   2.694  11.474 -0.0237 -0.1641 -0.1898
 7287SOL    HW133323   0.046   2.760  11.406 -1.5260 -2.3193 -2.0362
 7287SOL    HW233324   0.090   2.633  11.408  2.1731 -0.8069  1.5214
 7288SOL     OW33325   3.356   0.033   4.180 -0.5672  0.4485  0.1017
 7288SOL    HW133326   3.325   0.036   4.271 -1.3557 -2.0775 -0.1040
 7288SOL    HW233327   3.440   4.719   4.206 -0.1886 -0.5434 -2.5271
 7289SOL     OW33328   3.445   0.384   2.091  0.2232  0.0976 -0.6220
 7289SOL    HW133329   3.532   0.383   2.131 -0.6180  0.8198  1.2460
 7289SOL    HW233330   3.465   0.347   2.005  0.3367 -2.0654  0.3434
 7290SOL     OW33331   1.447   4.579   2.233 -0.8228  0.2532 -0.1922
 7290SOL    HW133332   1.360   4.539   2.227  0.0833 -1.3332 -2.6218
 7290SOL    HW233333   1.501   4.504   2.209 -0.0567  1.2721 -1.6915
 7291SOL     OW33334   1.164   1.634   5.622 -0.7760 -0.1617  0.1589
 7291SOL    HW133335   1.126   1.721   5.615  0.0050  0.2239  0.6978
 7291SOL    HW233336   1.114   1.571   5.571 -1.9472 -0.5252  1.7402
 7292SOL     OW33337   3.642   3.759  16.297 -0.8061 -0.1216  0.0599
 7292SOL    HW133338   3.614   3.682  16.247 -1.1332  0.2168 -0.2773
 7292SOL    HW233339   3.727   3.762  16.252 -0.9043 -1.2540 -0.2028
 7293SOL     OW33340   2.228   1.278   6.514  0.7280 -0.1756 -0.1329
 7293SOL    HW133341   2.276   1.261   6.595  2.0397  1.9457 -0.4702
 7293SOL    HW233342   2.173   1.200   6.513  2.4798 -1.4052  0.2879
 7294SOL     OW33343   0.703   2.036   5.863 -0.6921  0.0560  0.1298
 7294SOL    HW133344   0.749   2.002   5.786  0.0440  0.3169  0.4524
 7294SOL    HW233345   0.626   2.074   5.822  1.9265  0.5793 -4.3405
 7295SOL     OW33346   2.863   0.963  13.176  0.3625  0.0808  1.0182
 7295SOL    HW133347   2.791   0.953  13.238  0.3368 -1.4326  0.7653
 7295SOL    HW233348   2.906   0.878  13.181  0.6568  0.1491 -0.2251
 7296SOL     OW33349   2.084   1.944  12.539  0.3562 -0.0367  0.0802
 7296SOL    HW133350   2.065   2.031  12.504  0.2620  0.7803  2.1064
 7296SOL    HW233351   2.016   1.914  12.600  0.6787  0.6062  0.7643
 7297SOL     OW33352   1.093   2.162  12.479 -0.2373 -0.0695  0.7003
 7297SOL    HW133353   1.186   2.142  12.477 -0.2711 -0.3223  1.9433
 7297SOL    HW233354   1.094   2.240  12.422  2.8303  0.2723  1.2230
 7298SOL     OW33355   4.312   0.820   4.268  0.2464  0.0937  0.0639
 7298SOL    HW133356   4.383   0.774   4.311 -0.7701 -1.1548  0.3990
 7298SOL    HW233357   4.247   0.806   4.337  0.6298 -1.1460  0.1591
 7299SOL     OW33358   3.919   4.043  15.687  0.4297 -0.2010  0.1420
 7299SOL    HW133359   3.938   4.094  15.765 -1.3815 -0.5300  0.7951
 7299SOL    HW233360   3.839   4.010  15.727 -0.5278  2.3766  0.3066
 7300SOL     OW33361   4.651   0.109   4.882 -0.7457 -0.2120  0.1796
 7300SOL    HW133362   0.005   0.139   4.832 -0.7580 -0.9258 -0.2778
 7300SOL    HW233363   4.628   0.020   4.855 -0.8218  0.2672 -1.2952
 7301SOL     OW33364   3.297   0.001  16.271  0.5295 -0.3036  0.4480
 7301SOL    HW133365   3.233   0.065  16.242  1.3653  0.7718  0.9936
 7301SOL    HW233366   3.374   0.052  16.295  1.3006 -0.9050 -0.7286
 7302SOL     OW33367   3.436   0.408   3.121  0.2581  0.5506 -0.6228
 7302SOL    HW133368   3.531   0.419   3.130  0.6841 -3.2369 -0.3694
 7302SOL    HW233369   3.422   0.357   3.201 -0.2859  1.6858  0.0122
 7303SOL     OW33370   0.182   3.246   1.635  0.2010  0.3357 -0.3619
 7303SOL    HW133371   0.235   3.322   1.658 -0.5462  0.5636  0.6450
 7303SOL    HW233372   0.152   3.216   1.722  2.2518 -0.0104  0.2195
 7304SOL     OW33373   3.237   0.010  15.180  0.8770  0.9009 -0.2610
 7304SOL    HW133374   3.198   0.065  15.112  0.2192 -1.1169 -1.5011
 7304SOL    HW233375   3.204   4.644  15.164 -0.4831  1.3182  0.2966
 7305SOL     OW33376   3.609   4.312   1.883  0.3373 -0.3934  0.2433
 7305SOL    HW133377   3.612   4.380   1.816 -2.2652 -0.9300 -0.4106
 7305SOL    HW233378   3.528   4.262   1.871  0.0761  0.2057 -0.4328
 7306SOL     OW33379   2.795   1.473  12.241 -0.1080 -0.1984 -0.6797
 7306SOL    HW133380   2.785   1.568  12.231 -0.0739  0.1467  2.8144
 7306SOL    HW233381   2.888   1.480  12.262 -0.9450  0.3387  2.7181
 7307SOL     OW33382   4.674   1.745   3.778  0.0184  0.8333  0.5772
 7307SOL    HW133383   4.611   1.813   3.802 -0.9093 -0.0078  0.5722
 7307SOL    HW233384   4.663   1.751   3.683  1.7972 -2.4133  0.1554
 7308SOL     OW33385   1.045   1.679   4.862  0.1209  0.8398 -0.2508
 7308SOL    HW133386   1.093   1.746   4.815  1.5097  1.7031  2.4001
 7308SOL    HW233387   1.088   1.598   4.833 -0.4687  1.1524 -1.9634
 7309SOL     OW33388   0.849   1.339  11.126  0.1344  0.4566 -0.8372
 7309SOL    HW133389   0.856   1.358  11.033 -1.5144  1.0312 -0.8543
 7309SOL    HW233390   0.758   1.368  11.134  0.4936  1.0182  1.2326
 7310SOL     OW33391   4.012   4.450   3.353 -0.1188 -0.2508 -0.0952
 7310SOL    HW133392   3.935   4.502   3.373  0.7694  0.3972  1.6113
 7310SOL    HW233393   4.016   4.465   3.259 -1.7379 -1.9287 -0.4343
 7311SOL     OW33394   2.172   0.363   3.100 -0.2993  0.3159  0.1542
 7311SOL    HW133395   2.221   0.445   3.108 -0.5478  0.7215 -2.2656
 7311SOL    HW233396   2.105   0.368   3.167 -0.5571 -0.7949 -0.0254
 7312SOL     OW33397   2.900   4.378   5.860  0.4336 -0.2984  0.1977
 7312SOL    HW133398   2.959   4.366   5.934  1.0470  0.9400 -0.0891
 7312SOL    HW233399   2.821   4.338   5.897 -1.4087  3.0619 -0.1353
 7313SOL     OW33400   0.197   2.609  15.984 -0.2256  0.1012  0.2673
 7313SOL    HW133401   0.241   2.561  15.914  0.8724 -0.8941  1.6447
 7313SOL    HW233402   0.235   2.567  16.061  0.7690  1.0695  0.3105
 7314SOL     OW33403   0.241   1.931   7.442  0.3157  0.2314  0.4156
 7314SOL    HW133404   0.178   1.888   7.500  0.4732  0.1893  0.5575
 7314SOL    HW233405   0.275   2.001   7.498  3.7643  0.5000 -1.9746
 7315SOL     OW33406   3.668   1.781  14.391  0.2314 -0.0842 -0.0906
 7315SOL    HW133407   3.665   1.818  14.303  0.1348 -0.5444 -0.2804
 7315SOL    HW233408   3.618   1.848  14.437  0.3645 -0.0950  0.0708
 7316SOL     OW33409   2.514   4.375   7.906  0.0013  0.4231  0.2337
 7316SOL    HW133410   2.606   4.395   7.887  1.0861 -2.7500  2.1815
 7316SOL    HW233411   2.511   4.290   7.864 -0.0650  0.2727  0.5405
 7317SOL     OW33412   2.430   3.187   2.843  0.2452 -0.5488 -0.2352
 7317SOL    HW133413   2.335   3.184   2.854  0.1781 -0.0059 -0.6533
 7317SOL    HW233414   2.462   3.161   2.929  2.1443  4.8929  0.6690
 7318SOL     OW33415   1.104   0.183   4.370 -0.7291 -0.3725  0.3793
 7318SOL    HW133416   1.131   0.239   4.297 -1.5880 -0.0921  0.2731
 7318SOL    HW233417   1.182   0.130   4.388  0.6481  1.9522  1.3673
 7319SOL     OW33418   2.092   0.381   7.526  0.0553 -0.4869  0.0571
 7319SOL    HW133419   2.114   0.473   7.539 -2.5372 -0.0055  1.1252
 7319SOL    HW233420   2.142   0.347   7.600  0.6863  1.2341  0.4153
 7320SOL     OW33421   1.219   1.458   4.828  0.6260 -0.1629 -0.0970
 7320SOL    HW133422   1.203   1.372   4.867 -4.3759  1.0444  0.5386
 7320SOL    HW233423   1.200   1.449   4.735 -2.6299 -1.3404  0.6721
 7321SOL     OW33424   0.933   0.180   4.067 -0.1494  0.3502 -0.3376
 7321SOL    HW133425   0.920   0.088   4.093  0.4581  0.1059 -0.8832
 7321SOL    HW233426   0.998   0.168   3.998  0.7672  3.5000  0.0102
 7322SOL     OW33427   1.708   1.709   2.859  0.0191 -0.2549  0.5487
 7322SOL    HW133428   1.658   1.779   2.900  1.4347  0.8056  0.4663
 7322SOL    HW233429   1.790   1.716   2.908  1.5907 -2.4554 -1.7781
 7323SOL     OW33430   4.437   0.806   6.074 -0.1875  0.0855  0.0531
 7323SOL    HW133431   4.471   0.875   6.018  0.5725  0.2882  0.7700
 7323SOL    HW233432   4.495   0.816   6.150 -0.7576 -0.1482  0.5239
 7324SOL     OW33433   2.796   3.161   5.959 -0.2455 -1.0699 -0.2333
 7324SOL    HW133434   2.859   3.206   5.903 -1.2155 -1.3842 -1.5490
 7324SOL    HW233435   2.777   3.077   5.919  0.0501 -0.1158 -2.3598
 7325SOL     OW33436   3.902   0.324  10.259 -0.1078 -0.0402 -0.5146
 7325SOL    HW133437   3.945   0.407  10.279 -2.6414  1.1106  0.1054
 7325SOL    HW233438   3.925   0.276  10.339  4.2918 -0.0729 -1.8259
 7326SOL     OW33439   4.593   3.611   9.176 -0.2150  0.4673  0.6274
 7326SOL    HW133440   4.544   3.675   9.227  0.3507  2.4860 -1.3445
 7326SOL    HW233441   4.672   3.608   9.231  0.4091  1.2298 -0.2158
 7327SOL     OW33442   1.565   2.300   8.476 -0.4345 -0.7097  0.2992
 7327SOL    HW133443   1.615   2.245   8.416 -1.6101  1.6122 -2.8119
 7327SOL    HW233444   1.547   2.241   8.549 -0.1534  0.1095  1.0467
 7328SOL     OW33445   2.356   1.017   8.965  0.3147  0.5104 -0.1837
 7328SOL    HW133446   2.386   0.968   8.889 -1.0428  0.8543 -0.9424
 7328SOL    HW233447   2.338   1.103   8.928  0.0818  0.7133  0.3917
 7329SOL     OW33448   3.505   0.521   2.712  0.3541  0.7144 -0.0541
 7329SOL    HW133449   3.569   0.582   2.677 -0.5418  1.3288 -0.6166
 7329SOL    HW233450   3.477   0.555   2.798  0.5656  0.9341 -0.0739
 7330SOL     OW33451   0.821   4.699  15.832 -0.6540  0.0497 -0.5689
 7330SOL    HW133452   0.836   4.619  15.781  3.8637  1.3042 -1.2076
 7330SOL    HW233453   0.786   0.037  15.766  0.8147 -0.0791 -1.4663
 7331SOL     OW33454   1.641   4.220   0.890  0.4834 -0.3876 -0.1601
 7331SOL    HW133455   1.669   4.128   0.883 -2.0075 -1.2087  0.7942
 7331SOL    HW233456   1.612   4.224   0.981  1.1252  0.1131  0.0276
 7332SOL     OW33457   3.656   3.147   2.062 -0.0091 -0.0399 -0.1280
 7332SOL    HW133458   3.560   3.151   2.056  0.0220 -1.1152 -1.2578
 7332SOL    HW233459   3.681   3.222   2.008 -0.3591  0.4839  0.4306
 7333SOL     OW33460   0.899   0.149  16.760 -0.3748 -0.1986 -0.4434
 7333SOL    HW133461   0.916   0.225  16.705  0.1489 -1.1325 -1.5703
 7333SOL    HW233462   0.930   0.172  16.847  0.0669 -4.3302  0.5128
 7334SOL     OW33463   1.491   3.194  12.680 -0.0913 -0.5071  0.0780
 7334SOL    HW133464   1.476   3.153  12.594  0.7783 -2.3069  0.7836
 7334SOL    HW233465   1.578   3.231  12.667  1.4733 -3.4086  2.2256
 7335SOL     OW33466   1.578   1.847   5.535  0.5460  0.0620 -0.4836
 7335SOL    HW133467   1.524   1.888   5.603 -1.2927 -0.3564 -1.6599
 7335SOL    HW233468   1.609   1.924   5.487 -0.9451 -0.0314 -1.6288
 7336SOL     OW33469   1.843   3.627   7.103  0.0932  0.0778 -0.0211
 7336SOL    HW133470   1.906   3.684   7.148  0.5205 -0.8523  0.5462
 7336SOL    HW233471   1.818   3.679   7.027  2.0521  2.3394  0.8701
 7337SOL     OW33472   3.217   4.129   3.338  0.1505  0.2506  0.3264
 7337SOL    HW133473   3.173   4.213   3.322 -1.3161 -0.8316 -1.2948
 7337SOL    HW233474   3.291   4.127   3.277  0.6365  1.5422  0.8650
 7338SOL     OW33475   3.176   4.070  11.791  0.6449 -0.5157 -0.1543
 7338SOL    HW133476   3.138   3.999  11.738  1.1713  0.8014 -2.3243
 7338SOL    HW233477   3.133   4.038  11.870 -0.0797 -1.2696 -0.8374
 7339SOL     OW33478   0.394   1.182   4.251  0.6781  0.1949  0.2929
 7339SOL    HW133479   0.452   1.255   4.272  0.6161  0.0387  1.0139
 7339SOL    HW233480   0.414   1.164   4.159  1.9873 -0.2988  0.6699
 7340SOL     OW33481   2.125   4.370   2.901  0.1596 -0.2626  0.4091
 7340SOL    HW133482   2.114   4.361   2.807 -1.4872  1.5156  0.4201
 7340SOL    HW233483   2.220   4.363   2.908 -0.0093 -3.2995 -0.3551
 7341SOL     OW33484   0.228   0.739  15.133 -0.6678  0.2727 -0.0312
 7341SOL    HW133485   0.140   0.734  15.095 -0.0279 -2.6962 -1.0876
 7341SOL    HW233486   0.212   0.776  15.220 -0.5560 -0.4348  0.2921
 7342SOL     OW33487   2.329   0.872   5.768  0.5951  0.0817  0.2042
 7342SOL    HW133488   2.419   0.864   5.800 -0.2775  1.1662  2.9694
 7342SOL    HW233489   2.337   0.906   5.679 -2.8002  0.8642  0.1918
 7343SOL     OW33490   3.610   2.432   5.684 -0.4227 -0.5103 -0.0376
 7343SOL    HW133491   3.542   2.383   5.731  1.0598 -2.8380 -0.3079
 7343SOL    HW233492   3.689   2.380   5.702  0.5391  0.4484 -1.5526
 7344SOL     OW33493   2.599   2.090   2.970 -0.2546 -0.6320  0.0767
 7344SOL    HW133494   2.690   2.084   2.996 -0.1694 -0.2478 -0.1349
 7344SOL    HW233495   2.611   2.045   2.886  0.7568 -0.7032  0.2590
 7345SOL     OW33496   2.918   4.489   5.154 -0.3074 -0.0669 -0.0991
 7345SOL    HW133497   2.977   4.548   5.201  1.2995 -0.5110 -1.5956
 7345SOL    HW233498   2.882   4.436   5.226 -0.4730  0.5181  0.2542
 7346SOL     OW33499   3.046   2.410   8.138  0.0841 -0.6162 -0.1861
 7346SOL    HW133500   3.114   2.382   8.200 -0.0460  0.5974  0.5198
 7346SOL    HW233501   3.004   2.468   8.201 -0.2178  0.0412 -0.9840
 7347SOL     OW33502   0.337   0.550   5.858  0.2894  0.4872 -0.4792
 7347SOL    HW133503   0.385   0.495   5.920 -1.7145  0.3315  0.9433
 7347SOL    HW233504   0.250   0.518   5.883  1.4097 -1.1511  1.3815
 7348SOL     OW33505   2.296   3.653   5.155  0.3188  0.1091  0.0607
 7348SOL    HW133506   2.316   3.566   5.122 -1.7286 -0.2881 -0.1213
 7348SOL    HW233507   2.281   3.706   5.077  0.4862  1.5851  1.0163
 7349SOL     OW33508   4.518   2.274  17.181 -0.3611  0.3146  0.1908
 7349SOL    HW133509   4.486   2.258  17.270  1.5922 -2.4575  0.3979
 7349SOL    HW233510   4.443   2.300  17.128  0.8564  0.4115 -1.4902
 7350SOL     OW33511   3.800   0.942   2.886  0.2751  0.5957 -0.3604
 7350SOL    HW133512   3.756   1.026   2.890 -0.4929  0.0890  1.6777
 7350SOL    HW233513   3.721   0.888   2.894 -0.7213  1.8704 -1.6614
 7351SOL     OW33514   0.060   4.294   0.563 -0.8158  0.2072  0.5118
 7351SOL    HW133515   4.716   4.226   0.575 -0.3633 -0.9491 -3.7602
 7351SOL    HW233516   0.107   4.271   0.483  0.7980  0.3775  1.4211
 7352SOL     OW33517   2.503   4.579   4.273  0.1350 -0.7461 -0.3511
 7352SOL    HW133518   2.568   4.616   4.214  0.6251 -0.3790  0.4066
 7352SOL    HW233519   2.548   4.568   4.357 -0.8473  2.0048  0.5392
 7353SOL     OW33520   0.502   4.378   2.648 -0.5563  0.7936  0.3971
 7353SOL    HW133521   0.537   4.440   2.713  0.7487 -1.4462  1.8140
 7353SOL    HW233522   0.524   4.426   2.568 -0.4606  0.2746  0.1179
 7354SOL     OW33523   0.369   4.362   0.675 -0.0839 -0.6600  0.0377
 7354SOL    HW133524   0.438   4.296   0.664  2.8131  2.1112  1.6173
 7354SOL    HW233525   0.287   4.316   0.660  0.5128 -1.9810  0.8109
 7355SOL     OW33526   2.407   2.947   6.148 -0.2562 -0.2612  0.0877
 7355SOL    HW133527   2.412   3.040   6.126  1.3495 -0.0813  1.2310
 7355SOL    HW233528   2.497   2.918   6.164 -0.3739 -0.7723 -0.1884
 7356SOL     OW33529   2.235   0.178   7.411  0.0713  0.1188  0.7769
 7356SOL    HW133530   2.169   0.211   7.472 -0.7614 -0.2876  0.1036
 7356SOL    HW233531   2.312   0.177   7.467  1.7279  3.5448 -1.4097
 7357SOL     OW33532   0.100   2.673   3.031  0.4106  0.0115 -0.1331
 7357SOL    HW133533   0.010   2.662   3.062  1.1439  1.6962  2.6112
 7357SOL    HW233534   0.143   2.730   3.095  1.2251  0.4558 -1.0761
 7358SOL     OW33535   0.581   1.626   3.307  0.1356  0.2746 -0.3606
 7358SOL    HW133536   0.540   1.679   3.239  1.4852  2.2917  0.4056
 7358SOL    HW233537   0.519   1.559   3.336  2.2102 -0.0701  3.3314
 7359SOL     OW33538   3.170   2.124  17.292  0.6384  0.0572 -0.3334
 7359SOL    HW133539   3.249   2.125  17.238  1.1253 -3.3956  0.3295
 7359SOL    HW233540   3.198   2.055  17.352  0.9919  2.2272  2.0315
 7360SOL     OW33541   0.292   4.136   9.967  0.1653  0.1435  0.5138
 7360SOL    HW133542   0.337   4.052   9.972  1.3945  0.7879  0.3371
 7360SOL    HW233543   0.354   4.195  10.010  3.2879 -1.6009 -1.5860
 7361SOL     OW33544   2.365   2.805   7.404 -0.1559 -0.6146 -0.3138
 7361SOL    HW133545   2.383   2.712   7.421 -1.0375 -0.9558 -1.2816
 7361SOL    HW233546   2.411   2.848   7.476 -0.0885 -1.4535  0.1468
 7362SOL     OW33547   1.910   1.262   8.583  0.5241  0.0748  0.3558
 7362SOL    HW133548   1.825   1.303   8.565  1.1187 -0.4256 -3.5999
 7362SOL    HW233549   1.876   1.173   8.576 -0.4269  0.4424  0.1920
 7363SOL     OW33550   2.958   4.492   6.673  0.2149  0.3198 -0.5986
 7363SOL    HW133551   2.955   4.554   6.745  0.2556  0.2540 -0.5403
 7363SOL    HW233552   3.051   4.477   6.657 -0.4108 -3.3258 -0.9246
 7364SOL     OW33553   3.153   4.512   8.375  0.2355 -0.4348 -0.5664
 7364SOL    HW133554   3.153   4.599   8.415  0.1001 -0.5330 -0.3515
 7364SOL    HW233555   3.085   4.469   8.427  0.9305  2.3348  2.6162
 7365SOL     OW33556   1.017   1.480   5.413  1.0175  0.3769 -0.4350
 7365SOL    HW133557   0.923   1.462   5.405  1.1561 -0.5145 -0.0521
 7365SOL    HW233558   1.041   1.446   5.327  1.2959  0.5103 -0.4105
 7366SOL     OW33559   0.253   0.471  14.906 -0.1411  0.2129 -0.0064
 7366SOL    HW133560   0.190   0.455  14.837 -1.1908  0.4066  0.9096
 7366SOL    HW233561   0.271   0.563  14.884  0.4299  0.2779  0.7233
 7367SOL     OW33562   3.291   2.084   7.809  0.5112 -0.2135 -0.1540
 7367SOL    HW133563   3.305   2.085   7.714  0.4983  1.4122 -0.1284
 7367SOL    HW233564   3.275   1.990   7.815 -0.4460  0.0910  2.0299
 7368SOL     OW33565   2.508   3.567   4.200  0.0780 -0.5676  0.1823
 7368SOL    HW133566   2.549   3.647   4.165  1.8032 -0.3633  2.6628
 7368SOL    HW233567   2.582   3.517   4.234  0.5889 -2.0364 -3.0868
 7369SOL     OW33568   0.748   2.261   7.925  0.4381  1.0917  0.3976
 7369SOL    HW133569   0.792   2.204   7.987 -1.4948  1.4120  2.0506
 7369SOL    HW233570   0.701   2.193   7.876  1.3762 -0.2987  1.4412
 7370SOL     OW33571   3.481   0.125   1.617 -0.1399  0.3462  0.4192
 7370SOL    HW133572   3.487   0.196   1.681 -0.7120  0.8911 -0.1294
 7370SOL    HW233573   3.553   0.068   1.645  0.0292  0.0359 -0.6185
 7371SOL     OW33574   1.627   2.141   5.414  0.1721 -0.3626  0.6979
 7371SOL    HW133575   1.695   2.178   5.470  1.0093 -1.0294  0.1275
 7371SOL    HW233576   1.564   2.213   5.414 -0.1414 -0.6415 -1.4761
 7372SOL     OW33577   1.870   3.515   4.206 -0.0930  0.3242  0.0541
 7372SOL    HW133578   1.936   3.500   4.273  0.1768 -2.9266 -0.9244
 7372SOL    HW233579   1.916   3.471   4.135  1.1527 -1.6673  2.0925
 7373SOL     OW33580   4.385   3.182   7.879 -0.0345 -0.5562  0.4566
 7373SOL    HW133581   4.435   3.257   7.845 -0.2154  0.0798  1.5608
 7373SOL    HW233582   4.351   3.139   7.802  3.9626  1.1985 -2.3019
 7374SOL     OW33583   3.628   0.532   7.780  0.2656 -0.7508  0.3417
 7374SOL    HW133584   3.622   0.445   7.818  1.8305 -1.2700 -0.6116
 7374SOL    HW233585   3.715   0.565   7.802 -0.2160 -0.3117  1.5683
 7375SOL     OW33586   4.242   0.870  12.727  0.0476  0.0307  0.1158
 7375SOL    HW133587   4.321   0.869  12.673 -0.0271  2.2377 -0.0482
 7375SOL    HW233588   4.220   0.778  12.714 -1.2300 -0.0142  2.5836
 7376SOL     OW33589   2.153   2.400   6.123 -0.0131 -0.1193 -0.0421
 7376SOL    HW133590   2.230   2.346   6.106 -1.3455 -1.4317 -1.8631
 7376SOL    HW233591   2.145   2.397   6.218 -0.2791  1.0439 -0.0217
 7377SOL     OW33592   3.464   2.113  14.847  0.2226  0.1637 -0.7490
 7377SOL    HW133593   3.502   2.198  14.825 -2.3246  1.1733 -1.2391
 7377SOL    HW233594   3.422   2.137  14.930 -0.5819  2.4652 -1.8176
 7378SOL     OW33595   2.420   1.377   6.967 -0.6644 -0.2681  0.7142
 7378SOL    HW133596   2.391   1.286   6.958 -0.2837 -0.0585 -2.8254
 7378SOL    HW233597   2.400   1.398   7.058 -3.1350 -0.1479  0.1454
 7379SOL     OW33598   1.467   2.583  14.536 -1.0872 -0.0434 -0.4022
 7379SOL    HW133599   1.480   2.663  14.485 -0.1243  0.5645  0.7703
 7379SOL    HW233600   1.464   2.628  14.620  0.0288 -0.5514 -0.0907
 7380SOL     OW33601   4.251   3.973   6.606  0.4125 -0.0981  0.4305
 7380SOL    HW133602   4.205   3.988   6.689  0.1922  0.5992  0.1861
 7380SOL    HW233603   4.225   3.883   6.588  2.6941 -0.9526  1.3706
 7381SOL     OW33604   3.525   1.997   0.796  0.1631  0.0639 -0.6539
 7381SOL    HW133605   3.524   2.051   0.717  0.2971  1.7194  0.4722
 7381SOL    HW233606   3.620   2.007   0.809  0.5504 -3.4167 -0.7958
 7382SOL     OW33607   3.135   2.977  15.928 -0.2631 -0.3941  0.2627
 7382SOL    HW133608   3.041   2.979  15.908 -0.1693  2.7950  0.1767
 7382SOL    HW233609   3.180   2.970  15.844 -0.3053  0.8784  0.1375
 7383SOL     OW33610   3.815   1.797  17.204  0.2991  0.3859 -0.0812
 7383SOL    HW133611   3.903   1.821  17.235  0.2507  1.3403 -0.6858
 7383SOL    HW233612   3.780   1.882  17.176  1.2126  0.6371 -0.4635
 7384SOL     OW33613   0.971   1.055  10.509 -0.2579 -0.0036 -0.1066
 7384SOL    HW133614   0.894   1.103  10.538 -1.1835 -0.0512 -2.4784
 7384SOL    HW233615   0.972   1.087  10.419 -0.0503 -0.6037 -0.3176
 7385SOL     OW33616   0.644   1.805   7.685 -0.0932 -0.0983 -0.5072
 7385SOL    HW133617   0.651   1.889   7.729 -1.2063  1.7988 -3.9324
 7385SOL    HW233618   0.607   1.761   7.762  0.3418 -2.5222 -1.6910
 7386SOL     OW33619   1.659   1.823  12.788  0.1650 -0.0341 -0.7201
 7386SOL    HW133620   1.640   1.749  12.731 -0.1232  0.6476 -1.5133
 7386SOL    HW233621   1.752   1.840  12.780  0.0062  1.5403  0.7716
 7387SOL     OW33622   1.534   1.784   3.250 -0.1216  0.4473 -0.0819
 7387SOL    HW133623   1.456   1.800   3.303  0.1228 -2.5723  1.1675
 7387SOL    HW233624   1.599   1.843   3.286  3.0105 -3.8652  1.3166
 7388SOL     OW33625   3.829   3.669   0.311  0.5487 -0.4940  0.1710
 7388SOL    HW133626   3.807   3.609   0.240 -3.6373  1.6447 -0.3014
 7388SOL    HW233627   3.918   3.641   0.335  0.2061  0.5385  2.6414
 7389SOL     OW33628   1.257   4.375   4.067 -0.2700  0.4636 -0.3584
 7389SOL    HW133629   1.276   4.364   4.160  0.7945  2.0390 -0.3804
 7389SOL    HW233630   1.235   4.288   4.034  0.6691  0.5631 -1.2300
 7390SOL     OW33631   4.600   2.653  16.962 -0.2214 -0.1140 -0.1995
 7390SOL    HW133632   4.618   2.560  16.980  2.1899  0.0473 -1.7048
 7390SOL    HW233633   4.688   2.691  16.969 -1.2523  1.9674  1.2286
 7391SOL     OW33634   1.609   0.229  16.223 -0.7844  0.0073 -1.0136
 7391SOL    HW133635   1.622   0.215  16.129  1.8543  0.8178 -0.7719
 7391SOL    HW233636   1.633   0.145  16.262 -1.5318 -0.0179 -0.6048
 7392SOL     OW33637   0.756   2.885   8.660  0.1851 -0.1027  0.1019
 7392SOL    HW133638   0.720   2.951   8.720  0.4332 -0.3046  0.4713
 7392SOL    HW233639   0.680   2.830   8.643 -1.4691  2.3598 -0.5503
 7393SOL     OW33640   2.011   3.400  12.480  0.0181  0.0336  0.2591
 7393SOL    HW133641   2.043   3.312  12.501  1.5311  0.4533 -0.3113
 7393SOL    HW233642   1.986   3.415  12.571  1.3160 -1.1229  0.8032
 7394SOL     OW33643   1.329   3.384  12.043  0.6847 -0.3541 -0.9613
 7394SOL    HW133644   1.268   3.453  12.066  1.2910  0.5508 -2.0319
 7394SOL    HW233645   1.407   3.438  12.027  0.9725 -0.1271  1.2145
 7395SOL     OW33646   3.905   3.767   7.220 -0.2871  0.3177 -0.3386
 7395SOL    HW133647   3.879   3.815   7.299  0.6063 -1.0114  0.7857
 7395SOL    HW233648   3.884   3.676   7.244  0.2514 -0.2166 -1.9351
 7396SOL     OW33649   3.527   3.698  13.502  0.3090 -0.7432 -0.4271
 7396SOL    HW133650   3.457   3.727  13.443  1.6936  2.8081 -0.3189
 7396SOL    HW233651   3.537   3.608  13.472 -1.6120 -0.3774 -2.2061
 7397SOL     OW33652   2.325   2.839   5.891  0.1649  0.1391  0.6462
 7397SOL    HW133653   2.405   2.892   5.889  1.2813 -1.5808  0.0164
 7397SOL    HW233654   2.347   2.780   5.963  2.4466 -0.5210 -0.6064
 7398SOL     OW33655   4.491   3.568   0.421 -0.1569 -0.0006 -0.1256
 7398SOL    HW133656   4.507   3.478   0.392  1.4983  0.7895 -1.6741
 7398SOL    HW233657   4.461   3.618   0.345  0.8387 -1.1961 -1.3007
 7399SOL     OW33658   0.582   0.552   2.816 -0.0716  0.2542 -0.3988
 7399SOL    HW133659   0.545   0.500   2.744  1.7376 -0.8105 -0.5779
 7399SOL    HW233660   0.666   0.507   2.826 -0.1218  0.3706  0.4770
 7400SOL     OW33661   2.815   3.844   4.799 -0.3065 -0.1059  0.2987
 7400SOL    HW133662   2.722   3.842   4.822 -0.4725  0.6278 -0.3078
 7400SOL    HW233663   2.841   3.928   4.837  1.4826 -0.6505  0.2710
 7401SOL     OW33664   0.521   3.057  14.246 -0.4832 -0.2763 -0.0544
 7401SOL    HW133665   0.602   3.058  14.195  0.6022  0.9793  1.7126
 7401SOL    HW233666   0.491   2.967  14.230 -2.5956  0.3427  0.3765
 7402SOL     OW33667   4.568   4.072   0.493 -0.2511  0.1413 -0.1479
 7402SOL    HW133668   4.534   4.012   0.426  1.0649 -2.5868  1.6332
 7402SOL    HW233669   4.611   4.008   0.550  1.5643 -0.7636 -2.5427
 7403SOL     OW33670   1.147   0.588   0.570 -0.2610 -0.3743  0.2785
 7403SOL    HW133671   1.191   0.671   0.590  3.0464 -1.4957 -2.3424
 7403SOL    HW233672   1.066   0.615   0.527  0.0120  1.6332  1.0482
 7404SOL     OW33673   0.035   0.912   2.540  0.6150  0.1729 -0.7231
 7404SOL    HW133674   0.032   0.826   2.498 -1.3349 -0.0172 -0.1923
 7404SOL    HW233675   0.126   0.940   2.526  1.0094 -0.7102  0.0773
 7405SOL     OW33676   1.281   4.106   1.893  0.9450 -0.3218  0.3309
 7405SOL    HW133677   1.339   4.092   1.817  1.6902  2.3951  0.4049
 7405SOL    HW233678   1.199   4.112   1.844  0.8531 -2.0290  0.2761
 7406SOL     OW33679   0.489   4.199  10.188  0.1334  0.1594  0.1264
 7406SOL    HW133680   0.514   4.110  10.212 -1.2839  0.8128  4.0147
 7406SOL    HW233681   0.553   4.247  10.241  1.0601  0.2213 -1.0380
 7407SOL     OW33682   1.603   2.635  15.768 -0.1827 -0.0389 -0.0954
 7407SOL    HW133683   1.538   2.589  15.820 -0.6436 -1.5477 -2.0060
 7407SOL    HW233684   1.617   2.720  15.810  0.2074 -0.1933  0.0894
 7408SOL     OW33685   3.770   3.335   0.495  0.6086 -0.3326  0.5108
 7408SOL    HW133686   3.862   3.357   0.511  1.1058 -0.8032 -1.7424
 7408SOL    HW233687   3.716   3.389   0.553  0.4440 -2.5852  2.4718
 7409SOL     OW33688   0.006   0.776   6.577 -0.0811 -0.2018 -0.8924
 7409SOL    HW133689   4.689   0.693   6.605  0.5054 -0.7748 -1.7481
 7409SOL    HW233690   0.073   0.787   6.644 -1.0047 -0.1008  0.0122
 7410SOL     OW33691   2.335   3.608   1.119 -0.1943  0.7935 -0.1303
 7410SOL    HW133692   2.356   3.700   1.104  1.1474 -0.0020 -3.1446
 7410SOL    HW233693   2.260   3.601   1.059 -0.2206  0.4076 -0.0501
 7411SOL     OW33694   0.923   1.167   7.906  0.4332  0.9197  0.2023
 7411SOL    HW133695   0.919   1.239   7.843  2.8914  0.5693 -0.3784
 7411SOL    HW233696   0.830   1.162   7.924  0.5538  2.2043  1.1428
 7412SOL     OW33697   1.061   1.808   0.435 -0.1261 -0.4603 -0.6425
 7412SOL    HW133698   1.014   1.870   0.491  0.5088 -1.2149  0.7224
 7412SOL    HW233699   1.072   1.855   0.353 -2.2128 -1.3436 -1.4381
 7413SOL     OW33700   1.290   3.295   9.404  0.0561  0.4169 -0.0063
 7413SOL    HW133701   1.228   3.320   9.336 -1.1115 -0.7277  0.6393
 7413SOL    HW233702   1.340   3.376   9.415  3.0405 -1.2767 -1.0953
 7414SOL     OW33703   2.616   1.935   4.804 -0.1672  0.1776  0.1387
 7414SOL    HW133704   2.536   1.950   4.854  0.0512 -0.0716  0.5628
 7414SOL    HW233705   2.572   1.934   4.719  1.5421 -0.0828 -0.7495
 7415SOL     OW33706   3.555   0.368  12.491 -0.0083 -1.0814  0.7568
 7415SOL    HW133707   3.632   0.377  12.547  1.6158  1.4930 -1.8977
 7415SOL    HW233708   3.596   0.371  12.404  0.2766  0.4798  0.9550
 7416SOL     OW33709   4.137   1.176   1.252 -0.5930 -0.1496 -0.1327
 7416SOL    HW133710   4.123   1.085   1.229 -0.8220  0.2241 -1.4444
 7416SOL    HW233711   4.213   1.166   1.310  0.0056  0.8200 -0.7381
 7417SOL     OW33712   2.866   0.694   6.149  0.3207 -0.4064 -0.5074
 7417SOL    HW133713   2.786   0.744   6.133 -0.1504 -0.3666  2.0442
 7417SOL    HW233714   2.832   0.610   6.181 -0.8813 -0.0072 -0.7395
 7418SOL     OW33715   2.549   2.994   5.896  0.1357  0.4995 -0.1279
 7418SOL    HW133716   2.580   3.047   5.822  0.2747 -0.2912 -0.6286
 7418SOL    HW233717   2.627   2.945   5.922  0.0601  0.6045  0.3069
 7419SOL     OW33718   2.016   2.966   7.156 -0.4912 -0.1887  0.0213
 7419SOL    HW133719   2.029   3.036   7.220 -2.3685 -0.7089  0.9578
 7419SOL    HW233720   2.080   2.908   7.197  0.9035  0.3222 -1.4254
 7420SOL     OW33721   0.021   3.496  17.038  0.4676 -0.3144  0.0664
 7420SOL    HW133722   0.012   3.416  17.091 -0.2834  0.5048  1.1646
 7420SOL    HW233723   0.088   3.547  17.084  1.3207 -1.2644 -0.1063
 7421SOL     OW33724   4.515   2.214   4.865 -0.6048 -0.0054 -0.3078
 7421SOL    HW133725   4.539   2.306   4.876  0.1421  0.0065 -2.0229
 7421SOL    HW233726   4.484   2.215   4.775 -1.2910  0.0944 -0.0718
 7422SOL     OW33727   0.482   0.499  15.732 -0.4845 -0.7187 -0.3396
 7422SOL    HW133728   0.429   0.566  15.774  0.0711 -0.4899 -0.0105
 7422SOL    HW233729   0.441   0.500  15.645 -2.4492  0.1776  0.6099
 7423SOL     OW33730   2.389   2.681   8.268  0.5093  0.9167  0.0508
 7423SOL    HW133731   2.454   2.703   8.335 -0.5598  0.9735  1.0713
 7423SOL    HW233732   2.329   2.623   8.315  1.3183 -0.1230 -0.1854
 7424SOL     OW33733   0.854   2.483   3.660  0.3997  0.1856 -0.3530
 7424SOL    HW133734   0.930   2.434   3.691  0.5313  1.1918  0.9217
 7424SOL    HW233735   0.869   2.567   3.704  0.9109  1.5605 -3.1530
 7425SOL     OW33736   1.583   3.514  13.237 -0.4355 -0.5546 -0.8837
 7425SOL    HW133737   1.598   3.593  13.289  0.2757 -0.6593 -0.9254
 7425SOL    HW233738   1.641   3.537  13.163 -0.3900 -0.0810 -0.7042
 7426SOL     OW33739   0.252   1.944  11.912 -0.6343  0.4144  0.6093
 7426SOL    HW133740   0.341   1.934  11.877 -0.8432 -3.0402  1.0074
 7426SOL    HW233741   0.252   2.035  11.940 -2.6795  1.1543 -1.7483
 7427SOL     OW33742   0.733   2.593   6.361 -0.3408  0.5702  0.8145
 7427SOL    HW133743   0.706   2.544   6.438 -0.6940 -0.2495  0.1604
 7427SOL    HW233744   0.829   2.584   6.359 -0.5196 -1.1906 -0.1186
 7428SOL     OW33745   3.274   3.863  12.780 -0.1830  0.3562  0.2781
 7428SOL    HW133746   3.306   3.945  12.816  1.2086 -0.5550  1.1157
 7428SOL    HW233747   3.246   3.889  12.693  2.0981  0.4824 -0.4186
 7429SOL     OW33748   2.830   0.540   8.227  0.3776 -0.2529  0.0873
 7429SOL    HW133749   2.815   0.451   8.258 -0.1269 -0.6403 -1.2410
 7429SOL    HW233750   2.847   0.511   8.137  1.4023 -1.4843  0.6819
 7430SOL     OW33751   1.597   4.034  17.107  0.3512 -0.2950 -0.4846
 7430SOL    HW133752   1.626   4.043  17.198  0.8883 -3.2309 -0.3361
 7430SOL    HW233753   1.536   3.961  17.093 -0.3845  0.2023  0.1817
 7431SOL     OW33754   1.918   0.973   6.877  0.5103 -0.2897  0.0998
 7431SOL    HW133755   1.922   0.936   6.966 -1.7134 -1.4998 -0.3169
 7431SOL    HW233756   1.981   0.916   6.832  1.3180  1.5363 -1.0705
 7432SOL     OW33757   0.846   2.482   4.532 -0.6084  0.3614 -0.3283
 7432SOL    HW133758   0.814   2.551   4.474 -1.3485  1.3377  1.2084
 7432SOL    HW233759   0.873   2.538   4.605 -2.4522  0.6774  0.1162
 7433SOL     OW33760   3.520   0.954  16.440 -0.2724  0.3703  0.3129
 7433SOL    HW133761   3.581   0.892  16.480 -0.6276 -1.6364 -2.2684
 7433SOL    HW233762   3.461   0.902  16.385  1.2249  0.0120 -0.9392
 7434SOL     OW33763   2.787   0.480   5.182  0.3354  0.1859 -0.3773
 7434SOL    HW133764   2.751   0.492   5.270 -0.3986 -0.6710 -0.5559
 7434SOL    HW233765   2.878   0.463   5.206  1.1209  1.8383 -2.1835
 7435SOL     OW33766   0.663   4.548   7.048 -0.6009  0.3027 -0.3574
 7435SOL    HW133767   0.705   4.483   7.104  0.8881  1.6404  0.0924
 7435SOL    HW233768   0.597   4.496   7.002 -1.0266  1.6270 -1.2509
 7436SOL     OW33769   1.330   2.031   6.945 -0.6723  0.6106 -0.3714
 7436SOL    HW133770   1.357   2.119   6.921  0.5091 -0.4006 -2.8116
 7436SOL    HW233771   1.411   1.980   6.944 -0.6591  0.6234  0.1866
 7437SOL     OW33772   3.878   3.342  14.337  0.5269 -0.2093 -0.2274
 7437SOL    HW133773   3.877   3.404  14.263  0.4356 -1.1458 -1.0100
 7437SOL    HW233774   3.889   3.260  14.289  0.6343  0.6888 -1.7399
 7438SOL     OW33775   0.171   1.713   4.393 -0.1636  0.4061 -0.1357
 7438SOL    HW133776   0.109   1.673   4.331  0.4347  0.4027 -0.7229
 7438SOL    HW233777   0.175   1.799   4.352 -0.7544  1.3282  1.7119
 7439SOL     OW33778   0.036   0.773  15.773 -0.0059  0.0282 -0.2369
 7439SOL    HW133779   4.690   0.838  15.759  0.3647  0.0526 -1.9352
 7439SOL    HW233780   0.012   0.714  15.702  0.4921 -0.9163  0.3793
 7440SOL     OW33781   1.305   2.728   5.183 -0.1202 -0.1590  0.1545
 7440SOL    HW133782   1.327   2.675   5.260  2.0688 -0.1956 -0.5122
 7440SOL    HW233783   1.345   2.810   5.211 -4.0769  0.8925  2.8388
 7441SOL     OW33784   4.076   3.142  11.776 -0.3135  0.4605  0.0394
 7441SOL    HW133785   4.106   3.069  11.830 -0.8875  0.2830  0.1218
 7441SOL    HW233786   4.153   3.198  11.785 -0.7586  1.3461 -1.6606
 7442SOL     OW33787   4.719   2.841   1.455 -0.0836  0.2391 -0.2805
 7442SOL    HW133788   4.704   2.927   1.494  1.0504 -0.6858  2.1655
 7442SOL    HW233789   4.648   2.837   1.391  0.9082  2.3144 -1.5426
 7443SOL     OW33790   0.298   0.322   3.384 -0.1251  0.5250 -0.4792
 7443SOL    HW133791   0.291   0.399   3.328 -1.6297  0.0186 -1.0035
 7443SOL    HW233792   0.209   0.309   3.418 -0.4737  2.0105 -0.8446
 7444SOL     OW33793   4.173   2.323   5.863  0.3092  0.7270  0.4694
 7444SOL    HW133794   4.100   2.332   5.924  0.1997  1.1396  0.2744
 7444SOL    HW233795   4.231   2.253   5.894  1.7262  1.9370  0.5450
 7445SOL     OW33796   4.674   2.340   9.402 -0.4585  0.2540 -0.4421
 7445SOL    HW133797   0.006   2.290   9.341  1.1420  3.2731 -1.5244
 7445SOL    HW233798   4.655   2.277   9.471 -0.2887  1.2834  0.5441
 7446SOL     OW33799   4.140   2.604   1.795 -0.0821  0.3671  0.4532
 7446SOL    HW133800   4.219   2.633   1.841  0.6744  0.5134 -0.9366
 7446SOL    HW233801   4.116   2.688   1.757 -1.1210 -1.1254 -2.2518
 7447SOL     OW33802   2.160   2.534   5.205  0.0766 -0.3687 -0.6589
 7447SOL    HW133803   2.127   2.609   5.254  0.0651  0.2883 -1.6638
 7447SOL    HW233804   2.251   2.563   5.200  0.6980 -2.1383  0.2304
 7448SOL     OW33805   4.394   3.672   2.464 -0.2431 -0.3408 -0.2629
 7448SOL    HW133806   4.411   3.623   2.383  2.3144  2.0607 -1.1587
 7448SOL    HW233807   4.448   3.746   2.439 -1.4422  0.8587  0.6978
 7449SOL     OW33808   0.016   3.334   2.330  0.5693 -0.3391 -0.1233
 7449SOL    HW133809   0.035   3.241   2.344 -0.6734 -0.4530  0.8674
 7449SOL    HW233810   0.045   3.369   2.414  0.2230  0.0460 -0.1638
 7450SOL     OW33811   3.905   2.338   9.270 -0.0598  0.0374 -0.0231
 7450SOL    HW133812   3.820   2.373   9.298 -0.9370 -0.0626 -2.5336
 7450SOL    HW233813   3.961   2.387   9.330 -0.8894  1.1257 -0.1278
 7451SOL     OW33814   2.376   3.382   5.140  0.4205 -0.7239 -0.7930
 7451SOL    HW133815   2.368   3.397   5.234 -2.5938  0.2816 -1.2095
 7451SOL    HW233816   2.365   3.287   5.132 -0.7166 -0.3570 -3.5572
 7452SOL     OW33817   2.694   4.081   7.518 -0.5466 -0.4401  0.0007
 7452SOL    HW133818   2.768   4.113   7.570  1.2774 -2.4999 -1.3563
 7452SOL    HW233819   2.659   4.024   7.587  0.3330  1.0834  1.7173
 7453SOL     OW33820   1.868   3.706   1.743 -0.5752  0.0419 -0.3441
 7453SOL    HW133821   1.863   3.646   1.817 -0.2287  0.9602  0.4130
 7453SOL    HW233822   1.888   3.641   1.676 -0.6816 -0.9723  0.6077
 7454SOL     OW33823   1.814   1.009   4.459  0.3258 -0.0037  0.1152
 7454SOL    HW133824   1.828   1.074   4.527  1.3206 -1.0020  0.8601
 7454SOL    HW233825   1.867   0.939   4.498  0.3791 -0.7815 -1.3486
 7455SOL     OW33826   2.374   2.847   3.047 -0.1436 -0.4885  0.1367
 7455SOL    HW133827   2.322   2.773   3.077 -1.4234  0.6681  0.7724
 7455SOL    HW233828   2.370   2.898   3.128 -0.5143 -1.1608  0.5331
 7456SOL     OW33829   1.476   3.754   5.225  0.3612  0.0778 -0.0852
 7456SOL    HW133830   1.535   3.736   5.298 -0.7073 -0.5669  0.6295
 7456SOL    HW233831   1.537   3.781   5.157  0.4027  2.9691  1.0740
 7457SOL     OW33832   1.193   4.077   4.450 -0.8910 -0.3562  0.2302
 7457SOL    HW133833   1.104   4.044   4.442 -0.9724 -0.0314 -0.2206
 7457SOL    HW233834   1.201   4.108   4.540  0.9213 -0.5291  0.1372
 7458SOL     OW33835   3.091   4.312  15.450 -0.5825 -0.3164  0.0606
 7458SOL    HW133836   3.182   4.328  15.423 -0.5587  1.2000  1.0773
 7458SOL    HW233837   3.066   4.238  15.395 -0.3519  0.5137 -1.1510
 7459SOL     OW33838   2.358   1.947   3.029 -0.2733  0.5998 -0.8435
 7459SOL    HW133839   2.441   1.993   3.019 -0.0946  0.6702  1.0060
 7459SOL    HW233840   2.377   1.905   3.113 -0.1046 -2.4388 -2.4146
 7460SOL     OW33841   0.591   1.332   0.133 -0.1594  0.1403  0.2524
 7460SOL    HW133842   0.680   1.328   0.097  0.8740 -0.7327  2.9202
 7460SOL    HW233843   0.597   1.259   0.195  1.3148 -0.0541 -0.1243
 7461SOL     OW33844   4.261   1.494   0.500  0.5073  0.5469  1.1203
 7461SOL    HW133845   4.320   1.420   0.513  0.6807  0.5501  0.3593
 7461SOL    HW233846   4.303   1.544   0.430 -0.6041  1.2231  0.9277
 7462SOL     OW33847   1.017   4.392   7.987  0.6122  0.6229 -0.3190
 7462SOL    HW133848   1.036   4.460   8.052 -0.2083  1.5796 -1.0727
 7462SOL    HW233849   0.967   4.333   8.043  1.1631 -2.4337 -3.0580
 7463SOL     OW33850   1.586   2.588   6.901  0.0732 -0.2751  0.2946
 7463SOL    HW133851   1.516   2.615   6.842  1.9809  4.4888  0.1946
 7463SOL    HW233852   1.546   2.629   6.977 -0.3227  0.6351 -0.4031
 7464SOL     OW33853   4.689   4.096   9.182  0.4692  0.0246  0.1502
 7464SOL    HW133854   4.644   4.012   9.174 -0.1522  0.2794  0.9225
 7464SOL    HW233855   4.675   4.135   9.096  1.0230 -0.8115 -0.3194
 7465SOL     OW33856   1.488   4.542   5.989 -0.0463  0.3175  0.1797
 7465SOL    HW133857   1.495   4.493   5.907 -0.5024 -0.7601  0.7710
 7465SOL    HW233858   1.393   4.535   6.002 -0.1846 -0.2725 -1.1266
 7466SOL     OW33859   4.073   3.894   7.440  0.0461  0.1725 -0.2360
 7466SOL    HW133860   4.005   3.959   7.454  0.9755  1.1046 -0.0542
 7466SOL    HW233861   4.145   3.941   7.481 -1.1821  2.0491 -0.2544
 7467SOL     OW33862   0.486   1.438  17.361 -0.1955  0.4677 -0.1322
 7467SOL    HW133863   0.519   1.352  17.336  0.1443  0.0576  1.6866
 7467SOL    HW233864   0.557   1.492  17.324 -1.0722  0.6342 -1.5637
 7468SOL     OW33865   3.020   0.660   8.469 -0.4586 -0.4064  0.1399
 7468SOL    HW133866   3.010   0.565   8.461 -1.8216 -0.1986 -0.5731
 7468SOL    HW233867   3.028   0.671   8.374  0.1951  1.6352  0.4244
 7469SOL     OW33868   1.104   3.330  11.226 -0.3682  0.2855  0.3011
 7469SOL    HW133869   1.153   3.319  11.307 -0.3059 -0.4276  0.1686
 7469SOL    HW233870   1.033   3.268  11.242  0.2977  0.0061  2.1585
 7470SOL     OW33871   3.289   1.777   5.057  0.0039 -0.3065 -0.1842
 7470SOL    HW133872   3.325   1.744   4.974  2.9377 -0.1833  1.0505
 7470SOL    HW233873   3.359   1.835   5.084 -0.2557 -0.7533  1.4398
 7471SOL     OW33874   0.383   3.100  15.537  0.4810  0.2222 -0.2870
 7471SOL    HW133875   0.427   3.138  15.613  0.1372 -1.1572  0.6005
 7471SOL    HW233876   0.362   3.173  15.478 -1.8927  2.3583  3.1393
 7472SOL     OW33877   1.727   0.196   5.030 -0.0226  0.8679 -0.1159
 7472SOL    HW133878   1.738   0.140   5.106 -0.4771  0.4783 -0.3372
 7472SOL    HW233879   1.819   0.200   5.002 -0.3208 -0.9782 -1.3664
 7473SOL     OW33880   0.719   3.514   5.733  0.0226 -0.4833 -0.2495
 7473SOL    HW133881   0.674   3.599   5.729  3.9456  1.6012 -0.2118
 7473SOL    HW233882   0.681   3.462   5.662 -0.7589  0.2294 -0.3480
 7474SOL     OW33883   0.869   3.275   5.342 -0.4884  0.4777 -0.3223
 7474SOL    HW133884   0.875   3.311   5.254 -0.8240  1.4797  0.0617
 7474SOL    HW233885   0.936   3.207   5.338 -1.2345 -0.2364 -0.4439
 7475SOL     OW33886   1.043   1.963   6.118 -0.7967 -0.7644  0.0739
 7475SOL    HW133887   1.090   1.922   6.190  1.3306 -0.5886 -1.2428
 7475SOL    HW233888   0.950   1.939   6.125 -1.1301  0.8622  1.4291
 7476SOL     OW33889   0.779   1.902   5.644  0.5688  0.4210  0.7722
 7476SOL    HW133890   0.874   1.915   5.643  0.5652  0.4544  0.8842
 7476SOL    HW233891   0.774   1.807   5.641  0.1361  0.3820  2.6867
 7477SOL     OW33892   2.155   4.419   9.910 -0.1113 -0.6029 -0.1585
 7477SOL    HW133893   2.129   4.353   9.975  2.5272  1.9545  3.4682
 7477SOL    HW233894   2.154   4.501   9.958  0.0903 -0.1443 -0.9282
 7478SOL     OW33895   1.477   1.057  14.304  0.2777  0.9322  0.0663
 7478SOL    HW133896   1.459   0.968  14.273 -0.1682  0.1457  2.5999
 7478SOL    HW233897   1.508   1.039  14.392  1.3317 -0.9126 -0.6820
 7479SOL     OW33898   2.021   0.942   8.784 -0.5095  0.4126 -0.1484
 7479SOL    HW133899   2.039   0.902   8.870 -0.6840 -1.0562 -0.7873
 7479SOL    HW233900   2.072   1.023   8.784 -0.6935  0.5115 -2.6241
 7480SOL     OW33901   2.097   3.876  17.202 -0.1563  0.0360 -0.6202
 7480SOL    HW133902   2.157   3.809  17.170  0.7543  0.9033 -0.7487
 7480SOL    HW233903   2.026   3.883  17.138 -0.6201 -0.5084 -0.1535
 7481SOL     OW33904   1.463   4.234   5.995 -0.0716  0.5065  0.7284
 7481SOL    HW133905   1.486   4.290   5.920 -3.7090 -1.3272 -1.7508
 7481SOL    HW233906   1.543   4.237   6.048 -0.5429 -1.7641  1.5183
 7482SOL     OW33907   0.948   2.240   1.098  0.4732  0.1908  0.0970
 7482SOL    HW133908   0.864   2.243   1.143 -0.3767 -2.3693 -1.3332
 7482SOL    HW233909   0.996   2.173   1.145 -1.4455 -0.4626  1.1106
 7483SOL     OW33910   1.522   2.748   3.560 -0.4427 -0.6754 -0.0240
 7483SOL    HW133911   1.531   2.824   3.618  1.6212 -2.6009  2.1303
 7483SOL    HW233912   1.530   2.672   3.617 -3.0741  1.1967  2.8323
 7484SOL     OW33913   4.633   0.427   2.647  0.6808 -0.1665  0.6153
 7484SOL    HW133914   4.579   0.384   2.714  1.0064  0.5302  1.3249
 7484SOL    HW233915   4.571   0.481   2.598  0.1630 -0.4950  0.9043
 7485SOL     OW33916   0.448   1.816   6.910  0.0120  0.6227 -0.0624
 7485SOL    HW133917   0.460   1.910   6.902  1.5265  0.2225 -2.6969
 7485SOL    HW233918   0.394   1.811   6.832  0.0795 -0.5273 -0.0374
 7486SOL     OW33919   4.196   1.369   4.002 -0.1261 -0.2573  0.3360
 7486SOL    HW133920   4.281   1.404   4.027 -0.8692  1.8571 -0.1568
 7486SOL    HW233921   4.190   1.297   4.065  0.8720 -1.6351 -1.1054
 7487SOL     OW33922   0.495   2.347   0.490 -0.2829  0.2529 -0.1721
 7487SOL    HW133923   0.462   2.437   0.482  0.4312  0.6670  1.5941
 7487SOL    HW233924   0.585   2.347   0.455 -0.4124  1.1660 -0.4980
 7488SOL     OW33925   4.354   0.180   9.357 -0.4736 -0.2552 -0.3815
 7488SOL    HW133926   4.384   0.252   9.413 -0.5102 -0.4901 -0.0658
 7488SOL    HW233927   4.426   0.172   9.295 -0.4181  1.8934 -0.6093
 7489SOL     OW33928   3.606   4.445  12.440 -0.0384  0.5063 -0.1739
 7489SOL    HW133929   3.658   4.524  12.429 -0.0741  0.5500 -0.0231
 7489SOL    HW233930   3.660   4.394  12.380 -0.0693 -0.1713  0.3613
 7490SOL     OW33931   2.094   0.676  16.320  0.0289 -0.2173 -0.0171
 7490SOL    HW133932   2.074   0.715  16.234 -1.1925 -0.7465  0.0287
 7490SOL    HW233933   2.153   0.606  16.293  1.0665  1.2409 -1.5615
 7491SOL     OW33934   1.624   3.646   6.839  0.1590  0.1688 -0.5959
 7491SOL    HW133935   1.561   3.620   6.907  0.1613 -2.1051 -1.4462
 7491SOL    HW233936   1.623   3.741   6.848  0.5801  0.2963 -1.9323
 7492SOL     OW33937   0.663   1.359   3.187  0.3917  0.1230 -0.3046
 7492SOL    HW133938   0.746   1.334   3.146  1.2105  2.1143  0.1243
 7492SOL    HW233939   0.608   1.390   3.116 -2.5111 -1.2498  1.3647
 7493SOL     OW33940   0.034   3.790   2.759 -0.3207 -0.3550  0.5308
 7493SOL    HW133941   4.676   3.746   2.786 -1.7399  0.7838 -1.7956
 7493SOL    HW233942   0.010   3.874   2.798 -0.6037 -0.0487 -0.3049
 7494SOL     OW33943   1.586   1.319  13.756  0.0389  0.2685 -0.1551
 7494SOL    HW133944   1.510   1.365  13.721 -0.1061  0.0669 -0.1068
 7494SOL    HW233945   1.553   1.230  13.768 -3.5306  1.5390 -0.5710
 7495SOL     OW33946   1.467   2.361  13.844 -0.0342  0.2419 -0.7497
 7495SOL    HW133947   1.378   2.397  13.847 -0.2369 -0.5966  3.3493
 7495SOL    HW233948   1.495   2.348  13.934  0.0645  0.1962 -0.7877
 7496SOL     OW33949   0.424   3.337   5.233 -0.6035 -0.0861 -0.6501
 7496SOL    HW133950   0.443   3.431   5.225 -1.2439  0.3061  2.2617
 7496SOL    HW233951   0.330   3.344   5.251 -0.4202  1.9988 -0.4704
 7497SOL     OW33952   1.496   1.431  14.671 -0.2081 -0.3332  0.0830
 7497SOL    HW133953   1.533   1.519  14.676 -1.8799  0.4218 -1.0156
 7497SOL    HW233954   1.458   1.437  14.758 -0.2870 -1.3667  0.1142
 7498SOL     OW33955   2.527   3.663   6.175 -0.4504 -0.0169 -0.0347
 7498SOL    HW133956   2.492   3.656   6.264 -0.2219  0.0813  0.0639
 7498SOL    HW233957   2.581   3.587   6.155 -1.6968 -0.6500 -1.0165
 7499SOL     OW33958   2.818   1.164   8.551 -0.0301  0.2316 -0.3718
 7499SOL    HW133959   2.827   1.069   8.546 -0.1824  0.2196 -0.4081
 7499SOL    HW233960   2.841   1.172   8.459 -0.8892  1.1525 -0.5003
 7500SOL     OW33961   0.851   1.767   5.041 -0.1750  0.3344  0.3038
 7500SOL    HW133962   0.826   1.675   5.042  1.8581 -0.2437 -0.5615
 7500SOL    HW233963   0.917   1.746   4.974 -0.9539 -0.7763 -0.1243
 7501SOL     OW33964   1.954   1.487   6.591  0.3429 -0.2611 -0.1566
 7501SOL    HW133965   1.962   1.394   6.572  0.5894 -0.7228  2.1598
 7501SOL    HW233966   2.026   1.493   6.655  2.2134  1.0040 -2.3829
 7502SOL     OW33967   0.770   2.346   0.406 -0.2537 -0.9241  0.0228
 7502SOL    HW133968   0.750   2.271   0.351 -1.2525 -1.2266  0.8194
 7502SOL    HW233969   0.859   2.367   0.375 -0.5651 -0.8660 -0.8107
 7503SOL     OW33970   0.605   2.042   7.821 -0.0148  0.2390 -0.4692
 7503SOL    HW133971   0.538   2.110   7.817 -2.7834 -2.5691 -1.9472
 7503SOL    HW233972   0.588   2.005   7.907 -0.3767  1.1394 -0.1593
 7504SOL     OW33973   0.452   4.289   8.483 -0.1202 -0.0401 -0.3309
 7504SOL    HW133974   0.488   4.247   8.405  1.8853  0.5420  0.2714
 7504SOL    HW233975   0.359   4.267   8.475 -0.0582 -0.4836  0.1915
 7505SOL     OW33976   1.158   0.418   5.118 -0.3370 -0.0627  0.2797
 7505SOL    HW133977   1.180   0.511   5.128  0.7625 -0.5521  2.4629
 7505SOL    HW233978   1.191   0.410   5.028 -2.1673 -2.9631 -0.1317
 7506SOL     OW33979   0.107   2.704  17.616 -0.1275  0.4488  0.1808
 7506SOL    HW133980   0.090   2.748  17.533  1.0742  0.4908 -0.0399
 7506SOL    HW233981   0.181   2.759  17.641 -1.0798  1.1975  1.4015
 7507SOL     OW33982   4.359   2.770   1.350  0.1357 -0.2324 -0.0655
 7507SOL    HW133983   4.410   2.770   1.269 -0.0175 -1.3653 -0.1571
 7507SOL    HW233984   4.269   2.770   1.315 -0.7294  1.2587  2.1511
 7508SOL     OW33985   1.561   0.885  14.560 -0.5449 -0.4096  0.7246
 7508SOL    HW133986   1.479   0.835  14.556  0.6245 -2.4236  2.1177
 7508SOL    HW233987   1.532   0.971  14.592  2.2518  1.5988 -2.1775
 7509SOL     OW33988   2.595   0.383   8.879  0.4850  0.2838 -0.3892
 7509SOL    HW133989   2.540   0.385   8.958 -0.2439 -1.0399 -0.8726
 7509SOL    HW233990   2.678   0.417   8.912  0.4988  1.0609 -1.2175
 7510SOL     OW33991   2.797   0.982  13.532  0.2256  0.2298  0.4523
 7510SOL    HW133992   2.746   0.952  13.457 -2.6400 -0.2432  2.5814
 7510SOL    HW233993   2.816   1.074  13.515  0.4810  0.1243  0.1609
 7511SOL     OW33994   0.769   2.558   5.544 -0.2505 -0.2368 -0.8013
 7511SOL    HW133995   0.704   2.619   5.580 -0.6161 -0.0743 -1.7469
 7511SOL    HW233996   0.741   2.538   5.455 -2.7957 -1.8340  0.3584
 7512SOL     OW33997   0.052   2.009   4.694 -0.0812 -0.2146  0.4385
 7512SOL    HW133998   0.108   1.932   4.693  0.4257  0.1627 -2.3210
 7512SOL    HW233999   4.721   1.990   4.771 -1.0919  2.6827  0.4699
 7513SOL     OW34000   3.629   0.592   5.801  0.3788 -0.5271 -0.0150
 7513SOL    HW134001   3.537   0.568   5.791  0.1576  0.0177  0.7255
 7513SOL    HW234002   3.651   0.543   5.880 -0.0439 -1.6480 -0.5845
 7514SOL     OW34003   1.140   2.370  15.812 -0.3107 -0.4701 -0.7144
 7514SOL    HW134004   1.194   2.292  15.823 -0.5638 -0.3804  1.1920
 7514SOL    HW234005   1.199   2.441  15.785 -1.2970  0.7088  0.1857
 7515SOL     OW34006   3.346   1.728   8.033  0.2595  0.3030 -0.2138
 7515SOL    HW134007   3.368   1.775   8.114  0.5770 -1.8870  0.9798
 7515SOL    HW234008   3.299   1.789   7.977  2.5998  0.5640 -1.8822
 7516SOL     OW34009   4.043   2.767   7.607  0.2898 -0.2077 -0.0384
 7516SOL    HW134010   3.993   2.840   7.570 -1.2832 -0.0502  2.4432
 7516SOL    HW234011   4.002   2.695   7.557 -1.7844  1.3115 -0.5316
 7517SOL     OW34012   0.275   3.674   5.241 -0.4252  0.4641 -0.1017
 7517SOL    HW134013   0.292   3.756   5.195 -0.2755  0.3153 -0.3083
 7517SOL    HW234014   0.218   3.715   5.307 -2.4726 -1.2443 -0.8170
 7518SOL     OW34015   1.936   1.824   5.347 -0.3104 -0.3970 -0.4156
 7518SOL    HW134016   1.944   1.842   5.441 -1.5201 -1.6181 -0.0821
 7518SOL    HW234017   1.869   1.889   5.325  1.0197  2.0248  2.6637
 7519SOL     OW34018   2.358   2.280   4.234 -0.2653 -0.4022  0.1225
 7519SOL    HW134019   2.422   2.275   4.305  2.5475 -1.1813 -2.4156
 7519SOL    HW234020   2.293   2.333   4.279 -1.1751 -0.4030 -1.2060
 7520SOL     OW34021   1.843   4.332  14.511 -0.2189 -0.9606  0.2031
 7520SOL    HW134022   1.841   4.236  14.521 -0.1064 -1.2725 -2.8117
 7520SOL    HW234023   1.929   4.342  14.470 -0.6598  1.0332 -0.2176
 7521SOL     OW34024   3.669   0.606   0.259 -0.3606  0.2272  0.0204
 7521SOL    HW134025   3.607   0.613   0.332 -1.8903  0.6104 -1.3343
 7521SOL    HW234026   3.709   0.520   0.272 -2.1431 -0.9067 -1.9761
 7522SOL     OW34027   0.337   1.665   8.162  0.0731 -0.1312 -0.0759
 7522SOL    HW134028   0.427   1.636   8.179 -0.2695 -0.4132  1.2247
 7522SOL    HW234029   0.283   1.589   8.182  2.0470 -1.1952  1.2460
 7523SOL     OW34030   0.335   3.424   8.640  0.6744 -0.0523 -0.0060
 7523SOL    HW134031   0.417   3.376   8.653  0.5828 -0.4360 -0.8452
 7523SOL    HW234032   0.376   3.510   8.646  1.7674 -0.6149  0.5865
 7524SOL     OW34033   3.672   4.331   5.680  0.0342 -0.2095 -0.2779
 7524SOL    HW134034   3.663   4.419   5.644 -1.0629  0.2252  1.0588
 7524SOL    HW234035   3.647   4.344   5.771  1.9047  1.6138 -0.0161
 7525SOL     OW34036   3.013   3.108   7.590 -0.0532  0.0997  0.6043
 7525SOL    HW134037   3.011   3.066   7.676  0.7812 -1.4247 -0.1306
 7525SOL    HW234038   2.927   3.148   7.579 -0.6325 -1.8219 -1.8999
 7526SOL     OW34039   3.608   2.214   4.788 -0.4475 -0.3928  0.0512
 7526SOL    HW134040   3.537   2.157   4.757 -1.9171  1.2102  0.4244
 7526SOL    HW234041   3.605   2.283   4.721 -1.7607 -1.2991 -0.8368
 7527SOL     OW34042   2.101   2.299   2.814 -0.5115  0.2856  0.2001
 7527SOL    HW134043   2.168   2.247   2.768 -2.1385 -1.3186 -0.3617
 7527SOL    HW234044   2.065   2.355   2.745 -0.3316  0.2535  0.0800
 7528SOL     OW34045   2.765   0.090   7.036 -0.4202  0.2614  1.0826
 7528SOL    HW134046   2.693   0.066   7.094 -1.5504  0.6098 -0.1727
 7528SOL    HW234047   2.801   0.166   7.082  1.4293  2.1592 -3.5542
 7529SOL     OW34048   0.370   3.085  16.261  0.1280 -0.1039 -0.1814
 7529SOL    HW134049   0.276   3.080  16.277  0.2545 -0.1238  0.5552
 7529SOL    HW234050   0.381   3.007  16.208  0.4456 -0.7763  0.8630
 7530SOL     OW34051   4.291   3.480   4.789 -0.0399  0.3186  0.4746
 7530SOL    HW134052   4.327   3.496   4.876  2.2897 -2.1708 -0.0480
 7530SOL    HW234053   4.357   3.518   4.730  0.5069  0.1500  0.9799
 7531SOL     OW34054   3.911   4.418   0.254 -0.2420  0.2230 -0.1216
 7531SOL    HW134055   3.849   4.490   0.241  1.2279  1.7223  1.1535
 7531SOL    HW234056   3.875   4.350   0.197  0.5546 -1.9415  1.9600
 7532SOL     OW34057   4.717   3.403   7.238 -0.3447  0.2414 -0.0365
 7532SOL    HW134058   0.081   3.368   7.217 -0.6324  1.4976 -3.3703
 7532SOL    HW234059   4.681   3.422   7.151 -1.3956  0.4942  0.4594
 7533SOL     OW34060   0.786   2.503   8.704 -0.4383 -0.4272  0.1115
 7533SOL    HW134061   0.797   2.585   8.753  2.1234 -0.4941 -0.3507
 7533SOL    HW234062   0.713   2.468   8.756 -1.9000  0.5220 -1.2919
 7534SOL     OW34063   2.341   0.535   7.068  0.7001 -0.1596 -0.1502
 7534SOL    HW134064   2.353   0.547   7.163  1.0052 -1.4401 -0.0157
 7534SOL    HW234065   2.364   0.443   7.055  2.0090  0.4863 -2.3668
 7535SOL     OW34066   2.067   3.731  12.742  0.1229 -0.3805 -0.4922
 7535SOL    HW134067   2.075   3.752  12.835  4.0889 -2.2265 -0.4283
 7535SOL    HW234068   2.026   3.810  12.707 -0.9179 -1.5472 -1.8912
 7536SOL     OW34069   0.836   4.126  10.233  0.0548 -0.2590  0.3543
 7536SOL    HW134070   0.771   4.057  10.224  0.0945 -0.4711  1.6346
 7536SOL    HW234071   0.832   4.134  10.328 -1.1631 -0.9534  0.3635
 7537SOL     OW34072   3.507   4.635   7.389 -0.0316  0.1854 -0.2143
 7537SOL    HW134073   3.550   4.561   7.346 -0.5062  0.0337 -0.4321
 7537SOL    HW234074   3.461   4.583   7.456 -0.1221  1.5557  0.7853
 7538SOL     OW34075   0.507   3.125   4.075  0.4737  0.5025 -0.1731
 7538SOL    HW134076   0.572   3.080   4.021  0.0490 -0.3899  0.0508
 7538SOL    HW234077   0.565   3.147   4.148  0.0961 -2.0128  0.8992
 7539SOL     OW34078   2.127   1.533   4.650  0.3959  0.1276  0.2929
 7539SOL    HW134079   2.110   1.446   4.615 -0.0821  1.3417 -2.4454
 7539SOL    HW234080   2.058   1.578   4.601 -1.3505 -2.2185  0.5973
 7540SOL     OW34081   0.955   2.707  10.274  0.3197 -0.6296  1.0038
 7540SOL    HW134082   1.036   2.751  10.303 -0.4163  1.5547 -0.2711
 7540SOL    HW234083   0.897   2.713  10.349 -1.9745 -0.5684 -0.7970
 7541SOL     OW34084   2.471   3.017  16.970 -0.2257  0.2110  0.0032
 7541SOL    HW134085   2.447   2.947  17.032  0.0741 -1.3809 -1.6898
 7541SOL    HW234086   2.426   2.994  16.889  0.7561 -0.6593 -0.2927
 7542SOL     OW34087   2.074   1.889   6.083  0.1345  1.1655 -0.0903
 7542SOL    HW134088   2.100   1.968   6.036 -0.6006 -0.1681 -2.7270
 7542SOL    HW234089   2.129   1.892   6.162  1.3911 -2.1742 -0.8180
 7543SOL     OW34090   3.695   2.524   7.594  0.0459  0.2042  0.0627
 7543SOL    HW134091   3.671   2.434   7.615  0.5055  0.5757  2.1788
 7543SOL    HW234092   3.624   2.565   7.643  0.4951  3.1808 -1.7624
 7544SOL     OW34093   0.130   1.208   3.064 -0.3730  0.4906  0.1815
 7544SOL    HW134094   0.092   1.171   2.985  2.5578 -1.2538 -0.4341
 7544SOL    HW234095   0.097   1.139   3.121  0.9579  0.6203  1.1201
 7545SOL     OW34096   0.429   2.301  16.423 -0.1683  0.1024  0.4559
 7545SOL    HW134097   0.450   2.251  16.501 -0.8985 -0.4888  0.2699
 7545SOL    HW234098   0.334   2.296  16.425 -0.4060  4.4193  1.2471
 7546SOL     OW34099   2.908   2.390   2.914 -0.3092 -0.4908 -0.6753
 7546SOL    HW134100   2.832   2.394   2.857 -0.3699  2.6644 -0.3619
 7546SOL    HW234101   2.975   2.364   2.851 -0.2248 -0.9026 -0.4176
 7547SOL     OW34102   2.794   1.684   3.585 -0.4234  0.0158  0.3052
 7547SOL    HW134103   2.825   1.616   3.526  2.1447  3.0793 -1.8406
 7547SOL    HW234104   2.768   1.750   3.521  0.3234 -2.5020 -2.5758
 7548SOL     OW34105   0.438   1.000   6.470  0.1452  0.3090  0.8158
 7548SOL    HW134106   0.514   1.055   6.490 -0.1569  1.4265 -1.1226
 7548SOL    HW234107   0.460   0.975   6.380  4.3098  0.7574  1.6991
 7549SOL     OW34108   0.393   2.815  16.159  0.2147 -0.2720  0.0691
 7549SOL    HW134109   0.468   2.839  16.104 -0.9422 -0.7938 -1.7518
 7549SOL    HW234110   0.438   2.752  16.214  0.2708 -1.1346 -0.9685
 7550SOL     OW34111   4.694   4.521   8.371 -0.5156 -0.6290  0.0343
 7550SOL    HW134112   4.626   4.556   8.314  0.5202  0.7464 -0.3518
 7550SOL    HW234113   4.685   4.426   8.361 -0.5111 -0.7879  1.4761
 7551SOL     OW34114   4.383   0.185   6.041 -0.3085  0.6762  0.3077
 7551SOL    HW134115   4.342   0.218   5.961  1.0798  0.2240 -0.5958
 7551SOL    HW234116   4.325   0.214   6.111 -0.8679 -1.6856  0.8554
 7552SOL     OW34117   4.101   4.695   0.507 -0.1304  0.6138  0.2271
 7552SOL    HW134118   4.074   0.033   0.437 -0.3103 -0.4349 -0.5979
 7552SOL    HW234119   4.190   0.005   0.519 -1.1783  3.1227  1.2825
 7553SOL     OW34120   2.545   0.587   2.952 -0.2121 -0.5948 -0.1067
 7553SOL    HW134121   2.595   0.531   2.893  0.9476  0.1536  0.1771
 7553SOL    HW234122   2.547   0.661   2.892 -0.8907 -0.1454  0.4345
 7554SOL     OW34123   0.260   2.904  15.273 -0.0316 -0.2481  0.2902
 7554SOL    HW134124   0.251   2.843  15.347 -2.4153  0.7348  0.8049
 7554SOL    HW234125   0.167   2.911  15.250 -0.4298 -0.8361  1.7096
 7555SOL     OW34126   4.532   0.544   5.478  0.1778  0.1765  0.1330
 7555SOL    HW134127   4.612   0.508   5.517  0.3910 -0.7700 -1.1539
 7555SOL    HW234128   4.479   0.567   5.554  0.6322  0.0736  0.4849
 7556SOL     OW34129   1.728   4.456   9.300  0.0264  0.4243  0.1492
 7556SOL    HW134130   1.821   4.439   9.288  0.6498  1.4505  3.5678
 7556SOL    HW234131   1.712   4.414   9.385 -0.0534 -0.9404 -0.5450
 7557SOL     OW34132   0.272   1.975   1.749  0.1879  0.2493  0.1880
 7557SOL    HW134133   0.293   1.944   1.661  2.0781  0.1040  0.6922
 7557SOL    HW234134   0.235   2.064   1.744 -3.2167 -1.1196  1.3954
 7558SOL     OW34135   2.966   1.617   4.123 -0.0126  0.2783 -0.1819
 7558SOL    HW134136   3.030   1.649   4.059  1.3272 -0.1368  0.9497
 7558SOL    HW234137   3.023   1.553   4.165 -2.0380 -0.8052  0.9141
 7559SOL     OW34138   1.877   1.008  14.920  0.2492  0.1952  0.0618
 7559SOL    HW134139   1.878   1.049  14.833  0.5982  0.4664  0.1918
 7559SOL    HW234140   1.918   1.074  14.977  0.4061 -0.4183  0.6629
 7560SOL     OW34141   3.985   1.899   7.704  0.0714 -0.4799 -0.0452
 7560SOL    HW134142   4.028   1.978   7.738  0.3511 -0.0575 -1.3496
 7560SOL    HW234143   4.057   1.840   7.680  0.1634  0.4224 -2.0179
 7561SOL     OW34144   0.804   4.594   8.771  0.3816  0.4696  0.2818
 7561SOL    HW134145   0.708   4.596   8.777  0.3797 -0.4943  0.4486
 7561SOL    HW234146   0.832   4.503   8.772 -2.3308 -0.3877 -0.4909
 7562SOL     OW34147   1.501   3.615  12.076 -0.0176 -0.4029  0.1292
 7562SOL    HW134148   1.417   3.637  12.118  1.4441  2.4250  1.6113
 7562SOL    HW234149   1.565   3.652  12.137 -0.3408 -2.1580  1.5323
 7563SOL     OW34150   0.630   3.711  15.036 -0.3953  0.4443  0.2329
 7563SOL    HW134151   0.669   3.793  15.064 -1.2436  1.0763 -0.4490
 7563SOL    HW234152   0.675   3.650  15.095  2.7177  1.0260 -1.5534
 7564SOL     OW34153   0.139   1.663   5.854 -0.1629  0.1133  0.1769
 7564SOL    HW134154   0.052   1.641   5.887  0.5874 -2.3671  0.5468
 7564SOL    HW234155   0.180   1.581   5.881  0.3335  0.2116 -0.2802
 7565SOL     OW34156   4.020   4.091  16.828 -0.6138  0.1342 -0.7992
 7565SOL    HW134157   3.970   4.120  16.752 -1.9754  0.4230  0.1965
 7565SOL    HW234158   4.036   4.175  16.871  1.9489  0.6001 -2.7535
 7566SOL     OW34159   2.280   3.524   5.657  0.2754 -0.2189 -0.6949
 7566SOL    HW134160   2.312   3.456   5.597  0.5420 -0.9389  0.2511
 7566SOL    HW234161   2.221   3.566   5.595 -0.8588  0.0856  0.6103
 7567SOL     OW34162   4.044   1.791   0.566  0.2919  0.3849  0.3763
 7567SOL    HW134163   4.126   1.785   0.616  0.5552  1.6523  0.1015
 7567SOL    HW234164   3.982   1.774   0.637 -1.0845 -0.6969 -1.1106
 7568SOL     OW34165   0.415   4.695   2.512  0.0670  0.5872  0.0136
 7568SOL    HW134166   0.440   4.618   2.460  1.8321  0.7646  0.6086
 7568SOL    HW234167   0.501   0.007   2.534  0.6472 -1.4695  0.9738
 7569SOL     OW34168   2.486   4.294   4.892  0.4132  0.2840  0.3296
 7569SOL    HW134169   2.524   4.278   4.806  0.4272 -2.0475  0.7576
 7569SOL    HW234170   2.565   4.307   4.944 -0.6909  0.1115  2.0564
 7570SOL     OW34171   3.730   0.748  12.375 -0.1434  0.0382 -0.2716
 7570SOL    HW134172   3.712   0.824  12.321  2.9368  0.7204 -0.3290
 7570SOL    HW234173   3.774   0.693  12.310  0.1325  0.4495 -0.4336
 7571SOL     OW34174   3.333   2.540   3.970  0.0969 -0.6941  0.1613
 7571SOL    HW134175   3.314   2.583   3.887  1.1059 -2.3955 -0.9556
 7571SOL    HW234176   3.324   2.450   3.937 -2.3675 -0.0178 -1.0234
 7572SOL     OW34177   1.554   0.950   8.420  0.0710 -0.0212  0.0040
 7572SOL    HW134178   1.469   0.992   8.431  0.0767 -0.2429  0.8562
 7572SOL    HW234179   1.584   0.903   8.498 -1.0223  1.2122  1.1636
 7573SOL     OW34180   1.840   1.682   3.495  0.0949 -0.3110 -0.6031
 7573SOL    HW134181   1.768   1.744   3.503  0.2741 -0.3851  1.4740
 7573SOL    HW234182   1.826   1.662   3.402  2.3105  0.8128 -1.1774
 7574SOL     OW34183   3.567   1.978   7.670  0.1704 -0.0980  0.0349
 7574SOL    HW134184   3.618   1.951   7.747  1.5205  1.4892 -0.2922
 7574SOL    HW234185   3.563   1.891   7.630  0.0166  0.2295 -0.6641
 7575SOL     OW34186   0.978   1.893   7.904 -0.1862 -0.6303 -0.2410
 7575SOL    HW134187   1.014   1.818   7.952 -0.8222  0.6306  2.2112
 7575SOL    HW234188   0.977   1.861   7.814  0.3811 -0.7780 -0.1932
 7576SOL     OW34189   0.919   2.505  11.373 -0.5012 -0.0372 -0.0746
 7576SOL    HW134190   0.901   2.598  11.388  1.0895  0.1037  1.0556
 7576SOL    HW234191   0.981   2.508  11.300  0.6790  1.7650  1.0021
 7577SOL     OW34192   1.362   3.564   7.024 -0.6407  0.3865 -1.1364
 7577SOL    HW134193   1.332   3.633   6.965  0.1275  0.3628 -1.5574
 7577SOL    HW234194   1.278   3.545   7.065 -0.2425  1.3585  0.1347
 7578SOL     OW34195   3.889   1.342   0.611 -0.8366 -0.0004 -0.0372
 7578SOL    HW134196   3.827   1.337   0.538  0.1110  1.8655 -0.9696
 7578SOL    HW234197   3.950   1.278   0.576 -1.1529 -0.4648  0.2718
 7579SOL     OW34198   2.344   0.601   7.356 -0.0453 -0.2355 -0.1864
 7579SOL    HW134199   2.396   0.565   7.428  0.1880 -0.3884 -0.4352
 7579SOL    HW234200   2.405   0.665   7.321  2.2974 -1.4084  1.7659
 7580SOL     OW34201   2.607   1.521  16.153 -0.0143  0.3302 -0.0321
 7580SOL    HW134202   2.686   1.558  16.114 -0.8370  0.3623 -1.6589
 7580SOL    HW234203   2.632   1.500  16.243  1.3883  1.0247 -0.2604
 7581SOL     OW34204   2.946   4.124  13.174 -0.4882  0.6708 -0.2857
 7581SOL    HW134205   2.951   4.212  13.136  1.0009  0.7265  0.0351
 7581SOL    HW234206   2.875   4.074  13.133 -0.0141  0.6672 -1.1089
 7582SOL     OW34207   4.242   4.464   3.487 -0.0168 -0.0427 -0.3439
 7582SOL    HW134208   4.238   4.557   3.507 -0.0524  0.3113 -2.0312
 7582SOL    HW234209   4.155   4.442   3.453 -0.4710 -2.2838  2.2322
 7583SOL     OW34210   3.047   1.510  11.931 -0.3555 -0.0500  0.1397
 7583SOL    HW134211   2.991   1.439  11.965 -0.3250 -0.6250 -0.9863
 7583SOL    HW234212   2.985   1.581  11.915 -1.4227 -0.8273  0.7802
 7584SOL     OW34213   0.076   1.680  17.123  0.1278 -0.1759 -0.1026
 7584SOL    HW134214   0.126   1.602  17.147 -2.3287 -1.6813  0.2219
 7584SOL    HW234215   0.128   1.706  17.048 -0.1459 -0.6727 -0.4642
 7585SOL     OW34216   3.378   1.715   7.542  0.2555 -0.0954  0.0667
 7585SOL    HW134217   3.458   1.664   7.528  0.7020  0.1528  1.7109
 7585SOL    HW234218   3.383   1.768   7.463  0.5832  0.7381  0.6565
 7586SOL     OW34219   1.480   1.378   6.676 -0.4044  1.1417  0.6605
 7586SOL    HW134220   1.410   1.439   6.656 -0.9527  0.5883  0.8633
 7586SOL    HW234221   1.548   1.431   6.635  0.9458 -0.0769  1.3249
 7587SOL     OW34222   0.435   3.226  17.484  0.0968 -0.0384 -0.4898
 7587SOL    HW134223   0.447   3.318  17.460  0.7793 -0.2433 -0.9236
 7587SOL    HW234224   0.341   3.211  17.476  0.0308  1.0446 -1.7289
 7588SOL     OW34225   0.118   3.648   6.953 -0.0762 -0.0640 -0.2040
 7588SOL    HW134226   0.047   3.612   6.900 -2.4971  1.1757  2.2210
 7588SOL    HW234227   0.166   3.573   6.989 -1.0109 -0.0361  1.0661
 7589SOL     OW34228   3.326   3.897   3.917 -0.3311  0.4031  0.2990
 7589SOL    HW134229   3.372   3.851   3.846 -0.3107 -0.9895  1.2009
 7589SOL    HW234230   3.372   3.981   3.918  2.5999 -1.1813 -1.6251
 7590SOL     OW34231   4.235   3.107  16.379 -0.1474  0.1341  0.0539
 7590SOL    HW134232   4.245   3.172  16.309 -1.3870  1.3349  0.9688
 7590SOL    HW234233   4.144   3.080  16.391  0.6363 -2.7983 -0.7582
 7591SOL     OW34234   2.617   4.332  15.506  0.5260  0.0079 -0.5023
 7591SOL    HW134235   2.538   4.278  15.517  0.4792  0.2838  0.5377
 7591SOL    HW234236   2.661   4.305  15.587 -1.0394  1.3407  0.8195
 7592SOL     OW34237   0.488   1.675   7.405 -0.0874 -0.4410  0.0593
 7592SOL    HW134238   0.439   1.682   7.487  1.2243  3.3486  0.4944
 7592SOL    HW234239   0.413   1.665   7.346  0.5711 -1.2284 -0.6493
 7593SOL     OW34240   3.115   0.631   6.054  0.3566  0.7503 -0.2711
 7593SOL    HW134241   3.181   0.622   6.123  0.7046  2.4539 -0.4044
 7593SOL    HW234242   3.036   0.633   6.108  0.3100  0.6988 -0.3365
 7594SOL     OW34243   2.850   0.846  10.677 -0.1625 -0.2768 -0.1087
 7594SOL    HW134244   2.920   0.785  10.655  0.3206 -0.2004  1.1977
 7594SOL    HW234245   2.855   0.910  10.606  0.1711  0.4931  0.6038
 7595SOL     OW34246   1.628   4.150  13.362 -0.0036 -0.4533 -0.3687
 7595SOL    HW134247   1.651   4.242  13.378 -0.6266 -0.2500 -0.6241
 7595SOL    HW234248   1.534   4.144  13.344 -0.2588  0.8957  0.4624
 7596SOL     OW34249   4.577   3.769   3.394 -0.5605  1.0948  0.2003
 7596SOL    HW134250   4.528   3.689   3.377  1.8951 -0.2337 -0.6709
 7596SOL    HW234251   4.512   3.835   3.420  0.5604  3.2474 -2.4440
 7597SOL     OW34252   3.887   2.881   7.385 -0.1547 -0.2681 -0.5990
 7597SOL    HW134253   3.833   2.839   7.317  1.3405 -0.2732 -1.7722
 7597SOL    HW234254   3.928   2.947   7.329  1.1701 -0.4652  0.1498
 7598SOL     OW34255   2.666   4.290   5.922  0.0706  0.0831  0.8888
 7598SOL    HW134256   2.640   4.214   5.975  1.2832 -0.7244  0.3376
 7598SOL    HW234257   2.579   4.324   5.899  1.0476  0.8031 -1.7068
 7599SOL     OW34258   2.682   4.386  11.653 -0.3553 -0.2714 -0.0825
 7599SOL    HW134259   2.652   4.468  11.693 -0.4279 -1.0875  1.5394
 7599SOL    HW234260   2.729   4.408  11.572 -0.2845 -2.5071 -0.6309
 7600SOL     OW34261   3.789   0.213  16.973 -0.7883  0.4344 -0.0943
 7600SOL    HW134262   3.805   0.165  17.055  0.8188 -0.3230 -0.8360
 7600SOL    HW234263   3.870   0.206  16.922  0.2530 -2.1271  1.8632
 7601SOL     OW34264   3.373   1.062   1.869 -0.4292  0.1308  0.4416
 7601SOL    HW134265   3.380   1.155   1.889  1.7676  0.2088 -0.7131
 7601SOL    HW234266   3.302   1.049   1.932 -0.6002 -1.3429 -0.0500
 7602SOL     OW34267   0.728   2.372   6.552 -0.2374  1.1855  0.5995
 7602SOL    HW134268   0.780   2.415   6.620 -0.2094  0.5743  0.9613
 7602SOL    HW234269   0.787   2.309   6.509 -3.3227 -0.7736 -0.7184
 7603SOL     OW34270   2.614   0.852  17.147 -0.2747 -0.0581  0.5735
 7603SOL    HW134271   2.570   0.852  17.062  0.1675  2.8455  0.3596
 7603SOL    HW234272   2.538   0.809  17.187 -1.4539  2.4166  1.0002
 7604SOL     OW34273   3.170   4.665   7.787 -0.0367  0.4134 -0.1810
 7604SOL    HW134274   3.168   4.704   7.875  1.4366 -1.5575  0.7354
 7604SOL    HW234275   3.218   4.584   7.807  2.5994  1.9461 -0.2203
 7605SOL     OW34276   2.444   2.616   7.958  0.1438  0.5901  0.0704
 7605SOL    HW134277   2.381   2.555   7.996  0.2368  0.0172 -0.6852
 7605SOL    HW234278   2.512   2.616   8.026 -1.9843  0.8148  2.1792
 7606SOL     OW34279   3.333   2.066  14.629  0.3953  0.2425 -0.6183
 7606SOL    HW134280   3.253   2.018  14.651  0.8243  0.0812  0.5628
 7606SOL    HW234281   3.370   2.067  14.717 -0.8208  2.1460 -0.1211
 7607SOL     OW34282   4.515   3.363   9.079 -0.3868  0.0246 -0.0022
 7607SOL    HW134283   4.458   3.437   9.103 -1.9689 -1.3764  0.5310
 7607SOL    HW234284   4.602   3.387   9.112 -0.2584  2.7040 -2.3403
 7608SOL     OW34285   1.974   1.219   0.529 -0.0424 -0.0374 -0.2765
 7608SOL    HW134286   1.886   1.256   0.528 -0.3538 -0.8074 -1.0503
 7608SOL    HW234287   1.960   1.144   0.472  1.4103 -1.1130  0.7801
 7609SOL     OW34288   0.599   4.582   3.827  0.7228 -0.3373  0.0495
 7609SOL    HW134289   0.666   4.645   3.800 -0.9993  1.8571  0.8911
 7609SOL    HW234290   0.558   4.622   3.903  0.1470 -2.1811  0.7083
 7610SOL     OW34291   2.434   1.179   7.244 -0.1649 -0.3647 -0.1912
 7610SOL    HW134292   2.361   1.222   7.290  1.5126  0.6186  1.5552
 7610SOL    HW234293   2.380   1.143   7.174 -0.9304  0.6446 -0.1237
 7611SOL     OW34294   3.440   1.345   1.879 -0.3192 -0.1571  0.1913
 7611SOL    HW134295   3.469   1.418   1.825 -3.4820  1.0640  0.1539
 7611SOL    HW234296   3.420   1.377   1.967 -1.0723 -1.6096  0.5590
 7612SOL     OW34297   3.839   2.492   0.616  0.1912 -0.2294 -0.3519
 7612SOL    HW134298   3.764   2.480   0.559  0.2894  1.1925 -0.7976
 7612SOL    HW234299   3.805   2.569   0.663  0.9822 -0.1478  0.0935
 7613SOL     OW34300   0.518   3.442  12.708 -0.7458  0.0757 -0.2192
 7613SOL    HW134301   0.502   3.529  12.672 -0.0950  0.8447  1.3259
 7613SOL    HW234302   0.495   3.386  12.634  0.5394 -2.0737  1.0153
 7614SOL     OW34303   0.241   1.217   3.898 -0.4216  0.1733  0.0749
 7614SOL    HW134304   0.322   1.261   3.872 -0.9045  0.2202 -1.3548
 7614SOL    HW234305   0.293   1.147   3.937 -1.0140 -0.4062 -0.1737
 7615SOL     OW34306   0.313   0.251  11.801  0.6325 -0.1368 -0.7292
 7615SOL    HW134307   0.370   0.249  11.724  1.5408 -1.4398 -0.0219
 7615SOL    HW234308   0.251   0.317  11.771  0.7954  0.2213 -0.2713
 7616SOL     OW34309   4.437   4.152  15.682  0.6478  0.0944 -0.3038
 7616SOL    HW134310   4.350   4.121  15.656  1.5401 -2.8714  0.2143
 7616SOL    HW234311   4.429   4.241  15.650 -0.5778  0.0551 -0.0894
 7617SOL     OW34312   2.666   2.831  12.800 -0.2436  0.6881 -0.1499
 7617SOL    HW134313   2.722   2.834  12.722  0.7493 -2.0369  0.4684
 7617SOL    HW234314   2.651   2.737  12.793  0.6091  0.6574 -1.7862
 7618SOL     OW34315   2.286   3.862   3.126  0.0583 -0.4171  0.2831
 7618SOL    HW134316   2.235   3.851   3.045 -0.8740 -1.8028  1.0681
 7618SOL    HW234317   2.294   3.771   3.154 -0.9067  0.1324  2.2970
 7619SOL     OW34318   2.342   2.530  17.124 -1.1224 -0.1130  0.0370
 7619SOL    HW134319   2.252   2.544  17.094 -0.8642 -0.7613 -1.0576
 7619SOL    HW234320   2.335   2.441  17.160 -0.0756  0.0244  0.5729
 7620SOL     OW34321   3.887   1.455   8.976  0.0927 -0.6029 -0.3094
 7620SOL    HW134322   3.891   1.379   9.034 -1.1622 -0.7451 -0.4088
 7620SOL    HW234323   3.867   1.527   9.036 -0.4014  0.6239 -1.9402
 7621SOL     OW34324   2.333   0.770  16.462  0.5460 -0.1529  0.3569
 7621SOL    HW134325   2.390   0.812  16.397 -0.6878 -1.9173 -1.8676
 7621SOL    HW234326   2.258   0.744  16.409  1.3492 -3.5102  0.8423
 7622SOL     OW34327   2.958   4.590   7.295 -0.0487 -0.0510 -0.2230
 7622SOL    HW134328   2.970   4.495   7.299 -0.3446 -0.1651 -2.0752
 7622SOL    HW234329   2.865   4.581   7.313  0.2070  2.0190  2.1513
 7623SOL     OW34330   4.672   3.170   9.941 -0.6487  0.2577 -0.1478
 7623SOL    HW134331   4.636   3.221   9.868  0.3298  0.1182 -0.7266
 7623SOL    HW234332   0.020   3.128   9.893 -0.1214  1.6514 -0.5912
 7624SOL     OW34333   0.967   3.538   2.534 -0.2566 -0.4114  0.1576
 7624SOL    HW134334   0.975   3.628   2.504  0.2639 -0.3700  0.4079
 7624SOL    HW234335   0.942   3.491   2.455  0.8216  1.4452 -1.2849
 7625SOL     OW34336   1.276   2.636  11.670  0.3375  0.1513 -0.7093
 7625SOL    HW134337   1.220   2.671  11.740  2.6129  0.5779  0.8956
 7625SOL    HW234338   1.222   2.561  11.644 -0.5797  1.1058 -1.5630
 7626SOL     OW34339   1.866   3.663  15.024 -0.1252 -0.3840 -0.3591
 7626SOL    HW134340   1.774   3.638  15.017 -0.1712 -0.5043  0.7139
 7626SOL    HW234341   1.872   3.732  15.090  1.0145 -0.6279 -0.2147
 7627SOL     OW34342   0.067   1.849  10.961 -0.3811 -0.1106 -0.1063
 7627SOL    HW134343   0.098   1.868  10.873 -1.3682  2.7685  0.1701
 7627SOL    HW234344   4.695   1.845  10.945 -0.6603  0.6018  1.3175
 7628SOL     OW34345   3.416   3.189   0.352  0.1874  0.5228 -0.3408
 7628SOL    HW134346   3.417   3.264   0.411 -1.1180 -0.3290  0.7689
 7628SOL    HW234347   3.463   3.230   0.279  1.2985 -0.6834 -0.3103
 7629SOL     OW34348   4.544   3.342  17.691 -0.5165 -0.0861  0.6553
 7629SOL    HW134349   4.460   3.298  17.678  0.3380 -1.5336 -0.0237
 7629SOL    HW234350   4.544   3.411  17.624  1.6022 -0.1912  0.5308
 7630SOL     OW34351   3.628   1.164   6.273 -0.5348  0.0863  0.9830
 7630SOL    HW134352   3.624   1.187   6.366 -2.4505  1.1964  0.6170
 7630SOL    HW234353   3.611   1.251   6.236 -5.5593 -0.4881  1.9408
 7631SOL     OW34354   4.590   4.418   7.531 -0.1733 -0.3451  0.3448
 7631SOL    HW134355   4.677   4.455   7.515 -0.6525  0.4214 -0.4622
 7631SOL    HW234356   4.570   4.454   7.617  1.7415  2.2001 -0.2789
 7632SOL     OW34357   4.279   0.862  15.453  0.3823  0.0142  0.0307
 7632SOL    HW134358   4.302   0.835  15.364 -1.3734 -0.5996 -0.2367
 7632SOL    HW234359   4.251   0.953  15.440 -1.0964 -0.0309  2.8472
 7633SOL     OW34360   3.828   1.047   7.709  0.4948 -0.0195  0.5439
 7633SOL    HW134361   3.860   1.136   7.727  0.1688  0.2704 -0.2897
 7633SOL    HW234362   3.769   1.069   7.637  0.0651  0.9244  1.1792
 7634SOL     OW34363   4.689   2.690   1.957 -0.2514  0.6508  0.0193
 7634SOL    HW134364   4.673   2.772   1.910  0.7874  0.8932  0.0930
 7634SOL    HW234365   0.062   2.680   1.956 -0.2086  1.0570 -1.0536
 7635SOL     OW34366   0.682   0.427  15.042  0.6148  0.1806  0.2938
 7635SOL    HW134367   0.701   0.334  15.055 -0.4279 -0.2860 -1.5449
 7635SOL    HW234368   0.596   0.411  15.003 -0.2365  0.3174  2.1052
 7636SOL     OW34369   2.748   0.015  11.337 -0.4368  0.0810 -0.2957
 7636SOL    HW134370   2.831   0.059  11.318 -0.8268  1.2591  0.6927
 7636SOL    HW234371   2.685   0.056  11.278 -2.1096 -0.4631  1.1037
 7637SOL     OW34372   1.495   0.061   7.188 -0.1136 -0.2153 -0.3848
 7637SOL    HW134373   1.461   0.121   7.255 -0.8975 -0.9808 -0.1070
 7637SOL    HW234374   1.475   4.697   7.222 -3.6605  0.3070 -1.1226
 7638SOL     OW34375   2.294   2.277  17.453  0.2197  0.4475 -0.4242
 7638SOL    HW134376   2.324   2.337  17.521 -0.4379 -0.0617  0.3050
 7638SOL    HW234377   2.225   2.326  17.409 -2.0784 -1.0903  1.5030
 7639SOL     OW34378   2.137   3.878   1.218 -0.3985 -0.1881  0.0700
 7639SOL    HW134379   2.216   3.870   1.165 -0.8177  0.1328 -0.6016
 7639SOL    HW234380   2.147   3.967   1.250  3.4161 -0.3493 -0.6391
 7640SOL     OW34381   2.875   4.395  15.188  0.4093 -0.3075  0.3153
 7640SOL    HW134382   2.868   4.449  15.267  2.3774 -2.5009  1.9759
 7640SOL    HW234383   2.878   4.303  15.212  1.5036 -0.2748  0.3076
 7641SOL     OW34384   0.595   2.489   1.117 -0.8384  0.1955  0.9206
 7641SOL    HW134385   0.598   2.412   1.174 -0.5646  0.8193  1.7418
 7641SOL    HW234386   0.500   2.500   1.110 -0.7198  1.1287  0.7206
 7642SOL     OW34387   4.557   0.886   6.775  0.2100 -0.4442 -0.3560
 7642SOL    HW134388   4.552   0.802   6.822 -0.7706 -0.4328 -0.4318
 7642SOL    HW234389   4.493   0.870   6.706  2.1247 -0.5497 -2.1096
 7643SOL     OW34390   0.830   1.635   2.738  0.1397  0.6475 -0.8027
 7643SOL    HW134391   0.746   1.601   2.766  0.9393  0.8823  1.8402
 7643SOL    HW234392   0.875   1.592   2.810 -1.5773  0.5857  0.2209
 7644SOL     OW34393   4.501   2.461  12.330 -0.6184  0.2664  0.2351
 7644SOL    HW134394   4.502   2.447  12.425 -0.6865  0.8698  0.3234
 7644SOL    HW234395   4.410   2.487  12.340 -1.1165 -1.0544 -0.8779
 7645SOL     OW34396   3.187   4.342  10.291 -0.2948 -0.2966 -0.1374
 7645SOL    HW134397   3.151   4.255  10.306 -0.2385 -0.3431 -0.2698
 7645SOL    HW234398   3.227   4.371  10.374  1.0315 -2.4950 -0.0052
 7646SOL     OW34399   0.015   4.219  13.233  0.5283  0.3944  0.5131
 7646SOL    HW134400   4.702   4.197  13.319  0.2604 -0.4608  0.1812
 7646SOL    HW234401   0.005   4.313  13.216  2.6053  0.3741 -0.8649
 7647SOL     OW34402   4.134   2.044   4.117  0.1911  0.4117 -0.5630
 7647SOL    HW134403   4.075   2.038   4.042 -0.6564 -0.9411  0.2115
 7647SOL    HW234404   4.087   1.977   4.167  0.4680  0.5013 -0.1749
 7648SOL     OW34405   0.291   2.211   5.992 -0.1890  0.0063 -0.3073
 7648SOL    HW134406   0.277   2.119   6.012  2.6688 -0.2460  0.4523
 7648SOL    HW234407   0.220   2.248   6.045 -0.7757  2.5430 -2.8450
 7649SOL     OW34408   1.267   3.783   3.096  0.5915 -0.3247 -0.1122
 7649SOL    HW134409   1.235   3.809   3.009 -1.1266 -1.2917  0.2484
 7649SOL    HW234410   1.309   3.866   3.120 -0.3817 -0.1018  0.7767
 7650SOL     OW34411   0.320   2.320  15.418 -0.2180  0.1571  0.6333
 7650SOL    HW134412   0.300   2.372  15.496 -1.5757  1.8354 -0.8495
 7650SOL    HW234413   0.331   2.234  15.459  1.2196  0.0600  0.0463
 7651SOL     OW34414   3.607   3.283  10.825  0.1959  0.6466 -0.1968
 7651SOL    HW134415   3.582   3.193  10.804 -1.7301  1.4359 -1.2715
 7651SOL    HW234416   3.658   3.269  10.905  1.8107  0.2205 -1.3118
 7652SOL     OW34417   0.898   0.028  12.360 -0.7438  0.2708  0.4427
 7652SOL    HW134418   0.971   0.020  12.422 -1.8364  1.2729  1.8708
 7652SOL    HW234419   0.832   0.078  12.408  0.4790  2.2032  0.0936
 7653SOL     OW34420   2.879   1.868   5.341  0.9761  0.6014 -0.0979
 7653SOL    HW134421   2.817   1.872   5.268 -1.0809 -0.5829  1.5970
 7653SOL    HW234422   2.953   1.815   5.312 -0.2032 -0.5922 -0.9093
 7654SOL     OW34423   2.289   1.068   1.034  0.6107  0.7191  0.1225
 7654SOL    HW134424   2.329   1.140   0.984 -1.6847  1.8200 -0.1152
 7654SOL    HW234425   2.199   1.100   1.043  1.0539  1.6442  1.1697
 7655SOL     OW34426   1.216   1.300   0.652  0.0850  0.6736  0.2134
 7655SOL    HW134427   1.139   1.338   0.609 -0.6444  1.3477  2.1196
 7655SOL    HW234428   1.286   1.365   0.661 -1.1660  1.8304  1.7263
 7656SOL     OW34429   0.260   3.669   5.724  0.1230  0.4669 -0.1330
 7656SOL    HW134430   0.272   3.574   5.718 -0.3895  0.3979 -0.0302
 7656SOL    HW234431   0.228   3.671   5.814  4.9008 -1.0258  1.5797
 7657SOL     OW34432   1.515   4.148  13.713 -0.0810  0.6158  0.3134
 7657SOL    HW134433   1.471   4.184  13.636  1.1224 -0.7323 -0.9928
 7657SOL    HW234434   1.524   4.226  13.768  0.4276 -0.3159  1.5401
 7658SOL     OW34435   1.227   3.976  13.684  0.0254  0.5121  0.3470
 7658SOL    HW134436   1.150   4.032  13.675 -0.9544 -1.3188 -2.5998
 7658SOL    HW234437   1.209   3.908  13.619  0.2793 -0.5612  1.4061
 7659SOL     OW34438   4.238   1.847   9.403  0.0275  0.1655  0.2838
 7659SOL    HW134439   4.316   1.828   9.455 -1.5800 -1.4444  2.1323
 7659SOL    HW234440   4.174   1.846   9.474 -0.9681 -0.5874 -0.6273
 7660SOL     OW34441   2.933   1.902   8.982  0.3063 -0.3763  0.0917
 7660SOL    HW134442   2.853   1.879   9.030 -0.3822  0.6740 -0.5672
 7660SOL    HW234443   2.943   1.830   8.919 -0.9509 -2.3171  2.0818
 7661SOL     OW34444   0.923   0.086   4.690  0.1110 -0.7823 -0.0595
 7661SOL    HW134445   0.882   0.082   4.604 -0.6703 -1.5423  0.3492
 7661SOL    HW234446   0.859   0.139   4.737 -0.2933 -1.7514  0.4835
 7662SOL     OW34447   1.869   1.479  15.566  0.5293 -0.1046 -0.6211
 7662SOL    HW134448   1.853   1.555  15.621  0.3394 -1.7401  1.6195
 7662SOL    HW234449   1.785   1.435  15.574  0.0964  0.8394 -0.0527
 7663SOL     OW34450   2.329   2.585   3.357 -0.4213 -0.1687  0.1558
 7663SOL    HW134451   2.296   2.496   3.368 -0.0979 -0.0603  2.0935
 7663SOL    HW234452   2.341   2.591   3.263 -1.2285  3.1957  0.2670
 7664SOL     OW34453   1.754   0.974   5.654  0.5577 -0.0178 -0.1249
 7664SOL    HW134454   1.838   0.980   5.608  1.6160 -2.9486  1.4076
 7664SOL    HW234455   1.691   0.971   5.582  2.4140 -0.0482 -1.7577
 7665SOL     OW34456   4.160   1.709   3.035 -0.3754  0.0111  0.1274
 7665SOL    HW134457   4.140   1.654   2.960  0.1165 -0.0373  0.0308
 7665SOL    HW234458   4.123   1.657   3.107  2.0328 -1.4604  0.3106
 7666SOL     OW34459   0.593   2.377  16.226 -0.5356 -0.0298  0.7615
 7666SOL    HW134460   0.608   2.298  16.175  2.7814  0.8936  0.3021
 7666SOL    HW234461   0.559   2.348  16.311 -0.7233 -1.0269  0.3358
 7667SOL     OW34462   0.071   4.460   6.418  0.9823  0.1829 -0.0025
 7667SOL    HW134463   0.104   4.499   6.499  0.4429 -0.1066  0.3503
 7667SOL    HW234464   0.124   4.513   6.357 -0.1531  1.7890  0.3966
 7668SOL     OW34465   2.243   2.818   8.086  0.0978  0.6171 -0.7253
 7668SOL    HW134466   2.286   2.792   8.004  1.1730 -1.4864  0.5133
 7668SOL    HW234467   2.291   2.771   8.154 -1.2262  3.1301  1.8968
 7669SOL     OW34468   0.415   3.102  15.206  0.3168 -0.3713  0.0130
 7669SOL    HW134469   0.369   3.025  15.240  0.0388 -0.7800 -1.2980
 7669SOL    HW234470   0.351   3.121  15.138  0.4775  0.8177  0.1952
 7670SOL     OW34471   3.825   2.518   4.435  0.3817 -0.4440 -0.1471
 7670SOL    HW134472   3.860   2.590   4.382  0.0180 -0.3644 -0.2749
 7670SOL    HW234473   3.855   2.445   4.380  1.1700 -0.1741 -0.0809
 7671SOL     OW34474   4.349   3.634   7.069  0.6707 -0.3957 -0.1952
 7671SOL    HW134475   4.282   3.700   7.085 -1.8673 -3.1070  0.4555
 7671SOL    HW234476   4.335   3.624   6.975 -0.9458  1.0870 -0.1121
 7672SOL     OW34477   3.426   0.618  14.617 -0.3731 -0.4026  0.2125
 7672SOL    HW134478   3.335   0.625  14.645 -0.9778 -0.7960 -1.6716
 7672SOL    HW234479   3.430   0.555  14.545  0.8244  1.1252 -1.0635
 7673SOL     OW34480   0.559   0.122   4.299 -0.1366 -0.9546  0.0073
 7673SOL    HW134481   0.575   0.211   4.266 -2.2685 -0.6205 -0.1089
 7673SOL    HW234482   0.604   0.062   4.240 -0.0817  0.1710 -1.1042
 7674SOL     OW34483   0.703   3.660  17.152  0.4196  0.2394 -0.0874
 7674SOL    HW134484   0.771   3.698  17.208  0.1541  0.5661  0.0123
 7674SOL    HW234485   0.697   3.724  17.081 -1.6706  1.8389  1.5443
 7675SOL     OW34486   1.995   0.234   6.877 -0.2694 -0.2102 -0.0540
 7675SOL    HW134487   1.908   0.235   6.916 -1.3942  0.7188 -2.5902
 7675SOL    HW234488   2.013   0.325   6.902 -0.5603  0.0136 -0.6639
 7676SOL     OW34489   1.807   1.390  14.589  0.2715  0.7187 -0.1718
 7676SOL    HW134490   1.747   1.454  14.552 -2.1699 -0.9403  0.9264
 7676SOL    HW234491   1.888   1.431  14.559 -0.1377 -1.2913 -4.0563
 7677SOL     OW34492   1.812   3.611  13.112  1.0537  0.2289  0.4876
 7677SOL    HW134493   1.803   3.642  13.022 -0.0236  0.2452  0.6005
 7677SOL    HW234494   1.862   3.532  13.095  1.4509  0.2573  1.5207
 7678SOL     OW34495   4.145   2.521   2.125  0.2410  0.2718 -0.5618
 7678SOL    HW134496   4.226   2.493   2.082  0.6253 -0.4077  0.6021
 7678SOL    HW234497   4.084   2.519   2.051 -0.8318  0.0637  0.3318
 7679SOL     OW34498   4.628   0.218   8.721  0.1130  0.0236  0.3493
 7679SOL    HW134499   4.685   0.293   8.740  1.4674 -0.5976 -1.2651
 7679SOL    HW234500   4.621   0.215   8.625  0.0291  0.1619  0.3519
 7680SOL     OW34501   2.113   4.121  16.492  0.4808 -0.0252 -0.0845
 7680SOL    HW134502   2.120   4.028  16.471  0.0571 -0.2642  0.8605
 7680SOL    HW234503   2.019   4.132  16.510  0.7451  0.0870  1.2275
 7681SOL     OW34504   2.614   1.615   3.799  0.5007 -0.3717 -0.4679
 7681SOL    HW134505   2.581   1.704   3.809  0.4628 -0.2807 -1.3878
 7681SOL    HW234506   2.670   1.619   3.722  2.1647 -0.8099  0.7024
 7682SOL     OW34507   1.965   2.581   3.622  0.3366  0.6083  0.3044
 7682SOL    HW134508   1.882   2.565   3.665  1.1288 -0.1095  1.5650
 7682SOL    HW234509   2.026   2.577   3.696  1.5211  3.1966 -0.5190
 7683SOL     OW34510   4.407   3.549  11.185 -0.3693  0.3793  0.4699
 7683SOL    HW134511   4.458   3.582  11.258  0.6154 -0.9512  0.3915
 7683SOL    HW234512   4.452   3.466  11.168  0.5361  0.9838 -0.0647
 7684SOL     OW34513   1.934   4.268   7.699 -0.0728  0.5778  0.0982
 7684SOL    HW134514   2.000   4.199   7.698 -0.0966  0.5507  0.3936
 7684SOL    HW234515   1.965   4.299   7.784 -1.1779  0.3588  0.5844
 7685SOL     OW34516   1.500   1.429   4.749  0.4733 -0.2769 -0.6422
 7685SOL    HW134517   1.429   1.478   4.790  1.2429  0.0236  0.3334
 7685SOL    HW234518   1.563   1.500   4.734  1.2603 -0.4578  1.7791
 7686SOL     OW34519   4.298   4.557   8.741  0.1378  0.3440  0.0729
 7686SOL    HW134520   4.319   4.574   8.649 -1.3732  0.7042 -0.2034
 7686SOL    HW234521   4.283   4.463   8.743  2.7775 -0.1228 -1.7905
 7687SOL     OW34522   3.681   4.151   4.265  0.3376 -0.1286  0.1014
 7687SOL    HW134523   3.760   4.102   4.290  0.9647  1.2671  0.8559
 7687SOL    HW234524   3.730   4.231   4.245  0.7818 -0.4860 -0.2226
 7688SOL     OW34525   4.069   2.839   3.823  0.2454 -0.3155 -0.0587
 7688SOL    HW134526   4.021   2.835   3.740  1.0740  4.7238 -0.7718
 7688SOL    HW234527   4.002   2.880   3.878 -0.3570 -0.6695 -0.5197
 7689SOL     OW34528   1.739   2.539   0.039  0.4793  0.0244 -0.3160
 7689SOL    HW134529   1.770   2.571  17.645 -0.7294  1.2997 -0.2754
 7689SOL    HW234530   1.688   2.611   0.076  1.8414  0.1331  1.3028
 7690SOL     OW34531   4.569   3.341   9.479 -0.4010 -0.2295  0.5451
 7690SOL    HW134532   4.479   3.356   9.508 -0.4945 -0.8044  0.5531
 7690SOL    HW234533   4.596   3.275   9.543  0.6245  1.1956  1.5856
 7691SOL     OW34534   1.055   2.520  10.060  0.3383  0.0774  0.6311
 7691SOL    HW134535   0.979   2.466  10.084 -0.2491 -0.6139 -2.8071
 7691SOL    HW234536   1.026   2.592  10.115 -1.0986  0.2859 -0.4069
 7692SOL     OW34537   1.092   0.447   8.332 -0.2311  0.1142 -0.4908
 7692SOL    HW134538   1.068   0.500   8.408  2.1585  1.1514 -0.4668
 7692SOL    HW234539   1.004   0.427   8.300 -0.9996  0.8069  1.1897
 7693SOL     OW34540   4.507   4.590  13.360  0.5405 -0.0190  0.1840
 7693SOL    HW134541   4.447   4.537  13.306  0.0927  2.7836 -2.0406
 7693SOL    HW234542   4.469   4.597  13.447 -1.1178  1.2949 -0.6421
 7694SOL     OW34543   0.038   3.158   1.853 -0.2130 -0.6338 -0.1862
 7694SOL    HW134544   0.046   3.122   1.941  1.5743 -0.1743 -0.1638
 7694SOL    HW234545   4.678   3.202   1.871  1.5606  1.9444  1.6168
 7695SOL     OW34546   1.402   2.795   4.091 -0.7406 -0.5352  1.1900
 7695SOL    HW134547   1.460   2.825   4.021 -1.0136  0.0921  1.2358
 7695SOL    HW234548   1.390   2.705   4.062  0.5785 -0.4709  0.4224
 7696SOL     OW34549   0.511   0.858   6.233  0.0524  0.1004 -0.0731
 7696SOL    HW134550   0.578   0.892   6.174 -0.6131  0.9288 -0.3483
 7696SOL    HW234551   0.530   0.766   6.214 -3.1792 -0.8088  1.1876
 7697SOL     OW34552   1.197   1.475   8.446 -0.2469  0.7507 -0.2595
 7697SOL    HW134553   1.177   1.523   8.526 -0.4226 -2.0498  1.4007
 7697SOL    HW234554   1.292   1.479   8.452 -0.1909  0.3321 -0.8913
 7698SOL     OW34555   4.217   1.236  14.521 -0.3896  0.3850  0.3658
 7698SOL    HW134556   4.248   1.278  14.602  1.2308  0.0655 -0.0811
 7698SOL    HW234557   4.127   1.266  14.511 -0.7610 -0.8692 -0.0096
 7699SOL     OW34558   2.140   3.423   8.075  0.0128 -0.0105 -0.0947
 7699SOL    HW134559   2.212   3.485   8.061 -0.0861  0.0956 -0.1308
 7699SOL    HW234560   2.069   3.483   8.098  0.9533  0.9726  0.2808
 7700SOL     OW34561   1.085   4.485   4.289 -0.3459 -0.7112  0.2429
 7700SOL    HW134562   1.037   4.405   4.308 -0.1532 -0.9188 -0.1609
 7700SOL    HW234563   1.174   4.452   4.294  0.1652  0.4076 -1.4622
 7701SOL     OW34564   3.417   0.368   6.990  0.3430 -0.1701  0.3938
 7701SOL    HW134565   3.430   0.412   6.906  1.1175 -1.6186 -0.2537
 7701SOL    HW234566   3.345   0.422   7.021 -0.2172 -0.2568 -0.7540
 7702SOL     OW34567   4.341   3.298   0.703 -0.2687  0.2382  0.3840
 7702SOL    HW134568   4.416   3.242   0.722 -0.4977  0.3052  1.4472
 7702SOL    HW234569   4.282   3.230   0.668  0.4681 -0.1132 -0.1805
 7703SOL     OW34570   0.752   3.981   6.111 -0.2572  0.0736  0.7348
 7703SOL    HW134571   0.828   3.983   6.168 -0.4854  0.5668  1.0251
 7703SOL    HW234572   0.768   3.898   6.067 -0.3479  0.9413 -0.9494
 7704SOL     OW34573   2.779   1.260   6.229  0.0143 -0.2718 -0.5357
 7704SOL    HW134574   2.745   1.348   6.212 -2.8711 -1.4752 -1.0687
 7704SOL    HW234575   2.699   1.207   6.234 -0.8323  1.1621  1.2686
 7705SOL     OW34576   0.683   2.339   2.257  0.8141  0.3226  0.4306
 7705SOL    HW134577   0.678   2.327   2.162 -0.7424  1.2703  0.4084
 7705SOL    HW234578   0.600   2.310   2.294  0.6854  0.2088  0.0547
 7706SOL     OW34579   2.290   3.588   6.721 -0.5177  0.2854  0.6480
 7706SOL    HW134580   2.242   3.505   6.719 -0.7451  0.4183  0.5082
 7706SOL    HW234581   2.219   3.646   6.750 -0.8035 -0.2383  0.9778
 7707SOL     OW34582   1.585   0.930   5.451  0.7285  0.3848  0.0464
 7707SOL    HW134583   1.631   0.908   5.370  2.5621 -0.5055  1.3401
 7707SOL    HW234584   1.494   0.907   5.431  0.4376  1.0646  0.5586
 7708SOL     OW34585   3.309   4.095  14.356 -0.2001  0.7366 -0.1104
 7708SOL    HW134586   3.270   4.181  14.340 -1.1370  0.2663 -0.3612
 7708SOL    HW234587   3.400   4.103  14.326  0.9929  1.3193  3.5813
 7709SOL     OW34588   2.707   1.467   7.197 -0.5562 -0.2447 -0.1525
 7709SOL    HW134589   2.771   1.524   7.153  0.7650 -1.1093  0.6406
 7709SOL    HW234590   2.626   1.517   7.210 -0.6455 -0.1295 -1.1416
 7710SOL     OW34591   3.298   2.827   3.384 -0.1852  0.0140 -0.1252
 7710SOL    HW134592   3.306   2.739   3.347  1.7661 -0.8436  2.4029
 7710SOL    HW234593   3.367   2.874   3.336 -0.9358 -1.2707 -2.4789
 7711SOL     OW34594   2.655   3.523   7.199  0.2915  0.5556  0.0037
 7711SOL    HW134595   2.648   3.430   7.179  1.3923  0.3698  0.5188
 7711SOL    HW234596   2.614   3.556   7.119  2.5569  0.8770 -1.0162
 7712SOL     OW34597   3.933   1.896  10.131 -1.2141 -0.1803  0.1760
 7712SOL    HW134598   3.998   1.858  10.189  1.6353  3.4161 -0.6456
 7712SOL    HW234599   3.892   1.952  10.197  0.6814 -0.7794  1.8716
 7713SOL     OW34600   0.614   0.460   8.187  0.0528  0.3407 -0.2311
 7713SOL    HW134601   0.540   0.470   8.247 -1.1025 -0.3819 -1.5577
 7713SOL    HW234602   0.573   0.446   8.102  0.3315 -0.9599 -0.1587
 7714SOL     OW34603   3.002   3.710  11.406  0.0245  0.0031 -0.3492
 7714SOL    HW134604   3.003   3.624  11.362 -1.9687 -0.3681  0.3358
 7714SOL    HW234605   3.015   3.768  11.331  2.0846 -1.3189 -1.0099
 7715SOL     OW34606   3.732   2.696   9.614 -0.2501  0.1906 -0.0720
 7715SOL    HW134607   3.694   2.764   9.557 -1.0692  0.9645  1.4003
 7715SOL    HW234608   3.788   2.642   9.558  1.2313 -0.5048  2.0971
 7716SOL     OW34609   3.643   3.906  14.057 -0.3306 -0.2753 -0.4829
 7716SOL    HW134610   3.605   3.953  13.983  0.3876 -0.0761 -0.7193
 7716SOL    HW234611   3.656   3.823  14.012 -0.4099 -0.9445  0.7090
 7717SOL     OW34612   1.132   0.143   6.062 -0.1939  0.1163 -0.1803
 7717SOL    HW134613   1.089   0.163   5.979  2.3661  1.2120 -1.2512
 7717SOL    HW234614   1.200   0.211   6.069 -0.8158  0.6820  0.3698
 7718SOL     OW34615   4.565   4.470   2.930  0.2247 -0.1094  0.2150
 7718SOL    HW134616   4.477   4.504   2.915  1.1467  1.0622 -2.6927
 7718SOL    HW234617   4.614   4.523   2.866 -1.4899  1.9954  0.6414
 7719SOL     OW34618   2.683   2.955   2.701 -0.2780  0.4848  0.4435
 7719SOL    HW134619   2.681   2.994   2.614 -3.0985 -2.5329 -0.8599
 7719SOL    HW234620   2.625   3.009   2.753  0.4478 -0.8352  2.6311
 7720SOL     OW34621   2.098   3.106   4.552 -0.1268 -0.2812 -0.1329
 7720SOL    HW134622   2.030   3.147   4.606 -0.2642 -1.8664  0.9014
 7720SOL    HW234623   2.045   3.031   4.523 -1.1412  1.2664 -2.2530
 7721SOL     OW34624   0.971   2.924  11.004 -0.2297  0.1487  0.2384
 7721SOL    HW134625   0.935   2.954  10.920 -0.2843 -0.3205  0.0919
 7721SOL    HW234626   1.049   2.878  10.974 -1.1204 -2.2824  1.6368
 7722SOL     OW34627   0.868   3.514   7.763 -0.2882 -0.9161  0.1076
 7722SOL    HW134628   0.778   3.488   7.745 -0.4604  1.5287 -2.5356
 7722SOL    HW234629   0.866   3.599   7.720  0.0067 -2.1642 -2.3332
 7723SOL     OW34630   4.035   3.551   8.423 -0.1230  0.0370  0.2872
 7723SOL    HW134631   4.117   3.508   8.448  0.8542  1.6736 -0.0795
 7723SOL    HW234632   3.978   3.506   8.485 -1.6061  2.1754  0.4653
 7724SOL     OW34633   1.102   0.705  10.793 -0.1543 -0.0780 -0.2611
 7724SOL    HW134634   1.032   0.715  10.858  0.6509 -0.0897  0.6025
 7724SOL    HW234635   1.048   0.732  10.718  0.4629  0.0300 -0.6675
 7725SOL     OW34636   1.157   4.363   3.763  0.5560  0.3900 -0.2675
 7725SOL    HW134637   1.061   4.363   3.754  0.6950  1.4481 -1.7838
 7725SOL    HW234638   1.160   4.415   3.843  0.9974 -1.0500  0.6517
 7726SOL     OW34639   1.853   2.176   4.982  0.5307  0.1750 -0.5052
 7726SOL    HW134640   1.799   2.250   5.011 -0.4280 -1.6981  2.4799
 7726SOL    HW234641   1.825   2.107   5.042 -0.9697  1.5080  0.3296
 7727SOL     OW34642   2.960   1.290   2.442 -0.0665  0.4472  0.4570
 7727SOL    HW134643   2.932   1.381   2.430 -1.0105  0.3342  1.8438
 7727SOL    HW234644   3.054   1.304   2.427 -0.8027  1.5904 -3.2075
 7728SOL     OW34645   0.673   1.860  14.137 -0.1308  0.6862 -0.5082
 7728SOL    HW134646   0.604   1.905  14.186  1.2009  1.6299  0.5005
 7728SOL    HW234647   0.725   1.926  14.091  1.4155 -1.0572 -1.2721
 7729SOL     OW34648   2.521   1.105   6.175  0.1680  0.1272 -0.2370
 7729SOL    HW134649   2.532   1.124   6.082 -0.8464 -0.7304 -0.5326
 7729SOL    HW234650   2.467   1.181   6.198 -0.9602 -0.7619  0.0462
 7730SOL     OW34651   0.779   2.287  10.653  0.6070 -0.5931  0.0998
 7730SOL    HW134652   0.726   2.209  10.669 -0.8031  0.6049  1.3116
 7730SOL    HW234653   0.755   2.353  10.719  0.7020 -0.1626 -0.2963
 7731SOL     OW34654   3.939   2.939  14.805 -0.5733  0.3456  0.1004
 7731SOL    HW134655   3.874   2.948  14.736  0.8686  1.0423 -1.1795
 7731SOL    HW234656   3.936   3.028  14.842  1.3645  0.9635 -1.1986
 7732SOL     OW34657   4.276   2.632   5.191 -0.1790  0.1355  0.0320
 7732SOL    HW134658   4.243   2.561   5.247 -1.9412  0.5444 -0.4688
 7732SOL    HW234659   4.223   2.619   5.112 -0.8158 -0.4478  0.5592
 7733SOL     OW34660   3.784   2.559   5.444  0.0112 -0.0559 -0.4718
 7733SOL    HW134661   3.801   2.468   5.468 -1.5301 -0.9306 -2.7432
 7733SOL    HW234662   3.781   2.541   5.350 -2.5371 -1.5896 -0.0870
 7734SOL     OW34663   3.747   2.278   2.874  0.2445  0.2727  0.2663
 7734SOL    HW134664   3.723   2.367   2.847  0.2129  0.4263  0.7995
 7734SOL    HW234665   3.684   2.223   2.827  0.6171 -0.8858  1.1284
 7735SOL     OW34666   2.103   2.823   8.708  0.1178  0.4015  0.4207
 7735SOL    HW134667   2.184   2.873   8.703  0.4452 -0.1944 -0.2007
 7735SOL    HW234668   2.112   2.773   8.789 -1.8559  1.5471  1.3495
 7736SOL     OW34669   3.670   4.227   2.372 -0.2013  0.1260  0.1583
 7736SOL    HW134670   3.688   4.317   2.395  0.3134 -0.1057  0.6444
 7736SOL    HW234671   3.645   4.238   2.280  1.3187 -0.4819 -0.3247
 7737SOL     OW34672   4.404   1.030   6.975 -0.3108 -0.1312  0.2588
 7737SOL    HW134673   4.455   0.998   6.900  0.4282  0.4364  0.5140
 7737SOL    HW234674   4.443   1.117   6.984 -1.7403  0.8326 -3.0066
 7738SOL     OW34675   4.360   4.283  11.180  0.3166 -0.3650  0.1320
 7738SOL    HW134676   4.327   4.289  11.269 -2.5006 -0.4550 -0.8800
 7738SOL    HW234677   4.291   4.309  11.118 -0.7136  1.6657  2.1646
 7739SOL     OW34678   3.460   3.314  12.218  0.1531 -0.5195 -0.0743
 7739SOL    HW134679   3.533   3.352  12.169  0.7823  0.0964  1.3698
 7739SOL    HW234680   3.446   3.383  12.282 -1.4002 -0.6260 -0.3183
 7740SOL     OW34681   3.537   0.538   4.495  0.5242 -0.4885 -0.3647
 7740SOL    HW134682   3.605   0.501   4.439 -0.0906 -2.2609  0.0763
 7740SOL    HW234683   3.512   0.616   4.445 -1.4401 -0.7645  0.1789
 7741SOL     OW34684   1.318   1.338   8.724  0.4636 -0.2303  0.5763
 7741SOL    HW134685   1.393   1.289   8.689  0.0810 -0.4975  0.1308
 7741SOL    HW234686   1.245   1.291   8.681  1.2509  1.9177 -3.1099
 7742SOL     OW34687   4.619   3.274   5.973 -0.3296 -0.3364  0.9234
 7742SOL    HW134688   4.656   3.357   5.944 -0.7868  0.5595  2.8595
 7742SOL    HW234689   4.567   3.253   5.896  1.3770 -0.8143 -0.0798
 7743SOL     OW34690   1.063   2.254   0.077  0.0550 -0.0309 -0.1434
 7743SOL    HW134691   0.992   2.310   0.048 -0.3381 -0.2449  0.4062
 7743SOL    HW234692   1.117   2.241  17.690  1.4855 -0.2624  0.8649
 7744SOL     OW34693   3.120   3.944   2.766 -0.5957 -0.1420  0.8282
 7744SOL    HW134694   3.212   3.965   2.781 -0.6528  1.0368 -0.3994
 7744SOL    HW234695   3.084   4.030   2.744  1.5482  0.1316 -1.6048
 7745SOL     OW34696   2.724   3.296   2.879 -0.3357 -0.1595 -0.7919
 7745SOL    HW134697   2.640   3.319   2.839  0.3362  2.9714 -0.3846
 7745SOL    HW234698   2.708   3.327   2.968  1.2998  1.9421 -1.2316
 7746SOL     OW34699   0.864   1.491  12.935  0.4548 -0.6030  0.1560
 7746SOL    HW134700   0.803   1.518  13.003  1.0572 -0.0078  0.4570
 7746SOL    HW234701   0.856   1.562  12.872 -1.0204 -0.9715 -0.0824
 7747SOL     OW34702   0.116   2.262   4.794 -0.3449  0.0520  0.3159
 7747SOL    HW134703   0.170   2.301   4.725 -3.2882  0.0368 -1.9826
 7747SOL    HW234704   0.093   2.174   4.764 -1.5406  0.3775  0.2778
 7748SOL     OW34705   2.653   2.807   5.008 -0.1755  0.4722  0.1007
 7748SOL    HW134706   2.600   2.836   5.082 -0.4102  1.4365 -0.4394
 7748SOL    HW234707   2.739   2.842   5.031  0.4253 -0.0478 -1.3784
 7749SOL     OW34708   3.459   4.396  15.802  0.1871 -0.1667 -0.3508
 7749SOL    HW134709   3.379   4.447  15.811  0.9620  1.3044 -1.9306
 7749SOL    HW234710   3.418   4.320  15.760 -0.4057 -0.9727  1.6849
 7750SOL     OW34711   2.608   1.949   6.261  0.0719  0.1155  0.2753
 7750SOL    HW134712   2.687   1.986   6.222 -1.5084  1.7151 -1.4264
 7750SOL    HW234713   2.568   2.024   6.304 -0.3081  0.4963 -0.7428
 7751SOL     OW34714   3.669   2.388   3.177 -0.0053 -0.3065 -0.0323
 7751SOL    HW134715   3.636   2.453   3.239 -0.8596 -0.4245 -0.3706
 7751SOL    HW234716   3.728   2.446   3.128 -0.3568 -0.1915 -0.3162
 7752SOL     OW34717   3.346   4.198   3.656  0.1065  0.0501 -0.2225
 7752SOL    HW134718   3.359   4.135   3.585 -1.9454 -1.4383  0.7212
 7752SOL    HW234719   3.291   4.268   3.623 -0.6985 -1.1812 -1.5113
 7753SOL     OW34720   4.598   2.618   0.050 -0.2612  0.0359 -0.4898
 7753SOL    HW134721   4.648   2.625   0.131 -0.1252 -0.6888 -0.5068
 7753SOL    HW234722   4.668   2.648  17.684  1.1519 -0.4126  0.9830
 7754SOL     OW34723   2.183   2.908   5.196  0.4612  0.2731  0.2842
 7754SOL    HW134724   2.108   2.962   5.173  1.3789  1.4303 -0.0214
 7754SOL    HW234725   2.154   2.850   5.266 -2.0046  0.7255 -0.3603
 7755SOL     OW34726   0.662   1.902   5.141  0.0790 -0.4033  0.1686
 7755SOL    HW134727   0.741   1.861   5.105  0.2057  0.4849 -0.5809
 7755SOL    HW234728   0.594   1.910   5.074 -0.8347 -1.7148  0.9646
 7756SOL     OW34729   0.349   3.636   8.243  0.0947 -0.3264  0.8195
 7756SOL    HW134730   0.378   3.680   8.322  1.0298  0.0802  0.2571
 7756SOL    HW234731   0.427   3.585   8.222 -0.2746  0.1118 -1.6299
 7757SOL     OW34732   1.456   0.097   8.235 -0.2829 -0.1304  0.1524
 7757SOL    HW134733   1.362   0.093   8.218 -0.3364  1.1119  0.1578
 7757SOL    HW234734   1.453   0.088   8.330 -0.4949  1.5699  0.3008
 7758SOL     OW34735   0.783   4.304   8.684  0.2164 -0.9339 -0.0865
 7758SOL    HW134736   0.727   4.230   8.709  1.8102 -2.1721 -0.1807
 7758SOL    HW234737   0.798   4.281   8.593 -1.3992  0.6206 -0.7380
 7759SOL     OW34738   3.081   4.057   1.629 -0.2707 -0.0095  0.6369
 7759SOL    HW134739   2.989   4.072   1.608 -0.0022  1.9212  0.8868
 7759SOL    HW234740   3.095   4.121   1.699  0.4694  1.2092 -0.6488
 7760SOL     OW34741   4.439   4.335  10.626  0.1114  0.3712  0.0165
 7760SOL    HW134742   4.379   4.346  10.700  0.4780 -0.1944  0.4012
 7760SOL    HW234743   4.520   4.376  10.657  1.1977 -0.5999 -1.5467
 7761SOL     OW34744   1.412   1.808  15.936  0.8827  0.1156  0.6650
 7761SOL    HW134745   1.353   1.872  15.976  1.4254  1.7867 -1.2115
 7761SOL    HW234746   1.492   1.860  15.927  1.3332 -0.7332 -0.1104
 7762SOL     OW34747   2.166   3.450   8.590  0.3419  0.3621 -0.4757
 7762SOL    HW134748   2.105   3.481   8.523  0.5847  0.0782 -0.8312
 7762SOL    HW234749   2.187   3.532   8.635  2.4096 -1.0830  1.1954
 7763SOL     OW34750   1.794   1.225   6.234 -0.2806 -0.3096  0.1376
 7763SOL    HW134751   1.778   1.147   6.182 -0.6166 -0.9178  1.1572
 7763SOL    HW234752   1.744   1.291   6.186  1.0610  0.1492 -0.6511
 7764SOL     OW34753   0.671   0.944   0.223  0.1941 -0.0951  0.8368
 7764SOL    HW134754   0.666   1.029   0.266 -0.7469  1.0190 -1.4654
 7764SOL    HW234755   0.747   0.974   0.174 -0.1841  2.4838  1.8594
 7765SOL     OW34756   2.785   0.707   5.434 -0.7561 -0.5993 -0.6742
 7765SOL    HW134757   2.823   0.765   5.368  1.0498 -0.9166  0.1045
 7765SOL    HW234758   2.844   0.716   5.509 -1.6648  1.2516 -0.1908
 7766SOL     OW34759   0.650   3.505   2.229  0.1394 -0.7101  0.6629
 7766SOL    HW134760   0.717   3.553   2.180  0.5625 -2.6806 -0.6615
 7766SOL    HW234761   0.616   3.442   2.166 -1.5963 -0.5907  1.4698
 7767SOL     OW34762   3.434   3.990   6.626  0.3982  0.2066  0.1546
 7767SOL    HW134763   3.390   3.958   6.705  1.2867  1.1061  1.0152
 7767SOL    HW234764   3.371   3.974   6.556  1.9306 -1.6783 -0.8067
 7768SOL     OW34765   2.984   0.440  10.724 -0.4658  0.0471  0.4166
 7768SOL    HW134766   2.986   0.467  10.816  1.2189  2.4582 -0.3477
 7768SOL    HW234767   2.984   0.520  10.672 -1.3971 -0.5332 -0.4806
 7769SOL     OW34768   3.317   3.586   3.947  0.4946 -0.5093 -0.2922
 7769SOL    HW134769   3.244   3.603   4.006  1.0271  1.1312 -0.1170
 7769SOL    HW234770   3.353   3.672   3.925  0.2799 -0.6833 -1.3274
 7770SOL     OW34771   0.708   2.288   1.304  0.1224 -0.0195 -0.1735
 7770SOL    HW134772   0.735   2.369   1.348  1.5824  0.7912 -2.5758
 7770SOL    HW234773   0.625   2.266   1.347  1.0124 -1.7559  0.6526
 7771SOL     OW34774   3.393   1.632   2.502  0.1192  0.2111 -0.3114
 7771SOL    HW134775   3.437   1.619   2.418  0.7431  0.1063  0.0346
 7771SOL    HW234776   3.431   1.715   2.530 -0.4814 -0.0407  1.2421
 7772SOL     OW34777   1.256   1.417   7.868  0.3126  0.2042 -0.0942
 7772SOL    HW134778   1.217   1.339   7.907 -0.3420  0.3517 -0.4446
 7772SOL    HW234779   1.349   1.416   7.889  0.2508 -0.1651  0.1648
 7773SOL     OW34780   2.434   2.487   5.976  0.4212 -0.0842 -0.2111
 7773SOL    HW134781   2.378   2.450   6.044 -1.8266 -0.1440 -2.0699
 7773SOL    HW234782   2.435   2.419   5.908 -0.5518  1.2201 -1.5322
 7774SOL     OW34783   0.359   3.473   4.103 -0.4237  0.3130 -0.2679
 7774SOL    HW134784   0.323   3.562   4.102 -1.3580 -0.0616  0.3605
 7774SOL    HW234785   0.384   3.471   4.195 -1.9436 -1.0367  0.1126
 7775SOL     OW34786   1.858   0.540   5.201  0.0003  0.1233 -0.0462
 7775SOL    HW134787   1.920   0.535   5.128  0.4884  0.8534  0.3157
 7775SOL    HW234788   1.848   0.448   5.226  0.5570 -0.1976 -0.9749
 7776SOL     OW34789   0.879   2.160   6.404 -0.1133 -0.4943  0.1431
 7776SOL    HW134790   0.891   2.069   6.377  3.2807  1.2513 -4.1887
 7776SOL    HW234791   0.943   2.199   6.346 -0.0978 -0.1961  0.3600
 7777SOL     OW34792   3.899   2.857   5.793 -0.2153 -0.2650  0.0568
 7777SOL    HW134793   3.812   2.881   5.762  0.1183  0.9129  0.0449
 7777SOL    HW234794   3.937   2.943   5.811 -0.0421  0.0649 -1.8496
 7778SOL     OW34795   3.214   3.098   3.592 -0.6853  0.6008 -0.4921
 7778SOL    HW134796   3.146   3.163   3.611 -1.2801 -0.8005  2.1867
 7778SOL    HW234797   3.175   3.042   3.524 -1.6161  0.8770 -0.1945
 7779SOL     OW34798   0.065   1.403   4.635  0.1097 -0.2776  0.2102
 7779SOL    HW134799   0.134   1.409   4.569 -0.5607 -0.1138 -0.4851
 7779SOL    HW234800   0.089   1.329   4.691 -0.1496 -1.1886 -0.8815
 7780SOL     OW34801   3.968   0.048   3.056 -0.0044  0.3499 -0.6794
 7780SOL    HW134802   3.966   4.683   3.096 -0.7526  0.6704 -0.0349
 7780SOL    HW234803   3.941   0.017   2.970 -0.5882  3.7059 -1.7218
 7781SOL     OW34804   2.040   1.541  14.451  0.3094  0.5967 -0.5205
 7781SOL    HW134805   2.001   1.627  14.434  1.4215  1.6805  2.4796
 7781SOL    HW234806   2.133   1.562  14.443  0.6191  0.0569  1.7659
 7782SOL     OW34807   0.872   2.310   5.432  0.0589 -0.1786  0.3012
 7782SOL    HW134808   0.827   2.236   5.392 -0.9252  1.4493 -1.5435
 7782SOL    HW234809   0.805   2.366   5.472 -1.7378  0.8828 -4.2562
 7783SOL     OW34810   1.957   3.995  12.625 -0.3502  0.0234  0.1853
 7783SOL    HW134811   2.030   3.984  12.564  0.1025 -1.8695  1.0901
 7783SOL    HW234812   1.936   4.087  12.607  1.2483  0.4831  0.6644
 7784SOL     OW34813   4.008   0.564   1.831  0.2738  0.2996  0.4488
 7784SOL    HW134814   3.933   0.618   1.804  0.0030  0.0393  0.6828
 7784SOL    HW234815   4.080   0.617   1.795  0.6651 -0.2303  0.4627
 7785SOL     OW34816   2.509   2.946   7.590  0.2587 -0.3092 -0.0746
 7785SOL    HW134817   2.464   3.006   7.648  1.6966 -0.0687  0.7709
 7785SOL    HW234818   2.599   2.970   7.612 -0.1145  0.2997  0.7584
 7786SOL     OW34819   2.679   2.726   4.307  0.0245  0.3771 -0.2730
 7786SOL    HW134820   2.656   2.818   4.322 -1.9620 -0.1702  0.0786
 7786SOL    HW234821   2.695   2.689   4.394 -3.9822 -0.4405  0.1016
 7787SOL     OW34822   4.494   1.146  14.906  0.3410 -0.7122 -0.2740
 7787SOL    HW134823   4.411   1.167  14.949  3.4558  3.4545  3.7899
 7787SOL    HW234824   4.462   1.093  14.833  0.3008 -0.3332 -0.5322
 7788SOL     OW34825   3.068   2.252   5.780  0.2424 -0.3245 -0.1189
 7788SOL    HW134826   2.980   2.288   5.788  0.3131 -0.3068  0.5864
 7788SOL    HW234827   3.093   2.304   5.704  1.8512  0.6753  1.0825
 7789SOL     OW34828   1.976   1.307   3.773  0.9139  0.4373  0.2677
 7789SOL    HW134829   1.973   1.383   3.715 -0.5074 -0.6137 -1.0379
 7789SOL    HW234830   1.911   1.333   3.838  1.6839 -0.1204  1.2588
 7790SOL     OW34831   4.360   3.996   2.463  0.2932 -0.1165 -0.2221
 7790SOL    HW134832   4.449   4.017   2.488  1.4751 -0.0558 -4.4925
 7790SOL    HW234833   4.369   3.984   2.368 -0.7834  2.2224 -0.6089
 7791SOL     OW34834   4.649   4.213   8.356  0.5658  0.1806 -0.2672
 7791SOL    HW134835   4.568   4.251   8.323  0.8786 -0.3140 -1.6224
 7791SOL    HW234836   4.673   4.148   8.289 -0.3115  0.4353 -0.8224
 7792SOL     OW34837   0.887   3.412   6.230  0.2652  0.4527 -0.1871
 7792SOL    HW134838   0.796   3.433   6.208  0.5970  1.6292 -0.4392
 7792SOL    HW234839   0.931   3.481   6.180 -0.0208  0.1002 -0.9180
 7793SOL     OW34840   3.099   0.610   4.924 -0.7072 -0.4766 -0.2808
 7793SOL    HW134841   3.125   0.527   4.965 -0.1536 -1.1101 -1.9213
 7793SOL    HW234842   3.185   0.645   4.899 -0.2144 -0.9948  0.6833
 7794SOL     OW34843   1.757   2.868   3.088  0.0292  0.1586  0.1671
 7794SOL    HW134844   1.673   2.822   3.094  0.1733 -0.0872  0.2790
 7794SOL    HW234845   1.825   2.830   3.142 -0.3256  0.4228  0.8026
 7795SOL     OW34846   3.045   3.236  12.053 -0.1431 -0.3102  0.7690
 7795SOL    HW134847   2.982   3.224  12.123  0.5037 -1.9031  1.0681
 7795SOL    HW234848   3.009   3.180  11.984 -1.1560 -0.9572  1.8298
 7796SOL     OW34849   3.369   1.493   4.847 -0.3013 -0.6984 -0.4331
 7796SOL    HW134850   3.275   1.479   4.853  0.0086 -3.1786 -1.0309
 7796SOL    HW234851   3.372   1.569   4.789 -0.5511  0.8125  1.5597
 7797SOL     OW34852   0.154   4.555   4.640 -0.3804  0.0602  0.2228
 7797SOL    HW134853   0.156   4.519   4.729 -1.1925 -1.6004 -0.4194
 7797SOL    HW234854   0.230   4.513   4.599  0.6518  3.2012 -1.0672
 7798SOL     OW34855   2.323   0.674   6.700  0.0436  0.1909 -0.1640
 7798SOL    HW134856   2.345   0.690   6.608 -0.9560 -2.3913 -0.8479
 7798SOL    HW234857   2.267   0.597   6.691  0.7047 -0.4756  1.2832
 7799SOL     OW34858   1.110   0.429   4.203 -0.1682 -0.1748  0.1163
 7799SOL    HW134859   1.084   0.425   4.111 -2.7531  0.0119  0.8284
 7799SOL    HW234860   1.071   0.515   4.223  0.1110 -0.2529  1.0004
 7800SOL     OW34861   3.776   4.077  12.849  0.3637 -0.6342 -0.2651
 7800SOL    HW134862   3.708   4.136  12.817  0.9526 -0.5764 -1.3825
 7800SOL    HW234863   3.798   4.032  12.768  1.2822  1.4141 -1.1600
 7801SOL     OW34864   0.168   4.659  15.268 -0.6833  0.0018 -0.2031
 7801SOL    HW134865   0.130   0.025  15.262 -1.7774 -0.5630 -1.5773
 7801SOL    HW234866   0.200   4.659  15.358  0.5226 -0.2491 -0.6378
 7802SOL     OW34867   3.317   1.741   4.723  1.4986  0.0753 -0.0835
 7802SOL    HW134868   3.246   1.806   4.730 -1.0143 -2.6927  0.3367
 7802SOL    HW234869   3.311   1.692   4.641 -1.6634  0.6087 -0.1761
 7803SOL     OW34870   0.344   1.626   7.644  0.3402 -0.1605  0.2395
 7803SOL    HW134871   0.380   1.543   7.676  0.6494 -0.9113 -2.0538
 7803SOL    HW234872   0.304   1.674   7.716  1.7338  2.3682 -0.6692
 7804SOL     OW34873   1.534   2.575   3.355  0.1502  0.5204  0.1186
 7804SOL    HW134874   1.533   2.644   3.421  1.4354  0.0209  0.6548
 7804SOL    HW234875   1.582   2.618   3.284 -0.2061  2.3131  0.9802
 7805SOL     OW34876   0.473   4.616   8.439  0.2198  0.3884 -0.0741
 7805SOL    HW134877   0.384   4.627   8.405 -0.9749  1.3282  3.3420
 7805SOL    HW234878   0.475   4.528   8.477 -0.4668  0.2257 -0.4139
 7806SOL     OW34879   0.191   2.499   6.709  0.6885 -0.1533 -0.3986
 7806SOL    HW134880   0.214   2.548   6.630  0.0718  1.0138  0.1407
 7806SOL    HW234881   0.278   2.473   6.741 -0.0246 -2.9860 -0.8420
 7807SOL     OW34882   1.058   2.435  11.615 -0.4007  0.2770  0.1138
 7807SOL    HW134883   1.003   2.481  11.678  0.8949  1.0804  0.6719
 7807SOL    HW234884   0.995   2.435  11.544  1.3112 -0.2243 -1.3935
 7808SOL     OW34885   2.787   2.977   0.631  0.6344 -0.2669 -0.2677
 7808SOL    HW134886   2.695   2.999   0.617  0.1742 -2.2274 -0.3371
 7808SOL    HW234887   2.799   2.882   0.618  2.4383 -0.6669  4.4154
 7809SOL     OW34888   1.762   0.536   7.212  0.1799  0.3368  0.0392
 7809SOL    HW134889   1.837   0.493   7.253  1.0612  0.3188 -1.5883
 7809SOL    HW234890   1.714   0.572   7.287  1.6856  0.1402  1.1000
 7810SOL     OW34891   3.578   1.420  11.435 -0.1518 -0.8179 -0.0680
 7810SOL    HW134892   3.530   1.494  11.397  0.4580 -0.6124 -0.4365
 7810SOL    HW234893   3.527   1.417  11.516 -2.1243 -0.0456 -1.2578
 7811SOL     OW34894   1.162   1.198   9.097 -0.4233  0.3800 -0.2365
 7811SOL    HW134895   1.145   1.133   9.029 -0.1126  1.1413 -1.0638
 7811SOL    HW234896   1.121   1.278   9.062  0.1799  1.0921  0.6806
 7812SOL     OW34897   0.061   4.394  14.018 -0.5074  0.0825  0.2603
 7812SOL    HW134898   0.143   4.434  14.048  1.1714 -1.6439 -1.9524
 7812SOL    HW234899   4.714   4.423  14.076 -0.0455 -0.4870  1.1014
 7813SOL     OW34900   4.609   4.019   0.948 -0.2893 -0.2726  0.0683
 7813SOL    HW134901   4.582   3.939   0.993 -1.1876  0.4484  0.8217
 7813SOL    HW234902   4.522   4.058   0.941  0.2154  1.1647  1.8721
 7814SOL     OW34903   3.025   0.303   7.773 -0.5375  0.3183  0.1123
 7814SOL    HW134904   3.106   0.350   7.751 -0.3844 -0.8982 -1.9816
 7814SOL    HW234905   2.987   0.294   7.685  0.3759  1.5058 -0.4102
 7815SOL     OW34906   2.068   4.200   7.925 -0.3956 -0.3495 -0.7821
 7815SOL    HW134907   2.156   4.206   7.961 -0.0486  0.3305 -1.7460
 7815SOL    HW234908   2.056   4.105   7.931 -2.4080  0.1217  2.2104
 7816SOL     OW34909   0.879   1.138   0.488 -0.0452  0.3948 -0.6867
 7816SOL    HW134910   0.904   1.227   0.515 -0.4677  0.4694 -0.5415
 7816SOL    HW234911   0.930   1.132   0.407 -0.5633 -0.9375 -0.9075
 7817SOL     OW34912   3.552   2.250   1.882 -0.1971  0.8234 -0.0044
 7817SOL    HW134913   3.598   2.257   1.798  0.8817  1.5182  0.6388
 7817SOL    HW234914   3.549   2.343   1.907  1.5628  0.1518  2.6887
 7818SOL     OW34915   3.770   0.425   5.592  0.1342  0.4631 -0.1909
 7818SOL    HW134916   3.702   0.491   5.598  0.0605  0.4406 -0.8032
 7818SOL    HW234917   3.813   0.442   5.508  2.1701 -0.2908  0.6713
 7819SOL     OW34918   4.394   1.265   3.159  0.0671  0.9422 -0.0446
 7819SOL    HW134919   4.432   1.183   3.128 -1.4641  0.3857 -0.4322
 7819SOL    HW234920   4.366   1.309   3.078  0.2241  0.0335 -0.5885
 7820SOL     OW34921   4.226   1.456  13.605  0.4341  0.1730  0.2365
 7820SOL    HW134922   4.315   1.477  13.577  0.6792 -0.7571  0.3244
 7820SOL    HW234923   4.202   1.539  13.649  1.0340  0.4249  0.0844
 7821SOL     OW34924   1.516   3.084   3.944 -0.0908  0.6518  0.8611
 7821SOL    HW134925   1.534   3.005   3.892 -1.6025  0.8572  0.0096
 7821SOL    HW234926   1.605   3.088   3.978  0.6439  1.3162 -1.1562
 7822SOL     OW34927   2.820   2.004   6.764  0.1413  0.5956 -0.0836
 7822SOL    HW134928   2.785   1.946   6.832  0.8345 -0.2049 -0.4069
 7822SOL    HW234929   2.876   2.054   6.823  0.4296 -0.2506  0.3669
 7823SOL     OW34930   4.651   1.677   4.245  0.3996 -0.3039  0.0645
 7823SOL    HW134931   4.655   1.589   4.281 -0.6906 -0.4434 -0.1382
 7823SOL    HW234932   4.691   1.678   4.158 -0.5306  1.1187 -0.3500
 7824SOL     OW34933   2.957   3.373   8.264 -0.4194  0.4483 -0.0590
 7824SOL    HW134934   2.868   3.338   8.268 -0.8328  1.3234 -1.5811
 7824SOL    HW234935   3.003   3.335   8.339 -2.6317 -0.1887  0.9701
 7825SOL     OW34936   0.790   4.206   2.453 -0.6248  0.1905 -0.3324
 7825SOL    HW134937   0.702   4.179   2.481 -0.9401  0.7963 -0.7443
 7825SOL    HW234938   0.784   4.187   2.360  0.5047 -0.4762 -0.2653
 7826SOL     OW34939   2.801   3.226   1.485  0.5537  0.0316  0.4496
 7826SOL    HW134940   2.720   3.249   1.441 -0.8649 -2.2776  1.8342
 7826SOL    HW234941   2.764   3.212   1.572  0.0790  2.7503  0.6873
 7827SOL     OW34942   2.743   1.997   7.851 -0.3218  0.6003  0.0660
 7827SOL    HW134943   2.832   1.979   7.820 -0.8814 -1.2088 -0.4701
 7827SOL    HW234944   2.753   2.049   7.931  0.9068  1.5134 -0.6815
 7828SOL     OW34945   4.323   4.223   5.934  0.4796  0.2376  0.4632
 7828SOL    HW134946   4.326   4.288   5.864 -2.4939 -0.1704 -0.0644
 7828SOL    HW234947   4.241   4.244   5.979  0.5048 -0.3075  0.7592
 7829SOL     OW34948   0.916   1.989  17.282  0.4880 -0.2256 -0.3128
 7829SOL    HW134949   0.828   2.023  17.265  0.2559 -1.2287 -1.0544
 7829SOL    HW234950   0.921   1.954  17.193  3.7910 -1.3111  0.2904
 7830SOL     OW34951   3.299   1.584   0.181  0.0291  0.0316  0.0189
 7830SOL    HW134952   3.299   1.670   0.138 -1.0199 -0.1699 -0.3942
 7830SOL    HW234953   3.272   1.609   0.270 -1.0772 -0.4746 -0.1731
 7831SOL     OW34954   4.628   1.224   8.386  0.8412  0.6181 -0.1423
 7831SOL    HW134955   4.631   1.314   8.419 -1.0476  1.2491 -1.6643
 7831SOL    HW234956   4.656   1.168   8.458  1.3068  0.5200 -0.3974
 7832SOL     OW34957   0.581   2.944  16.021 -0.8998  0.1494 -0.2239
 7832SOL    HW134958   0.576   3.033  16.055  0.1332  0.1449 -0.0638
 7832SOL    HW234959   0.594   2.964  15.928 -1.5710 -5.0484 -1.4951
 7833SOL     OW34960   4.344   1.116   1.412  0.3119  0.4047 -0.1098
 7833SOL    HW134961   4.319   1.155   1.496  0.4499  1.0864 -0.3844
 7833SOL    HW234962   4.420   1.070   1.448 -0.4437  1.8789  3.3564
 7834SOL     OW34963   3.350   0.759   7.810 -0.2765 -0.5313  0.0433
 7834SOL    HW134964   3.339   0.854   7.810 -0.4589 -0.5519 -0.3335
 7834SOL    HW234965   3.390   0.738   7.894 -0.7951 -0.1843  0.3725
 7835SOL     OW34966   3.114   2.614   8.346  0.6431  0.2193 -0.1703
 7835SOL    HW134967   3.062   2.672   8.403 -0.9008 -1.8699  0.5455
 7835SOL    HW234968   3.191   2.671   8.336  0.5601  0.2206 -0.7635
 7836SOL     OW34969   3.217   3.841   7.677  0.2906  0.3075  0.0931
 7836SOL    HW134970   3.190   3.749   7.687 -2.2264  1.2229  1.7845
 7836SOL    HW234971   3.273   3.840   7.599  1.4825 -0.8183  0.9724
 7837SOL     OW34972   4.284   2.802   1.072 -0.4024 -0.1993  0.1250
 7837SOL    HW134973   4.234   2.869   1.026 -0.6051 -0.4984 -0.0878
 7837SOL    HW234974   4.227   2.726   1.080 -1.2439  0.4143 -0.0730
 7838SOL     OW34975   4.172   1.661   3.599  0.1278  0.0305  0.3195
 7838SOL    HW134976   4.198   1.743   3.642  1.1954 -0.4469  0.5945
 7838SOL    HW234977   4.229   1.658   3.521  0.1174 -1.4006  0.3622
 7839SOL     OW34978   1.356   0.185   6.938  0.4158 -0.4301  0.5861
 7839SOL    HW134979   1.385   0.174   6.848 -2.1897  1.5843 -0.4989
 7839SOL    HW234980   1.438   0.181   6.987  0.5456  1.2280  0.5114
 7840SOL     OW34981   3.610   3.534  14.701  0.1122 -0.2790  0.0371
 7840SOL    HW134982   3.705   3.541  14.692 -0.1336  0.1882 -2.1705
 7840SOL    HW234983   3.597   3.455  14.649 -0.8534 -0.0116 -0.1306
 7841SOL     OW34984   2.958   1.501   3.453 -0.1941 -0.5944  0.7774
 7841SOL    HW134985   2.944   1.478   3.361 -1.0295  1.0429  0.4911
 7841SOL    HW234986   3.046   1.537   3.459 -0.1864 -0.6686  1.0851
 7842SOL     OW34987   0.679   3.893   7.219  0.0594 -0.1860 -0.1556
 7842SOL    HW134988   0.667   3.806   7.181 -0.8789 -0.3584  0.5513
 7842SOL    HW234989   0.677   3.875   7.313  1.3425 -0.5173 -0.1883
 7843SOL     OW34990   2.682   1.620   4.137 -0.3655  0.7656  0.1964
 7843SOL    HW134991   2.776   1.626   4.124 -0.3536  0.0758 -0.0139
 7843SOL    HW234992   2.656   1.613   4.045 -0.9039  0.0872  0.4048
 7844SOL     OW34993   4.454   3.899  10.386 -0.3977  0.0737 -0.1696
 7844SOL    HW134994   4.492   3.887  10.299 -1.8497 -1.2480 -0.6214
 7844SOL    HW234995   4.467   3.993  10.398  0.9960 -0.2302  0.6846
 7845SOL     OW34996   4.247   3.167   9.212  0.4367 -0.1986 -0.4845
 7845SOL    HW134997   4.186   3.097   9.233  0.0208  0.6560  1.1551
 7845SOL    HW234998   4.328   3.144   9.257 -0.3350  0.1516  1.0779
 7846SOL     OW34999   2.043   4.265   3.139  0.4352 -0.1635  0.0377
 7846SOL    HW135000   2.071   4.318   3.065 -0.9004  0.4462 -0.0246
 7846SOL    HW235001   2.100   4.188   3.139  0.4898 -0.1226  0.2863
 7847SOL     OW35002   0.658   0.745   0.490 -0.0059 -0.1191 -0.2950
 7847SOL    HW135003   0.623   0.833   0.501  2.1523  0.8135 -0.8560
 7847SOL    HW235004   0.582   0.710   0.444 -0.4394 -0.0869  0.4009
 7848SOL     OW35005   4.245   4.168   0.404 -0.3095 -0.4030 -0.6477
 7848SOL    HW135006   4.258   4.263   0.406 -1.1038 -0.3079  0.3240
 7848SOL    HW235007   4.149   4.167   0.399 -0.2846  1.7859 -1.6555
 7849SOL     OW35008   0.432   3.495   7.385  0.2609  0.5762  0.1826
 7849SOL    HW135009   0.378   3.500   7.464 -1.9490  0.3448 -1.3165
 7849SOL    HW235010   0.510   3.449   7.416 -1.1338 -2.1702 -0.3157
 7850SOL     OW35011   1.255   4.708  12.357 -0.1450  0.3407  0.8102
 7850SOL    HW135012   1.308   0.045  12.411 -0.3483 -0.2555  1.6644
 7850SOL    HW235013   1.190   4.678  12.421  0.9766 -1.7262  0.9574
 7851SOL     OW35014   2.278   0.537   4.753 -0.4977  0.2125 -0.1437
 7851SOL    HW135015   2.273   0.466   4.818 -1.3546  1.2663  0.9431
 7851SOL    HW235016   2.349   0.590   4.788  0.4249 -1.2736  0.2554
 7852SOL     OW35017   4.027   3.351   1.774 -0.0302 -0.0788  0.1044
 7852SOL    HW135018   4.102   3.397   1.813 -1.3513  1.3197  0.9884
 7852SOL    HW235019   3.963   3.421   1.765 -0.7337 -1.0279 -2.2153
 7853SOL     OW35020   2.367   3.426   5.915  0.2443 -0.2032 -0.0473
 7853SOL    HW135021   2.365   3.481   5.837 -1.2291  1.9313  1.4849
 7853SOL    HW235022   2.299   3.461   5.974 -0.1297 -0.9360 -0.0558
 7854SOL     OW35023   2.117   2.821   6.467 -0.0987  0.1491  0.1784
 7854SOL    HW135024   2.105   2.869   6.549  0.9132 -1.7429  1.4042
 7854SOL    HW235025   2.093   2.735   6.500  0.2408  0.6412  1.7064
 7855SOL     OW35026   4.606   3.801   0.506 -0.2109  0.1140  0.2455
 7855SOL    HW135027   4.567   3.714   0.518 -0.4238  0.2701  0.7205
 7855SOL    HW235028   4.597   3.791   0.412  1.9620  1.0245 -0.0504
 7856SOL     OW35029   0.068   0.384  16.952 -0.2088  0.6789 -0.1922
 7856SOL    HW135030   0.144   0.441  16.969 -0.7238  1.1574  0.5176
 7856SOL    HW235031   0.089   0.352  16.864 -0.9126  1.6881 -0.7238
 7857SOL     OW35032   2.166   3.070  13.448  0.2150 -0.0217  0.7496
 7857SOL    HW135033   2.119   3.002  13.399  2.6960 -0.1147 -1.4958
 7857SOL    HW235034   2.174   3.146  13.391  0.0585 -0.9024 -0.4533
 7858SOL     OW35035   4.394   0.178   7.290  0.2661 -0.3696 -0.3283
 7858SOL    HW135036   4.370   0.221   7.372  0.9026  1.5161 -1.1443
 7858SOL    HW235037   4.471   0.136   7.329  1.0610  1.6919  0.2874
 7859SOL     OW35038   3.638   2.044   8.338 -0.2308 -0.1390 -0.4024
 7859SOL    HW135039   3.565   2.092   8.298  0.3817  0.7167 -0.4828
 7859SOL    HW235040   3.706   2.110   8.334 -1.7517  1.4284 -0.5314
 7860SOL     OW35041   4.596   0.484  12.336  0.0954  0.1024 -0.1230
 7860SOL    HW135042   4.680   0.529  12.342  0.2393 -0.5660  2.7897
 7860SOL    HW235043   4.588   0.465  12.242  0.5833 -1.8523  0.2182
 7861SOL     OW35044   2.635   1.382   2.953 -0.9567  0.5894  0.2164
 7861SOL    HW135045   2.543   1.409   2.949 -0.0863  3.9654  2.3091
 7861SOL    HW235046   2.673   1.433   2.882 -0.9201 -0.2667 -0.3725
 7862SOL     OW35047   0.362   3.336   6.076  0.2370  0.2090 -0.1574
 7862SOL    HW135048   0.351   3.349   6.171  0.5765 -0.5327 -0.0208
 7862SOL    HW235049   0.336   3.245   6.065  0.2068  0.3024 -0.8236
 7863SOL     OW35050   0.607   3.907   5.519  0.5541 -0.0955  0.0435
 7863SOL    HW135051   0.566   3.821   5.506  2.8491 -1.1527 -0.0659
 7863SOL    HW235052   0.537   3.962   5.483  0.1301  1.3234  2.9902
 7864SOL     OW35053   2.472   3.338  10.835  0.1884 -0.0120 -0.0508
 7864SOL    HW135054   2.449   3.260  10.885  0.7585 -0.6580 -0.7948
 7864SOL    HW235055   2.471   3.407  10.902  0.2412 -1.3214  1.3036
 7865SOL     OW35056   0.907   2.714   3.777 -0.5241  0.1605  0.0514
 7865SOL    HW135057   0.999   2.722   3.801 -0.5647 -0.1371  0.3143
 7865SOL    HW235058   0.880   2.805   3.788 -2.0567 -0.5044  1.7781
 7866SOL     OW35059   3.179   2.787   4.953  0.4088 -0.8864 -0.0183
 7866SOL    HW135060   3.211   2.836   4.877  3.4412 -0.1992  1.6676
 7866SOL    HW235061   3.261   2.772   5.000 -0.6217  0.3060  2.1440
 7867SOL     OW35062   3.875   3.489   1.233  0.1592  0.7597 -0.3325
 7867SOL    HW135063   3.782   3.508   1.242 -0.3804 -3.0467  2.0621
 7867SOL    HW235064   3.912   3.564   1.187  4.2033 -1.2012 -0.3511
 7868SOL     OW35065   1.611   1.544  10.026 -0.3168 -0.2692 -0.5307
 7868SOL    HW135066   1.634   1.617   9.968  0.3312  1.8728  2.4549
 7868SOL    HW235067   1.538   1.511   9.972 -0.0389 -2.4825  0.4893
 7869SOL     OW35068   4.687   1.940   5.017  0.3916  0.0168  0.1605
 7869SOL    HW135069   4.622   1.920   4.951  0.3570  0.2278  0.1329
 7869SOL    HW235070   4.658   2.014   5.069 -0.6650  0.5696 -1.2298
 7870SOL     OW35071   4.209   0.102   3.877  0.1984  0.3480 -0.4514
 7870SOL    HW135072   4.279   0.159   3.905 -0.1496  0.3977  0.3168
 7870SOL    HW235073   4.217   0.039   3.949 -2.8664  1.5909  0.9693
 7871SOL     OW35074   4.240   2.621   8.342  0.8578  0.0807  0.1266
 7871SOL    HW135075   4.305   2.551   8.341  0.3070 -0.4361  0.4019
 7871SOL    HW235076   4.260   2.654   8.430 -2.1502 -1.5947  1.4335
 7872SOL     OW35077   4.067   1.914   1.404  0.2277  0.2371 -0.3173
 7872SOL    HW135078   4.119   1.943   1.329  1.3650  0.4281  0.5342
 7872SOL    HW235079   4.053   2.003   1.434 -2.0923 -0.6993  1.3275
 7873SOL     OW35080   4.683   1.569   6.326 -0.0317 -0.4380  0.1558
 7873SOL    HW135081   4.626   1.553   6.401 -0.2442  1.9465  0.5105
 7873SOL    HW235082   0.031   1.629   6.352  0.3552 -0.3675 -1.0497
 7874SOL     OW35083   2.066   4.007   9.793 -0.2537  0.0387  0.0322
 7874SOL    HW135084   1.972   4.012   9.777 -0.2812  1.0896  0.5097
 7874SOL    HW235085   2.081   3.919   9.826 -1.9039 -0.1072  0.4064
 7875SOL     OW35086   0.712   3.451   2.820  0.5670 -0.1577  0.1396
 7875SOL    HW135087   0.642   3.515   2.835  1.2008  0.8739 -1.2283
 7875SOL    HW235088   0.791   3.486   2.860  1.1337 -1.5111  0.1953
 7876SOL     OW35089   0.417   1.673   4.197  0.3434 -0.5303 -0.2995
 7876SOL    HW135090   0.499   1.624   4.193  0.6703 -0.0231  0.2387
 7876SOL    HW235091   0.425   1.705   4.287  1.1217 -0.2348 -0.4744
 7877SOL     OW35092   1.409   3.262   8.190  0.2545 -0.1879 -0.0829
 7877SOL    HW135093   1.466   3.339   8.198 -0.7024  0.6474 -1.2999
 7877SOL    HW235094   1.477   3.197   8.171 -0.9907 -1.4218 -0.3331
 7878SOL     OW35095   1.589   2.558   5.648 -0.7914  0.1100  0.0744
 7878SOL    HW135096   1.573   2.645   5.685 -0.9305 -0.9436  2.5307
 7878SOL    HW235097   1.635   2.523   5.724 -3.3833 -0.0706  1.5589
 7879SOL     OW35098   2.865   2.228   3.461  0.3398 -0.2856 -0.4176
 7879SOL    HW135099   2.836   2.236   3.552 -2.2305 -0.5473 -1.1960
 7879SOL    HW235100   2.920   2.305   3.451  0.8093 -0.6890 -0.9944
 7880SOL     OW35101   1.379   4.158  11.203 -0.1045  0.5154 -1.0862
 7880SOL    HW135102   1.361   4.081  11.150  0.3930  1.2074 -2.2619
 7880SOL    HW235103   1.451   4.131  11.260 -2.0393 -1.2522  0.5347
 7881SOL     OW35104   1.567   2.118   5.907  0.2273  0.2405  0.7990
 7881SOL    HW135105   1.642   2.157   5.952  1.0538 -0.8452  0.3616
 7881SOL    HW235106   1.517   2.092   5.984  1.9907 -3.4901  0.6805
 7882SOL     OW35107   0.086   1.646   2.312  0.0929  0.1167  0.0572
 7882SOL    HW135108   0.025   1.601   2.254  0.1400  0.3694 -0.1925
 7882SOL    HW235109   0.031   1.691   2.376 -2.7568 -1.2887 -1.4154
 7883SOL     OW35110   1.867   0.910   2.613  0.5661 -0.2049 -0.5137
 7883SOL    HW135111   1.955   0.923   2.649  0.7249 -0.7364 -0.7085
 7883SOL    HW235112   1.896   0.907   2.521  0.0366  1.7060 -0.7290
 7884SOL     OW35113   3.624   3.206   4.158  0.2761  0.4454 -0.4015
 7884SOL    HW135114   3.565   3.281   4.162  0.0190  0.2418 -0.3464
 7884SOL    HW235115   3.580   3.133   4.113  0.4217 -1.4864  2.5589
 7885SOL     OW35116   0.337   1.767   7.207 -0.3384 -0.5050  0.7433
 7885SOL    HW135117   0.372   1.836   7.263 -3.7475  0.8771  1.1773
 7885SOL    HW235118   0.356   1.787   7.115  2.0369 -0.3340  1.2602
 7886SOL     OW35119   3.510   3.064   9.393 -0.2156  0.1407 -0.1110
 7886SOL    HW135120   3.513   3.140   9.452  1.7161 -0.0917  0.0933
 7886SOL    HW235121   3.497   2.999   9.462 -0.9580 -1.2096 -1.5304
 7887SOL     OW35122   3.479   2.796   9.500 -0.6009  0.1119 -0.0544
 7887SOL    HW135123   3.445   2.750   9.576 -0.7582 -0.6968 -0.6120
 7887SOL    HW235124   3.508   2.722   9.446  1.7634 -0.5131  2.0861
 7888SOL     OW35125   0.898   1.634   8.363 -0.2383  0.3941  0.2367
 7888SOL    HW135126   0.917   1.727   8.357  0.2712  0.2101 -0.9586
 7888SOL    HW235127   0.854   1.623   8.279  0.4858  0.4597 -0.1487
 7889SOL     OW35128   3.809   3.256  11.899  0.9104 -0.1874 -0.8918
 7889SOL    HW135129   3.814   3.162  11.918 -0.3237 -0.1938 -0.6504
 7889SOL    HW235130   3.883   3.277  11.842 -0.7874 -0.6958 -3.2730
 7890SOL     OW35131   4.207   2.948  14.283  0.4218 -0.0468 -0.3616
 7890SOL    HW135132   4.224   2.855  14.268 -1.8162 -0.9999  3.1652
 7890SOL    HW235133   4.191   2.982  14.195 -0.2743 -0.2979 -0.3294
 7891SOL     OW35134   1.575   0.079  12.942  0.3259 -0.1212  0.2194
 7891SOL    HW135135   1.664   0.064  12.973  0.8502  0.1788 -1.1266
 7891SOL    HW235136   1.513   0.011  12.965  0.5622  0.1466  1.6333
 7892SOL     OW35137   1.846   3.944  17.080 -0.3638  0.6619  0.1612
 7892SOL    HW135138   1.811   3.889  17.151 -2.1890  0.6048 -0.7724
 7892SOL    HW235139   1.762   3.980  17.051 -0.3869 -0.5042 -1.2300
 7893SOL     OW35140   2.700   1.256   2.008  0.6740 -0.2842 -0.0699
 7893SOL    HW135141   2.757   1.328   1.983 -0.5085  0.8976  0.6433
 7893SOL    HW235142   2.647   1.314   2.062  1.6925 -0.4377  1.1121
 7894SOL     OW35143   0.442   4.094   8.289 -0.0956 -0.0475 -0.1562
 7894SOL    HW135144   0.370   4.089   8.225 -0.8019  0.9256  0.5691
 7894SOL    HW235145   0.460   4.000   8.290 -0.5892 -0.1867 -2.5459
 7895SOL     OW35146   3.407   3.396   3.196  0.1427 -0.2098  0.4991
 7895SOL    HW135147   3.372   3.388   3.285 -0.9401  2.3645  0.3065
 7895SOL    HW235148   3.351   3.459   3.151  1.5919 -0.1455 -1.2030
 7896SOL     OW35149   3.639   1.786   1.635  0.5779 -0.1018  0.5376
 7896SOL    HW135150   3.729   1.776   1.604 -0.6796 -3.4478 -1.9793
 7896SOL    HW235151   3.617   1.875   1.607 -0.7750 -0.2672  1.0958
 7897SOL     OW35152   3.551   2.670  12.784 -0.4464  0.1557  0.0135
 7897SOL    HW135153   3.561   2.629  12.698  0.3942 -1.9768  1.1296
 7897SOL    HW235154   3.526   2.588  12.825  0.2909  0.1374  0.4208
 7898SOL     OW35155   3.781   2.746   8.106  0.2705 -0.5579 -0.7544
 7898SOL    HW135156   3.801   2.674   8.047 -0.3371 -0.9813 -0.4368
 7898SOL    HW235157   3.847   2.729   8.173 -0.8192 -2.9909 -0.3265
 7899SOL     OW35158   4.196   0.165   4.207 -0.3205 -0.3523 -0.5474
 7899SOL    HW135159   4.129   0.109   4.169  1.9684 -2.5006 -1.3987
 7899SOL    HW235160   4.248   0.100   4.254 -1.0568 -0.4328  0.1433
 7900SOL     OW35161   3.855   3.259   4.496  0.4624  0.5056 -0.0603
 7900SOL    HW135162   3.833   3.180   4.446 -0.1481  0.0065  1.0107
 7900SOL    HW235163   3.889   3.316   4.427 -1.2640 -1.7589 -2.7854
 7901SOL     OW35164   4.093   2.990  13.993 -0.6991  0.1913 -0.5641
 7901SOL    HW135165   4.039   3.018  13.919 -0.1766 -1.5301 -1.6056
 7901SOL    HW235166   4.137   2.915  13.953  3.1045  1.3762  1.3498
 7902SOL     OW35167   4.266   2.437   5.395  0.5841 -0.3347 -0.7254
 7902SOL    HW135168   4.286   2.463   5.485  2.4878 -2.7588 -0.4555
 7902SOL    HW235169   4.301   2.348   5.397 -2.1471 -1.4177 -1.0005
 7903SOL     OW35170   2.862   3.154  11.849  0.8183 -0.1981 -0.4239
 7903SOL    HW135171   2.778   3.119  11.820  1.4917 -1.3968 -0.9156
 7903SOL    HW235172   2.907   3.133  11.768 -0.9278  0.3987 -1.5629
 7904SOL     OW35173   1.746   2.326   5.557 -0.9185 -0.3242 -0.2424
 7904SOL    HW135174   1.833   2.366   5.558 -0.7972 -0.6550  3.1838
 7904SOL    HW235175   1.686   2.384   5.605 -0.8098  1.4753 -2.3233
 7905SOL     OW35176   0.510   3.626   2.908 -0.3159 -0.4205  0.4836
 7905SOL    HW135177   0.546   3.715   2.901  1.4854 -1.0718  1.6858
 7905SOL    HW235178   0.419   3.641   2.880 -1.0071 -2.1067  1.8321
 7906SOL     OW35179   3.786   4.102   7.225  0.2234 -0.5571 -0.9059
 7906SOL    HW135180   3.749   4.014   7.236 -1.4246  0.2537  0.0872
 7906SOL    HW235181   3.822   4.111   7.313 -2.1429 -1.3713  0.1681
 7907SOL     OW35182   3.869   3.458   4.285 -0.2044 -0.4407  0.5239
 7907SOL    HW135183   3.864   3.380   4.230  0.7141 -0.7712  0.9104
 7907SOL    HW235184   3.957   3.464   4.322 -0.2431  0.6503  0.4487
 7908SOL     OW35185   4.645   1.785  10.154  0.2756 -0.2498 -0.4507
 7908SOL    HW135186   4.701   1.796  10.231 -2.1169 -0.7847  1.3726
 7908SOL    HW235187   4.570   1.838  10.181 -0.8436 -1.8605 -0.4036
 7909SOL     OW35188   0.368   3.628   2.024  0.0658  0.1649 -0.5846
 7909SOL    HW135189   0.418   3.707   2.043 -0.7194  1.0522 -2.2616
 7909SOL    HW235190   0.437   3.564   2.041  0.4837  0.8450  0.2719
 7910SOL     OW35191   1.688   2.709   2.387 -0.1364 -0.0932 -0.3683
 7910SOL    HW135192   1.715   2.787   2.436 -0.4832  0.9491 -1.8206
 7910SOL    HW235193   1.740   2.725   2.308  1.1665 -0.2983  0.4446
 7911SOL     OW35194   0.171   2.214   1.710 -0.3424 -0.3874  0.2886
 7911SOL    HW135195   0.147   2.299   1.746  1.1964  0.4815 -0.7489
 7911SOL    HW235196   0.197   2.243   1.623 -0.5894 -2.0536 -0.3319
 7912SOL     OW35197   3.580   3.562   9.741 -0.1014 -0.1265 -0.0282
 7912SOL    HW135198   3.628   3.643   9.723 -1.8111  0.6500 -1.1509
 7912SOL    HW235199   3.499   3.573   9.690 -0.8297  2.2166  1.6529
 7913SOL     OW35200   1.984   4.426   5.397 -0.1502  0.0528 -0.2476
 7913SOL    HW135201   2.057   4.366   5.386 -2.3090 -2.3615 -1.4603
 7913SOL    HW235202   2.035   4.506   5.408 -0.0708  0.0321 -0.4808
 7914SOL     OW35203   1.574   3.147  12.044 -0.0697  0.4166  0.1733
 7914SOL    HW135204   1.518   3.204  12.098  0.7807  2.5055 -1.1304
 7914SOL    HW235205   1.635   3.110  12.107 -2.9755 -4.4082  0.1071
 7915SOL     OW35206   4.067   2.416   6.438 -0.1893  0.1860  0.0737
 7915SOL    HW135207   4.142   2.408   6.379  0.0324 -0.0187  0.3804
 7915SOL    HW235208   4.099   2.484   6.496 -1.8483  1.0108  0.0021
 7916SOL     OW35209   3.309   2.570   3.303  0.7504  0.6441  0.2795
 7916SOL    HW135210   3.224   2.537   3.330  0.7264  0.8572  0.4665
 7916SOL    HW235211   3.321   2.515   3.226 -1.1937  1.0923 -0.3556
 7917SOL     OW35212   1.772   0.129   1.419 -0.1202 -0.0596 -0.0371
 7917SOL    HW135213   1.706   0.181   1.465 -0.7250 -1.0631  0.2496
 7917SOL    HW235214   1.843   0.189   1.438  0.5280 -0.1563 -2.1734
 7918SOL     OW35215   3.942   3.104   1.796 -0.0706  0.1758  0.1175
 7918SOL    HW135216   3.966   3.197   1.804 -1.3662  0.5459 -0.2824
 7918SOL    HW235217   3.855   3.122   1.761  0.1833 -0.8965 -1.0624
 7919SOL     OW35218   4.571   2.096   3.492  0.0220 -0.3231 -0.9718
 7919SOL    HW135219   4.661   2.068   3.476 -0.8333 -2.8370 -1.3914
 7919SOL    HW235220   4.543   2.115   3.402  0.4468  0.5753 -0.9159
 7920SOL     OW35221   0.861   1.193   3.603  0.5352  0.2661  0.2384
 7920SOL    HW135222   0.794   1.215   3.537 -1.8078  0.6081  2.7117
 7920SOL    HW235223   0.815   1.147   3.673 -1.6375  0.7890 -0.8208
 7921SOL     OW35224   1.330   1.984   8.283 -0.0822  0.5649  0.0580
 7921SOL    HW135225   1.301   1.894   8.297 -1.3023  0.5176 -2.7340
 7921SOL    HW235226   1.292   2.015   8.366 -1.2892 -0.3602 -0.1575
 7922SOL     OW35227   2.486   0.651  11.005 -0.3560  0.4642 -0.1749
 7922SOL    HW135228   2.578   0.665  10.984 -0.3795  0.8571 -0.0281
 7922SOL    HW235229   2.457   0.731  11.050  0.7621  0.7751 -0.0082
 7923SOL     OW35230   0.544   0.186  15.153  0.0966  0.2610  0.0590
 7923SOL    HW135231   0.482   0.144  15.095 -1.6631  2.7510  0.1617
 7923SOL    HW235232   0.490   0.244  15.207 -1.3412 -2.3390  1.4354
 7924SOL     OW35233   2.697   3.683   2.762 -0.1090  0.2428  0.3503
 7924SOL    HW135234   2.735   3.692   2.674 -1.1028 -1.2686 -0.2491
 7924SOL    HW235235   2.732   3.758   2.810 -1.6249  0.1097  1.6759
 7925SOL     OW35236   0.960   1.973  17.012  0.1629 -0.0445  0.1207
 7925SOL    HW135237   0.872   1.945  16.987 -0.3170  1.1569  0.5029
 7925SOL    HW235238   1.014   1.896  16.991  1.0658  1.1067 -1.8521
 7926SOL     OW35239   2.900   4.529   8.508 -0.4800  0.3741 -0.4466
 7926SOL    HW135240   2.892   4.436   8.531  0.4837 -0.1803 -2.3274
 7926SOL    HW235241   2.901   4.576   8.591  3.1653 -1.2681  0.4415
 7927SOL     OW35242   3.747   3.191  13.299  0.3899  0.0967  0.2445
 7927SOL    HW135243   3.807   3.219  13.230 -0.0581  2.0624  0.6726
 7927SOL    HW235244   3.754   3.095  13.296  1.8352  0.2773 -1.8888
 7928SOL     OW35245   2.574   0.641  13.381  0.2030 -0.5072 -0.9810
 7928SOL    HW135246   2.488   0.630  13.340 -0.4444 -1.4453  0.6212
 7928SOL    HW235247   2.558   0.679  13.468 -0.8967 -1.4136 -0.7823
 7929SOL     OW35248   1.220   0.063   4.007  0.1498 -0.5774 -0.1350
 7929SOL    HW135249   1.280   0.011   4.061  1.0697  1.0490  0.3991
 7929SOL    HW235250   1.273   0.142   3.995 -1.0172  0.0438 -1.1434
 7930SOL     OW35251   4.239   0.922   5.837  0.3620  0.8876 -0.0944
 7930SOL    HW135252   4.247   1.017   5.823  1.5691  0.8326  0.2625
 7930SOL    HW235253   4.198   0.888   5.757  2.0002 -0.3210 -0.4044
 7931SOL     OW35254   0.648   0.879   7.270  0.4425  0.2084  0.1279
 7931SOL    HW135255   0.653   0.820   7.345 -0.2736  1.0859  0.8675
 7931SOL    HW235256   0.601   0.830   7.203  3.1120 -0.1370 -1.4921
 7932SOL     OW35257   0.693   1.614  12.278 -0.4197 -0.2564 -0.0641
 7932SOL    HW135258   0.624   1.547  12.273  3.2347 -4.0013 -0.4782
 7932SOL    HW235259   0.678   1.666  12.199  2.2289 -1.2101 -1.1908
 7933SOL     OW35260   1.414   4.696   7.845  0.7920  0.2262 -0.5250
 7933SOL    HW135261   1.440   4.700   7.753  0.9111  0.2509 -0.4909
 7933SOL    HW235262   1.319   4.687   7.842  0.8866 -0.2212 -2.0555
 7934SOL     OW35263   1.015   2.413   5.245 -0.0776 -0.8871 -0.2682
 7934SOL    HW135264   1.093   2.412   5.301  0.3330 -0.4189 -0.8332
 7934SOL    HW235265   0.947   2.404   5.311  0.4020 -1.3993  0.1576
 7935SOL     OW35266   4.658   1.936  10.414 -0.2186  0.1603 -0.0768
 7935SOL    HW135267   0.020   1.982  10.418  0.2702 -0.6709 -0.7281
 7935SOL    HW235268   4.604   1.986  10.475 -0.7560  1.0265 -1.2792
 7936SOL     OW35269   4.126   0.130   8.421  0.5478  0.2526 -0.1758
 7936SOL    HW135270   4.045   0.129   8.370 -0.3005  0.3798  1.1520
 7936SOL    HW235271   4.187   0.176   8.364  0.9146  0.4612  0.3882
 7937SOL     OW35272   3.872   3.513   8.190 -0.0088 -0.0382  0.3455
 7937SOL    HW135273   3.903   3.527   8.279 -0.8528  1.0242  0.4703
 7937SOL    HW235274   3.927   3.576   8.144  1.6667 -0.9028  1.1406
 7938SOL     OW35275   0.639   0.503  16.878 -0.7915  0.3972 -0.1179
 7938SOL    HW135276   0.642   0.455  16.795 -0.9279 -0.8225  0.5963
 7938SOL    HW235277   0.712   0.458  16.919 -0.2859  1.3737  0.0671
 7939SOL     OW35278   0.982   4.561   6.835  0.1278  0.1354 -0.0276
 7939SOL    HW135279   0.976   4.629   6.768  1.9352 -2.9833 -3.3726
 7939SOL    HW235280   0.995   4.481   6.784 -1.7606 -0.4168  0.3601
 7940SOL     OW35281   2.375   3.349   8.345 -0.5777 -0.6013  0.7036
 7940SOL    HW135282   2.310   3.403   8.391  0.8889 -1.3445  3.7015
 7940SOL    HW235283   2.312   3.285   8.314 -1.4009 -0.1750  1.4595
 7941SOL     OW35284   4.380   1.452   6.787 -0.4755  0.2090 -0.2026
 7941SOL    HW135285   4.372   1.404   6.869 -0.0657 -1.0473 -0.9122
 7941SOL    HW235286   4.458   1.502   6.814 -1.0382 -0.2361  2.2397
 7942SOL     OW35287   3.728   2.970  11.998  0.2216 -0.1259 -0.2869
 7942SOL    HW135288   3.668   2.900  11.972 -1.6705  1.5789 -0.4893
 7942SOL    HW235289   3.691   2.999  12.082 -2.6479  0.3491 -1.7115
 7943SOL     OW35290   3.795   1.889   2.900  0.1762  0.0653  0.6312
 7943SOL    HW135291   3.812   1.927   2.814  0.6268 -0.7499  0.3621
 7943SOL    HW235292   3.837   1.950   2.961 -0.1275  0.8035  0.1095
 7944SOL     OW35293   0.575   2.914   3.057  0.0274 -0.3469  0.0997
 7944SOL    HW135294   0.483   2.941   3.057 -0.2332 -1.2531  0.4833
 7944SOL    HW235295   0.599   2.932   2.966 -1.4833 -0.2682 -0.2907
 7945SOL     OW35296   2.102   3.203   2.639 -0.2544  0.0927  0.3278
 7945SOL    HW135297   2.172   3.240   2.584  0.0795  0.5505  1.0582
 7945SOL    HW235298   2.110   3.251   2.722 -0.3706 -0.2876  0.5582
 7946SOL     OW35299   1.075   1.986   6.981  0.0005  0.2303  0.2719
 7946SOL    HW135300   1.167   1.993   6.957 -0.5110  2.1663 -1.1479
 7946SOL    HW235301   1.073   1.915   7.044  3.0253 -1.0278 -1.0382
 7947SOL     OW35302   3.596   3.121  10.140  0.2094  0.0503  0.3447
 7947SOL    HW135303   3.631   3.207  10.117 -3.4769  1.6632  0.7623
 7947SOL    HW235304   3.625   3.071  10.064  0.3474 -1.6823  1.5376
 7948SOL     OW35305   1.247   3.941  12.860  0.3077 -0.0712  0.1987
 7948SOL    HW135306   1.170   3.907  12.906  0.1782  0.0857  0.0954
 7948SOL    HW235307   1.249   3.874  12.792 -1.3534 -0.2306  0.3077
 7949SOL     OW35308   2.845   0.934   2.430 -0.8721  0.6744 -0.4712
 7949SOL    HW135309   2.825   0.999   2.497 -0.4449 -0.0253  0.3391
 7949SOL    HW235310   2.912   0.875   2.466 -2.2324 -0.3853  0.3096
 7950SOL     OW35311   0.498   2.368   2.904  0.6422  0.3132 -0.2935
 7950SOL    HW135312   0.441   2.417   2.844 -1.6151 -0.1799  1.4083
 7950SOL    HW235313   0.504   2.433   2.975 -3.3518 -0.0900  0.4498
 7951SOL     OW35314   0.031   0.687   2.409  0.4398  0.0993  0.1451
 7951SOL    HW135315   4.668   0.699   2.367 -0.2814 -1.3921  1.2189
 7951SOL    HW235316   0.056   0.617   2.348 -0.7827 -1.0408  0.9704
 7952SOL     OW35317   4.603   0.362   6.080 -0.0147 -0.0026  0.0613
 7952SOL    HW135318   4.539   0.296   6.056  0.6294 -0.2113 -1.0967
 7952SOL    HW235319   4.591   0.427   6.010  0.3360 -0.6756 -0.6240
 7953SOL     OW35320   3.810   0.991   8.846  0.1174  0.3556  0.1067
 7953SOL    HW135321   3.776   0.935   8.776  0.8159 -0.3130  0.2916
 7953SOL    HW235322   3.879   0.932   8.878 -0.4528 -0.7584 -0.7046
 7954SOL     OW35323   4.364   2.893   8.901 -0.9926  0.0912 -0.1122
 7954SOL    HW135324   4.367   2.890   8.997  0.2728 -0.3225 -0.1620
 7954SOL    HW235325   4.431   2.962   8.901 -0.5695 -0.3076  2.6757
 7955SOL     OW35326   3.546   2.789   8.648  0.2044  0.3574 -0.3123
 7955SOL    HW135327   3.560   2.883   8.658 -1.1483  0.6004 -0.7898
 7955SOL    HW235328   3.564   2.761   8.738 -0.0843 -2.4466 -1.1396
 7956SOL     OW35329   4.474   1.583   5.634 -0.5089 -0.0753  0.3102
 7956SOL    HW135330   4.538   1.652   5.653 -1.0562  0.2241  1.0750
 7956SOL    HW235331   4.516   1.509   5.679  2.0940  0.6345 -0.9356
 7957SOL     OW35332   4.096   4.446   0.458 -0.0092  0.2017 -0.2507
 7957SOL    HW135333   4.082   4.539   0.475 -0.3335  0.1354 -0.1570
 7957SOL    HW235334   4.027   4.423   0.396 -0.7671 -1.0000  1.0154
 7958SOL     OW35335   4.261   2.256  15.149  0.5042 -0.4475 -0.1171
 7958SOL    HW135336   4.218   2.217  15.073  0.0787  1.1134 -0.6591
 7958SOL    HW235337   4.302   2.330  15.106 -3.7891  0.9528 -1.7995
 7959SOL     OW35338   1.027   2.139   2.240 -0.3470 -0.7148  0.2593
 7959SOL    HW135339   1.123   2.135   2.241 -0.3035  0.5791  1.7828
 7959SOL    HW235340   1.000   2.102   2.156  2.4320 -0.8753 -0.5619
 7960SOL     OW35341   4.633   3.991  16.515  0.8709 -0.1158  0.6538
 7960SOL    HW135342   4.624   4.010  16.609 -1.0201 -1.8593  0.8424
 7960SOL    HW235343   4.639   3.895  16.516  0.9148 -0.1114  0.7961
 7961SOL     OW35344   0.258   1.384   3.616 -0.8036  0.1107  0.0602
 7961SOL    HW135345   0.174   1.423   3.640 -2.1970 -1.9534 -1.4272
 7961SOL    HW235346   0.228   1.302   3.578 -1.0501  0.8383 -1.3132
 7962SOL     OW35347   3.320   3.331  14.589  0.6556 -0.5945  0.8171
 7962SOL    HW135348   3.391   3.295  14.536  2.9092  3.8203  0.7939
 7962SOL    HW235349   3.339   3.424  14.574 -1.5642 -0.0919  1.1230
 7963SOL     OW35350   0.891   2.241  17.080 -0.7805 -0.4571  0.1937
 7963SOL    HW135351   0.956   2.242  17.151 -0.8661 -0.3460  0.2708
 7963SOL    HW235352   0.920   2.153  17.055 -1.0417 -1.0335  1.8732
 7964SOL     OW35353   3.025   4.533  16.006  0.1161 -0.1737  0.0963
 7964SOL    HW135354   3.006   4.469  16.074  4.4608 -0.0482  1.4361
 7964SOL    HW235355   2.947   4.588  16.006  0.0503 -0.2659 -0.0651
 7965SOL     OW35356   2.458   0.042   4.909 -1.0770  0.3810 -0.1628
 7965SOL    HW135357   2.496   4.688   4.865 -1.2985 -1.9924  3.7548
 7965SOL    HW235358   2.517   0.060   4.983  0.2387 -1.6732 -0.7140
 7966SOL     OW35359   1.475   2.079   3.929 -0.2385 -0.0569  0.1724
 7966SOL    HW135360   1.415   2.065   4.001  0.7778 -1.5618  0.7203
 7966SOL    HW235361   1.515   1.992   3.934 -2.1254 -0.9193  0.2308
 7967SOL     OW35362   4.577   1.951   0.095  0.1925 -0.4056 -0.1753
 7967SOL    HW135363   4.604   1.914   0.179 -1.0710  0.9655  0.8361
 7967SOL    HW235364   4.485   1.926   0.085  0.4305 -1.7168  0.8680
 7968SOL     OW35365   1.642   4.267   3.367 -0.2341 -0.4093  0.1796
 7968SOL    HW135366   1.668   4.244   3.278  0.3165  0.1885  0.1843
 7968SOL    HW235367   1.547   4.271   3.359 -0.2279 -1.8438 -0.6546
 7969SOL     OW35368   0.102   2.235   7.956 -0.0392 -0.0035  0.2527
 7969SOL    HW135369   0.009   2.244   7.977 -0.5190 -2.3551 -0.8558
 7969SOL    HW235370   0.093   2.155   7.903 -1.2601  0.7168 -0.6309
 7970SOL     OW35371   4.303   2.480   7.411  0.4898 -0.3759 -0.0979
 7970SOL    HW135372   4.215   2.505   7.383  0.9763  0.5527 -0.7744
 7970SOL    HW235373   4.301   2.389   7.441  0.8753 -0.2317  0.3767
 7971SOL     OW35374   0.093   3.252   7.477  0.2706  0.0850  0.6288
 7971SOL    HW135375   0.027   3.296   7.424  0.0620 -3.3562 -1.9291
 7971SOL    HW235376   0.100   3.167   7.434 -1.0456  0.7863 -0.9619
 7972SOL     OW35377   3.955   0.578   8.905 -0.3837  0.0330  0.4976
 7972SOL    HW135378   3.907   0.533   8.835  1.9940 -1.2089 -0.3062
 7972SOL    HW235379   4.045   0.554   8.886  0.0244  1.8820  0.0878
 7973SOL     OW35380   2.701   2.010   9.244  0.0760 -0.0049 -0.0990
 7973SOL    HW135381   2.654   1.951   9.184  0.0869  0.3355 -0.4434
 7973SOL    HW235382   2.692   1.944   9.313 -0.0740 -1.6349 -1.6497
 7974SOL     OW35383   0.393   4.278   4.217 -0.2084  0.3672  0.7466
 7974SOL    HW135384   0.401   4.340   4.144  2.5655 -0.2517  0.5218
 7974SOL    HW235385   0.468   4.300   4.272  0.9236 -2.2388  0.2561
 7975SOL     OW35386   1.901   1.983  13.424  0.4796 -0.2945  0.3209
 7975SOL    HW135387   1.814   1.965  13.460  0.5685  3.3186  2.3729
 7975SOL    HW235388   1.956   1.938  13.488  0.4761  0.7637  1.0716
 7976SOL     OW35389   0.054   1.399   7.595 -0.2995  0.6341  0.1777
 7976SOL    HW135390   0.012   1.315   7.580 -0.8709  0.3819  3.0710
 7976SOL    HW235391   0.111   1.417   7.520 -2.2052 -1.5934 -1.7843
 7977SOL     OW35392   4.039   2.858   6.362 -0.1669  0.2553  0.0819
 7977SOL    HW135393   4.013   2.822   6.277  0.3005 -0.2903  0.1625
 7977SOL    HW235394   4.049   2.952   6.351  1.7274  0.1460  0.8396
 7978SOL     OW35395   0.435   3.425  15.388 -0.1621  0.7813 -0.1727
 7978SOL    HW135396   0.481   3.393  15.310  0.9900  0.3029  0.7098
 7978SOL    HW235397   0.490   3.391  15.458 -0.0544  0.5265 -0.3783
 7979SOL     OW35398   2.235   1.770   5.791  0.8876  0.1868 -0.4339
 7979SOL    HW135399   2.217   1.740   5.880  0.2063 -1.4489 -1.1299
 7979SOL    HW235400   2.286   1.692   5.771  1.0441  0.8157 -2.4273
 7980SOL     OW35401   0.276   1.687   9.661  0.3490 -0.3353 -0.7558
 7980SOL    HW135402   0.265   1.663   9.569  1.5980  0.5825 -1.1433
 7980SOL    HW235403   0.262   1.780   9.649 -3.1693 -0.5783  1.6444
 7981SOL     OW35404   3.089   4.366   3.289  0.3982  0.2143  0.2091
 7981SOL    HW135405   2.995   4.359   3.276  0.5604  1.1317 -1.4792
 7981SOL    HW235406   3.113   4.406   3.205 -0.9581  2.7995  1.0422
 7982SOL     OW35407   0.683   3.477   3.589  1.0946 -0.0966 -0.5042
 7982SOL    HW135408   0.603   3.460   3.538  0.7092  1.2597 -0.3682
 7982SOL    HW235409   0.670   3.412   3.658  0.7055  1.8987  1.2788
 7983SOL     OW35410   1.574   3.487   4.714 -0.4902 -0.2785 -0.3402
 7983SOL    HW135411   1.623   3.565   4.741  1.8343 -1.7734 -0.2009
 7983SOL    HW235412   1.535   3.516   4.631 -1.9339  0.7058  0.6898
 7984SOL     OW35413   4.430   2.381   0.061 -0.4670 -0.0241 -0.5323
 7984SOL    HW135414   4.485   2.458   0.053  0.3732 -0.4855  0.7259
 7984SOL    HW235415   4.376   2.416   0.133  0.2457 -1.0812  0.5113
 7985SOL     OW35416   3.263   3.894   6.895  0.5343 -0.1247  0.0733
 7985SOL    HW135417   3.227   3.813   6.932  2.0743 -0.2678  1.2625
 7985SOL    HW235418   3.326   3.920   6.963 -0.7060  0.1658  1.1251
 7986SOL     OW35419   0.535   1.753   4.467  0.0311 -0.4345 -0.2221
 7986SOL    HW135420   0.526   1.673   4.518  0.0122 -0.4895 -0.3135
 7986SOL    HW235421   0.566   1.818   4.531  0.8169 -2.2177  1.1919
 7987SOL     OW35422   0.167   1.139   4.589 -0.3511 -0.2620  0.1283
 7987SOL    HW135423   0.137   1.189   4.513  1.1694 -0.2269 -0.4466
 7987SOL    HW235424   0.106   1.065   4.585 -0.9715  0.2161  0.7709
 7988SOL     OW35425   1.517   2.419   8.901 -1.0114 -0.1054 -0.1716
 7988SOL    HW135426   1.559   2.335   8.884  1.1016  0.6825  1.1192
 7988SOL    HW235427   1.543   2.477   8.829  1.4877  0.1353  0.9291
 7989SOL     OW35428   1.658   1.148  11.576  0.1037  0.0599 -0.6825
 7989SOL    HW135429   1.635   1.233  11.539 -0.6376  0.5397  0.8995
 7989SOL    HW235430   1.586   1.090  11.551  1.4034 -0.5341 -3.1343
 7990SOL     OW35431   2.174   0.040  13.137 -0.0976  0.2887 -0.1090
 7990SOL    HW135432   2.226   0.116  13.111  0.0286  0.3375  0.2968
 7990SOL    HW235433   2.194   0.034  13.230 -0.0960 -0.8523 -0.1806
 7991SOL     OW35434   2.408   3.166   0.951  0.1072  0.5285 -0.0911
 7991SOL    HW135435   2.402   3.093   0.889 -0.6149  1.8199 -1.5518
 7991SOL    HW235436   2.396   3.115   1.031 -0.5369  0.7724 -0.0301
 7992SOL     OW35437   0.738   2.969   2.831 -0.2680  0.8536 -0.6154
 7992SOL    HW135438   0.798   3.021   2.884 -2.0042  0.8637  1.3649
 7992SOL    HW235439   0.730   3.016   2.748  0.6117  0.2445 -1.0366
 7993SOL     OW35440   1.804   0.051   6.082  0.5623 -0.2436  0.3059
 7993SOL    HW135441   1.869   0.116   6.108 -1.8248  3.0605 -2.0013
 7993SOL    HW235442   1.847   4.706   6.029  0.7933 -0.5629  0.8919
 7994SOL     OW35443   0.999   3.733   5.109  0.4256 -0.0768  0.1492
 7994SOL    HW135444   1.027   3.654   5.063  0.1154 -0.1931  0.1604
 7994SOL    HW235445   1.081   3.781   5.120 -0.8524  2.0023  0.6533
 7995SOL     OW35446   0.373   4.230  12.987 -0.0687 -0.3640 -0.8414
 7995SOL    HW135447   0.288   4.260  12.957  0.1565  1.2544  0.1717
 7995SOL    HW235448   0.377   4.263  13.077  0.8492 -0.4194 -0.8595
 7996SOL     OW35449   1.840   4.128  16.563 -0.0272  0.7159 -0.5369
 7996SOL    HW135450   1.797   4.164  16.641  1.7791  0.8466  0.3931
 7996SOL    HW235451   1.803   4.040  16.555  1.4708 -0.0171  0.6046
 7997SOL     OW35452   3.003   1.415   6.992  0.4384 -0.7017  0.2802
 7997SOL    HW135453   2.948   1.363   6.933  2.0674 -0.8626 -1.0732
 7997SOL    HW235454   3.088   1.403   6.951  0.5276 -0.3370  0.3599
 7998SOL     OW35455   4.224   2.465  14.526 -0.3895 -0.6417 -0.1077
 7998SOL    HW135456   4.241   2.416  14.446 -0.1137 -1.1418  0.2508
 7998SOL    HW235457   4.302   2.437  14.575  0.7320  2.5104 -0.0746
 7999SOL     OW35458   4.334   3.558  16.945 -0.6852 -0.3528 -0.1209
 7999SOL    HW135459   4.324   3.482  16.888 -1.1796 -1.0439  0.8868
 7999SOL    HW235460   4.241   3.580  16.948 -0.5958  0.1555 -0.9599
 8000SOL     OW35461   3.916   3.131   3.874  0.3172 -0.3470 -0.0847
 8000SOL    HW135462   3.845   3.067   3.877  0.2127 -0.3208 -1.7877
 8000SOL    HW235463   3.925   3.140   3.779  2.9690  2.3781  0.4495
 8001SOL     OW35464   2.192   3.679   4.023  0.0716  0.5693 -0.5232
 8001SOL    HW135465   2.155   3.767   4.011  0.9422  1.4154  2.8021
 8001SOL    HW235466   2.202   3.661   3.930  0.4988  3.7639 -1.1121
 8002SOL     OW35467   1.513   3.992   1.743  0.2037 -0.2560 -0.5081
 8002SOL    HW135468   1.598   3.959   1.715  0.0847  1.4292 -2.9315
 8002SOL    HW235469   1.459   3.947   1.677 -2.2559  0.1677  1.1970
 8003SOL     OW35470   2.746   4.088   8.991  0.1776 -0.5766 -0.2561
 8003SOL    HW135471   2.651   4.099   8.983  0.6816  2.5751 -2.0232
 8003SOL    HW235472   2.767   4.097   9.084  0.5627 -0.6743 -0.3353
 8004SOL     OW35473   0.380   2.202   3.623 -0.3123 -0.1284  0.4296
 8004SOL    HW135474   0.325   2.186   3.700 -0.2331 -0.3971  0.4274
 8004SOL    HW235475   0.461   2.155   3.643 -0.6825 -0.2363  1.7033
 8005SOL     OW35476   1.904   0.396   2.268  0.1976 -0.2746  0.0589
 8005SOL    HW135477   1.907   0.301   2.257 -1.4085 -0.3206  0.0656
 8005SOL    HW235478   1.810   0.406   2.277 -0.3164 -2.3283 -3.0601
 8006SOL     OW35479   3.773   0.601  14.946  0.1627  1.1334  0.0103
 8006SOL    HW135480   3.797   0.629  14.857  1.5928  1.2410  0.4298
 8006SOL    HW235481   3.678   0.609  14.941  0.0413  1.0675  2.2645
 8007SOL     OW35482   1.229   3.810   5.334 -0.3256  0.2215  1.2082
 8007SOL    HW135483   1.281   3.762   5.270  0.0480  0.2214  1.5131
 8007SOL    HW235484   1.262   3.894   5.303 -0.8253 -0.0777 -0.1483
 8008SOL     OW35485   2.632   0.119   6.751  0.2287  0.4940  0.3177
 8008SOL    HW135486   2.537   0.115   6.748  0.3144 -0.8418 -0.4115
 8008SOL    HW235487   2.638   0.130   6.846 -1.6973  0.1377  0.4748
 8009SOL     OW35488   3.277   0.035   3.339  0.0012  0.0956 -0.7869
 8009SOL    HW135489   3.319   4.677   3.371 -3.7905 -1.8941 -0.7815
 8009SOL    HW235490   3.189   0.029   3.377  0.3278  0.2575  0.0148
 8010SOL     OW35491   3.732   3.704   6.319 -0.5441  0.2888  0.5392
 8010SOL    HW135492   3.674   3.665   6.385  0.5740 -1.0051  0.7308
 8010SOL    HW235493   3.685   3.787   6.303 -1.1570 -0.2842 -0.6006
 8011SOL     OW35494   1.289   1.022   8.478 -0.9088  0.3938 -0.0950
 8011SOL    HW135495   1.363   1.071   8.514 -1.2576  0.1621  0.9651
 8011SOL    HW235496   1.221   1.039   8.544 -1.0732  0.9146 -0.3985
 8012SOL     OW35497   2.476   4.478   3.919 -0.5859 -0.3433  0.0777
 8012SOL    HW135498   2.515   4.467   3.833  0.4007  1.5930  0.2587
 8012SOL    HW235499   2.496   4.572   3.925  0.6084 -0.4894 -1.5018
 8013SOL     OW35500   3.947   0.316   2.507  0.0215  0.3708 -0.6590
 8013SOL    HW135501   4.033   0.339   2.542 -0.1410  0.1006 -0.0817
 8013SOL    HW235502   3.922   0.400   2.468 -1.1804  0.1905 -0.2918
 8014SOL     OW35503   3.559   0.031   5.102  0.5047 -0.3101 -0.5317
 8014SOL    HW135504   3.559   4.690   5.030  0.7403 -2.6760  1.5554
 8014SOL    HW235505   3.521   0.103   5.052  1.1913 -0.2553 -0.9765
 8015SOL     OW35506   2.634   3.839   3.116 -0.0522  0.1294 -0.1070
 8015SOL    HW135507   2.563   3.866   3.058  0.0186  1.5346  0.4478
 8015SOL    HW235508   2.711   3.843   3.059 -0.8644 -1.4485 -1.3211
 8016SOL     OW35509   0.846   4.144   4.539 -0.3365  0.4600 -0.0199
 8016SOL    HW135510   0.814   4.197   4.466  1.9819  2.2664  0.2705
 8016SOL    HW235511   0.906   4.200   4.588  1.0172 -2.1299  1.3224
 8017SOL     OW35512   2.155   4.510   5.168  0.3439  0.3766 -0.1729
 8017SOL    HW135513   2.180   4.602   5.163  0.6071  0.3649  1.0170
 8017SOL    HW235514   2.100   4.501   5.090 -0.5596  1.3082  0.3481
 8018SOL     OW35515   1.189   3.791  15.660  0.1681  0.2173  0.2936
 8018SOL    HW135516   1.263   3.844  15.689 -0.4754  0.4040  1.6076
 8018SOL    HW235517   1.121   3.853  15.688 -1.8631 -0.9381 -2.1212
 8019SOL     OW35518   3.918   2.713  14.946  0.8162  0.4721  0.3506
 8019SOL    HW135519   3.863   2.664  14.885  2.5336 -0.1033 -0.7326
 8019SOL    HW235520   3.912   2.803  14.914 -0.2185  0.3114  0.0946
 8020SOL     OW35521   1.373   0.235  12.477  0.3241  0.1935 -0.0253
 8020SOL    HW135522   1.434   0.188  12.533 -0.6757  0.6336  1.4289
 8020SOL    HW235523   1.411   0.322  12.470 -1.5570  1.0062 -0.2335
 8021SOL     OW35524   0.165   4.636   5.516 -0.7923 -0.0395  0.6581
 8021SOL    HW135525   0.178   4.556   5.466  0.8789  0.3976  0.3842
 8021SOL    HW235526   0.242   4.683   5.484 -2.3017  0.5757 -2.1646
 8022SOL     OW35527   1.291   0.641  12.456  0.0052 -0.3163  0.4829
 8022SOL    HW135528   1.374   0.594  12.449 -0.7781 -1.2951 -2.1205
 8022SOL    HW235529   1.271   0.634  12.549 -0.0299  4.4663  0.7871
 8023SOL     OW35530   0.480   0.909  14.878 -0.6905  0.3579 -0.6176
 8023SOL    HW135531   0.448   0.836  14.826 -3.8351  0.2393  1.5022
 8023SOL    HW235532   0.475   0.975  14.808 -1.4947  1.1963  0.2245
 8024SOL     OW35533   2.505   2.465   3.863 -0.2218  0.2816 -0.1206
 8024SOL    HW135534   2.574   2.493   3.923 -0.1377  1.3578 -0.7165
 8024SOL    HW235535   2.438   2.415   3.909 -0.3102  1.5910  1.1865
 8025SOL     OW35536   0.618   3.077   0.958  0.1965  0.4086  0.1733
 8025SOL    HW135537   0.538   3.109   0.915  0.3085 -0.3751 -0.6187
 8025SOL    HW235538   0.594   2.987   0.980 -0.0217  0.5416  0.4816
 8026SOL     OW35539   4.123   0.196  15.298  0.1255 -0.1777  0.2822
 8026SOL    HW135540   4.042   0.248  15.299  0.6400  0.6235 -0.3695
 8026SOL    HW235541   4.082   0.109  15.293 -1.5108  0.6810 -1.3404
 8027SOL     OW35542   1.467   1.220   6.921 -0.2158 -0.3464 -0.0651
 8027SOL    HW135543   1.470   1.262   6.835 -0.0893  0.3768  0.2860
 8027SOL    HW235544   1.554   1.236   6.957 -0.0942 -0.9863 -0.0839
 8028SOL     OW35545   0.405   4.094   2.644 -0.5881  0.5040 -0.4338
 8028SOL    HW135546   0.469   4.082   2.574 -0.9185  1.0776 -0.8320
 8028SOL    HW235547   0.430   4.183   2.669 -0.2650 -0.2371  1.8220
 8029SOL     OW35548   1.689   3.938   8.558 -0.1777  0.5892 -0.1963
 8029SOL    HW135549   1.710   3.858   8.606 -0.0415  1.2316  0.8254
 8029SOL    HW235550   1.657   3.990   8.633  1.6230  0.5169  0.6312
 8030SOL     OW35551   2.822   4.183   1.079 -0.9971 -0.1806  0.5919
 8030SOL    HW135552   2.873   4.132   1.141 -0.9075 -2.3915 -1.2987
 8030SOL    HW235553   2.767   4.242   1.130  0.5558 -0.7368  2.9207
 8031SOL     OW35554   2.129   4.295   4.758 -0.1044  0.4156  0.0808
 8031SOL    HW135555   2.179   4.214   4.761  0.0880  0.5780  1.4085
 8031SOL    HW235556   2.065   4.268   4.692  0.9773  2.1245 -1.6889
 8032SOL     OW35557   2.915   2.247   7.560  0.1940 -0.1742 -0.0782
 8032SOL    HW135558   2.956   2.216   7.641 -1.7802  2.3491  1.8784
 8032SOL    HW235559   2.968   2.321   7.530 -0.6057  0.7635  0.8233
 8033SOL     OW35560   3.213   3.582  13.387  0.0481 -0.5653 -0.3472
 8033SOL    HW135561   3.170   3.664  13.414 -0.1273 -0.0685 -2.1145
 8033SOL    HW235562   3.140   3.522  13.400 -1.4541  0.5886 -3.3295
 8034SOL     OW35563   4.072   1.696   7.163  0.1950  0.2146 -0.1968
 8034SOL    HW135564   4.038   1.784   7.179  0.5090 -0.1723  2.4820
 8034SOL    HW235565   4.066   1.695   7.067 -2.3031 -0.5593 -0.0162
 8035SOL     OW35566   1.965   0.401  16.834 -0.0697  0.9277  0.2805
 8035SOL    HW135567   2.002   0.432  16.751  0.0273 -0.2910 -0.1393
 8035SOL    HW235568   1.995   0.467  16.896  1.2992  1.8383 -1.3522
 8036SOL     OW35569   4.513   0.673   2.303  0.1567 -0.5599  0.2277
 8036SOL    HW135570   4.476   0.600   2.253 -0.8271 -0.0866  0.2509
 8036SOL    HW235571   4.435   0.727   2.313  1.0640  0.2489  2.8438
 8037SOL     OW35572   1.037   3.089   5.808 -0.5284  0.3560  0.1903
 8037SOL    HW135573   1.088   3.165   5.837  1.0484 -0.8066  0.4635
 8037SOL    HW235574   0.950   3.125   5.828 -0.4424  0.4826  0.3399
 8038SOL     OW35575   4.550   2.497  12.037 -0.5175  0.2566  0.6093
 8038SOL    HW135576   4.487   2.555  12.080 -1.0748  2.0591 -2.6689
 8038SOL    HW235577   4.553   2.534  11.949 -0.3953  0.2026  0.5898
 8039SOL     OW35578   2.807   0.595   8.951 -0.4378  0.0298 -0.2855
 8039SOL    HW135579   2.882   0.651   8.968 -1.6150  1.2739  0.8798
 8039SOL    HW235580   2.775   0.629   8.868 -0.4706  0.2165 -0.1975
 8040SOL     OW35581   2.013   2.669   6.279 -0.5692 -0.4711  0.5493
 8040SOL    HW135582   2.030   2.582   6.315 -0.0841  0.1866  1.9122
 8040SOL    HW235583   2.082   2.719   6.322  1.2376 -0.9953 -1.7166
 8041SOL     OW35584   2.847   1.716  16.400 -0.1200  0.2549  0.1572
 8041SOL    HW135585   2.917   1.708  16.465 -0.8978  1.5993  1.1555
 8041SOL    HW235586   2.807   1.630  16.387  2.2683 -0.3873 -2.7127
 8042SOL     OW35587   4.187   0.492   4.898  0.0749 -0.3867 -0.3035
 8042SOL    HW135588   4.196   0.491   4.802  3.6983 -0.6393  0.0424
 8042SOL    HW235589   4.256   0.429   4.920 -0.7685 -0.5909  1.7360
 8043SOL     OW35590   1.263   0.452   6.938 -0.3992 -0.2028  0.2501
 8043SOL    HW135591   1.255   0.477   7.030 -0.0888 -3.1543  1.0803
 8043SOL    HW235592   1.252   0.357   6.946 -1.6226 -0.2035 -1.4796
 8044SOL     OW35593   1.530   3.211   6.304  0.4331  0.0221  0.1197
 8044SOL    HW135594   1.440   3.203   6.336  0.6781  1.3482  1.1062
 8044SOL    HW235595   1.564   3.125   6.331 -2.3717 -0.9735  0.4549
 8045SOL     OW35596   3.563   4.227  10.438  0.4247  0.3552 -0.0360
 8045SOL    HW135597   3.541   4.316  10.410 -1.1154 -0.4473 -1.3919
 8045SOL    HW235598   3.476   4.191  10.458  0.8530 -1.0007 -0.5792
 8046SOL     OW35599   4.046   3.719   6.499 -0.3714  0.3425 -0.2519
 8046SOL    HW135600   3.981   3.649   6.507  0.0731 -0.2401 -1.8679
 8046SOL    HW235601   4.128   3.677   6.525  0.5459  1.2201 -1.7584
 8047SOL     OW35602   1.850   2.870   8.706 -0.1006 -0.5521  0.4635
 8047SOL    HW135603   1.945   2.874   8.719  0.3779  0.0936 -3.0317
 8047SOL    HW235604   1.851   2.789   8.654 -0.8080 -1.5188  1.9634
 8048SOL     OW35605   1.631   3.926   2.033 -0.5547  0.3545 -0.0102
 8048SOL    HW135606   1.715   3.880   2.029 -0.6586  0.2660 -1.2132
 8048SOL    HW235607   1.629   3.991   1.963 -1.7556 -1.2704 -1.4860
 8049SOL     OW35608   3.399   0.668   2.143  0.3695  0.0879  0.4407
 8049SOL    HW135609   3.419   0.578   2.117 -0.7298 -0.0346 -0.0115
 8049SOL    HW235610   3.488   0.689   2.171 -0.2047  2.2960  0.6060
 8050SOL     OW35611   1.105   0.434   8.941  0.3439 -0.1407  0.2340
 8050SOL    HW135612   1.050   0.420   9.018  0.4193  1.6606  0.6277
 8050SOL    HW235613   1.091   0.355   8.890 -0.1199  0.1224 -0.0398
 8051SOL     OW35614   0.191   3.761   4.610  0.0622  0.7922 -0.1278
 8051SOL    HW135615   0.213   3.668   4.596 -0.2227  0.4630  1.5965
 8051SOL    HW235616   0.096   3.749   4.603  0.1715 -0.2119  0.0803
 8052SOL     OW35617   3.981   0.553   7.241 -0.0634 -0.1879 -0.1004
 8052SOL    HW135618   3.981   0.644   7.270  0.7605  0.1255 -1.0903
 8052SOL    HW235619   3.886   0.554   7.232 -0.1555 -0.3564  0.9226
 8053SOL     OW35620   2.060   3.145   7.351  0.1255  0.0831  0.3290
 8053SOL    HW135621   1.997   3.140   7.423 -1.3116 -0.0487 -0.9294
 8053SOL    HW235622   2.016   3.210   7.297  0.6950 -0.7446 -1.1401
 8054SOL     OW35623   2.655   0.939   7.113 -0.6126 -0.2609 -0.0596
 8054SOL    HW135624   2.679   1.032   7.120 -1.9797  0.1027 -0.2174
 8054SOL    HW235625   2.621   0.938   7.024  0.8877  2.0450 -0.6662
 8055SOL     OW35626   2.553   2.791   8.477  0.3069 -0.3029  0.0852
 8055SOL    HW135627   2.534   2.871   8.526  1.4377  0.2457 -0.3651
 8055SOL    HW235628   2.577   2.740   8.554  0.9156  0.8908  0.6852
 8056SOL     OW35629   2.179   2.802   3.464  0.3023  0.7785  0.1228
 8056SOL    HW135630   2.209   2.789   3.554 -0.1833 -0.3846  0.1236
 8056SOL    HW235631   2.227   2.729   3.424  0.3184  0.6023  0.4620
 8057SOL     OW35632   1.156   1.477   2.838 -0.4840  0.1006 -0.2804
 8057SOL    HW135633   1.103   1.402   2.810 -2.7684  2.2449 -1.7110
 8057SOL    HW235634   1.236   1.442   2.798  0.3408  0.2401  1.2650
 8058SOL     OW35635   4.308   1.699   3.376 -0.4908 -0.0707  0.1886
 8058SOL    HW135636   4.320   1.660   3.290 -3.8834  0.4654 -0.5074
 8058SOL    HW235637   4.261   1.780   3.356 -0.6736  0.2745  1.9745
 8059SOL     OW35638   1.916   3.237   2.961  0.3766 -0.6153 -0.4453
 8059SOL    HW135639   1.832   3.193   2.947 -0.6181  0.5124  1.9026
 8059SOL    HW235640   1.896   3.294   3.035 -1.2353  0.2335 -1.5252
 8060SOL     OW35641   2.418   3.721   0.773 -0.2501  0.1000 -0.3445
 8060SOL    HW135642   2.446   3.713   0.681  1.5580 -2.7048  0.4523
 8060SOL    HW235643   2.462   3.804   0.794 -2.5101  1.4558 -0.9523
 8061SOL     OW35644   2.940   2.776  10.471 -0.0080  0.1616 -0.2783
 8061SOL    HW135645   3.033   2.772  10.447  0.4468  0.9874  1.3050
 8061SOL    HW235646   2.897   2.812  10.394 -2.0346 -0.5396  0.5248
 8062SOL     OW35647   3.120   1.956   0.874  0.5239 -0.3391 -0.1193
 8062SOL    HW135648   3.149   2.027   0.817  1.5918 -0.9985 -0.3934
 8062SOL    HW235649   3.025   1.966   0.867  0.5372 -0.3222 -0.2781
 8063SOL     OW35650   4.010   3.924  13.497 -0.3154  0.6134 -0.1176
 8063SOL    HW135651   4.041   3.945  13.409 -2.3692  0.8986 -0.7713
 8063SOL    HW235652   3.916   3.916  13.481 -0.7459  4.2840  0.4764
 8064SOL     OW35653   3.667   0.801   4.213  0.0247  0.1470 -0.6178
 8064SOL    HW135654   3.588   0.793   4.265  1.5311  1.5741  1.8668
 8064SOL    HW235655   3.635   0.840   4.131  1.5313 -0.7769 -1.6496
 8065SOL     OW35656   2.559   4.089   8.084 -0.7019  0.5321 -0.1109
 8065SOL    HW135657   2.574   4.018   8.147 -2.9879  0.3336  0.2323
 8065SOL    HW235658   2.649   4.119   8.077  0.0331 -0.9360  2.7643
 8066SOL     OW35659   2.487   1.605  12.020 -0.1738 -0.4348 -0.0818
 8066SOL    HW135660   2.446   1.691  12.028 -2.7530 -1.7812  1.0580
 8066SOL    HW235661   2.437   1.551  12.081  0.6945  0.6502  1.6057
 8067SOL     OW35662   1.771   2.760   6.436 -0.6851 -0.0449  0.6653
 8067SOL    HW135663   1.852   2.740   6.389 -0.7675 -0.2280  0.5980
 8067SOL    HW235664   1.730   2.674   6.431  1.5881 -1.0977  0.0217
 8068SOL     OW35665   4.667   1.460  13.777  0.2351 -0.0710  0.6594
 8068SOL    HW135666   4.596   1.470  13.713 -0.3445 -2.0498  0.9946
 8068SOL    HW235667   0.012   1.496  13.720 -0.4950  0.2512 -0.0018
 8069SOL     OW35668   2.113   1.060  10.987 -0.4810 -0.0026 -0.0877
 8069SOL    HW135669   2.143   1.144  10.950  0.9093  0.0843  1.2176
 8069SOL    HW235670   2.049   1.038  10.920 -1.4745 -0.0873  0.9024
 8070SOL     OW35671   4.597   2.370   0.933  0.0772 -0.0052  0.9138
 8070SOL    HW135672   4.648   2.450   0.947  0.2832  0.1715 -0.8454
 8070SOL    HW235673   4.655   2.317   0.987  0.0916 -1.4240 -0.4904
 8071SOL     OW35674   1.338   1.474   9.955 -0.0464  0.0680 -0.1340
 8071SOL    HW135675   1.274   1.532   9.997  0.9049  1.8764 -1.1863
 8071SOL    HW235676   1.289   1.392   9.960  0.5260 -0.1617  1.6012
 8072SOL     OW35677   4.001   1.089   4.301 -0.2800  0.9377  0.3718
 8072SOL    HW135678   3.973   1.098   4.210  0.8364  1.6440  0.1095
 8072SOL    HW235679   4.095   1.074   4.292 -0.4907  0.4411 -1.0409
 8073SOL     OW35680   3.268   3.623  10.009 -0.3340 -0.2466  0.0444
 8073SOL    HW135681   3.344   3.571   9.982 -1.6345 -2.2206  0.2020
 8073SOL    HW235682   3.238   3.582  10.090 -0.7789  0.6771  0.3590
 8074SOL     OW35683   1.052   0.335   7.688  0.7893  0.0091 -0.0576
 8074SOL    HW135684   1.057   0.254   7.638  0.0708 -0.9218  1.3863
 8074SOL    HW235685   1.133   0.325   7.738 -0.2875  0.7155  1.8362
 8075SOL     OW35686   1.481   1.571   4.445 -0.0138  0.1563  0.1279
 8075SOL    HW135687   1.401   1.597   4.399  0.3686 -0.1975 -0.7508
 8075SOL    HW235688   1.465   1.626   4.521  0.5710  0.0628  0.3187
 8076SOL     OW35689   0.156   3.666  13.517 -0.1159  0.1219 -0.3789
 8076SOL    HW135690   0.062   3.666  13.538  0.2491 -0.7285  1.2005
 8076SOL    HW235691   0.150   3.624  13.431 -1.4252  1.9461 -1.1863
 8077SOL     OW35692   1.259   0.819   9.374 -0.4196  0.5244  0.2461
 8077SOL    HW135693   1.193   0.858   9.316  2.0784 -0.2039 -3.1263
 8077SOL    HW235694   1.281   0.883   9.442 -3.4127 -0.8925  2.5321
 8078SOL     OW35695   2.380   0.137   3.521  0.4538  0.1228 -0.4657
 8078SOL    HW135696   2.365   0.227   3.491 -0.4064  0.0753 -0.1700
 8078SOL    HW235697   2.340   0.086   3.450  3.3420  0.3882 -2.2972
 8079SOL     OW35698   0.547   2.676  12.064  0.4155  0.9987 -0.2433
 8079SOL    HW135699   0.481   2.719  12.010 -0.3986 -0.5832 -0.5347
 8079SOL    HW235700   0.481   2.628  12.115 -0.3253 -0.2870 -2.3724
 8080SOL     OW35701   0.013   2.403   1.781 -0.1103 -0.0855  0.3826
 8080SOL    HW135702   4.715   2.372   1.869  0.7007 -0.8062  0.3206
 8080SOL    HW235703   4.668   2.467   1.757 -1.7936 -2.2550 -0.6775
 8081SOL     OW35704   1.715   3.193  15.170  0.8478 -0.3481  0.5203
 8081SOL    HW135705   1.753   3.180  15.083  0.4713 -2.2423  0.6388
 8081SOL    HW235706   1.650   3.122  15.169  0.7723 -0.2798  0.6622
 8082SOL     OW35707   2.074   0.292   3.720 -0.5486 -0.4231 -0.3733
 8082SOL    HW135708   2.123   0.374   3.725 -0.2894 -0.5766 -0.3803
 8082SOL    HW235709   2.018   0.304   3.643 -1.3338  0.8935  0.4087
 8083SOL     OW35710   0.967   1.106  10.850  0.0000 -0.1826 -0.0934
 8083SOL    HW135711   0.962   1.031  10.910 -0.0726  0.4840  0.7450
 8083SOL    HW235712   0.880   1.120  10.814 -0.6516 -3.2572  0.2408
 8084SOL     OW35713   2.826   3.331  12.538  0.0453  0.7058 -0.3051
 8084SOL    HW135714   2.895   3.272  12.568 -2.2328 -1.7775 -0.0024
 8084SOL    HW235715   2.800   3.372  12.620  0.7241  2.0435 -0.7645
 8085SOL     OW35716   4.501   1.264   7.017  0.4986 -0.7902 -0.5825
 8085SOL    HW135717   4.581   1.308   6.988 -0.7235  2.8951  1.6824
 8085SOL    HW235718   4.499   1.256   7.112 -1.6582 -4.7934 -0.9489
 8086SOL     OW35719   3.917   2.748   0.940  0.5011  0.3501  0.0967
 8086SOL    HW135720   3.859   2.693   0.886 -1.3301  0.7767  1.6151
 8086SOL    HW235721   3.933   2.694   1.018 -3.6445 -0.5790  0.3168
 8087SOL     OW35722   0.227   1.483   7.426  0.5556  0.2030  0.0527
 8087SOL    HW135723   0.288   1.473   7.353 -1.3675  1.2935 -1.6964
 8087SOL    HW235724   0.278   1.532   7.492  1.9588 -0.7711 -0.3073
 8088SOL     OW35725   3.352   0.417   8.179  0.8059 -0.7063  0.2054
 8088SOL    HW135726   3.375   0.510   8.188 -1.4078 -0.2566  1.2187
 8088SOL    HW235727   3.300   0.418   8.099 -0.0675  1.1729  0.7829
 8089SOL     OW35728   0.027   2.317   8.786 -0.2792 -0.4333  0.3992
 8089SOL    HW135729   0.122   2.327   8.798 -0.4396  0.0895  1.3026
 8089SOL    HW235730   4.708   2.356   8.864 -0.2418  0.6604 -0.1265
 8090SOL     OW35731   3.117   2.293   1.875  0.2881  0.1498 -0.8318
 8090SOL    HW135732   3.120   2.387   1.855  0.4607 -0.1484 -2.1369
 8090SOL    HW235733   3.090   2.260   1.790 -0.9259 -1.2401  0.0829
 8091SOL     OW35734   4.105   1.859  12.334  0.2948 -0.7609  0.3094
 8091SOL    HW135735   4.176   1.836  12.394 -0.9220 -2.0535  1.2323
 8091SOL    HW235736   4.112   1.953  12.351 -2.8845 -0.0272 -2.6935
 8092SOL     OW35737   3.605   1.422   3.061  0.0430  0.1075  0.4292
 8092SOL    HW135738   3.510   1.409   3.055  0.2268 -0.9355 -0.2704
 8092SOL    HW235739   3.609   1.509   3.021  0.3404 -0.1662 -0.1317
 8093SOL     OW35740   1.280   4.674   6.226  0.5418  0.2799 -0.3302
 8093SOL    HW135741   1.366   4.716   6.232 -0.4720  1.9433  2.6216
 8093SOL    HW235742   1.232   0.013   6.170 -0.9120  1.1784  1.8995
 8094SOL     OW35743   1.007   1.750   6.446  0.0763  0.2618 -0.8708
 8094SOL    HW135744   1.078   1.807   6.417  0.4265  1.0000  1.4123
 8094SOL    HW235745   1.032   1.659   6.430 -1.4595 -0.4306  0.6837
 8095SOL     OW35746   0.271   1.108   7.669  0.0853 -0.3258 -0.2519
 8095SOL    HW135747   0.206   1.041   7.648 -0.7273 -0.2549  2.0449
 8095SOL    HW235748   0.309   1.128   7.583  0.9332 -0.5878  0.0591
 8096SOL     OW35749   3.773   4.047   6.041  0.0521 -0.1175 -0.1821
 8096SOL    HW135750   3.692   4.054   5.990  0.3821 -1.6984 -0.9170
 8096SOL    HW235751   3.776   4.135   6.080  2.1897 -0.2030 -0.1909
 8097SOL     OW35752   3.388   0.794   6.919  0.1646 -0.1175  0.3869
 8097SOL    HW135753   3.418   0.713   6.878 -0.0877  0.0836 -0.1949
 8097SOL    HW235754   3.344   0.837   6.845  0.5337 -1.8024 -0.8050
 8098SOL     OW35755   4.462   4.177  10.939 -0.3055  0.2962  0.5094
 8098SOL    HW135756   4.404   4.243  10.901 -0.2116 -1.2063 -2.2186
 8098SOL    HW235757   4.420   4.173  11.025 -2.5046  0.6890 -0.5371
 8099SOL     OW35758   4.145   2.673  13.972 -0.5709  0.1567 -0.5737
 8099SOL    HW135759   4.202   2.724  13.914 -2.4240  1.1476 -1.5281
 8099SOL    HW235760   4.072   2.648  13.915 -1.6714  2.5161 -0.2128
 8100SOL     OW35761   4.370   3.555   3.799  0.5198 -0.6409  0.1667
 8100SOL    HW135762   4.354   3.508   3.718  0.1677  0.3070 -0.3146
 8100SOL    HW235763   4.282   3.583   3.823  0.7259  1.8214 -1.9736
 8101SOL     OW35764   3.483   2.938   3.243  0.0994 -0.2490 -0.2202
 8101SOL    HW135765   3.477   2.981   3.158  0.2773  1.2502  0.5227
 8101SOL    HW235766   3.576   2.917   3.232  0.1453 -1.2165  2.0155
 8102SOL     OW35767   3.755   1.867   3.360  0.3605  0.3853 -0.4176
 8102SOL    HW135768   3.756   1.833   3.271  1.7493  0.7440 -0.5430
 8102SOL    HW235769   3.803   1.801   3.410 -1.6249 -2.0852 -1.7562
 8103SOL     OW35770   0.413   3.874   2.213 -0.0413 -0.0386 -0.1579
 8103SOL    HW135771   0.371   3.812   2.273  1.7136 -1.6251 -0.5597
 8103SOL    HW235772   0.341   3.936   2.208  1.2307  1.5505  1.4033
 8104SOL     OW35773   1.353   4.344  10.358 -0.0017  0.0031 -0.3366
 8104SOL    HW135774   1.379   4.256  10.330 -3.2420 -1.2942  0.7622
 8104SOL    HW235775   1.439   4.378  10.383  0.9501 -2.5126 -0.1974
 8105SOL     OW35776   1.612   4.134   5.268 -0.5422 -0.4333  0.5690
 8105SOL    HW135777   1.521   4.118   5.243 -0.5422 -2.0884  1.6233
 8105SOL    HW235778   1.626   4.069   5.337  1.1287  0.5963  1.1746
 8106SOL     OW35779   3.479   4.418   3.407  0.2126 -0.1454 -0.7188
 8106SOL    HW135780   3.393   4.393   3.441 -0.0634  0.3512 -1.0498
 8106SOL    HW235781   3.533   4.384   3.478 -2.3613 -1.7751  0.4781
 8107SOL     OW35782   3.823   0.922   7.097  0.0740 -0.1530 -0.0976
 8107SOL    HW135783   3.875   0.897   7.173 -1.0063 -1.6898  0.1152
 8107SOL    HW235784   3.870   0.878   7.026 -1.1730 -1.2828 -0.2172
 8108SOL     OW35785   2.691   2.636   4.050  0.1761  0.3444  0.4059
 8108SOL    HW135786   2.745   2.711   4.024 -1.1733  1.2514  0.2014
 8108SOL    HW235787   2.711   2.642   4.143  1.1277 -1.0519  0.2813
 8109SOL     OW35788   0.241   4.114   6.029  0.3450  0.4629 -0.4517
 8109SOL    HW135789   0.232   4.124   6.124  2.0356  0.4592 -0.2993
 8109SOL    HW235790   0.227   4.020   6.017 -0.1066  0.5449 -0.5785
 8110SOL     OW35791   1.652   3.305   7.191  0.2474  0.2724 -0.2251
 8110SOL    HW135792   1.611   3.223   7.220  1.0664  0.5301  1.6432
 8110SOL    HW235793   1.608   3.314   7.106  2.3692 -0.3314 -1.3848
 8111SOL     OW35794   2.507   1.917  17.478 -0.1105 -0.0302  0.7269
 8111SOL    HW135795   2.522   1.826  17.454 -0.8431  0.2833 -0.9645
 8111SOL    HW235796   2.568   1.938  17.549  0.8118 -0.5079  0.0818
 8112SOL     OW35797   1.302   1.708  12.962  0.1593 -0.7109  0.2168
 8112SOL    HW135798   1.207   1.702  12.954  0.2264  0.7962 -1.8251
 8112SOL    HW235799   1.313   1.702  12.867  1.1849 -2.0635  0.4169
 8113SOL     OW35800   1.564   4.468   6.246 -0.1747  0.2492  0.2704
 8113SOL    HW135801   1.519   4.522   6.181 -1.0244 -0.7290  0.0317
 8113SOL    HW235802   1.632   4.420   6.199 -0.4274 -0.0767  0.2383
 8114SOL     OW35803   3.825   0.308   7.529 -0.6298  0.0632  0.9994
 8114SOL    HW135804   3.789   0.325   7.616 -1.7180  0.2094  0.5261
 8114SOL    HW235805   3.761   0.352   7.472  0.5974  0.7522  0.1480
 8115SOL     OW35806   2.233   2.862   0.797 -0.6808 -0.6548 -0.0468
 8115SOL    HW135807   2.172   2.823   0.860  0.8668 -1.9937  0.6332
 8115SOL    HW235808   2.273   2.791   0.747  2.2584  0.0604  1.3052
 8116SOL     OW35809   0.286   2.768   8.356 -0.3217  0.7358 -0.2933
 8116SOL    HW135810   0.278   2.851   8.308 -0.4323  0.0724 -1.4183
 8116SOL    HW235811   0.196   2.758   8.386  0.2382 -1.0583  0.7761
 8117SOL     OW35812   2.387   2.301   7.877 -0.3383 -0.0066 -0.3220
 8117SOL    HW135813   2.313   2.354   7.906  0.5374 -0.0061  1.8760
 8117SOL    HW235814   2.368   2.220   7.925 -1.9533  0.4633 -0.1659
 8118SOL     OW35815   4.524   1.253  15.622 -0.0311  0.4371 -0.4217
 8118SOL    HW135816   4.451   1.219  15.674 -0.3101 -0.2174 -1.2436
 8118SOL    HW235817   4.511   1.345  15.643 -1.7211  0.4646 -1.5766
 8119SOL     OW35818   0.988   2.777   8.768 -0.0858 -0.2440 -0.0067
 8119SOL    HW135819   0.926   2.798   8.698 -0.4300  0.4255  0.4941
 8119SOL    HW235820   0.949   2.807   8.850  2.0658 -1.2972  1.3754
 8120SOL     OW35821   2.844   4.392   6.445 -0.8881  0.0633  0.0207
 8120SOL    HW135822   2.866   4.441   6.524 -0.5981 -1.0554  0.6367
 8120SOL    HW235823   2.839   4.461   6.378  1.4931  0.5844  0.3736
 8121SOL     OW35824   4.437   0.506   9.164  0.0794 -0.0521  0.5197
 8121SOL    HW135825   4.467   0.470   9.080 -2.4926 -0.2994 -0.2857
 8121SOL    HW235826   4.356   0.458   9.181  0.3754 -0.3911  0.9807
 8122SOL     OW35827   2.583   4.209   2.069 -0.0794  0.3865  0.0633
 8122SOL    HW135828   2.537   4.138   2.114 -0.9049  0.5875 -0.4715
 8122SOL    HW235829   2.633   4.248   2.141  0.1263  0.9434 -0.3810
 8123SOL     OW35830   0.659   2.030   4.320 -0.1756 -0.0906  0.2230
 8123SOL    HW135831   0.674   2.082   4.399  0.6510 -1.5463  1.0290
 8123SOL    HW235832   0.578   2.063   4.283 -1.5689 -1.2624  2.2230
 8124SOL     OW35833   4.460   3.147   6.983  0.2118 -0.1395  0.7967
 8124SOL    HW135834   4.373   3.182   7.001 -0.8314 -2.0748 -0.4671
 8124SOL    HW235835   4.432   3.103   6.903  0.6974  2.5326 -0.8335
 8125SOL     OW35836   0.115   1.092  15.678 -0.0207 -0.4966 -0.5805
 8125SOL    HW135837   0.149   1.089  15.768  0.9234 -1.6838 -0.9759
 8125SOL    HW235838   0.165   1.016  15.649 -0.8560 -0.6169 -1.6923
 8126SOL     OW35839   1.198   4.593  17.647 -0.5136 -0.1278  0.0374
 8126SOL    HW135840   1.177   4.598   0.049 -1.3765  0.6486 -0.1976
 8126SOL    HW235841   1.263   4.662  17.633  0.5670 -0.8274  1.5501
 8127SOL     OW35842   4.512   4.672   7.141 -0.0902 -0.7407 -0.1979
 8127SOL    HW135843   4.545   4.659   7.229 -2.0902  1.8828  0.9445
 8127SOL    HW235844   4.463   0.030   7.157  2.2507  0.4151  1.3181
 8128SOL     OW35845   1.360   0.661   9.148 -0.0193 -0.2442 -0.7555
 8128SOL    HW135846   1.323   0.698   9.228 -1.3168 -0.9828 -1.0127
 8128SOL    HW235847   1.282   0.669   9.093  0.1529  0.3880 -0.9055
 8129SOL     OW35848   0.536   2.497   5.955 -0.7597  0.0735  0.5543
 8129SOL    HW135849   0.592   2.571   5.931 -0.0740  0.4407  3.2109
 8129SOL    HW235850   0.579   2.444   6.022  1.9845  0.1442 -1.1508
 8130SOL     OW35851   1.174   0.073   8.192  0.0727  0.1940 -0.6794
 8130SOL    HW135852   1.108   0.126   8.148 -0.4550 -0.1561 -0.3077
 8130SOL    HW235853   1.160   0.098   8.283  2.2068  1.7543 -0.7883
 8131SOL     OW35854   3.305   3.087   4.276  0.6853  0.0944 -0.0773
 8131SOL    HW135855   3.279   3.178   4.290 -1.0078 -0.6576  1.5497
 8131SOL    HW235856   3.337   3.073   4.365  0.8521  2.0624  0.1841
 8132SOL     OW35857   1.256   3.073   6.396 -1.0849 -0.1680  0.0097
 8132SOL    HW135858   1.216   3.160   6.392 -1.2394 -0.3073 -1.5414
 8132SOL    HW235859   1.205   3.032   6.326 -0.0173 -0.0967 -0.8226
 8133SOL     OW35860   3.874   2.602   2.678 -0.0871  0.5236 -0.5732
 8133SOL    HW135861   3.898   2.511   2.659 -1.8220  0.5650 -2.9784
 8133SOL    HW235862   3.791   2.588   2.724  0.9884 -1.8161  0.6538
 8134SOL     OW35863   1.479   1.714   8.616 -0.2920 -0.0147 -0.3382
 8134SOL    HW135864   1.471   1.638   8.558  0.9356  0.5431 -1.2329
 8134SOL    HW235865   1.437   1.680   8.695  2.3923 -1.4527  0.4597
 8135SOL     OW35866   0.813   2.499   1.439 -0.0524  0.0005 -0.3239
 8135SOL    HW135867   0.876   2.525   1.506 -0.9214  2.4955 -0.4741
 8135SOL    HW235868   0.742   2.563   1.438 -0.3224 -0.2948 -0.0672
 8136SOL     OW35869   4.115   0.330   6.868  0.0107  0.4119 -0.5444
 8136SOL    HW135870   4.183   0.314   6.804  0.7526 -0.9641  0.5880
 8136SOL    HW235871   4.065   0.396   6.820  0.3947  0.4579 -0.8735
 8137SOL     OW35872   4.563   3.250  10.557 -0.1148 -0.1587 -0.5048
 8137SOL    HW135873   4.602   3.329  10.519  1.0086  0.0182  1.0123
 8137SOL    HW235874   4.545   3.280  10.646 -0.7713  1.2954 -1.1298
 8138SOL     OW35875   0.392   2.473  12.148  0.4543 -0.0265 -0.0697
 8138SOL    HW135876   0.300   2.488  12.126  0.2202  0.0532  0.9575
 8138SOL    HW235877   0.399   2.386  12.109 -3.8609 -0.5218  0.2337
 8139SOL     OW35878   2.949   4.165   8.354  0.0181 -0.2731  0.5364
 8139SOL    HW135879   2.927   4.075   8.376 -0.3674 -0.2435  0.2623
 8139SOL    HW235880   2.894   4.218   8.412  0.9857  0.0032  1.2048
 8140SOL     OW35881   4.399   4.235   5.332 -0.3718 -0.0362  0.5376
 8140SOL    HW135882   4.486   4.275   5.341 -1.7568  2.4829  2.6876
 8140SOL    HW235883   4.355   4.287   5.399  0.1644  2.1954 -0.8345
 8141SOL     OW35884   3.373   1.608   5.690 -0.3880  0.2870 -0.1033
 8141SOL    HW135885   3.434   1.536   5.675  1.7898  0.7611  6.3509
 8141SOL    HW235886   3.361   1.623   5.597 -1.3957 -3.1593 -0.5292
 8142SOL     OW35887   1.811   4.267   5.167  0.8170 -0.7028 -0.3301
 8142SOL    HW135888   1.736   4.214   5.193  0.7826 -1.4648 -2.0152
 8142SOL    HW235889   1.823   4.318   5.247 -3.2845 -1.0281  0.4774
 8143SOL     OW35890   1.524   2.815   5.732  0.1174  0.4361  0.1410
 8143SOL    HW135891   1.597   2.870   5.704 -0.2353  0.3847 -0.9012
 8143SOL    HW235892   1.535   2.814   5.827 -0.5538 -2.2097  0.1763
 8144SOL     OW35893   0.408   3.717   5.510 -0.2149 -0.3918 -0.0349
 8144SOL    HW135894   0.368   3.682   5.589  0.5792  2.0353  1.4363
 8144SOL    HW235895   0.330   3.766   5.483  0.5533  0.9807  0.2526
 8145SOL     OW35896   1.005   2.765   2.316 -0.0615  0.2474 -0.1393
 8145SOL    HW135897   1.049   2.832   2.263  0.9672 -2.6054 -2.8630
 8145SOL    HW235898   1.048   2.764   2.402 -2.1874 -0.8262  0.9030
 8146SOL     OW35899   3.609   2.814   2.848  0.6098 -0.0189 -0.1176
 8146SOL    HW135900   3.684   2.867   2.821 -0.9703  1.8701 -0.8019
 8146SOL    HW235901   3.554   2.882   2.886  0.8219  0.4070 -0.5785
 8147SOL     OW35902   4.388   1.562   8.816  0.2160 -0.2214 -0.2380
 8147SOL    HW135903   4.300   1.528   8.803  0.7862 -0.5501 -3.2200
 8147SOL    HW235904   4.377   1.657   8.805 -0.9434 -0.3482 -0.2001
 8148SOL     OW35905   2.941   1.465   0.070  0.8122 -0.4120  0.5160
 8148SOL    HW135906   2.885   1.411   0.014  0.8913 -0.0783  0.1166
 8148SOL    HW235907   3.019   1.457   0.016 -0.0710 -1.6565 -0.5730
 8149SOL     OW35908   1.506   3.707  11.802  0.6426  0.6219 -0.4915
 8149SOL    HW135909   1.529   3.685  11.893 -1.8850 -0.0372 -0.0026
 8149SOL    HW235910   1.452   3.784  11.820 -1.1185 -0.1792 -2.3403
 8150SOL     OW35911   2.460   3.602   8.256  0.1735 -0.3126  0.1141
 8150SOL    HW135912   2.425   3.516   8.277  0.5472 -0.8693 -1.6293
 8150SOL    HW235913   2.433   3.604   8.165  0.4127 -2.3492  0.0063
 8151SOL     OW35914   2.314   1.842   2.671 -0.1904 -0.3563  0.0109
 8151SOL    HW135915   2.330   1.773   2.606 -0.3599 -0.1329 -0.2699
 8151SOL    HW235916   2.365   1.915   2.634  0.1053  0.6882  2.5238
 8152SOL     OW35917   2.163   0.814   3.955  0.0203 -0.5345 -0.4639
 8152SOL    HW135918   2.138   0.805   3.864 -1.7998  0.7313 -0.0832
 8152SOL    HW235919   2.118   0.895   3.977  0.7207 -1.0862  3.0799
 8153SOL     OW35920   1.540   1.233   5.449  0.0961  0.2138 -0.4765
 8153SOL    HW135921   1.471   1.264   5.508  0.6529 -0.8856  0.7399
 8153SOL    HW235922   1.506   1.144   5.446  0.0073  0.1888  1.5412
 8154SOL     OW35923   3.614   1.229  14.672  0.3381  0.3301 -0.1284
 8154SOL    HW135924   3.541   1.240  14.611 -1.0950 -1.8402  1.1771
 8154SOL    HW235925   3.666   1.158  14.635  2.6618  3.0319 -2.0614
 8155SOL     OW35926   1.890   2.874   3.592  0.5839  0.8217 -0.5220
 8155SOL    HW135927   1.883   2.857   3.498  0.1183  2.4617 -0.7791
 8155SOL    HW235928   1.978   2.839   3.607  0.0453 -0.3730 -0.1146
 8156SOL     OW35929   2.488   4.681  10.674 -0.2665  0.3401 -0.3989
 8156SOL    HW135930   2.564   4.624  10.659 -1.2248 -1.2348  0.8053
 8156SOL    HW235931   2.446   4.653  10.593  0.2292 -1.5551 -0.0146
 8157SOL     OW35932   2.144   0.014   3.716 -0.1176  0.1350 -0.6153
 8157SOL    HW135933   2.144   0.108   3.704 -1.4385  0.2245  0.0604
 8157SOL    HW235934   2.115   4.714   3.627  0.8147 -0.3078 -0.8061
 8158SOL     OW35935   0.468   2.280  13.750 -0.0947  0.4509  0.1765
 8158SOL    HW135936   0.431   2.332  13.822 -1.7361  0.9384 -1.0365
 8158SOL    HW235937   0.525   2.349  13.716  0.7924  0.4973  1.7422
 8159SOL     OW35938   2.807   4.011   8.755 -0.1035  0.4770 -0.1211
 8159SOL    HW135939   2.781   3.920   8.763  0.3094  0.4505  0.8323
 8159SOL    HW235940   2.806   4.038   8.846  1.8877 -0.9507  0.3034
 8160SOL     OW35941   3.550   1.188   6.995  0.0442 -0.2669  0.8615
 8160SOL    HW135942   3.517   1.139   7.070 -1.7556 -1.7336 -0.8807
 8160SOL    HW235943   3.563   1.118   6.932  0.8955  0.6718 -0.0128
 8161SOL     OW35944   1.815   4.631   4.301 -0.3460 -0.0728  0.5302
 8161SOL    HW135945   1.878   4.622   4.373  1.7567 -1.7101 -1.5157
 8161SOL    HW235946   1.860   4.600   4.222  0.5715 -1.1178  1.4602
 8162SOL     OW35947   2.013   2.896  16.803  0.4260 -0.0429  0.6029
 8162SOL    HW135948   1.951   2.831  16.769  0.3736  0.2308  0.1797
 8162SOL    HW235949   1.962   2.943  16.869 -1.8612  0.9719 -1.9109
 8163SOL     OW35950   0.278   3.877   4.840  0.0717  0.4831  0.0648
 8163SOL    HW135951   0.270   3.971   4.828 -0.2102  0.6419  1.4725
 8163SOL    HW235952   0.238   3.851   4.757  0.8914  2.4946 -0.9585
 8164SOL     OW35953   3.924   3.097  14.216  0.2667 -0.1492 -0.3532
 8164SOL    HW135954   3.841   3.050  14.207 -0.1959  0.4902  0.5902
 8164SOL    HW235955   3.981   3.074  14.143 -1.3683  2.8164 -2.5881
 8165SOL     OW35956   0.130   2.170   6.493 -0.2916  0.0404  0.2521
 8165SOL    HW135957   0.052   2.127   6.458  0.1735 -0.6305  0.0444
 8165SOL    HW235958   0.089   2.211   6.569 -0.2811  0.5307 -0.0088
 8166SOL     OW35959   0.154   3.170   0.291 -0.1980  0.4159  0.1720
 8166SOL    HW135960   0.107   3.251   0.311 -0.0977  0.6139 -0.3928
 8166SOL    HW235961   0.115   3.159   0.204  0.2264 -0.5800  0.1041
 8167SOL     OW35962   1.879   4.338  12.154 -0.1143 -0.3363 -0.3296
 8167SOL    HW135963   1.808   4.300  12.206 -0.9346 -0.4864 -1.5656
 8167SOL    HW235964   1.860   4.431  12.162  0.3620 -0.3317  0.7709
 8168SOL     OW35965   1.001   1.383   3.938  0.2776 -0.4965  0.0475
 8168SOL    HW135966   1.005   1.405   3.844 -0.5211  1.9542  0.5854
 8168SOL    HW235967   0.938   1.451   3.962 -1.8722 -2.3073 -0.4752
 8169SOL     OW35968   2.111   0.591   5.382 -0.2118 -0.3762  0.5332
 8169SOL    HW135969   2.088   0.576   5.290 -0.0676 -3.8226  1.0517
 8169SOL    HW235970   2.027   0.629   5.408 -0.6220  0.2512 -1.7186
 8170SOL     OW35971   4.143   0.079  15.807 -0.4327  0.4766  0.0607
 8170SOL    HW135972   4.076   0.106  15.745 -3.0818 -2.1730  1.7548
 8170SOL    HW235973   4.113   4.712  15.826  0.6153  0.4780  1.7339
 8171SOL     OW35974   3.447   2.286   3.542  0.3759 -0.3356  0.0913
 8171SOL    HW135975   3.368   2.295   3.488 -0.0190  1.2803  0.9423
 8171SOL    HW235976   3.455   2.191   3.541 -1.1689 -0.4649  0.4571
 8172SOL     OW35977   1.829   0.885   9.461 -0.2162  0.0805 -0.4831
 8172SOL    HW135978   1.751   0.930   9.429 -0.7857 -1.5775 -1.4192
 8172SOL    HW235979   1.892   0.957   9.466  1.3506 -1.4756  2.5924
 8173SOL     OW35980   1.630   3.963   3.598 -0.2699  0.0861 -0.4666
 8173SOL    HW135981   1.639   3.898   3.668  0.0681 -1.2085 -1.7132
 8173SOL    HW235982   1.645   4.040   3.652 -0.2812 -0.7164  0.6769
 8174SOL     OW35983   2.578   1.654  17.418  0.1368 -0.3134  0.2340
 8174SOL    HW135984   2.614   1.621  17.500  1.3317  2.8715  0.9854
 8174SOL    HW235985   2.650   1.633  17.359  0.6638  0.8895  0.4483
 8175SOL     OW35986   0.272   0.036  15.013 -0.0138  0.1603  0.8776
 8175SOL    HW135987   0.182   0.034  14.980  0.8823 -0.3480 -1.5642
 8175SOL    HW235988   0.266   4.703  15.090 -3.0557 -0.7746 -0.0150
 8176SOL     OW35989   2.797   0.237   2.057  0.4527  0.3668  0.3075
 8176SOL    HW135990   2.874   0.287   2.031 -0.4382  0.5756 -1.9702
 8176SOL    HW235991   2.728   0.302   2.041  0.4679  0.6909  1.6116
 8177SOL     OW35992   4.087   3.071   2.872 -0.0039  0.5844  0.5543
 8177SOL    HW135993   4.024   3.138   2.846  3.3078  2.2659 -3.1365
 8177SOL    HW235994   4.151   3.083   2.802 -0.5103 -0.1318 -0.0389
 8178SOL     OW35995   4.396   4.343  15.508 -0.0489 -0.1110 -0.5829
 8178SOL    HW135996   4.485   4.362  15.478  0.3122 -1.3724 -0.3061
 8178SOL    HW235997   4.372   4.435  15.513  0.8434  0.0234  0.9494
 8179SOL     OW35998   1.695   1.656  12.010 -0.2601 -0.3990  0.6487
 8179SOL    HW135999   1.776   1.622  12.047 -0.3046 -0.3989  0.7443
 8179SOL    HW236000   1.689   1.599  11.933  1.5979  0.5600 -0.2181
 8180SOL     OW36001   2.215   3.652   3.494 -0.1558 -0.0677  0.2121
 8180SOL    HW136002   2.136   3.707   3.491  1.3855  2.0689 -1.4350
 8180SOL    HW236003   2.182   3.579   3.443 -0.5185 -0.3286  0.8161
 8181SOL     OW36004   1.430   4.173   2.995  0.4900 -0.3713  0.5269
 8181SOL    HW136005   1.502   4.231   3.021  1.4623 -1.0967 -0.5674
 8181SOL    HW236006   1.360   4.232   2.967 -0.2638 -1.2055  0.6563
 8182SOL     OW36007   2.545   1.601   7.916 -1.1391  0.1189  0.0349
 8182SOL    HW136008   2.539   1.693   7.939  0.6964  0.0809  0.6490
 8182SOL    HW236009   2.534   1.613   7.821 -3.0749  1.9830  0.5022
 8183SOL     OW36010   4.130   2.995  12.598 -0.4119  0.0021  0.7346
 8183SOL    HW136011   4.188   3.017  12.671 -1.1116  1.9667  0.7005
 8183SOL    HW236012   4.189   2.932  12.556  0.2659  1.4487 -0.5009
 8184SOL     OW36013   4.614   0.330  10.453 -0.1843  0.1685  0.2218
 8184SOL    HW136014   4.551   0.400  10.435 -2.3843 -1.5698  1.1913
 8184SOL    HW236015   4.688   0.359  10.399 -0.0478  0.1304  0.3854
 8185SOL     OW36016   2.786   3.521   0.435 -0.3505 -0.1418 -0.1224
 8185SOL    HW136017   2.763   3.522   0.528 -1.6749 -0.7000 -0.4440
 8185SOL    HW236018   2.735   3.598   0.410  1.5111  0.4955 -1.8776
 8186SOL     OW36019   4.598   0.479   3.016 -0.1608  0.1246 -0.1733
 8186SOL    HW136020   4.564   0.425   3.089  0.3346  1.8941  1.3542
 8186SOL    HW236021   4.547   0.451   2.940  0.1920  1.4166 -0.8665
 8187SOL     OW36022   4.168   2.906   7.835 -0.3044 -0.2003 -0.2362
 8187SOL    HW136023   4.096   2.966   7.813 -0.4019  0.0049  0.6532
 8187SOL    HW236024   4.133   2.823   7.802 -0.6592 -0.4010  0.6417
 8188SOL     OW36025   1.824   0.230  17.628  0.1764 -0.2311  0.1495
 8188SOL    HW136026   1.831   0.172  17.553  2.2724 -2.1409  1.8344
 8188SOL    HW236027   1.741   0.267  17.598 -1.1159 -2.2854  1.2307
 8189SOL     OW36028   2.610   3.221   1.097  0.4359 -0.0698 -0.1122
 8189SOL    HW136029   2.680   3.157   1.099 -1.5211 -2.2548 -1.3667
 8189SOL    HW236030   2.550   3.183   1.033  0.0165  0.2535  0.0816
 8190SOL     OW36031   1.601   0.347  17.531  0.1921  0.1666  0.4726
 8190SOL    HW136032   1.559   0.369  17.448  0.7277  0.0290  0.1640
 8190SOL    HW236033   1.598   0.437  17.566  1.2216  0.0583  0.8408
 8191SOL     OW36034   1.796   1.225   7.301 -0.1112 -0.5520 -0.0992
 8191SOL    HW136035   1.751   1.152   7.345 -0.7076  1.4064  2.5398
 8191SOL    HW236036   1.737   1.247   7.228  0.9494  0.1889 -0.7229
 8192SOL     OW36037   2.058   4.544   3.916 -0.3278 -0.0968  0.8652
 8192SOL    HW136038   2.065   4.602   3.840 -1.4171 -0.4311  0.5029
 8192SOL    HW236039   2.029   4.605   3.983 -1.2911  0.2573  0.1459
 8193SOL     OW36040   0.489   1.367  16.311  0.1600  0.1861 -0.4568
 8193SOL    HW136041   0.567   1.353  16.365 -0.5145 -1.2493  0.1367
 8193SOL    HW236042   0.513   1.452  16.273 -1.2327  1.0143  0.4954
 8194SOL     OW36043   1.229   0.861   5.638 -0.0496 -0.1839  0.1310
 8194SOL    HW136044   1.254   0.950   5.612  4.5493 -1.0388  1.6417
 8194SOL    HW236045   1.263   0.809   5.566 -1.4700 -0.1695 -0.5428
 8195SOL     OW36046   2.645   0.965  12.529 -0.2788 -0.1505 -0.1277
 8195SOL    HW136047   2.710   0.963  12.458 -0.5910  1.5713 -0.4502
 8195SOL    HW236048   2.567   0.934  12.483 -1.5275  1.4772  0.9075
 8196SOL     OW36049   0.296   2.752  14.940 -0.5666  0.4808  0.1986
 8196SOL    HW136050   0.362   2.713  14.997 -0.6940 -1.4982 -0.9927
 8196SOL    HW236051   0.270   2.830  14.989  0.6973 -0.1873  1.9084
 8197SOL     OW36052   4.272   1.365   1.086 -0.4245  0.3210 -0.8498
 8197SOL    HW136053   4.327   1.437   1.116 -0.6158 -0.1262  0.5502
 8197SOL    HW236054   4.242   1.325   1.167  0.0585  0.1076 -0.7818
 8198SOL     OW36055   2.025   3.124  10.575  0.1456 -0.0702 -0.0334
 8198SOL    HW136056   2.091   3.173  10.623  0.0890  0.4020 -0.4433
 8198SOL    HW236057   1.983   3.182  10.513  0.1951  0.4981  0.4651
 8199SOL     OW36058   0.235   1.947  10.307 -0.4983  0.3791  0.3666
 8199SOL    HW136059   0.226   2.015  10.240  0.4576  0.6273  0.4926
 8199SOL    HW236060   0.234   2.004  10.384  2.5632  1.5447 -0.4672
 8200SOL     OW36061   1.740   1.795   6.467  0.2661 -0.9010 -0.9375
 8200SOL    HW136062   1.707   1.853   6.399  1.6776  1.9643  0.8043
 8200SOL    HW236063   1.835   1.801   6.462  0.2989 -1.3602 -0.8573
 8201SOL     OW36064   4.041   1.149  11.864  0.5338  0.3154  0.3732
 8201SOL    HW136065   3.960   1.121  11.907  0.0252  0.9712 -0.1646
 8201SOL    HW236066   4.031   1.240  11.835  1.8175 -0.3878 -2.3078
 8202SOL     OW36067   0.551   2.540  15.616  0.0236  0.0383 -0.7255
 8202SOL    HW136068   0.456   2.526  15.610  0.3622 -2.2426 -0.5964
 8202SOL    HW236069   0.568   2.521  15.708 -0.8189  1.9010 -0.1847
 8203SOL     OW36070   3.165   4.497  12.132 -0.4172 -0.0326  0.3396
 8203SOL    HW136071   3.180   4.498  12.037 -0.8913 -1.8146  0.2504
 8203SOL    HW236072   3.116   4.579  12.137 -1.1113 -0.3486 -1.0251
 8204SOL     OW36073   1.066   2.040   0.232  0.0101 -0.3784 -0.1136
 8204SOL    HW136074   1.149   2.069   0.268 -0.6636  0.5143  0.7398
 8204SOL    HW236075   1.063   2.114   0.171 -3.0914 -0.3893  0.0165
 8205SOL     OW36076   3.461   3.123   7.665 -0.8432  0.4870  0.0501
 8205SOL    HW136077   3.525   3.052   7.664  0.4536  1.6097  2.6615
 8205SOL    HW236078   3.397   3.091   7.602  0.2944 -0.3538 -0.6866
 8206SOL     OW36079   1.545   2.417   6.086 -0.2025  0.1698  0.0166
 8206SOL    HW136080   1.550   2.501   6.041  0.7861 -1.4726 -2.9053
 8206SOL    HW236081   1.455   2.389   6.067  1.0315 -3.2392 -0.8299
 8207SOL     OW36082   0.409   2.465  17.099 -0.7487 -0.3015  0.1711
 8207SOL    HW136083   0.395   2.558  17.118 -1.9161 -0.1137 -1.5797
 8207SOL    HW236084   0.504   2.470  17.095 -0.6133 -1.7127  1.7536
 8208SOL     OW36085   4.488   3.435   2.296 -0.6029 -0.1616 -0.5023
 8208SOL    HW136086   4.584   3.429   2.288 -0.7070  0.4893 -2.1366
 8208SOL    HW236087   4.477   3.348   2.335 -0.6446 -0.2368 -0.6832
 8209SOL     OW36088   0.951   2.857   4.405 -0.4157  0.6851  0.0305
 8209SOL    HW136089   0.886   2.887   4.469 -1.1306 -1.2815  0.2279
 8209SOL    HW236090   1.001   2.938   4.397 -2.5000  1.7567 -1.9713
 8210SOL     OW36091   4.450   2.488   4.868  0.2370  0.0812 -0.3366
 8210SOL    HW136092   4.445   2.580   4.893 -0.4233 -0.0727  0.0914
 8210SOL    HW236093   4.367   2.464   4.909  1.1802  0.7013  1.9536
 8211SOL     OW36094   2.961   3.059   5.710 -0.4942 -0.5427 -0.6611
 8211SOL    HW136095   3.028   3.079   5.776 -2.7997 -2.2376  2.1885
 8211SOL    HW236096   3.010   3.013   5.641 -0.1133 -1.2218  0.0599
 8212SOL     OW36097   1.674   4.312  16.284  0.1844 -0.0882  0.3582
 8212SOL    HW136098   1.611   4.289  16.215 -0.3722 -1.6333  1.3729
 8212SOL    HW236099   1.761   4.315  16.245  0.9527 -0.1097  2.0519
 8213SOL     OW36100   3.848   3.485  13.842  0.1627 -0.4068  0.4745
 8213SOL    HW136101   3.793   3.419  13.798 -1.9748  1.2350  0.6649
 8213SOL    HW236102   3.881   3.542  13.773 -0.4271  0.4357  0.8946
 8214SOL     OW36103   4.158   3.204   1.564 -0.1297 -0.3277  0.0015
 8214SOL    HW136104   4.120   3.255   1.492  0.1630  0.1555  0.1916
 8214SOL    HW236105   4.120   3.259   1.633  0.5278  0.6672 -0.4173
 8215SOL     OW36106   1.339   2.339   0.887 -0.5122  0.6863  0.0314
 8215SOL    HW136107   1.335   2.253   0.928 -0.1347  1.4404  1.6429
 8215SOL    HW236108   1.301   2.388   0.960 -1.8322 -3.9523  2.4682
 8216SOL     OW36109   0.456   2.904   4.895 -0.3157 -0.4008  0.1334
 8216SOL    HW136110   0.420   2.992   4.882 -0.9968 -0.5823  0.7883
 8216SOL    HW236111   0.424   2.856   4.819 -0.5643 -0.2078  0.1173
 8217SOL     OW36112   0.691   2.413  17.151  0.0847  0.0284  0.3492
 8217SOL    HW136113   0.667   2.404  17.243  3.6365 -0.1565  1.2534
 8217SOL    HW236114   0.764   2.351  17.153  0.1946  0.1255 -0.7227
 8218SOL     OW36115   2.530   1.791   4.291 -0.6416  0.1779  0.1969
 8218SOL    HW136116   2.565   1.721   4.235 -0.3699 -0.1754  0.7967
 8218SOL    HW236117   2.516   1.858   4.225 -2.3326 -0.1128  0.2836
 8219SOL     OW36118   2.046   1.850   1.649 -0.4009  0.0391 -0.4513
 8219SOL    HW136119   1.958   1.814   1.634 -0.9667  1.0743  0.3756
 8219SOL    HW236120   2.102   1.814   1.580  1.4339  0.6842  0.7106
 8220SOL     OW36121   3.646   1.971  12.204 -0.1530 -0.3903  0.4709
 8220SOL    HW136122   3.725   2.006  12.163 -0.0749  0.0435  0.9847
 8220SOL    HW236123   3.627   2.034  12.274 -1.8585 -0.7298  0.3135
 8221SOL     OW36124   4.535   1.230   4.787  0.2222 -0.7536 -0.4974
 8221SOL    HW136125   4.463   1.188   4.835  0.6550 -1.3972 -0.4175
 8221SOL    HW236126   4.561   1.160   4.727 -0.2896 -1.2564 -0.1288
 8222SOL     OW36127   2.739   4.181   7.242 -0.0380 -0.2147 -0.6713
 8222SOL    HW136128   2.660   4.127   7.250  0.3880 -0.8175 -0.5991
 8222SOL    HW236129   2.763   4.179   7.334  1.3021  0.5403 -1.0028
 8223SOL     OW36130   0.834   2.632   2.063 -0.1046  0.0180  0.5575
 8223SOL    HW136131   0.822   2.543   2.030 -0.9819  1.2401 -2.3901
 8223SOL    HW236132   0.927   2.633   2.043 -0.4136  0.9289 -0.7910
 8224SOL     OW36133   2.126   2.669  10.331  0.2123  0.4090  0.3856
 8224SOL    HW136134   2.133   2.733  10.403  2.3516 -0.9419  1.3825
 8224SOL    HW236135   2.071   2.602  10.371  0.1964  0.7866  0.9998
 8225SOL     OW36136   3.342   2.134   2.613  0.1923 -0.1061 -0.1951
 8225SOL    HW136137   3.323   2.082   2.692  0.1721 -1.7630 -1.2896
 8225SOL    HW236138   3.429   2.165   2.637 -0.5238  1.1987  0.7715
 8226SOL     OW36139   0.660   4.041   1.796  0.3024 -0.1763 -0.1750
 8226SOL    HW136140   0.701   4.123   1.768  0.7933  0.0226  1.1304
 8226SOL    HW236141   0.574   4.072   1.824  0.3719 -0.5707  0.4724
 8227SOL     OW36142   3.798   0.439   8.715  0.1649  0.0087  0.1848
 8227SOL    HW136143   3.831   0.350   8.707 -1.3990 -0.5845  0.2554
 8227SOL    HW236144   3.815   0.468   8.626  0.4825 -0.2239  0.1698
 8228SOL     OW36145   2.807   2.673   3.404  0.0481 -0.3611 -0.0557
 8228SOL    HW136146   2.854   2.751   3.435 -0.6131 -0.1152  0.3302
 8228SOL    HW236147   2.721   2.679   3.446 -0.4222  1.3940 -1.2796
 8229SOL     OW36148   1.430   1.298   4.124 -0.3529  0.5495  0.0558
 8229SOL    HW136149   1.440   1.222   4.181  2.4015 -1.0897 -2.5942
 8229SOL    HW236150   1.422   1.368   4.188  0.0370 -1.7094  2.5687
 8230SOL     OW36151   0.768   2.540   0.902 -0.2506  0.0595 -0.0898
 8230SOL    HW136152   0.702   2.499   0.846 -1.8508  1.2416  0.9468
 8230SOL    HW236153   0.728   2.515   0.985 -0.7419  0.4962 -0.2004
 8231SOL     OW36154   4.354   0.490   3.605  0.0183  0.1369 -0.0276
 8231SOL    HW136155   4.384   0.456   3.689 -0.4371 -1.5036 -0.5195
 8231SOL    HW236156   4.355   0.583   3.625  4.6969  0.1620 -0.5338
 8232SOL     OW36157   3.906   2.340  12.417  0.3676  0.3183  0.1173
 8232SOL    HW136158   3.964   2.367  12.346  1.2058  1.2515  1.1432
 8232SOL    HW236159   3.908   2.423  12.465 -1.8210  0.2978  0.2531
 8233SOL     OW36160   0.335   3.981   8.699 -0.8095  0.7631  0.0710
 8233SOL    HW136161   0.263   3.920   8.716 -0.3690  0.2208  0.0168
 8233SOL    HW236162   0.315   4.060   8.749 -1.1456 -0.1555  1.3651
 8234SOL     OW36163   1.566   3.821  12.852  0.6346 -0.1411 -0.4292
 8234SOL    HW136164   1.653   3.861  12.851  1.4596 -2.0144 -2.1599
 8234SOL    HW236165   1.533   3.872  12.926  0.0438  3.0411 -2.8629
 8235SOL     OW36166   3.946   4.382  12.574 -0.2220  0.1355 -0.3010
 8235SOL    HW136167   3.979   4.447  12.512 -0.3254 -0.3402 -0.8594
 8235SOL    HW236168   3.890   4.333  12.513  1.5162 -0.3518 -1.4839
 8236SOL     OW36169   0.121   3.922   4.400 -0.0667  0.0064  0.6724
 8236SOL    HW136170   0.147   3.847   4.454 -1.2296 -0.3542  0.7300
 8236SOL    HW236171   0.139   3.887   4.313 -0.5296  1.3556  0.0507
 8237SOL     OW36172   0.085   0.009   3.521  0.4985  0.2617 -0.3541
 8237SOL    HW136173   0.091   0.102   3.539 -0.7020  0.4180 -0.7727
 8237SOL    HW236174   0.060   4.703   3.608 -0.1684  1.0155 -0.3072
 8238SOL     OW36175   4.577   4.238   3.194  0.0411 -0.0755  0.1981
 8238SOL    HW136176   4.545   4.245   3.104  1.5119  1.4898 -0.2071
 8238SOL    HW236177   4.581   4.143   3.197  0.2218 -0.1356 -2.1782
 8239SOL     OW36178   0.827   1.482  15.886 -0.3390  0.2473 -0.0844
 8239SOL    HW136179   0.810   1.463  15.794  2.4614 -0.0390 -0.5641
 8239SOL    HW236180   0.809   1.576  15.895  1.8384  0.8380 -1.6145
 8240SOL     OW36181   0.748   0.921  11.745  0.3228  0.2169 -0.3351
 8240SOL    HW136182   0.810   0.980  11.788 -0.6079  1.8266 -1.1903
 8240SOL    HW236183   0.815   0.855  11.726  0.1320 -0.2843  0.7337
 8241SOL     OW36184   2.502   4.511   7.578  0.3555 -0.0284  0.2093
 8241SOL    HW136185   2.478   4.423   7.549  0.9343 -0.3577  0.7292
 8241SOL    HW236186   2.435   4.528   7.643 -0.8433  0.0167 -1.0445
 8242SOL     OW36187   1.553   0.891   7.686 -0.1661 -0.0311 -0.2684
 8242SOL    HW136188   1.636   0.847   7.702 -0.4530 -0.6396 -0.4491
 8242SOL    HW236189   1.550   0.888   7.590 -0.5465  0.0310 -0.2601
 8243SOL     OW36190   0.719   3.956  13.657  0.5368  0.3182  0.0597
 8243SOL    HW136191   0.630   3.988  13.640  0.2170 -0.9721 -0.6773
 8243SOL    HW236192   0.759   4.042  13.670 -0.9204  1.2469 -1.5250
 8244SOL     OW36193   3.290   1.376   3.283 -0.0726  0.0032  0.3937
 8244SOL    HW136194   3.302   1.366   3.188  0.2551 -1.0570  0.5541
 8244SOL    HW236195   3.209   1.330   3.304  0.1666 -0.6566 -0.1267
 8245SOL     OW36196   3.046   2.886   3.453 -0.2499  0.7294 -0.6371
 8245SOL    HW136197   3.030   2.950   3.385  0.0755  1.7098  0.2079
 8245SOL    HW236198   3.126   2.841   3.425 -1.3542 -0.9775 -1.0726
 8246SOL     OW36199   1.652   4.187   7.618 -0.0136 -0.0687  0.3846
 8246SOL    HW136200   1.729   4.190   7.675  1.5229  0.1568 -1.7129
 8246SOL    HW236201   1.598   4.245   7.671  0.8687 -0.4519  1.7008
 8247SOL     OW36202   4.159   1.981   6.433 -0.4467 -0.1340  0.0339
 8247SOL    HW136203   4.086   2.006   6.377  0.3168  0.5815 -0.6344
 8247SOL    HW236204   4.105   1.977   6.513  1.3589 -0.9922  1.2111
 8248SOL     OW36205   3.715   3.955   4.555 -0.0818  0.3186 -0.4066
 8248SOL    HW136206   3.732   3.870   4.515  0.4947  0.5453 -0.6285
 8248SOL    HW236207   3.619   3.965   4.554 -0.0365  0.6263 -1.8032
 8249SOL     OW36208   4.074   1.170   5.713 -0.0205  0.2493 -0.1926
 8249SOL    HW136209   4.084   1.179   5.808  1.8671  0.3406 -0.3944
 8249SOL    HW236210   3.986   1.132   5.711 -0.3980  1.0662  0.6587
 8250SOL     OW36211   1.142   2.898   0.889 -0.6432 -0.7830  0.3594
 8250SOL    HW136212   1.104   2.816   0.856  1.0896 -2.3096  2.1455
 8250SOL    HW236213   1.216   2.863   0.938 -0.8058 -0.3480  0.9138
 8251SOL     OW36214   4.611   2.863  10.270 -0.0170 -0.2179 -0.3654
 8251SOL    HW136215   4.536   2.922  10.276  0.5768  0.4046  0.9363
 8251SOL    HW236216   4.658   2.891  10.349  2.2385 -0.8780 -1.4779
 8252SOL     OW36217   3.028   1.005   4.177  0.5194 -0.0235 -0.0516
 8252SOL    HW136218   3.017   1.039   4.088 -0.0935 -0.2344 -0.0544
 8252SOL    HW236219   2.960   1.055   4.223 -0.4406 -1.2061 -0.1762
 8253SOL     OW36220   2.708   4.216   6.269  0.0252 -0.1196 -0.5420
 8253SOL    HW136221   2.714   4.130   6.311 -1.5527 -0.2346 -0.5397
 8253SOL    HW236222   2.741   4.273   6.338 -0.8325 -0.9486  0.5490
 8254SOL     OW36223   1.680   0.466  13.031 -0.4357  0.0348  0.5319
 8254SOL    HW136224   1.692   0.556  13.062 -0.8420 -0.3966  1.9750
 8254SOL    HW236225   1.761   0.425  13.063  0.2372 -0.0434 -1.2748
 8255SOL     OW36226   0.139   0.626  12.342  0.0417 -0.0745 -0.1652
 8255SOL    HW136227   0.179   0.647  12.257  1.0454  0.2813  0.3975
 8255SOL    HW236228   0.090   0.706  12.364  0.4933  0.0460  0.3822
 8256SOL     OW36229   1.318   1.300   3.891  0.1174 -0.0595 -0.3291
 8256SOL    HW136230   1.237   1.344   3.917  0.3804 -0.4247  1.0866
 8256SOL    HW236231   1.361   1.312   3.975 -1.6304  0.0878  0.5450
 8257SOL     OW36232   3.190   3.290   7.473  0.2727 -0.7554  0.4598
 8257SOL    HW136233   3.278   3.295   7.512 -1.2604  0.2891  3.7533
 8257SOL    HW236234   3.142   3.225   7.523 -1.7414  1.7452  1.7303
 8258SOL     OW36235   3.581   4.235   8.768  0.2295 -0.4015 -0.2256
 8258SOL    HW136236   3.616   4.148   8.750 -0.7051 -0.3673 -2.1837
 8258SOL    HW236237   3.646   4.296   8.732  1.1509 -1.2068  0.0858
 8259SOL     OW36238   3.164   4.209   6.580 -0.2635  0.2398  0.2088
 8259SOL    HW136239   3.119   4.239   6.659  0.1331  1.4078 -0.0063
 8259SOL    HW236240   3.211   4.290   6.562 -1.4069  1.7194  4.0101
 8260SOL     OW36241   0.030   0.532   7.778 -0.5536 -0.4014  0.0778
 8260SOL    HW136242   0.045   0.482   7.858  2.0231 -0.5737 -0.5070
 8260SOL    HW236243   0.107   0.514   7.723 -0.0279  0.7503  0.4265
 8261SOL     OW36244   0.704   4.265   6.044  0.3010  0.2611 -0.2195
 8261SOL    HW136245   0.736   4.175   6.048  0.1026  0.2045  0.0783
 8261SOL    HW236246   0.655   4.281   6.124 -0.8785 -0.2726 -0.8461
 8262SOL     OW36247   2.227   2.315   1.237 -0.9353 -0.0793 -0.3953
 8262SOL    HW136248   2.257   2.405   1.223 -0.5255  0.0199  1.1457
 8262SOL    HW236249   2.204   2.313   1.330 -1.0359  0.9277 -0.3988
 8263SOL     OW36250   1.895   3.320   7.259  0.0845 -0.0511  0.5158
 8263SOL    HW136251   1.806   3.290   7.241  0.2593 -0.6487  0.6388
 8263SOL    HW236252   1.870   3.411   7.268  2.5772  0.7929 -1.0342
 8264SOL     OW36253   1.281   2.019   4.144  0.0536  0.0802  0.0059
 8264SOL    HW136254   1.329   1.982   4.218 -0.4315  0.5678  0.5568
 8264SOL    HW236255   1.260   2.109   4.170 -0.5795  0.2633 -1.1125
 8265SOL     OW36256   3.210   2.948   0.287  0.3347 -0.2158 -0.1317
 8265SOL    HW136257   3.136   2.973   0.343  1.6896  0.0317  1.5458
 8265SOL    HW236258   3.196   3.022   0.227  0.5536  0.5551  0.7595
 8266SOL     OW36259   0.397   1.775   5.777  0.0117  0.0551 -0.2753
 8266SOL    HW136260   0.326   1.726   5.820  2.1708 -2.6260  0.2039
 8266SOL    HW236261   0.467   1.710   5.779  1.0122  1.1827  1.1614
 8267SOL     OW36262   4.034   3.434   5.421  0.5838  0.4537  0.3768
 8267SOL    HW136263   4.100   3.479   5.474  1.4017 -0.5500  0.2223
 8267SOL    HW236264   3.965   3.500   5.424 -0.1752 -0.3906  1.4486
 8268SOL     OW36265   0.642   3.817  12.178  0.0260  0.8357 -0.6104
 8268SOL    HW136266   0.725   3.860  12.159 -1.0354  1.9869 -2.6221
 8268SOL    HW236267   0.672   3.727  12.174 -0.7575  0.4753  1.2926
 8269SOL     OW36268   3.473   3.548  15.327 -0.0348  0.2775  0.3184
 8269SOL    HW136269   3.484   3.619  15.263 -1.6437 -0.6832 -1.0312
 8269SOL    HW236270   3.424   3.587  15.399  2.5753  1.1166  1.6491
 8270SOL     OW36271   2.533   2.614   2.469  0.3336  0.1205 -0.2885
 8270SOL    HW136272   2.485   2.597   2.550  0.6717  1.9893  0.2990
 8270SOL    HW236273   2.501   2.701   2.447 -1.9084 -0.4061  0.8755
 8271SOL     OW36274   4.563   1.634   6.900 -0.0570  0.4912 -0.0328
 8271SOL    HW136275   4.630   1.651   6.966  0.9780 -1.3092 -0.6128
 8271SOL    HW236276   4.540   1.720   6.867  3.8717  1.5657  0.1133
 8272SOL     OW36277   0.871   2.571  14.764  0.4625  0.1546  0.4866
 8272SOL    HW136278   0.847   2.624  14.688 -0.0380  1.0940  1.2961
 8272SOL    HW236279   0.811   2.609  14.828  1.2687  1.0835  0.7083
 8273SOL     OW36280   0.801   1.515   5.064 -0.2648  0.0535  0.2131
 8273SOL    HW136281   0.783   1.441   5.005  0.2845  0.9332 -1.0600
 8273SOL    HW236282   0.717   1.517   5.111 -0.0166 -0.4129  0.6797
 8274SOL     OW36283   4.600   0.192  17.330  0.3433  0.2232 -0.2948
 8274SOL    HW136284   4.633   0.133  17.262 -2.9697 -1.5319 -0.3667
 8274SOL    HW236285   4.652   0.273  17.321  0.1633  0.4356  0.5583
 8275SOL     OW36286   3.322   2.611  11.133  0.6096  0.3170 -0.3162
 8275SOL    HW136287   3.340   2.611  11.227 -1.0162  2.3970  0.0014
 8275SOL    HW236288   3.356   2.522  11.129 -0.4858 -0.0057 -2.6327
 8276SOL     OW36289   3.890   3.080  15.921 -0.2157  0.3852  0.0790
 8276SOL    HW136290   3.927   2.994  15.902  1.2030  1.0625 -0.1877
 8276SOL    HW236291   3.963   3.141  15.917 -0.4005  0.7264  2.3985
 8277SOL     OW36292   1.051   2.127   5.066 -0.4606  0.6939 -0.1576
 8277SOL    HW136293   1.016   2.134   5.155 -0.3678  1.9137 -0.2172
 8277SOL    HW236294   1.112   2.052   5.066 -2.7687 -1.1883  0.0051
 8278SOL     OW36295   3.070   3.659   0.889 -0.1031  0.8017  0.5327
 8278SOL    HW136296   3.073   3.637   0.982  0.0861 -1.3153  0.0164
 8278SOL    HW236297   3.070   3.580   0.836  1.4524  1.4342 -0.4015
 8279SOL     OW36298   4.614   1.050   4.129 -0.1519  0.2677  0.2640
 8279SOL    HW136299   4.560   1.076   4.204  0.7457 -1.7357  1.6264
 8279SOL    HW236300   4.639   1.134   4.091  3.1196 -1.0086 -0.3946
 8280SOL     OW36301   0.948   0.107   8.847  0.7306 -0.0558 -0.4413
 8280SOL    HW136302   0.966   0.163   8.772 -0.2689  1.8476  0.7368
 8280SOL    HW236303   0.883   0.045   8.816  1.4988 -0.0799 -1.9796
 8281SOL     OW36304   1.066   2.720  15.817  0.2637  0.2310 -0.2694
 8281SOL    HW136305   0.984   2.763  15.840 -0.5112 -1.6180  0.4062
 8281SOL    HW236306   1.047   2.632  15.850 -1.0255  0.5738 -0.1153
 8282SOL     OW36307   0.539   3.419   9.332 -0.1471  0.2719  0.2679
 8282SOL    HW136308   0.622   3.446   9.293 -0.0758  0.7545  0.7403
 8282SOL    HW236309   0.563   3.384   9.418 -0.8121 -1.4304 -0.2407
 8283SOL     OW36310   0.416   4.720   7.199  0.2984  0.6995 -0.6838
 8283SOL    HW136311   0.339   0.043   7.164 -2.3546 -1.0431  2.9375
 8283SOL    HW236312   0.490   0.029   7.147  0.5895  0.2158 -0.5512
 8284SOL     OW36313   1.646   3.348   1.698  0.0790 -0.1302 -0.3452
 8284SOL    HW136314   1.622   3.270   1.649 -2.2548  0.9069 -0.8320
 8284SOL    HW236315   1.674   3.318   1.785  1.1935  3.4996  0.5762
 8285SOL     OW36316   0.888   1.362  10.504 -0.1579 -0.2032  0.4059
 8285SOL    HW136317   0.926   1.448  10.526  3.0099 -1.0894 -1.6307
 8285SOL    HW236318   0.796   1.360  10.533 -1.0010  1.3240 -2.1494
 8286SOL     OW36319   3.569   4.401   4.001  0.0356  0.2887 -0.4401
 8286SOL    HW136320   3.614   4.432   3.922 -0.6000  1.0953 -0.4755
 8286SOL    HW236321   3.479   4.423   3.977 -1.1506 -2.3560  1.5134
 8287SOL     OW36322   2.318   0.946   4.628  0.0845  0.1241 -0.0557
 8287SOL    HW136323   2.264   0.869   4.608  0.7442 -0.3632  0.0479
 8287SOL    HW236324   2.409   0.920   4.617 -0.3792 -0.9739 -1.1710
 8288SOL     OW36325   3.043   2.385  15.891  0.3978 -0.1713 -0.0422
 8288SOL    HW136326   3.015   2.301  15.927  0.6797  0.1083  0.8191
 8288SOL    HW236327   3.124   2.368  15.843  0.0014  0.7341 -1.0399
 8289SOL     OW36328   2.356   2.937   4.462 -0.2175 -0.4570  0.3182
 8289SOL    HW136329   2.372   2.881   4.538 -1.9005 -1.5242 -0.0955
 8289SOL    HW236330   2.307   2.996   4.519  0.8605 -0.1029  0.8707
 8290SOL     OW36331   0.779   0.297   5.320 -0.0674 -0.5406  0.0132
 8290SOL    HW136332   0.859   0.259   5.282  0.8961  0.9676  0.5378
 8290SOL    HW236333   0.807   0.320   5.409  0.8488 -0.4140 -0.3082
 8291SOL     OW36334   4.410   0.760  15.219 -0.0988 -0.4052 -0.1711
 8291SOL    HW136335   4.420   0.667  15.240  0.8351  0.4159  2.9753
 8291SOL    HW236336   4.395   0.759  15.124 -0.4066 -0.7205 -0.1209
 8292SOL     OW36337   4.596   1.056  13.060  0.0432  0.1247 -0.0334
 8292SOL    HW136338   4.557   0.969  13.067  3.1939 -1.5602 -3.4292
 8292SOL    HW236339   4.562   1.080  12.974  0.0840  1.5097  0.3363
 8293SOL     OW36340   2.728   4.322   5.014 -0.2931 -0.3929  0.2217
 8293SOL    HW136341   2.812   4.333   4.970 -0.6080 -1.6314 -0.7086
 8293SOL    HW236342   2.736   4.347   5.106  1.5164  0.2111 -0.1210
 8294SOL     OW36343   3.904   3.225   2.150 -0.0289 -0.2979  0.4802
 8294SOL    HW136344   3.832   3.168   2.122 -1.0170  0.3678  1.7203
 8294SOL    HW236345   3.890   3.302   2.095  3.0249  0.4788  0.7973
 8295SOL     OW36346   4.559   1.487  15.786 -0.0338 -0.2912 -0.1181
 8295SOL    HW136347   4.629   1.547  15.810 -1.6277  1.1187  1.0015
 8295SOL    HW236348   4.505   1.504  15.863 -0.9400 -0.5143 -0.7009
 8296SOL     OW36349   1.283   3.721   6.457  0.2392  1.0112 -0.2092
 8296SOL    HW136350   1.319   3.668   6.386 -1.2605 -0.4240  0.1034
 8296SOL    HW236351   1.362   3.773   6.473  0.5895  0.9848 -1.8876
 8297SOL     OW36352   4.158   2.250   7.542  0.2472 -0.5815 -0.5667
 8297SOL    HW136353   4.201   2.166   7.559  0.2299 -0.4221  0.2563
 8297SOL    HW236354   4.113   2.233   7.459 -1.8349  1.0657  0.2522
 8298SOL     OW36355   2.769   1.792   6.976 -0.6035 -0.3270  0.4197
 8298SOL    HW136356   2.814   1.746   7.046 -0.9574  0.8376  1.4206
 8298SOL    HW236357   2.834   1.779   6.907 -0.4262  0.3359  0.4568
 8299SOL     OW36358   0.440   2.793   3.951 -0.2315 -0.1467  0.5381
 8299SOL    HW136359   0.407   2.788   3.861  1.0157 -0.7676  0.1145
 8299SOL    HW236360   0.519   2.845   3.943 -1.4818  1.6451 -0.0907
 8300SOL     OW36361   2.686   2.859   7.315  0.0440 -0.1714 -0.7148
 8300SOL    HW136362   2.598   2.823   7.318 -0.1403  0.4133  0.7804
 8300SOL    HW236363   2.722   2.851   7.403  0.1522  0.7174 -0.6704
 8301SOL     OW36364   4.523   0.059   7.892 -0.0987  1.0902 -0.4465
 8301SOL    HW136365   4.457   0.102   7.837 -2.8747 -1.3103  1.0245
 8301SOL    HW236366   4.598   0.116   7.873  1.7090 -1.6035 -1.4056
 8302SOL     OW36367   2.056   1.636   0.854 -0.4276  0.0867 -0.0051
 8302SOL    HW136368   2.086   1.545   0.857  1.9643  0.9506  2.8012
 8302SOL    HW236369   2.120   1.681   0.798 -1.6071  1.6955 -0.0542
 8303SOL     OW36370   0.050   0.517   4.888 -0.3675  0.4021  0.9036
 8303SOL    HW136371   0.008   0.603   4.883 -1.7338 -0.2933  0.6039
 8303SOL    HW236372   0.005   0.476   4.962 -0.2206 -0.2022  0.6549
 8304SOL     OW36373   1.927   1.235   2.549 -0.2919  0.0094 -0.1733
 8304SOL    HW136374   1.963   1.321   2.527  1.2147 -0.6753 -0.4118
 8304SOL    HW236375   1.886   1.247   2.635 -2.0030  0.6200 -1.0730
 8305SOL     OW36376   0.454   0.978   2.146 -0.1698  0.0915 -0.3462
 8305SOL    HW136377   0.364   0.954   2.169  0.2573 -1.3921 -0.1931
 8305SOL    HW236378   0.444   1.065   2.108  0.1348  0.7249  0.9952
 8306SOL     OW36379   3.038   1.504   6.648 -0.3471  0.4631 -0.0551
 8306SOL    HW136380   3.088   1.563   6.705  1.5069  0.3817 -1.6104
 8306SOL    HW236381   3.030   1.422   6.698 -0.3662  0.9536  0.7478
 8307SOL     OW36382   4.570   2.785  14.638 -0.1913 -0.2761  0.2678
 8307SOL    HW136383   4.508   2.834  14.584  0.9797  0.0082 -0.8133
 8307SOL    HW236384   4.660   2.815  14.623 -0.6253  0.6266 -0.5117
 8308SOL     OW36385   3.272   2.766   7.773  0.3250  0.5318  0.0378
 8308SOL    HW136386   3.210   2.746   7.702  0.5252  1.6417 -0.4504
 8308SOL    HW236387   3.216   2.824   7.825 -3.2288 -3.1622  0.3244
 8309SOL     OW36388   3.848   3.989   0.590 -0.6137 -0.2917  0.4051
 8309SOL    HW136389   3.780   4.042   0.632  0.4707 -0.5485  2.5262
 8309SOL    HW236390   3.874   4.050   0.521 -3.5675  1.3704  0.7624
 8310SOL     OW36391   4.664   2.963   9.231 -0.1162 -0.6286  0.2934
 8310SOL    HW136392   4.639   3.049   9.266  3.1298  0.4180 -0.0175
 8310SOL    HW236393   0.010   2.976   9.166 -0.3779  1.6178  0.4918
 8311SOL     OW36394   1.839   2.050   3.557  0.1861  0.0767  0.7657
 8311SOL    HW136395   1.885   1.980   3.604  2.9650  0.0835 -1.9692
 8311SOL    HW236396   1.848   2.122   3.620 -0.3593 -0.9775  2.0649
 8312SOL     OW36397   0.518   0.250  17.129 -0.2182 -0.3509  0.1071
 8312SOL    HW136398   0.592   0.239  17.069  1.0295 -3.3163  2.1733
 8312SOL    HW236399   0.560   0.200  17.199 -1.1842  0.7711  1.4992
 8313SOL     OW36400   4.351   1.925   3.067 -0.1021  0.2649 -0.8086
 8313SOL    HW136401   4.322   1.942   3.156 -1.2958 -0.9026 -0.9725
 8313SOL    HW236402   4.288   1.868   3.021 -2.6021  1.8798  0.6220
 8314SOL     OW36403   2.128   2.721   7.262 -0.2928 -0.1366  0.3143
 8314SOL    HW136404   2.155   2.643   7.214  0.9611  0.1374  0.5793
 8314SOL    HW236405   2.206   2.731   7.316  1.5662  0.4029 -2.4639
 8315SOL     OW36406   1.686   4.681   9.137  0.4298  0.4608  0.3334
 8315SOL    HW136407   1.682   4.611   9.202 -1.4939  0.4730  0.2252
 8315SOL    HW236408   1.750   0.020   9.174 -0.9432  0.6410  2.4575
 8316SOL     OW36409   3.316   0.991   4.268 -0.6561 -0.4294 -0.4003
 8316SOL    HW136410   3.237   0.947   4.235 -0.0027 -1.4152 -0.6581
 8316SOL    HW236411   3.303   1.067   4.212  0.6627  0.3622  0.3911
 8317SOL     OW36412   1.903   2.541   8.339 -0.4088  0.2975  0.3625
 8317SOL    HW136413   1.860   2.564   8.421  0.5901  0.1387  0.9285
 8317SOL    HW236414   1.987   2.583   8.358  0.9888 -0.7467 -3.4007
 8318SOL     OW36415   3.883   2.734   9.308 -0.5648 -0.2334 -0.5550
 8318SOL    HW136416   3.916   2.678   9.238 -1.4021 -0.3780 -0.8295
 8318SOL    HW236417   3.798   2.756   9.272 -0.6488  3.3093  1.7886
 8319SOL     OW36418   1.033   3.805   4.828  0.2276 -0.0304  0.2452
 8319SOL    HW136419   1.099   3.736   4.827  0.3173  0.0434  1.4785
 8319SOL    HW236420   0.949   3.760   4.815 -0.5345  1.5997 -0.5888
 8320SOL     OW36421   2.976   1.433   3.766  0.8655 -0.4606  0.7647
 8320SOL    HW136422   3.004   1.496   3.700 -1.4542  0.4718  0.6544
 8320SOL    HW236423   2.941   1.361   3.713 -1.1535  0.9652  0.1415
 8321SOL     OW36424   4.228   3.416   3.324 -0.0081 -0.4666  0.0997
 8321SOL    HW136425   4.193   3.382   3.242 -0.8141  0.6284 -0.0043
 8321SOL    HW236426   4.289   3.485   3.303 -0.5304 -0.3220 -0.9358
 8322SOL     OW36427   3.264   2.652   1.815 -0.2347 -0.5828  0.5995
 8322SOL    HW136428   3.171   2.641   1.793 -0.2551  1.0465 -0.0865
 8322SOL    HW236429   3.255   2.703   1.896  1.0669  0.9797 -0.2662
 8323SOL     OW36430   1.725   0.011  16.349 -0.7502  0.1039 -0.3591
 8323SOL    HW136431   1.805   4.690  16.377 -0.0945 -0.1441 -2.6491
 8323SOL    HW236432   1.685   0.014  16.436  0.1678 -4.3655  0.2359
 8324SOL     OW36433   4.426   0.848  12.541 -0.0771  0.3127 -0.0196
 8324SOL    HW136434   4.518   0.822  12.531 -0.8304 -2.5589  0.3141
 8324SOL    HW236435   4.396   0.849  12.450  1.0848 -2.5797 -0.4516
 8325SOL     OW36436   1.551   3.915  13.939  0.1560 -0.1855  0.2537
 8325SOL    HW136437   1.600   3.995  13.954  0.7715 -0.5631  0.2566
 8325SOL    HW236438   1.464   3.950  13.959 -0.1107 -0.1886 -0.8963
 8326SOL     OW36439   3.076   1.480  14.500 -0.0962  0.1102 -0.3066
 8326SOL    HW136440   3.108   1.566  14.474 -0.1515  0.8023  1.9751
 8326SOL    HW236441   2.983   1.498  14.511  0.6945  3.0695  1.4385
 8327SOL     OW36442   1.364   2.599   5.896  0.5102 -0.2617  0.1746
 8327SOL    HW136443   1.426   2.661   5.934  0.9533 -0.5103 -0.1461
 8327SOL    HW236444   1.365   2.628   5.804  1.0423 -4.0982 -1.0043
 8328SOL     OW36445   1.544   3.832   6.235 -0.5600 -0.5140  0.0602
 8328SOL    HW136446   1.585   3.763   6.286  2.2063  0.0809 -1.3935
 8328SOL    HW236447   1.572   3.803   6.148  2.4979  0.3467  0.7720
 8329SOL     OW36448   0.438   3.276   0.248  0.5617  0.0285 -0.0103
 8329SOL    HW136449   0.443   3.191   0.291  0.3084 -0.2154 -0.4645
 8329SOL    HW236450   0.464   3.254   0.159 -0.5582  1.8664 -0.7815
 8330SOL     OW36451   0.921   3.123  11.178 -0.0131 -0.1659 -0.4679
 8330SOL    HW136452   0.831   3.116  11.210  0.2811  3.4470  1.1176
 8330SOL    HW236453   0.938   3.036  11.142  0.2908 -2.0188  4.1843
 8331SOL     OW36454   0.514   3.105   7.489  0.3582 -0.1185  0.2796
 8331SOL    HW136455   0.517   3.051   7.569 -0.0120 -0.1101  0.3007
 8331SOL    HW236456   0.464   3.180   7.523  1.4990 -0.4866  2.7665
 8332SOL     OW36457   4.216   3.778  10.307 -0.6033 -0.1854  0.4373
 8332SOL    HW136458   4.145   3.843  10.312 -0.4858 -0.1106  1.1309
 8332SOL    HW236459   4.294   3.830  10.327  0.5749 -2.6117  2.0961
 8333SOL     OW36460   3.850   0.361  12.655 -0.0927  0.2398 -0.0638
 8333SOL    HW136461   3.888   0.273  12.658  0.2713  0.4575  1.7228
 8333SOL    HW236462   3.881   0.393  12.570  0.6733  0.0781  0.1585
 8334SOL     OW36463   3.521   3.259   9.602 -0.0447  0.0470  0.3072
 8334SOL    HW136464   3.452   3.239   9.666  0.8381 -3.1065  0.3016
 8334SOL    HW236465   3.601   3.261   9.654  0.7486  3.6375 -1.1102
 8335SOL     OW36466   0.699   2.712   5.900 -0.2685  0.0351 -0.1969
 8335SOL    HW136467   0.731   2.761   5.825 -3.4079  1.1219 -0.8054
 8335SOL    HW236468   0.715   2.755   5.984  2.6606  0.4562 -0.9443
 8336SOL     OW36469   3.336   1.545   6.534  0.0190  0.3470 -0.0019
 8336SOL    HW136470   3.265   1.530   6.471 -0.2966 -1.1188  0.7035
 8336SOL    HW236471   3.327   1.482   6.606 -2.8408  2.5109  1.5520
 8337SOL     OW36472   3.308   0.855   3.807  0.7006 -0.1684 -0.7314
 8337SOL    HW136473   3.368   0.809   3.866 -0.4310 -1.4247 -0.5588
 8337SOL    HW236474   3.365   0.928   3.785  0.4237  0.2553 -0.0597
 8338SOL     OW36475   0.854   1.013   8.629  0.0119 -0.6314 -0.1479
 8338SOL    HW136476   0.870   1.091   8.575 -0.9847 -1.0897 -1.0958
 8338SOL    HW236477   0.823   1.062   8.705  1.2368 -0.4064  0.2155
 8339SOL     OW36478   4.520   3.338   0.300 -0.0312 -0.2005 -0.4281
 8339SOL    HW136479   4.453   3.270   0.301 -0.0309 -0.1961 -0.0690
 8339SOL    HW236480   4.542   3.338   0.207 -0.1131  1.3885 -0.4458
 8340SOL     OW36481   1.189   0.346   0.697  0.2362 -0.4739  0.2052
 8340SOL    HW136482   1.184   0.439   0.675  2.9027 -0.0702  1.3801
 8340SOL    HW236483   1.282   0.326   0.689  1.2525  3.9258  1.1802
 8341SOL     OW36484   4.411   3.068   3.184  0.7289 -0.2849  0.3501
 8341SOL    HW136485   4.420   3.141   3.122  0.7428 -0.6026 -0.0253
 8341SOL    HW236486   4.332   3.026   3.149 -0.2363  1.5987  0.3175
 8342SOL     OW36487   0.353   4.061  11.094 -0.7354 -0.4905 -0.4321
 8342SOL    HW136488   0.296   4.137  11.084  0.4919  0.4383 -0.3312
 8342SOL    HW236489   0.295   3.996  11.133 -0.3103 -0.1298  0.8190
 8343SOL     OW36490   1.719   3.718   4.797  0.2706 -0.2511  0.2304
 8343SOL    HW136491   1.811   3.702   4.818 -0.0395  0.4587  2.1090
 8343SOL    HW236492   1.726   3.764   4.713 -0.9509  0.8709  0.7389
 8344SOL     OW36493   0.551   3.394  14.925  0.3593  0.2451  0.0201
 8344SOL    HW136494   0.602   3.328  14.876  0.2958 -0.3814  0.7931
 8344SOL    HW236495   0.471   3.347  14.950 -0.3350  1.6907  0.5130
 8345SOL     OW36496   1.015   1.387   9.607 -0.2426 -0.5774 -0.2060
 8345SOL    HW136497   0.948   1.435   9.656  0.1425  0.8079 -1.0389
 8345SOL    HW236498   0.956   1.330   9.558  1.2776 -1.5424 -0.9301
 8346SOL     OW36499   2.179   1.698  11.029 -0.0951  0.0483  0.1656
 8346SOL    HW136500   2.163   1.678  11.121 -0.4590  0.9793  0.2958
 8346SOL    HW236501   2.091   1.708  10.993 -1.0095  2.0546  3.0208
 8347SOL     OW36502   3.963   4.460   4.949  0.1803 -0.1305  0.2354
 8347SOL    HW136503   3.894   4.430   5.008 -1.0431 -1.3683 -1.7894
 8347SOL    HW236504   3.930   4.487   4.863  0.3749  2.0730  0.8613
 8348SOL     OW36505   0.471   0.987   4.473  0.1385 -0.1764  0.0765
 8348SOL    HW136506   0.536   1.036   4.523 -0.7170 -0.7755  1.7666
 8348SOL    HW236507   0.413   1.055   4.439 -1.4696 -1.6828 -0.2202
 8349SOL     OW36508   1.940   1.005   0.391 -0.1998 -0.1443  0.1865
 8349SOL    HW136509   1.858   0.966   0.423 -1.6568  1.6607 -1.3602
 8349SOL    HW236510   1.990   0.927   0.417  1.7370  0.7620 -0.8664
 8350SOL     OW36511   3.647   0.380  12.246 -0.3816  0.2945  0.7982
 8350SOL    HW136512   3.562   0.386  12.203  0.1229 -1.9448 -0.4741
 8350SOL    HW236513   3.693   0.442  12.188  0.0277  0.4864  1.3232
 8351SOL     OW36514   4.231   1.456   5.185  0.0659 -0.6321 -0.2322
 8351SOL    HW136515   4.161   1.504   5.229  0.9764  0.0118  0.5133
 8351SOL    HW236516   4.286   1.426   5.257  1.0412  1.1688 -0.2233
 8352SOL     OW36517   3.605   4.613   4.213 -0.4323  0.3947 -0.4745
 8352SOL    HW136518   3.598   4.526   4.173  2.2058 -0.5741  1.1731
 8352SOL    HW236519   3.625   4.668   4.137  0.6012 -0.5715 -0.8937
 8353SOL     OW36520   2.742   2.949  17.170 -0.3713  0.0974 -0.0098
 8353SOL    HW136521   2.790   2.972  17.250  0.3481  0.4884 -0.5569
 8353SOL    HW236522   2.666   2.907  17.209 -0.9544 -0.0169 -1.2630
 8354SOL     OW36523   4.048   3.538   4.688  0.7448 -0.2758 -0.4945
 8354SOL    HW136524   3.995   3.554   4.767  0.6094 -1.1216 -0.4121
 8354SOL    HW236525   4.122   3.493   4.727  0.0808 -0.3471  0.6944
 8355SOL     OW36526   2.887   3.284   0.359  0.0166 -0.8107  0.2196
 8355SOL    HW136527   2.834   3.361   0.380  2.3216  0.8066  0.0432
 8355SOL    HW236528   2.971   3.309   0.398  1.4389 -3.1145 -1.3555
 8356SOL     OW36529   4.339   1.056   0.612  0.4928  0.4101 -0.6274
 8356SOL    HW136530   4.363   1.060   0.705 -0.4678  0.3006 -0.3796
 8356SOL    HW236531   4.422   1.020   0.579  0.1548 -0.2389 -0.7670
 8357SOL     OW36532   1.630   2.967   8.414 -0.0399  0.3822  0.0953
 8357SOL    HW136533   1.591   2.889   8.452  0.7854  0.6333  1.4505
 8357SOL    HW236534   1.715   2.938   8.381 -1.0319 -1.5640 -0.7225
 8358SOL     OW36535   2.294   3.000   1.148 -0.0606  0.5439  0.3990
 8358SOL    HW136536   2.205   2.972   1.169  0.5392 -2.6359 -1.2816
 8358SOL    HW236537   2.338   2.915   1.151  1.3467  1.2217 -0.6026
 8359SOL     OW36538   4.176   3.315   8.008 -0.0968 -0.1337  0.1149
 8359SOL    HW136539   4.199   3.406   8.028 -0.8160 -0.0852  0.7002
 8359SOL    HW236540   4.256   3.276   7.971 -1.7440 -1.7097 -1.8187
 8360SOL     OW36541   1.469   4.181   0.644  0.3328  0.6889  0.0468
 8360SOL    HW136542   1.374   4.177   0.633  0.3219  1.3015 -0.1266
 8360SOL    HW236543   1.467   4.095   0.686  1.1007  0.5634 -0.1822
 8361SOL     OW36544   3.482   2.726   2.617 -0.0317  0.2997 -0.3355
 8361SOL    HW136545   3.534   2.667   2.563 -0.6604  1.2230 -1.9566
 8361SOL    HW236546   3.540   2.738   2.693 -3.4836 -0.2531  2.3523
 8362SOL     OW36547   1.741   4.586   1.026  0.0973 -0.6912  0.1525
 8362SOL    HW136548   1.716   4.658   1.084  0.8746  0.5039 -0.9743
 8362SOL    HW236549   1.660   4.569   0.979  0.8895  0.8072 -1.7661
 8363SOL     OW36550   1.459   0.406   7.415 -0.2345  0.4673  0.5452
 8363SOL    HW136551   1.453   0.445   7.503 -1.3134 -1.5353  1.3617
 8363SOL    HW236552   1.551   0.431   7.412  0.0787 -0.2607  4.2183
 8364SOL     OW36553   3.066   4.236   2.070 -0.0884  0.2492 -0.2453
 8364SOL    HW136554   2.994   4.290   2.104  0.8761  0.3801  1.5888
 8364SOL    HW236555   3.143   4.279   2.107  0.5423  0.6928 -2.0463
 8365SOL     OW36556   0.631   3.754   2.488  0.1087 -0.0558  0.2519
 8365SOL    HW136557   0.588   3.671   2.466  0.5445 -0.6599  1.7140
 8365SOL    HW236558   0.668   3.743   2.575  0.7475 -1.7953 -0.2243
 8366SOL     OW36559   0.070   1.402   7.164  0.2375  0.5434  0.4852
 8366SOL    HW136560   0.117   1.380   7.245  1.4985  0.2661 -0.3358
 8366SOL    HW236561   4.719   1.450   7.203 -0.6762 -0.2511 -0.2360
 8367SOL     OW36562   3.320   4.649  12.429  0.2600 -0.0447 -0.1789
 8367SOL    HW136563   3.396   4.604  12.394 -0.4789 -0.3610 -1.3862
 8367SOL    HW236564   3.242   4.607  12.392  2.5774 -4.0637 -0.4618
 8368SOL     OW36565   2.864   3.068   3.038  0.5188 -0.0936  0.6775
 8368SOL    HW136566   2.876   3.040   2.947 -1.6468  0.3807  0.2285
 8368SOL    HW236567   2.788   3.124   3.021 -1.9577 -2.8313  2.7474
 8369SOL     OW36568   1.505   1.205   0.351 -0.0165 -0.6019 -0.8596
 8369SOL    HW136569   1.539   1.270   0.289 -0.2121  0.7211  0.4001
 8369SOL    HW236570   1.540   1.242   0.432 -0.8095 -1.3024 -0.1930
 8370SOL     OW36571   2.577   1.724  14.164  0.0596 -0.4100 -0.5356
 8370SOL    HW136572   2.583   1.782  14.088 -1.1734  0.5908  0.1343
 8370SOL    HW236573   2.608   1.644  14.121 -1.4299 -1.7853  0.9363
 8371SOL     OW36574   3.136   0.467   7.585  0.2169 -0.4720  0.1862
 8371SOL    HW136575   3.124   0.550   7.630  0.8045  0.3921 -1.2613
 8371SOL    HW236576   3.230   0.457   7.574  0.2318  0.3025 -0.3975
 8372SOL     OW36577   0.868   1.669   3.266  0.0228 -0.5638  0.4743
 8372SOL    HW136578   0.885   1.651   3.174 -0.5805 -0.3413  0.3136
 8372SOL    HW236579   0.774   1.649   3.270  0.3456 -2.1081  0.3647
 8373SOL     OW36580   2.202   4.584   5.684 -0.5421  0.1968  0.0632
 8373SOL    HW136581   2.186   4.490   5.686 -0.9891  0.2608 -0.5701
 8373SOL    HW236582   2.118   4.610   5.722  0.0003  2.1244 -0.0339
 8374SOL     OW36583   2.201   3.450   3.308 -0.4560 -0.0879  0.2092
 8374SOL    HW136584   2.175   3.361   3.330  0.3577  0.0215  1.6256
 8374SOL    HW236585   2.225   3.443   3.215  1.6542  0.0283  0.7288
 8375SOL     OW36586   1.159   3.313  16.337 -0.1095 -0.2085 -0.1797
 8375SOL    HW136587   1.129   3.403  16.355  2.0740  0.4879 -0.0655
 8375SOL    HW236588   1.239   3.301  16.387  0.5065 -1.2017 -1.4059
 8376SOL     OW36589   1.782   2.959   2.548 -0.0022 -0.2762 -0.1247
 8376SOL    HW136590   1.770   3.050   2.576 -3.0368 -0.8217  0.3326
 8376SOL    HW236591   1.858   2.957   2.489 -0.8672  1.7060 -1.3136
 8377SOL     OW36592   2.874   3.121   7.265 -0.1641 -0.1987 -0.5231
 8377SOL    HW136593   2.954   3.097   7.313 -0.4788 -2.3528 -1.0809
 8377SOL    HW236594   2.835   3.034   7.272 -1.3151  0.3565 -0.1671
 8378SOL     OW36595   3.697   1.299   8.205  0.4027 -0.6112 -0.0864
 8378SOL    HW136596   3.639   1.223   8.202  2.0436 -1.8565 -0.4313
 8378SOL    HW236597   3.644   1.365   8.250 -0.3283 -0.8752 -0.5546
 8379SOL     OW36598   4.626   0.949   3.421 -0.2367 -0.0608 -0.2288
 8379SOL    HW136599   4.565   0.988   3.483  0.9600 -0.8479  1.4648
 8379SOL    HW236600   4.564   0.895   3.373  0.7366 -1.3340 -0.0839
 8380SOL     OW36601   1.223   4.027   1.512 -0.1712 -0.7811  0.3756
 8380SOL    HW136602   1.299   3.971   1.530 -0.3749 -1.1724  0.0241
 8380SOL    HW236603   1.252   4.093   1.449 -1.1768 -2.8360 -2.2413
 8381SOL     OW36604   0.620   3.096   5.573 -0.0001 -0.1599 -0.0783
 8381SOL    HW136605   0.634   3.191   5.568 -0.2182 -0.0284  2.0149
 8381SOL    HW236606   0.532   3.091   5.612 -0.0228 -0.8881 -0.2209
 8382SOL     OW36607   2.610   2.483   3.012 -0.0100 -0.1398 -0.0168
 8382SOL    HW136608   2.670   2.490   2.937  1.2006 -0.5438  0.9204
 8382SOL    HW236609   2.634   2.568   3.049 -0.1171  0.5563 -1.5577
 8383SOL     OW36610   4.247   2.822   3.431  0.7578 -0.5597 -0.1706
 8383SOL    HW136611   4.272   2.846   3.521 -2.4272  0.8472  0.3238
 8383SOL    HW236612   4.260   2.727   3.440  0.0087 -0.6897 -0.4962
 8384SOL     OW36613   1.533   1.828   3.966 -0.2119 -0.3283 -0.3665
 8384SOL    HW136614   1.459   1.768   3.973 -0.2254 -0.4252 -1.3815
 8384SOL    HW236615   1.603   1.773   3.930 -1.8225 -1.9636 -0.9895
 8385SOL     OW36616   1.586   3.714   2.883  0.0208  0.3548 -0.3745
 8385SOL    HW136617   1.515   3.742   2.825  1.7954  3.1054 -1.2324
 8385SOL    HW236618   1.641   3.792   2.882  0.8055 -0.1947 -0.9534
 8386SOL     OW36619   3.964   2.781   7.063  0.1318 -0.3422  0.1773
 8386SOL    HW136620   3.952   2.845   7.133  0.7757 -0.5275  0.4536
 8386SOL    HW236621   4.058   2.781   7.079 -0.0371 -0.5738  1.1759
 8387SOL     OW36622   2.386   1.926   6.059  0.0590  0.1548 -0.5036
 8387SOL    HW136623   2.457   1.924   5.996  0.7971 -0.6547  0.3459
 8387SOL    HW236624   2.439   1.890   6.131  2.3065  3.9888 -0.2504
 8388SOL     OW36625   3.836   2.533   5.162 -0.3414  0.3991 -0.1633
 8388SOL    HW136626   3.884   2.591   5.103  1.4861  0.4691  1.3892
 8388SOL    HW236627   3.826   2.455   5.107  1.5643 -0.1577  0.2789
 8389SOL     OW36628   3.187   1.417   0.002 -0.1912  0.6217  0.0744
 8389SOL    HW136629   3.217   1.500   0.039  4.4092 -1.5085  1.1057
 8389SOL    HW236630   3.262   1.372  17.652 -0.4453  0.3733 -0.1227
 8390SOL     OW36631   4.682   0.740  12.601 -0.7712 -0.5352  0.4768
 8390SOL    HW136632   0.043   0.787  12.610 -0.4067 -0.6251 -2.3345
 8390SOL    HW236633   4.702   0.648  12.614  3.1879  0.3590  0.6124
 8391SOL     OW36634   3.864   1.840   9.514 -0.8635  0.1627 -0.1916
 8391SOL    HW136635   3.820   1.862   9.431  1.9151 -0.9599 -1.9579
 8391SOL    HW236636   3.818   1.759   9.536  0.2242 -0.4142 -0.0441
 8392SOL     OW36637   0.665   3.016   6.611 -0.5899  0.7288 -0.5060
 8392SOL    HW136638   0.678   3.108   6.587  0.9516  1.4048  2.9128
 8392SOL    HW236639   0.578   3.010   6.650 -0.7270  0.5001 -0.8445
 8393SOL     OW36640   1.513   0.251   5.637 -0.2674 -0.2724  0.8902
 8393SOL    HW136641   1.601   0.284   5.655  0.4521 -1.1111 -1.1410
 8393SOL    HW236642   1.485   0.233   5.727 -1.4554 -2.4965  0.0729
 8394SOL     OW36643   4.547   2.856   1.797 -0.6951  0.1041 -0.0257
 8394SOL    HW136644   4.590   2.922   1.742 -0.8857 -0.8399 -1.2994
 8394SOL    HW236645   4.484   2.820   1.736  0.3983 -1.2654 -0.3548
 8395SOL     OW36646   4.356   3.318   9.862 -0.2556  0.1967  0.1275
 8395SOL    HW136647   4.294   3.374   9.908  0.9522  1.1088  0.6512
 8395SOL    HW236648   4.340   3.348   9.773  0.3216  3.2413  1.0449
 8396SOL     OW36649   3.845   1.752  12.321  0.2599  0.3165 -0.2292
 8396SOL    HW136650   3.936   1.779  12.332 -0.0520  2.3903 -2.9501
 8396SOL    HW236651   3.811   1.782  12.406  0.2516  1.6560 -0.7083
 8397SOL     OW36652   1.584   1.956   8.450  0.8411 -0.4704 -0.3876
 8397SOL    HW136653   1.581   1.878   8.506  1.9803  0.3719  0.8430
 8397SOL    HW236654   1.500   1.948   8.405  0.1685  0.9188  0.6425
 8398SOL     OW36655   2.579   0.737   4.401  0.0647  0.4844 -0.1873
 8398SOL    HW136656   2.501   0.764   4.354 -0.6935 -3.3885 -1.1235
 8398SOL    HW236657   2.554   0.656   4.446 -0.4345  0.7236 -0.0390
 8399SOL     OW36658   1.734   1.968   3.308 -0.1973 -0.8156  0.1411
 8399SOL    HW136659   1.795   1.991   3.238 -0.6158 -0.6847 -0.1857
 8399SOL    HW236660   1.779   1.987   3.390 -2.1393  0.0481  1.0181
 8400SOL     OW36661   1.934   0.846  16.482 -0.1516 -0.6459  0.1889
 8400SOL    HW136662   1.994   0.802  16.422  0.5658 -0.7812  0.9966
 8400SOL    HW236663   1.899   0.782  16.544  0.9806 -0.8292  0.6445
 8401SOL     OW36664   4.093   3.236  14.513  0.5593 -0.1844  0.3042
 8401SOL    HW136665   4.107   3.264  14.604 -0.3239 -1.0700  0.7183
 8401SOL    HW236666   4.156   3.297  14.474 -0.2024  0.5255  0.1953
 8402SOL     OW36667   1.153   3.884   8.933 -0.2866  0.2313 -0.3537
 8402SOL    HW136668   1.136   3.977   8.951  0.5615  0.4356 -0.6199
 8402SOL    HW236669   1.246   3.876   8.911 -0.0390  0.8127  0.5010
 8403SOL     OW36670   0.175   3.430   5.218 -0.2308  0.2982  0.2755
 8403SOL    HW136671   0.202   3.522   5.211  1.5538 -0.2856 -0.4304
 8403SOL    HW236672   0.080   3.440   5.214 -0.4183 -1.4700  0.4986
 8404SOL     OW36673   3.732   3.618   8.810 -0.1363 -0.0877 -0.0972
 8404SOL    HW136674   3.810   3.562   8.814 -0.2425 -0.3006 -1.0033
 8404SOL    HW236675   3.681   3.563   8.750 -0.9640 -0.2143  0.7379
 8405SOL     OW36676   2.016   0.481   4.527 -0.4761 -0.1958  0.1445
 8405SOL    HW136677   2.044   0.390   4.531  1.1616  0.1638 -3.4223
 8405SOL    HW236678   1.931   0.476   4.570 -0.5223  2.1954  0.3606
 8406SOL     OW36679   1.387   2.220  14.922 -0.1900  0.4282 -0.1027
 8406SOL    HW136680   1.393   2.315  14.910 -0.7129  0.4043 -0.5393
 8406SOL    HW236681   1.435   2.189  14.845 -0.2581 -1.0314  0.4376
 8407SOL     OW36682   1.970   0.973   4.854 -0.3725 -0.2610  0.3680
 8407SOL    HW136683   2.023   0.946   4.929 -0.1633  0.5823  0.5268
 8407SOL    HW236684   1.907   0.901   4.854  0.0712 -0.6487  0.9418
 8408SOL     OW36685   4.462   3.866   0.271  0.1950  0.3225  0.6506
 8408SOL    HW136686   4.486   3.861   0.178 -0.8238 -2.8360  0.5487
 8408SOL    HW236687   4.367   3.877   0.269  0.2806  0.7735 -0.7527
 8409SOL     OW36688   2.755   1.244   7.750 -0.1277 -0.0682  0.3264
 8409SOL    HW136689   2.718   1.225   7.664 -0.4867  0.4767  0.3634
 8409SOL    HW236690   2.802   1.323   7.723  0.9242 -0.1366  1.9231
 8410SOL     OW36691   3.515   1.191   2.679 -0.2137 -0.4673 -0.2827
 8410SOL    HW136692   3.463   1.268   2.656 -0.4897 -0.3244  0.8098
 8410SOL    HW236693   3.444   1.127   2.671  2.1029 -2.8139 -1.8981
 8411SOL     OW36694   3.808   4.456  15.600 -0.4694 -0.4366  0.5690
 8411SOL    HW136695   3.835   4.545  15.579  0.5656 -1.2196 -1.4231
 8411SOL    HW236696   3.873   4.393  15.570 -2.0145 -1.0137 -1.5492
 8412SOL     OW36697   1.655   0.624   7.476 -0.1288  0.2920  0.1301
 8412SOL    HW136698   1.600   0.700   7.455 -0.8580 -0.5538 -0.9833
 8412SOL    HW236699   1.708   0.664   7.546 -2.0192  3.3016 -0.1243
 8413SOL     OW36700   2.070   1.828   3.269 -0.2624 -0.5949 -0.4207
 8413SOL    HW136701   2.065   1.869   3.356  1.1990  0.6437 -0.9300
 8413SOL    HW236702   2.163   1.815   3.252 -0.5935 -3.6467  0.1900
 8414SOL     OW36703   3.624   3.323   3.058  0.1988 -0.0605 -0.6949
 8414SOL    HW136704   3.596   3.275   2.980  0.0245  1.9468 -1.8559
 8414SOL    HW236705   3.546   3.361   3.098  1.2095  1.7741 -0.5047
 8415SOL     OW36706   4.399   1.504   1.301  0.0044  0.1612  0.5003
 8415SOL    HW136707   4.420   1.597   1.312 -0.1087  0.4747 -1.8629
 8415SOL    HW236708   4.468   1.462   1.353  1.6790  2.1983 -0.0587
 8416SOL     OW36709   2.921   2.774  14.423 -0.2773 -0.6489 -0.2502
 8416SOL    HW136710   2.884   2.754  14.509 -2.3439  1.2127 -0.7150
 8416SOL    HW236711   3.002   2.820  14.442 -0.2049 -1.4101  1.2836
 8417SOL     OW36712   2.977   4.020   4.459  0.7473 -0.6630  0.1502
 8417SOL    HW136713   2.921   4.079   4.509  0.5140 -0.2018 -0.6571
 8417SOL    HW236714   3.050   4.081   4.453  0.4096 -0.2570  0.1343
 8418SOL     OW36715   0.464   0.113   8.056  0.1718  0.2687 -0.8400
 8418SOL    HW136716   0.532   0.103   8.122 -2.5963 -3.0197  1.4989
 8418SOL    HW236717   0.400   0.051   8.089 -0.9328  0.9481 -1.6932
 8419SOL     OW36718   0.145   1.089   6.469 -0.1469 -0.1187  0.0844
 8419SOL    HW136719   0.171   1.164   6.416 -1.8905  0.0296 -0.5547
 8419SOL    HW236720   0.224   1.035   6.474  0.7368  1.1173 -0.5584
 8420SOL     OW36721   4.366   1.733   7.172  0.0638 -0.8557 -0.3503
 8420SOL    HW136722   4.390   1.641   7.158 -0.2269 -1.1916  1.3841
 8420SOL    HW236723   4.271   1.724   7.166  0.0065 -1.0324  0.9254
 8421SOL     OW36724   1.571   3.144   1.356 -0.0546  0.7565  0.4244
 8421SOL    HW136725   1.631   3.085   1.311 -0.0299  1.3591 -0.3246
 8421SOL    HW236726   1.540   3.087   1.426 -1.6364  3.1015  1.6322
 8422SOL     OW36727   0.059   0.017   0.945  0.3574 -0.1871 -0.1132
 8422SOL    HW136728   4.710   4.703   0.998  0.6357  1.3372  1.2885
 8422SOL    HW236729   0.053   4.669   0.880 -0.5096 -0.4651  0.2612
 8423SOL     OW36730   3.817   2.103   4.240 -0.7272  0.4259  1.1768
 8423SOL    HW136731   3.722   2.112   4.245 -0.7630  1.3499 -1.2027
 8423SOL    HW236732   3.848   2.193   4.229  2.1407 -0.5416  1.2388
 8424SOL     OW36733   4.409   0.955   2.326 -0.6509  0.8366 -0.0140
 8424SOL    HW136734   4.423   0.944   2.232  0.8846  1.1695  0.1663
 8424SOL    HW236735   4.326   1.003   2.331 -1.4114 -0.6316  1.6009
 8425SOL     OW36736   2.747   4.027   5.022  0.4397  0.6184 -0.3552
 8425SOL    HW136737   2.741   4.115   4.985 -0.1036  0.5900 -0.3397
 8425SOL    HW236738   2.656   3.999   5.011  0.9285 -0.6785 -1.0821
 8426SOL     OW36739   3.631   3.592  11.732 -0.3897  0.2163 -0.0521
 8426SOL    HW136740   3.579   3.518  11.763 -0.3698  1.0228  1.8841
 8426SOL    HW236741   3.715   3.548  11.744  0.6472  1.4351 -2.8145
 8427SOL     OW36742   1.152   1.064  12.797 -0.4002 -1.2264 -0.0482
 8427SOL    HW136743   1.139   0.988  12.741  1.1302 -1.6263  0.1413
 8427SOL    HW236744   1.145   1.134  12.732  0.1293 -0.0825  1.1299
 8428SOL     OW36745   3.202   0.503   8.980 -0.6692  0.1678  0.2515
 8428SOL    HW136746   3.217   0.422   8.931 -1.5107 -1.8621  3.3021
 8428SOL    HW236747   3.186   0.469   9.068 -1.0822  1.5627  0.7209
 8429SOL     OW36748   2.293   4.499  14.268  0.2408 -0.2656 -0.2477
 8429SOL    HW136749   2.221   4.561  14.274  0.4298 -0.2907  1.9337
 8429SOL    HW236750   2.282   4.456  14.183 -0.3039 -0.4197 -0.0962
 8430SOL     OW36751   2.163   2.594   4.460 -0.5520  1.4401 -0.2224
 8430SOL    HW136752   2.183   2.679   4.501  0.5150  0.8533  0.4725
 8430SOL    HW236753   2.246   2.552   4.482 -1.0174  1.4241  1.5136
 8431SOL     OW36754   1.112   1.816   4.116 -0.1253 -0.0261 -0.0606
 8431SOL    HW136755   1.182   1.881   4.107  2.5235 -3.0517 -1.2246
 8431SOL    HW236756   1.073   1.838   4.201  0.0439  0.9251 -0.2311
 8432SOL     OW36757   3.328   2.626   4.222 -0.0435  0.1068 -0.7041
 8432SOL    HW136758   3.340   2.585   4.137  1.4378 -1.7428  0.4104
 8432SOL    HW236759   3.384   2.703   4.210  0.4223 -0.2459 -0.7989
 8433SOL     OW36760   1.558   2.810   5.342  0.1298  0.1402 -0.2154
 8433SOL    HW136761   1.653   2.800   5.350  0.0664  0.1965  0.6323
 8433SOL    HW236762   1.563   2.822   5.247  2.7312 -0.6435 -0.1981
 8434SOL     OW36763   2.898   0.799   4.692 -0.3639  1.1064  0.0637
 8434SOL    HW136764   2.897   0.814   4.598 -0.4285  0.0536 -0.1070
 8434SOL    HW236765   2.857   0.712   4.693  1.0422  0.4276 -3.0694
 8435SOL     OW36766   1.731   4.607   3.667 -0.3555 -0.4944 -0.2642
 8435SOL    HW136767   1.639   4.592   3.648 -0.3649  0.2687 -0.8186
 8435SOL    HW236768   1.779   4.613   3.584  1.5549 -1.1092  0.7895
 8436SOL     OW36769   0.535   2.642  15.892  0.2242 -0.3100 -0.1360
 8436SOL    HW136770   0.611   2.616  15.943 -0.2569  0.5465  1.0138
 8436SOL    HW236771   0.467   2.643  15.959 -0.8359 -0.0731 -1.2060
 8437SOL     OW36772   0.578   3.227   1.436 -0.1477  0.3327 -0.2890
 8437SOL    HW136773   0.546   3.280   1.364 -2.2324 -1.5907 -0.7764
 8437SOL    HW236774   0.592   3.139   1.400 -0.7770 -0.1274  0.5803
 8438SOL     OW36775   1.797   3.780   9.727  0.3184 -0.7434  0.4841
 8438SOL    HW136776   1.829   3.703   9.774 -0.6950  0.2097  2.6956
 8438SOL    HW236777   1.715   3.784   9.776  0.4566  1.0184  0.5885
 8439SOL     OW36778   1.914   2.780   6.966  0.0937  0.0260 -0.5282
 8439SOL    HW136779   1.949   2.833   7.038  1.6223  0.4405 -1.5897
 8439SOL    HW236780   1.884   2.848   6.906  0.6682  1.7014  1.0859
 8440SOL     OW36781   3.284   2.110  15.061  0.4968  0.0727  0.0772
 8440SOL    HW136782   3.314   2.023  15.033  0.9204  0.2628 -0.0611
 8440SOL    HW236783   3.195   2.096  15.028  0.0939  0.6073  0.9350
 8441SOL     OW36784   3.558   4.508   8.918  0.0780 -0.0002 -0.2353
 8441SOL    HW136785   3.575   4.520   9.012  1.1758 -1.2698 -0.2770
 8441SOL    HW236786   3.551   4.413   8.912 -1.1313  0.0915 -0.2819
 8442SOL     OW36787   3.521   2.427  12.878  0.1996  0.1972  0.4082
 8442SOL    HW136788   3.484   2.366  12.815  0.0796  2.7192 -2.0183
 8442SOL    HW236789   3.616   2.414  12.882  0.3587  1.3274  0.5317
 8443SOL     OW36790   1.653   0.808  11.763  0.1993  0.1043 -0.0476
 8443SOL    HW136791   1.741   0.815  11.726 -0.1711 -0.9773 -1.1465
 8443SOL    HW236792   1.610   0.746  11.704 -0.4635  2.2582 -1.8267
 8444SOL     OW36793   1.923   1.005  11.309 -0.5600 -0.3880  0.5211
 8444SOL    HW136794   1.836   1.034  11.338 -0.4030  0.5622  0.0352
 8444SOL    HW236795   1.924   1.055  11.227  2.1934  0.0743  0.8515
 8445SOL     OW36796   0.714   3.479  15.149 -0.2340 -0.5217  0.0286
 8445SOL    HW136797   0.663   3.473  15.068 -0.6100  1.1333  0.1522
 8445SOL    HW236798   0.661   3.420  15.203  1.1798  0.5845  2.6194
 8446SOL     OW36799   2.987   4.357  13.031 -0.4862 -0.0885 -0.3539
 8446SOL    HW136800   3.002   4.415  13.105 -2.4770  1.2768 -1.0231
 8446SOL    HW236801   3.076   4.360  12.996 -0.1454 -0.9565  0.4569
 8447SOL     OW36802   0.706   3.508  14.629 -0.1295 -0.3104 -0.3465
 8447SOL    HW136803   0.620   3.526  14.593 -1.4368 -2.6562  1.6123
 8447SOL    HW236804   0.695   3.420  14.665 -1.0194  0.4607  1.2410
 8448SOL     OW36805   0.778   0.954  12.826  0.5161  0.1672  0.3421
 8448SOL    HW136806   0.846   0.888  12.811 -0.2217 -0.5392  0.1378
 8448SOL    HW236807   0.706   0.923  12.771 -0.3013 -0.1243  1.5908
 8449SOL     OW36808   1.317   3.551   3.401  0.7918 -0.1879 -0.4329
 8449SOL    HW136809   1.311   3.646   3.391 -2.0811 -0.2944  0.4716
 8449SOL    HW236810   1.402   3.545   3.445  0.5783  2.7644  0.3758
 8450SOL     OW36811   2.136   2.073   3.837  0.3945 -0.0047 -0.1369
 8450SOL    HW136812   2.182   1.990   3.843 -2.1635 -1.4832 -0.7529
 8450SOL    HW236813   2.050   2.049   3.802  0.6118  0.6915 -1.1813
 8451SOL     OW36814   1.145   2.309  10.241  0.7015 -0.6370 -0.0717
 8451SOL    HW136815   1.089   2.385  10.261  2.2943  1.1237 -2.3119
 8451SOL    HW236816   1.213   2.318  10.307 -0.2762 -0.6293  0.9318
 8452SOL     OW36817   2.306   4.235   6.132  0.2246 -0.3226 -0.2657
 8452SOL    HW136818   2.354   4.316   6.153  0.7119 -1.3445  2.5661
 8452SOL    HW236819   2.381   4.184   6.102  1.7958  1.2880  0.8833
 8453SOL     OW36820   4.145   1.495   0.792 -0.0818  0.5955  0.3401
 8453SOL    HW136821   4.104   1.452   0.717 -0.1650  2.1835 -0.5234
 8453SOL    HW236822   4.236   1.470   0.778 -0.0235  1.4139 -0.7784
 8454SOL     OW36823   1.747   2.130  12.882 -0.4293 -0.0058  0.4114
 8454SOL    HW136824   1.731   2.055  12.940 -2.5035 -1.5290 -2.0899
 8454SOL    HW236825   1.786   2.191  12.944 -0.6815 -3.0652  3.6029
 8455SOL     OW36826   0.554   3.406  15.653  0.4907 -0.7453 -0.1015
 8455SOL    HW136827   0.487   3.443  15.711 -0.2620 -0.5699 -1.0850
 8455SOL    HW236828   0.570   3.320  15.692  1.2252  0.1654  1.6086
 8456SOL     OW36829   4.019   4.245  17.661 -0.5825 -0.0825  0.2008
 8456SOL    HW136830   3.926   4.230  17.645 -0.3392 -1.3176 -0.0639
 8456SOL    HW236831   4.041   4.169   0.023  0.0942 -0.4445 -0.5868
 8457SOL     OW36832   3.717   0.981  14.600 -0.4542 -0.4019 -0.9718
 8457SOL    HW136833   3.656   0.929  14.652  2.3924 -2.5140  0.2491
 8457SOL    HW236834   3.680   0.968  14.513  0.1816  1.0346 -1.4736
 8458SOL     OW36835   0.928   3.880   2.726  0.6258  0.6295 -0.2895
 8458SOL    HW136836   0.990   3.808   2.723  0.0645  0.1239  0.4280
 8458SOL    HW236837   0.982   3.952   2.693  0.5352  1.4347  1.3291
 8459SOL     OW36838   2.671   2.273  15.768 -0.0105  0.7136 -0.5670
 8459SOL    HW136839   2.620   2.333  15.823  1.4129  1.1894  0.2235
 8459SOL    HW236840   2.753   2.261  15.815 -1.4073 -1.7202  1.2540
 8460SOL     OW36841   1.620   0.952   2.783 -0.4490  0.0467  0.0083
 8460SOL    HW136842   1.638   0.864   2.750  1.4492  1.0436 -1.5976
 8460SOL    HW236843   1.680   1.002   2.728  1.5790 -0.2546  1.9015
 8461SOL     OW36844   2.177   2.829  12.985 -0.2982 -0.0818  0.4204
 8461SOL    HW136845   2.268   2.826  13.015 -0.1366 -2.1743 -0.2782
 8461SOL    HW236846   2.182   2.793  12.896  1.1776 -0.5422  0.6818
 8462SOL     OW36847   4.379   4.531   4.856 -0.4348  0.4727 -0.1904
 8462SOL    HW136848   4.328   4.450   4.851  0.3647  0.0637 -1.8656
 8462SOL    HW236849   4.467   4.496   4.840  0.0056  0.9715  1.1158
 8463SOL     OW36850   2.888   1.024  10.490  0.2324 -0.1056 -0.1344
 8463SOL    HW136851   2.873   1.112  10.525 -0.6976  1.1595 -3.7980
 8463SOL    HW236852   2.944   1.044  10.415 -0.6413  0.3201 -0.6601
 8464SOL     OW36853   2.726   3.661   5.149 -0.0755  0.0155 -0.3979
 8464SOL    HW136854   2.770   3.739   5.117  0.6613  0.7768  2.4457
 8464SOL    HW236855   2.664   3.627   5.084 -0.2858 -2.4429  1.0818
 8465SOL     OW36856   2.639   3.147  12.200 -0.3133  0.3703  0.0108
 8465SOL    HW136857   2.621   3.054  12.185  1.1539  0.3818 -1.7676
 8465SOL    HW236858   2.585   3.159  12.278 -0.7080 -0.3257 -0.1606
 8466SOL     OW36859   2.389   1.258  12.073  0.0225 -0.0104  0.2340
 8466SOL    HW136860   2.315   1.237  12.130 -1.1665  2.1815 -0.5179
 8466SOL    HW236861   2.454   1.271  12.142  0.3020 -1.6189  0.2710
 8467SOL     OW36862   3.822   1.976   4.702 -0.3970 -0.2480  0.2504
 8467SOL    HW136863   3.873   1.947   4.778 -1.7118  0.6554  1.4869
 8467SOL    HW236864   3.882   2.040   4.664  0.1789 -0.8499  0.1513
 8468SOL     OW36865   0.500   1.151   4.850  0.5833 -0.3250 -0.3392
 8468SOL    HW136866   0.575   1.205   4.876 -0.4215 -0.1907  2.3639
 8468SOL    HW236867   0.456   1.220   4.799  0.6493 -0.8837 -1.1372
 8469SOL     OW36868   1.308   0.266   3.328 -0.2449 -0.1033 -0.4641
 8469SOL    HW136869   1.391   0.289   3.371  0.2080 -1.5685 -0.5356
 8469SOL    HW236870   1.280   0.356   3.312 -0.3543  0.1545  1.1759
 8470SOL     OW36871   2.996   3.343   1.324 -0.2831  0.2296  0.2287
 8470SOL    HW136872   3.049   3.263   1.316 -0.5459 -0.0586  1.3631
 8470SOL    HW236873   2.924   3.310   1.379 -0.8649 -0.7022 -1.0769
 8471SOL     OW36874   1.926   0.320   5.577  0.2790 -0.3180  0.4393
 8471SOL    HW136875   1.844   0.367   5.596  0.3591  0.7220 -1.8354
 8471SOL    HW236876   1.902   0.294   5.488  0.3109 -1.9150  0.8996
 8472SOL     OW36877   1.431   0.232   3.954  0.0946 -0.1867 -0.3870
 8472SOL    HW136878   1.446   0.225   4.048  1.0109 -1.5251 -0.6243
 8472SOL    HW236879   1.522   0.241   3.924  0.9781 -0.7243  2.1113
 8473SOL     OW36880   3.725   0.272   8.131 -0.1430 -0.2739  0.2678
 8473SOL    HW136881   3.754   0.358   8.162  0.8069 -0.1328 -1.0321
 8473SOL    HW236882   3.661   0.290   8.063  0.5265  0.1097 -0.2619
 8474SOL     OW36883   4.426   1.311   8.645  0.8607  0.1890  0.0393
 8474SOL    HW136884   4.332   1.327   8.652  0.7300  0.1056 -1.4276
 8474SOL    HW236885   4.418   1.221   8.611  0.0973  0.1484  0.3162
 8475SOL     OW36886   0.775   2.292   0.050 -0.3946 -0.1638  0.3918
 8475SOL    HW136887   0.786   2.266   0.142  0.1149 -1.5045 -0.0549
 8475SOL    HW236888   0.703   2.355   0.047  0.6566  1.0144 -0.3726
 8476SOL     OW36889   2.748   2.528   7.887 -0.2768  0.0065 -0.0877
 8476SOL    HW136890   2.685   2.534   7.959 -2.4967 -0.6954 -1.9941
 8476SOL    HW236891   2.805   2.460   7.924  0.9091  0.3418 -1.2792
 8477SOL     OW36892   1.781   2.308   2.147 -0.2665  0.4489 -0.1198
 8477SOL    HW136893   1.832   2.380   2.110 -2.1212  1.6051 -0.4112
 8477SOL    HW236894   1.845   2.238   2.155 -1.1361 -0.6909 -3.2075
 8478SOL     OW36895   3.545   1.427   0.210 -0.0598 -0.3725 -0.2431
 8478SOL    HW136896   3.504   1.341   0.204 -0.3258 -0.2493 -0.2054
 8478SOL    HW236897   3.468   1.484   0.214  0.6766  0.6856 -1.3333
 8479SOL     OW36898   4.649   4.362  11.118  0.3093 -0.1717  0.4956
 8479SOL    HW136899   4.578   4.316  11.074  0.6507  0.1371 -0.3770
 8479SOL    HW236900   4.621   4.452  11.101 -2.5098 -0.8292  1.6539
 8480SOL     OW36901   2.827   2.458   4.998 -0.6821 -0.7127 -0.0681
 8480SOL    HW136902   2.904   2.423   5.041  0.0641 -1.8922 -2.3452
 8480SOL    HW236903   2.871   2.516   4.935 -1.3138  0.7439  0.8197
 8481SOL     OW36904   3.029   4.188  10.519 -0.4270 -0.6766  0.0546
 8481SOL    HW136905   2.949   4.185  10.571  0.2118 -2.4604  0.9160
 8481SOL    HW236906   3.052   4.095  10.517  0.9954 -0.3619  1.3914
 8482SOL     OW36907   0.359   2.359   4.716 -0.1081  0.1132 -1.0746
 8482SOL    HW136908   0.330   2.435   4.665  0.0736 -0.1392 -1.5502
 8482SOL    HW236909   0.407   2.406   4.784 -1.7750 -1.6385  1.3088
 8483SOL     OW36910   2.319   0.912   0.815 -0.3153  0.0671  0.4549
 8483SOL    HW136911   2.326   0.943   0.905 -0.7171  0.8618  0.2133
 8483SOL    HW236912   2.257   0.978   0.785 -1.8074 -2.0382 -1.0574
 8484SOL     OW36913   2.925   4.713  17.544 -0.0087  0.7483 -0.6444
 8484SOL    HW136914   2.846   0.045  17.538  0.3239  1.3576  0.5933
 8484SOL    HW236915   2.890   4.624  17.539  0.3261  0.6568 -1.4110
 8485SOL     OW36916   4.254   2.089   2.796  0.5008 -0.6370  0.3565
 8485SOL    HW136917   4.168   2.067   2.834  0.2648  3.4781  2.1377
 8485SOL    HW236918   4.237   2.040   2.716 -0.3794 -0.8261  0.6526
 8486SOL     OW36919   4.023   0.904  12.302  0.6938  0.4344  0.7374
 8486SOL    HW136920   4.085   0.958  12.252  0.4322 -1.0110 -1.1628
 8486SOL    HW236921   3.970   0.965  12.353 -0.7492 -0.3547  0.1864
 8487SOL     OW36922   2.662   3.299   6.708 -0.1653 -0.4147 -0.1164
 8487SOL    HW136923   2.650   3.328   6.617 -1.1351 -2.0801 -0.5229
 8487SOL    HW236924   2.675   3.386   6.746 -0.4892 -0.0502 -0.8250
 8488SOL     OW36925   3.452   3.923  11.480 -0.2703  0.1226 -0.1952
 8488SOL    HW136926   3.526   3.925  11.540  0.4722  0.2448 -1.1141
 8488SOL    HW236927   3.477   4.001  11.431 -0.3750  0.6061  0.5196
 8489SOL     OW36928   4.589   3.518  11.466 -0.3385  0.8198 -0.1416
 8489SOL    HW136929   4.634   3.546  11.546 -0.3141 -1.3134  0.5856
 8489SOL    HW236930   4.654   3.457  11.431  0.1604 -0.1444  2.4956
 8490SOL     OW36931   0.865   4.522   7.793 -0.0060 -0.0698  0.3452
 8490SOL    HW136932   0.885   4.483   7.878  0.6571 -0.3018  0.0787
 8490SOL    HW236933   0.839   4.442   7.748 -0.3382  0.3309 -0.1849
 8491SOL     OW36934   3.422   3.066   4.899  0.1402 -0.1518 -0.1110
 8491SOL    HW136935   3.466   3.141   4.860 -3.1786  1.6960 -0.2766
 8491SOL    HW236936   3.361   3.033   4.833 -1.1956  0.1584  0.9842
 8492SOL     OW36937   3.682   1.473  14.744  0.6753 -0.2208  0.3037
 8492SOL    HW136938   3.703   1.497  14.654 -0.6274 -1.2975 -0.2987
 8492SOL    HW236939   3.644   1.385  14.735 -1.8981  0.7673  1.4795
 8493SOL     OW36940   2.762   2.947   5.368 -0.2866  0.3837  0.2532
 8493SOL    HW136941   2.836   2.889   5.347 -1.6677 -1.4986  0.5991
 8493SOL    HW236942   2.794   2.962   5.457  2.8726  0.8026 -0.9591
 8494SOL     OW36943   1.444   2.214   4.484 -0.0835  0.0064  0.6131
 8494SOL    HW136944   1.371   2.229   4.424 -0.9154 -0.3441  1.5296
 8494SOL    HW236945   1.496   2.294   4.483 -0.0797  0.0407  3.1996
 8495SOL     OW36946   0.745   2.225   7.291 -0.1716 -0.6851  0.1666
 8495SOL    HW136947   0.744   2.246   7.198  0.4132  0.6943  0.4736
 8495SOL    HW236948   0.651   2.226   7.307  0.1371  2.6492  1.7749
 8496SOL     OW36949   3.497   1.390  16.323  0.3067  0.1442  0.3161
 8496SOL    HW136950   3.539   1.383  16.409  0.3006 -2.5256  0.1114
 8496SOL    HW236951   3.412   1.427  16.346 -0.0060 -0.4406  0.0960
 8497SOL     OW36952   3.066   3.490   6.163  0.0089 -0.1271 -0.3697
 8497SOL    HW136953   3.114   3.571   6.148  0.2041 -0.6256 -2.4678
 8497SOL    HW236954   3.072   3.475   6.257 -0.6076  0.9028 -0.1685
 8498SOL     OW36955   0.961   3.581   9.446  1.0489  0.6350 -0.5058
 8498SOL    HW136956   0.985   3.649   9.508  1.6264  0.1437 -0.1949
 8498SOL    HW236957   1.046   3.548   9.417  2.2585  1.0603  2.5661
 8499SOL     OW36958   3.433   4.584   6.138  0.0534 -0.4451  0.0465
 8499SOL    HW136959   3.528   4.595   6.140  0.2469 -1.6282 -2.7972
 8499SOL    HW236960   3.407   4.672   6.165  0.3741  0.0099 -1.1246
 8500SOL     OW36961   4.090   2.262   5.294  0.0029  0.0109  0.0539
 8500SOL    HW136962   4.128   2.215   5.368  0.2237  0.3915  0.1858
 8500SOL    HW236963   4.165   2.320   5.277 -0.0127 -0.3858 -1.4448
 8501SOL     OW36964   3.377   1.915   0.300 -0.5278 -0.1422 -0.1176
 8501SOL    HW136965   3.459   1.886   0.260  0.3462  1.0574  0.8377
 8501SOL    HW236966   3.315   1.896   0.229  0.0668 -1.9996 -0.1434
 8502SOL     OW36967   3.950   3.073   7.651  0.1382  0.1913  0.3760
 8502SOL    HW136968   3.955   3.131   7.727  0.6285  0.4051  0.1809
 8502SOL    HW236969   3.861   3.038   7.647  1.1535 -2.2411 -0.5543
 8503SOL     OW36970   2.588   3.910   2.654 -0.2154  0.0320 -0.1498
 8503SOL    HW136971   2.519   3.885   2.716  0.8361  0.7669  1.2954
 8503SOL    HW236972   2.587   4.005   2.641  0.5945 -0.1749 -1.7889
 8504SOL     OW36973   3.689   4.055   6.558 -0.3424 -0.3945 -0.3185
 8504SOL    HW136974   3.675   4.032   6.466  2.5245  0.1534 -0.8906
 8504SOL    HW236975   3.600   4.046   6.591 -0.5099  2.1780 -0.0918
 8505SOL     OW36976   3.871   1.411   2.516 -0.2368 -1.0094  0.4126
 8505SOL    HW136977   3.907   1.325   2.535 -0.3400 -0.9694  0.7918
 8505SOL    HW236978   3.817   1.384   2.441 -0.9320 -1.2423  0.9960
 8506SOL     OW36979   0.964   0.789   7.275  0.3520 -0.0861 -0.1478
 8506SOL    HW136980   0.989   0.879   7.296  0.2282  0.0095 -0.4053
 8506SOL    HW236981   0.908   0.797   7.198  0.5932 -0.4707 -0.3661
 8507SOL     OW36982   1.586   4.278  11.948  0.1220  0.0137  0.4886
 8507SOL    HW136983   1.632   4.301  11.868 -1.5152  3.5083  0.5530
 8507SOL    HW236984   1.546   4.364  11.957 -0.2974 -0.2749  1.3673
 8508SOL     OW36985   3.643   3.164   5.313 -0.1793  0.4645  0.0659
 8508SOL    HW136986   3.613   3.074   5.297  1.0134  0.0343  0.2568
 8508SOL    HW236987   3.682   3.189   5.229 -1.3131 -2.9213 -1.4517
 8509SOL     OW36988   3.381   2.563   2.128 -0.2212 -0.1870 -0.3298
 8509SOL    HW136989   3.446   2.567   2.058  1.0525 -1.6921  0.7673
 8509SOL    HW236990   3.396   2.647   2.172 -0.9134 -1.3424  2.1234
 8510SOL     OW36991   0.598   2.158   3.282  0.4271  0.2188 -0.2318
 8510SOL    HW136992   0.545   2.234   3.258  0.3209  0.1819 -0.1094
 8510SOL    HW236993   0.534   2.108   3.332  1.5778 -1.0542 -0.0122
 8511SOL     OW36994   2.526   4.207   5.364 -0.3170 -0.0643  0.2990
 8511SOL    HW136995   2.435   4.219   5.338  0.3529 -1.1849 -2.5338
 8511SOL    HW236996   2.521   4.111   5.364 -1.4834  0.0006  1.5758
 8512SOL     OW36997   1.858   0.606   9.568  0.3248 -0.1007 -0.2538
 8512SOL    HW136998   1.948   0.580   9.549  0.5177  0.7629 -0.5291
 8512SOL    HW236999   1.856   0.699   9.543  1.6594 -0.1642 -0.5630
 8513SOL     OW37000   0.066   3.211   9.116 -0.1186 -0.5497  0.3478
 8513SOL    HW137001   0.107   3.134   9.077 -1.3319  0.2558 -2.5087
 8513SOL    HW237002   0.102   3.285   9.067  1.5544 -1.2758  0.4917
 8514SOL     OW37003   4.054   2.185  11.174  0.7557  0.1357  0.2335
 8514SOL    HW137004   4.029   2.276  11.190 -2.7698 -0.8710  0.5073
 8514SOL    HW237005   4.008   2.144  11.248  0.3994 -1.4030 -0.8365
 8515SOL     OW37006   3.538   1.566   5.049  0.1610 -0.1835 -0.2984
 8515SOL    HW137007   3.476   1.527   4.987  0.1292 -0.9845  0.2302
 8515SOL    HW237008   3.616   1.512   5.037  0.0879 -0.8430  2.1154
 8516SOL     OW37009   4.570   0.486  14.554 -0.4307 -0.1712  0.3825
 8516SOL    HW137010   4.510   0.420  14.589 -0.1899  0.3440  1.7535
 8516SOL    HW237011   4.521   0.530  14.484  0.1212 -0.1864 -0.0094
 8517SOL     OW37012   0.886   3.763   2.368 -0.0074  0.8350 -0.7793
 8517SOL    HW137013   0.797   3.783   2.396  0.9829  2.4590  1.2408
 8517SOL    HW237014   0.868   3.716   2.287 -0.1515  0.3384 -0.4585
 8518SOL     OW37015   1.136   3.426   9.229 -0.0374 -0.3337  0.5958
 8518SOL    HW137016   1.120   3.510   9.185  1.9905  0.9562  2.3201
 8518SOL    HW237017   1.057   3.386   9.194 -0.3440 -0.7944  1.8139
 8519SOL     OW37018   0.465   3.023   5.984 -0.3668  0.0450  0.1194
 8519SOL    HW137019   0.405   3.019   6.058 -1.8404  0.5986 -1.0564
 8519SOL    HW237020   0.545   2.994   6.029  0.3596  1.1742 -0.4339
 8520SOL     OW37021   2.055   0.216   4.588 -0.3762 -0.1551  0.5989
 8520SOL    HW137022   2.124   0.209   4.654  0.0500 -0.6014  0.0999
 8520SOL    HW237023   1.980   0.174   4.631 -1.3060  0.3420 -0.5407
 8521SOL     OW37024   2.905   2.303   6.789  0.0231  1.1591 -0.1230
 8521SOL    HW137025   2.930   2.351   6.710  1.7647 -0.8389 -0.7820
 8521SOL    HW237026   2.956   2.346   6.857  1.0989  0.6358 -0.6034
 8522SOL     OW37027   4.021   4.189   7.089  0.8528 -0.0815  0.9408
 8522SOL    HW137028   3.943   4.161   7.135 -0.3695 -0.5646 -1.4206
 8522SOL    HW237029   4.085   4.193   7.161 -0.1048  1.8676  1.6936
 8523SOL     OW37030   3.074   0.719   2.425 -0.2275  0.2183 -0.4875
 8523SOL    HW137031   3.022   0.668   2.362  1.6375  1.1570 -2.7711
 8523SOL    HW237032   3.148   0.661   2.443  0.6548  1.3894 -0.3673
 8524SOL     OW37033   0.662   3.326   7.484 -0.3873  0.0528  0.4117
 8524SOL    HW137034   0.699   3.322   7.572  0.5841 -1.8079 -0.0752
 8524SOL    HW237035   0.618   3.242   7.479  0.0052 -0.1723  0.7153
 8525SOL     OW37036   0.477   3.408   3.424  0.5282 -0.7696  0.2548
 8525SOL    HW137037   0.464   3.358   3.344 -1.2481 -0.1292  0.1561
 8525SOL    HW237038   0.474   3.340   3.491 -1.0850  0.3497  1.3207
 8526SOL     OW37039   1.104   4.444   7.540 -0.0055 -0.5447 -0.0240
 8526SOL    HW137040   1.016   4.477   7.560  0.3374 -1.5608  3.0540
 8526SOL    HW237041   1.094   4.353   7.511 -1.7704 -0.4104  0.1604
 8527SOL     OW37042   3.960   0.120  10.083  0.1282 -0.5250 -0.1902
 8527SOL    HW137043   4.049   0.152  10.095  0.5471 -2.4729  1.9371
 8527SOL    HW237044   3.916   0.176  10.147  0.7640 -1.2867  0.9238
 8528SOL     OW37045   3.331   2.517   2.766 -0.0572 -0.4624  0.8813
 8528SOL    HW137046   3.404   2.548   2.713  0.4626 -0.3585  1.6551
 8528SOL    HW237047   3.276   2.595   2.756  0.3750 -0.4155 -1.0524
 8529SOL     OW37048   1.123   4.643   7.843  0.1545 -0.4744 -0.4101
 8529SOL    HW137049   1.048   4.589   7.817 -0.0345  0.7657 -2.4747
 8529SOL    HW237050   1.090   4.688   7.921 -0.2997  0.6175 -1.2240
 8530SOL     OW37051   2.499   1.304   7.830  0.2007  0.2297  0.4037
 8530SOL    HW137052   2.501   1.398   7.847  0.9839 -0.0192  1.7350
 8530SOL    HW237053   2.590   1.291   7.803 -0.9186 -2.3053 -2.1565
 8531SOL     OW37054   1.373   3.338   3.791  0.2121  0.3108  0.2483
 8531SOL    HW137055   1.409   3.258   3.829  1.3615  1.1338  0.8994
 8531SOL    HW237056   1.380   3.318   3.698 -0.8811  1.7385 -0.1358
 8532SOL     OW37057   4.090   0.493   5.817 -0.3332 -0.3158 -0.1879
 8532SOL    HW137058   4.020   0.558   5.811 -2.4759 -2.5296  1.0884
 8532SOL    HW237059   4.129   0.506   5.903 -2.3896  1.7004  0.4149
 8533SOL     OW37060   0.547   4.162   0.592  0.0190 -0.4924  0.1300
 8533SOL    HW137061   0.585   4.152   0.679  0.3791 -0.8354 -0.0701
 8533SOL    HW237062   0.523   4.073   0.568 -0.6332 -0.5279  0.9287
 8534SOL     OW37063   4.443   2.114   4.628  0.3936 -0.5364 -0.0056
 8534SOL    HW137064   4.379   2.133   4.559 -1.6292  0.1472  2.0771
 8534SOL    HW237065   4.518   2.086   4.576 -0.3197 -0.7278 -0.9372
 8535SOL     OW37066   3.360   0.405  12.929 -0.0861 -0.0384 -0.3608
 8535SOL    HW137067   3.407   0.345  12.987 -0.7735 -1.1931 -0.9865
 8535SOL    HW237068   3.408   0.487  12.940  1.3139 -0.7817 -0.7479
 8536SOL     OW37069   1.198   4.169   5.463  0.2868  0.2187 -0.1471
 8536SOL    HW137070   1.229   4.145   5.376 -0.6034 -2.2062  0.1984
 8536SOL    HW237071   1.129   4.230   5.437 -0.7276 -1.1634 -0.7072
 8537SOL     OW37072   3.214   0.746  14.374  0.1788  0.0249 -0.0560
 8537SOL    HW137073   3.204   0.691  14.296 -1.2717  2.2960 -1.4631
 8537SOL    HW237074   3.162   0.823  14.349 -1.6111 -0.7024  1.4605
 8538SOL     OW37075   3.784   1.478  11.765  0.4234  0.0578  0.0631
 8538SOL    HW137076   3.705   1.459  11.814  1.4295 -2.5609  0.6855
 8538SOL    HW237077   3.757   1.560  11.724  0.0807  0.5405  1.2795
 8539SOL     OW37078   4.344   2.001   4.365  0.2698  0.0884 -0.0990
 8539SOL    HW137079   4.390   2.020   4.284  0.1630 -0.4986 -0.3001
 8539SOL    HW237080   4.252   2.003   4.340 -0.3024  0.2809  2.0007
 8540SOL     OW37081   2.301   2.023   9.154 -0.4023 -0.0367 -0.5276
 8540SOL    HW137082   2.355   1.972   9.215 -2.4444 -0.6448  0.7610
 8540SOL    HW237083   2.359   2.064   9.090  0.0331  0.8614  0.4336
 8541SOL     OW37084   4.643   2.530   8.129 -0.7854  0.6284  0.3020
 8541SOL    HW137085   4.687   2.582   8.197  0.2942  0.0513  0.0560
 8541SOL    HW237086   4.694   2.559   8.053  0.5604  1.1344  1.3974
 8542SOL     OW37087   2.809   0.987  17.266  0.0181 -0.0224  0.2552
 8542SOL    HW137088   2.739   0.931  17.230  1.0235 -1.2286  0.1869
 8542SOL    HW237089   2.767   1.073  17.273  0.4271  0.3015 -1.1464
 8543SOL     OW37090   3.197   3.034   7.078 -0.2948 -0.2396 -0.0253
 8543SOL    HW137091   3.229   3.113   7.034  0.1191 -0.2091  0.3348
 8543SOL    HW237092   3.108   3.037   7.042  0.2164  0.6002 -1.2509
 8544SOL     OW37093   1.212   1.066   7.920 -0.2304 -0.0536 -0.0238
 8544SOL    HW137094   1.224   0.971   7.926  3.1661  0.2035 -3.0085
 8544SOL    HW237095   1.120   1.065   7.947  0.2174 -1.7823  1.4685
 8545SOL     OW37096   2.856   4.656   1.254  0.0030 -0.1559 -0.1241
 8545SOL    HW137097   2.951   4.651   1.269  0.0066 -1.9538 -0.7069
 8545SOL    HW237098   2.840   0.027   1.264  0.0472  0.0797 -2.2301
 8546SOL     OW37099   2.237   3.382   9.470 -0.4797  0.4763  0.0659
 8546SOL    HW137100   2.314   3.431   9.442 -0.5224  0.9345  0.7712
 8546SOL    HW237101   2.176   3.408   9.401  0.5354 -0.8702 -1.3568
 8547SOL     OW37102   2.890   1.742  11.962  0.5525  0.3560  0.2828
 8547SOL    HW137103   2.865   1.732  12.054 -0.4277  1.1458  0.0966
 8547SOL    HW237104   2.819   1.795  11.927  1.2934  0.6875 -0.7111
 8548SOL     OW37105   0.992   3.085   3.588  0.3374  0.0466 -0.0412
 8548SOL    HW137106   1.050   3.091   3.511 -1.4113  0.7257 -1.2970
 8548SOL    HW237107   1.058   3.062   3.653  0.0592  0.5119  0.4002
 8549SOL     OW37108   2.997   3.414   6.963  0.2949 -0.5002 -0.0515
 8549SOL    HW137109   2.968   3.325   6.981 -1.1431  0.0031  0.1757
 8549SOL    HW237110   2.969   3.454   7.046 -1.6250  0.2480 -1.0635
 8550SOL     OW37111   0.412   0.940   3.546  0.3022  0.2145  0.5236
 8550SOL    HW137112   0.345   0.874   3.527  1.2767 -0.4753 -0.5276
 8550SOL    HW237113   0.394   0.968   3.636  0.2984 -2.1918  1.2702
 8551SOL     OW37114   3.923   0.708   4.218 -0.1881 -0.1355  0.0788
 8551SOL    HW137115   3.921   0.707   4.122 -3.3434 -1.8042  0.1730
 8551SOL    HW237116   3.848   0.766   4.230 -0.0297  0.4667 -1.7342
 8552SOL     OW37117   2.858   2.754  14.685 -0.7425  0.1029 -0.2012
 8552SOL    HW137118   2.882   2.706  14.765 -1.1218 -1.4147 -1.0074
 8552SOL    HW237119   2.903   2.839  14.694  0.2342 -0.3022 -1.2812
 8553SOL     OW37120   2.867   2.164   0.449 -0.3274  0.9018 -0.2537
 8553SOL    HW137121   2.817   2.085   0.428 -0.7719  0.8241  1.1567
 8553SOL    HW237122   2.850   2.221   0.374  0.0234  0.4391 -0.6835
 8554SOL     OW37123   4.603   4.581   2.116 -0.2835 -0.1252  0.1817
 8554SOL    HW137124   4.540   4.578   2.043 -0.8497 -0.2432  0.6734
 8554SOL    HW237125   4.575   4.509   2.173 -0.3748 -0.0463  0.2381
 8555SOL     OW37126   3.888   0.684   5.390  0.7460 -0.3244  0.1005
 8555SOL    HW137127   3.900   0.701   5.297  1.3292  1.8200  0.5744
 8555SOL    HW237128   3.921   0.595   5.398 -0.0045 -0.7588 -1.7286
 8556SOL     OW37129   2.419   2.276   3.089 -0.1354  0.0550  0.4941
 8556SOL    HW137130   2.472   2.203   3.056  0.7537 -0.0104  2.0331
 8556SOL    HW237131   2.479   2.348   3.069  1.5347 -1.7492 -0.9239
 8557SOL     OW37132   1.772   0.808  14.391 -0.4393  0.8059  0.2147
 8557SOL    HW137133   1.708   0.839  14.455  0.7979  0.1327  1.8007
 8557SOL    HW237134   1.713   0.764  14.329  0.5910  0.1284 -0.2828
 8558SOL     OW37135   3.224   0.189   6.520  0.0396  0.6019  0.0817
 8558SOL    HW137136   3.156   0.187   6.587  0.4298 -1.9152  0.4060
 8558SOL    HW237137   3.302   0.193   6.575  0.6630  2.3898 -0.9195
 8559SOL     OW37138   1.601   0.409   4.172  0.3050 -0.4116  0.1876
 8559SOL    HW137139   1.687   0.439   4.144  0.0854  0.7053  0.7202
 8559SOL    HW237140   1.622   0.332   4.225  4.5325  1.1679  0.8126
 8560SOL     OW37141   0.499   2.648   8.805  0.5165 -0.2153  0.6541
 8560SOL    HW137142   0.525   2.645   8.713  2.2754 -0.8393  1.1740
 8560SOL    HW237143   0.489   2.744   8.806 -1.1897 -0.3731 -0.4539
 8561SOL     OW37144   4.098   0.425   3.491  0.0723  0.4079 -0.5676
 8561SOL    HW137145   4.058   0.412   3.577  0.0486 -0.5182 -0.7238
 8561SOL    HW237146   4.190   0.443   3.510  0.2663 -0.6497 -0.5080
 8562SOL     OW37147   0.406   4.214   3.405  0.0510  0.0322 -0.4535
 8562SOL    HW137148   0.429   4.141   3.462  0.7841  0.5541 -0.0707
 8562SOL    HW237149   0.343   4.179   3.342  1.8273 -0.5048 -1.9483
 8563SOL     OW37150   4.522   1.046   2.590 -0.2977 -0.1983 -0.2855
 8563SOL    HW137151   4.479   0.998   2.520  0.2716  1.3376 -1.6860
 8563SOL    HW237152   4.610   1.018   2.565 -0.2635 -0.8500  0.5687
 8564SOL     OW37153   3.788   0.969   4.432  0.1252 -0.2277 -0.0794
 8564SOL    HW137154   3.761   0.903   4.368  0.3434 -1.1709  0.7795
 8564SOL    HW237155   3.865   1.007   4.390  0.1349 -1.3357 -1.0524
 8565SOL     OW37156   2.848   2.949   1.477 -0.0128 -0.1868 -0.1650
 8565SOL    HW137157   2.860   3.044   1.487  0.3618 -0.2795  0.2667
 8565SOL    HW237158   2.927   2.902   1.503  0.8737  1.8104  0.7338
 8566SOL     OW37159   2.803   4.174   1.572  0.4010  0.3708  0.2253
 8566SOL    HW137160   2.852   4.246   1.532 -1.8541  0.8843 -1.6245
 8566SOL    HW237161   2.790   4.120   1.493  1.2054 -0.3918  0.6166
 8567SOL     OW37162   3.966   1.749   8.833  0.1358 -0.5806  0.0293
 8567SOL    HW137163   3.949   1.724   8.924 -0.9630  1.1764  0.3113
 8567SOL    HW237164   3.943   1.842   8.832  0.9406 -0.3486  2.8670
 8568SOL     OW37165   1.080   3.488   2.012 -0.1120  0.5453 -0.2236
 8568SOL    HW137166   1.027   3.499   1.933 -1.9708 -2.3851  0.6147
 8568SOL    HW237167   1.137   3.413   1.994 -1.9370 -0.5443 -1.4927
 8569SOL     OW37168   0.193   2.837   9.632  0.2024  0.4275  0.2207
 8569SOL    HW137169   0.217   2.916   9.681  1.5191 -0.6287  1.3012
 8569SOL    HW237170   0.101   2.830   9.658  0.8147 -0.3891  2.2047
 8570SOL     OW37171   2.180   2.398   3.057  0.3452  0.1596 -0.2827
 8570SOL    HW137172   2.147   2.349   2.981 -1.6802  1.3630 -0.1898
 8570SOL    HW237173   2.256   2.344   3.080 -1.2372 -1.1235  2.0003
 8571SOL     OW37174   3.545   0.974  16.755 -0.3823  0.3882 -0.7133
 8571SOL    HW137175   3.469   0.917  16.761  0.2653 -0.3406  0.5145
 8571SOL    HW237176   3.604   0.903  16.731 -0.1070 -0.5552  2.7868
 8572SOL     OW37177   3.399   1.840   7.309  0.1920  0.2029  0.6273
 8572SOL    HW137178   3.401   1.773   7.241 -0.0720  2.0791 -1.2207
 8572SOL    HW237179   3.450   1.910   7.269 -1.1924  0.7854 -0.1149
 8573SOL     OW37180   2.585   2.538   9.098  1.0183 -0.0164 -0.0585
 8573SOL    HW137181   2.517   2.484   9.058  2.6184 -2.0684 -0.0465
 8573SOL    HW237182   2.632   2.567   9.019  2.4008 -0.6808  0.5104
 8574SOL     OW37183   0.607   0.095   7.047  0.2315  0.0861  0.6858
 8574SOL    HW137184   0.665   0.140   7.107 -0.0060  0.2695  0.7795
 8574SOL    HW237185   0.644   0.006   7.049 -0.4504 -0.2383 -0.8274
 8575SOL     OW37186   3.614   0.867   1.254  0.3874  0.1770  0.4785
 8575SOL    HW137187   3.649   0.937   1.198 -0.9892  0.9437  0.5743
 8575SOL    HW237188   3.685   0.803   1.257  1.3452  1.1912 -0.8111
 8576SOL     OW37189   1.434   1.601   7.185  0.3153  0.1398  0.0207
 8576SOL    HW137190   1.508   1.652   7.152  0.1085 -0.0388 -0.7278
 8576SOL    HW237191   1.383   1.595   7.104 -0.7536  3.9717  0.3839
 8577SOL     OW37192   2.887   3.512  10.638 -0.5154 -0.1840  0.1595
 8577SOL    HW137193   2.890   3.452  10.564 -1.7121 -0.3904  0.2781
 8577SOL    HW237194   2.813   3.486  10.693 -2.4825  0.6858 -2.0596
 8578SOL     OW37195   2.693   1.128   8.075 -0.1569 -0.1323 -0.2312
 8578SOL    HW137196   2.628   1.065   8.107  0.9229 -0.3555  1.5426
 8578SOL    HW237197   2.647   1.161   7.998  1.1879 -0.5290 -1.2022
 8579SOL     OW37198   1.096   0.694   6.918 -0.5181 -0.4596 -0.3141
 8579SOL    HW137199   1.161   0.631   6.888 -0.9500 -1.3893  0.7087
 8579SOL    HW237200   1.145   0.772   6.945 -2.5511  0.6655  0.0978
 8580SOL     OW37201   1.526   3.620  11.491 -0.2105 -0.4009  0.0788
 8580SOL    HW137202   1.445   3.668  11.506  0.0638  0.1367 -0.1522
 8580SOL    HW237203   1.541   3.633  11.397 -2.2754 -1.2595 -0.3789
 8581SOL     OW37204   1.694   0.286   9.072 -0.4061 -0.0208 -0.0286
 8581SOL    HW137205   1.639   0.350   9.118  2.3275  1.2485  1.4346
 8581SOL    HW237206   1.721   0.226   9.141 -1.0745 -0.7170 -0.3762
 8582SOL     OW37207   3.185   1.056   6.242 -0.5302 -0.0618 -0.7753
 8582SOL    HW137208   3.128   1.026   6.172 -1.0815  0.6935 -0.6426
 8582SOL    HW237209   3.152   1.146   6.246  0.2716  0.2198 -0.5081
 8583SOL     OW37210   2.924   0.769  12.093 -0.4476  0.9306  0.3404
 8583SOL    HW137211   2.885   0.857  12.093 -0.1757  1.0564  1.0585
 8583SOL    HW237212   2.982   0.768  12.017 -0.2146  0.9848  0.5169
 8584SOL     OW37213   4.364   1.023   1.829 -0.0128 -0.2718 -0.0196
 8584SOL    HW137214   4.329   1.050   1.744  0.9043 -1.4883 -0.7879
 8584SOL    HW237215   4.362   1.109   1.871  2.2436 -0.4763  0.5038
 8585SOL     OW37216   0.018   2.258  17.658 -0.1870 -0.0383 -0.5434
 8585SOL    HW137217   0.079   2.292   0.032 -1.3212 -0.8947  0.9869
 8585SOL    HW237218   0.064   2.220  17.583 -0.1902  0.7701 -0.9561
 8586SOL     OW37219   2.759   3.722   8.855 -0.0801 -0.3376 -0.0491
 8586SOL    HW137220   2.821   3.727   8.928  0.1320 -0.7229 -0.1981
 8586SOL    HW237221   2.744   3.627   8.857  0.8806 -0.4731  0.5853
 8587SOL     OW37222   1.382   2.893  14.674  0.0977 -0.3878 -0.2425
 8587SOL    HW137223   1.392   2.825  14.741 -1.2900 -1.5730 -1.2281
 8587SOL    HW237224   1.465   2.936  14.692 -0.9923  1.3504  0.5885
 8588SOL     OW37225   0.085   2.758  17.338 -0.0125  0.0804  0.6712
 8588SOL    HW137226   0.139   2.710  17.275 -2.9880  0.1181 -1.8720
 8588SOL    HW237227   4.720   2.761  17.300  0.3280  1.8478 -0.0071
 8589SOL     OW37228   2.863   1.159  15.790  0.1100  0.1999 -0.3748
 8589SOL    HW137229   2.776   1.119  15.794 -0.3108  1.3025  1.8498
 8589SOL    HW237230   2.906   1.096  15.734  0.8153  0.0116  0.3768
 8590SOL     OW37231   3.508   0.686   7.994  0.1107  0.5601  0.8334
 8590SOL    HW137232   3.558   0.696   8.075  0.2102 -0.3646  0.8857
 8590SOL    HW237233   3.578   0.680   7.929  0.0342  0.5684  0.7501
 8591SOL     OW37234   3.735   4.713   7.560 -0.3700  0.4976 -0.2100
 8591SOL    HW137235   3.700   0.031   7.481 -2.8604  0.7172  1.0215
 8591SOL    HW237236   3.655   4.669   7.589  0.3261  0.6307  1.9214
 8592SOL     OW37237   3.786   3.153   8.335  0.4731  0.2650 -0.1970
 8592SOL    HW137238   3.874   3.178   8.310  0.2727  0.2140 -0.9582
 8592SOL    HW237239   3.746   3.240   8.330 -1.3856 -0.7708 -3.3494
 8593SOL     OW37240   0.745   2.102   2.408  0.3660 -0.0519  0.4098
 8593SOL    HW137241   0.711   2.015   2.387  0.5200 -0.1255  0.4680
 8593SOL    HW237242   0.667   2.136   2.452 -0.4673  1.1930 -1.9936
 8594SOL     OW37243   2.290   4.522  16.033 -0.1691 -0.2886  0.2438
 8594SOL    HW137244   2.304   4.429  16.047 -3.1660 -1.0717 -1.8667
 8594SOL    HW237245   2.258   4.554  16.117 -0.0793  0.8988 -0.1634
 8595SOL     OW37246   4.360   1.580   6.055 -0.0205 -0.3313  0.0510
 8595SOL    HW137247   4.342   1.496   6.098 -0.5575  0.2616  0.9934
 8595SOL    HW237248   4.312   1.574   5.973  3.4975 -0.2741 -2.0193
 8596SOL     OW37249   0.002   1.093   8.173 -0.3028 -0.0001  0.3702
 8596SOL    HW137250   0.000   1.150   8.250 -1.4990  0.6760 -0.1726
 8596SOL    HW237251   0.050   1.016   8.206  1.7380  0.6244 -1.1072
 8597SOL     OW37252   1.805   2.921   6.769  0.1280  0.0319  0.0068
 8597SOL    HW137253   1.735   2.980   6.797  0.0781  0.1637 -0.4040
 8597SOL    HW237254   1.756   2.877   6.699  0.8999 -1.2481  0.2582
 8598SOL     OW37255   1.456   0.611   4.076  0.0319 -0.5187 -0.1561
 8598SOL    HW137256   1.523   0.565   4.126  1.5163  0.7306 -0.9811
 8598SOL    HW237257   1.464   0.562   3.994  0.0149 -1.4747  0.4168
 8599SOL     OW37258   1.942   3.229   2.358  0.0372 -0.1063  0.3232
 8599SOL    HW137259   1.962   3.153   2.413  0.1552 -0.5897 -0.3839
 8599SOL    HW237260   1.899   3.287   2.421  1.2188 -0.9005  1.8945
 8600SOL     OW37261   1.664   3.265   4.838  0.0316 -0.1649  0.4138
 8600SOL    HW137262   1.690   3.301   4.923  1.6789  1.4618 -0.7944
 8600SOL    HW237263   1.647   3.345   4.788  3.3733 -0.7963 -1.7208
 8601SOL     OW37264   3.219   1.116   7.849  0.2029  0.2650  0.5707
 8601SOL    HW137265   3.227   1.210   7.868  0.0406  0.4324 -0.1996
 8601SOL    HW237266   3.126   1.095   7.841  0.8572 -1.6830 -1.8448
 8602SOL     OW37267   4.276   0.343   9.039 -0.2618 -0.0492 -0.1074
 8602SOL    HW137268   4.351   0.284   9.038  0.0337  0.3278  0.5778
 8602SOL    HW237269   4.216   0.291   9.093  1.7118 -2.0751  0.1602
 8603SOL     OW37270   2.074   1.858   8.219 -0.8442  0.0215 -0.0693
 8603SOL    HW137271   2.047   1.945   8.192  0.3104  0.7481  1.1184
 8603SOL    HW237272   1.990   1.815   8.237 -1.5903  1.3412 -0.4363
 8604SOL     OW37273   0.263   0.196   7.810  1.1247 -0.0765 -0.0700
 8604SOL    HW137274   0.291   0.274   7.761  1.1039  0.2313  0.4071
 8604SOL    HW237275   0.338   0.137   7.812  0.0019 -1.3307  4.4863
 8605SOL     OW37276   4.580   2.160  12.001  0.2669 -0.5248 -0.3081
 8605SOL    HW137277   4.610   2.137  11.913  0.0233 -0.9389 -0.2823
 8605SOL    HW237278   4.671   2.166  12.030 -0.5338 -1.8479  2.5237
 8606SOL     OW37279   0.872   4.054   7.328  0.4867 -0.4413 -0.1876
 8606SOL    HW137280   0.855   4.044   7.422 -0.1055  2.5530  0.0239
 8606SOL    HW237281   0.794   4.012   7.292  0.1545 -1.7794  2.1273
 8607SOL     OW37282   1.818   2.477  17.056 -0.0036 -0.0174  0.0590
 8607SOL    HW137283   1.779   2.564  17.060  1.7341  0.8051 -1.1490
 8607SOL    HW237284   1.767   2.432  17.123  0.0109  0.5029  0.4157
 8608SOL     OW37285   4.040   2.902   4.572 -0.4597 -0.1950 -0.1898
 8608SOL    HW137286   4.081   2.963   4.510  2.3070 -2.0436 -0.1694
 8608SOL    HW237287   4.052   2.937   4.660 -1.4792  0.9362 -0.4907
 8609SOL     OW37288   4.610   3.728  16.459  0.1486  0.1316  0.5702
 8609SOL    HW137289   4.515   3.740  16.463 -0.1747 -2.4426  0.8424
 8609SOL    HW237290   4.637   3.651  16.508 -0.2366  0.8704  1.9422
 8610SOL     OW37291   0.385   1.094   7.212  0.7127  0.1371  0.5334
 8610SOL    HW137292   0.324   1.035   7.168  1.2027  0.7988 -1.0300
 8610SOL    HW237293   0.458   1.066   7.157  0.6695 -2.7367  1.9643
 8611SOL     OW37294   3.629   3.093  12.214  0.0360  0.0333 -0.3841
 8611SOL    HW137295   3.609   3.186  12.222 -0.6151 -0.0860 -0.6167
 8611SOL    HW237296   3.648   3.068  12.304  3.1398  2.4715 -0.3939
 8612SOL     OW37297   2.246   2.010  17.520  0.3147  0.3369  0.2103
 8612SOL    HW137298   2.269   2.102  17.515  3.7149 -0.7562 -3.9717
 8612SOL    HW237299   2.329   1.965  17.504 -0.7023 -1.3378 -0.3884
 8613SOL     OW37300   2.449   3.757   1.477 -0.0922  0.0448  0.9806
 8613SOL    HW137301   2.373   3.747   1.419  0.1742 -0.4577  0.7262
 8613SOL    HW237302   2.456   3.853   1.479 -0.5895  0.0883  0.5768
 8614SOL     OW37303   0.063   1.116   2.805  0.2739 -0.5019  0.5381
 8614SOL    HW137304   0.108   1.032   2.814  0.6640 -0.3429  0.0322
 8614SOL    HW237305   0.120   1.175   2.756 -0.5648  0.8955  1.2475
 8615SOL     OW37306   4.618   2.355   9.756 -0.4355  0.0043  0.2854
 8615SOL    HW137307   4.687   2.301   9.717  1.4481  1.2397  1.8994
 8615SOL    HW237308   4.615   2.302   9.835  0.0065  0.1387  0.3913
 8616SOL     OW37309   2.272   1.448   2.983  0.9384  0.0098 -0.1564
 8616SOL    HW137310   2.292   1.534   2.947 -1.8405  0.5624 -0.3441
 8616SOL    HW237311   2.321   1.395   2.921  1.0405  0.2621 -0.2920
 8617SOL     OW37312   3.722   1.154  16.584 -0.1953  0.4216  0.0421
 8617SOL    HW137313   3.707   1.071  16.628  1.7028 -0.5839 -1.1828
 8617SOL    HW237314   3.633   1.171  16.552 -0.0192  1.8064  0.2613
 8618SOL     OW37315   1.130   3.392   6.556 -0.0835 -0.1083  0.0940
 8618SOL    HW137316   1.147   3.349   6.473 -2.8962  1.4821 -1.3489
 8618SOL    HW237317   1.065   3.460   6.536 -3.0897 -2.2670  2.4372
 8619SOL     OW37318   3.257   3.386  12.004 -0.3501  0.2168  0.4515
 8619SOL    HW137319   3.278   3.362  12.095  0.8136  0.2401  0.1867
 8619SOL    HW237320   3.167   3.352  12.005  0.3063 -1.5202  1.9866
 8620SOL     OW37321   2.933   2.656   7.750 -0.1846 -0.4511  0.4109
 8620SOL    HW137322   2.849   2.637   7.792  0.6620 -0.0776  2.2315
 8620SOL    HW237323   3.004   2.640   7.811  1.0635  0.6506 -0.7443
 8621SOL     OW37324   1.877   0.156  12.856  0.0300  0.0384  0.2688
 8621SOL    HW137325   1.934   0.233  12.850  0.3523 -0.1906  0.4329
 8621SOL    HW237326   1.815   0.165  12.783 -0.4510  0.1284  0.6844
 8622SOL     OW37327   1.694   0.110   1.172  0.5859  0.2949 -0.4156
 8622SOL    HW137328   1.606   0.148   1.173  1.3424  1.9605  2.2828
 8622SOL    HW237329   1.730   0.111   1.260 -0.7784 -1.0650  0.1390
 8623SOL     OW37330   1.447   2.639   4.537 -0.5740  0.2496 -0.0630
 8623SOL    HW137331   1.383   2.629   4.607  0.6730 -1.9903  0.7791
 8623SOL    HW237332   1.432   2.730   4.514 -1.2278  0.1702  0.0564
 8624SOL     OW37333   2.511   0.144   8.415  0.1084  0.3230 -0.3795
 8624SOL    HW137334   2.435   0.086   8.402 -1.5346  2.3870  0.0056
 8624SOL    HW237335   2.547   0.106   8.495 -0.8925 -2.1860 -1.1100
 8625SOL     OW37336   0.975   0.868   8.256  0.0220 -0.6185 -0.4500
 8625SOL    HW137337   0.944   0.779   8.239  0.6601 -0.7001 -1.1861
 8625SOL    HW237338   0.972   0.879   8.161  2.6420  2.2123 -0.2134
 8626SOL     OW37339   2.501   2.963   5.599  0.0746 -0.3035  0.0078
 8626SOL    HW137340   2.464   2.998   5.518  1.5290 -0.5817 -0.7781
 8626SOL    HW237341   2.565   3.032   5.617 -0.9434  0.9983 -1.3889
 8627SOL     OW37342   3.839   3.480   0.115  0.0445  0.1561 -0.2502
 8627SOL    HW137343   3.775   3.409   0.114  3.0232 -2.5019  0.1941
 8627SOL    HW237344   3.913   3.419   0.114 -1.2433 -1.3902 -0.5697
 8628SOL     OW37345   0.697   2.622   3.942  0.2892 -0.6108  0.2242
 8628SOL    HW137346   0.766   2.624   3.875 -0.6107  1.2987 -0.6127
 8628SOL    HW237347   0.681   2.714   3.962  0.2821 -0.5319 -0.1282
 8629SOL     OW37348   1.724   2.261  17.544  0.3725  0.3844 -0.2975
 8629SOL    HW137349   1.817   2.258  17.521  0.6233  2.4416  0.4788
 8629SOL    HW237350   1.706   2.177  17.586  1.4750  0.7011  0.7976
 8630SOL     OW37351   0.633   4.116   8.828 -0.2468  0.2784  0.5521
 8630SOL    HW137352   0.681   4.132   8.909  0.2649  3.9442 -0.4389
 8630SOL    HW237353   0.559   4.069   8.866 -0.4204  0.9746  1.0877
 8631SOL     OW37354   4.404   0.202   0.245  0.2935  0.2338 -0.6353
 8631SOL    HW137355   4.446   0.196   0.331  0.5241 -2.1810 -0.9305
 8631SOL    HW237356   4.418   0.297   0.239  1.6008  0.1907  1.6657
 8632SOL     OW37357   4.359   3.938   1.916  0.1726  0.1793 -0.0380
 8632SOL    HW137358   4.385   3.973   1.831 -0.9888  0.0061 -0.4630
 8632SOL    HW237359   4.273   3.902   1.895  0.5577 -0.9730  0.3467
 8633SOL     OW37360   2.335   0.039  15.643  0.5194 -0.1578 -0.3966
 8633SOL    HW137361   2.358   0.065  15.732 -2.8546 -2.1264  1.0425
 8633SOL    HW237362   2.258   0.087  15.615  0.1207 -0.4530  0.1850
 8634SOL     OW37363   2.402   0.507   8.723 -0.1946  0.7902 -0.8898
 8634SOL    HW137364   2.478   0.473   8.770  0.0404  2.7576  0.1398
 8634SOL    HW237365   2.375   0.440   8.660 -0.4243 -1.8039  1.9260
 8635SOL     OW37366   1.631   0.370   2.658 -0.3669  0.2870 -0.1260
 8635SOL    HW137367   1.549   0.333   2.690 -1.0038  1.7690 -0.0697
 8635SOL    HW237368   1.687   0.297   2.685 -2.6060 -1.4108 -0.0518
 8636SOL     OW37369   3.624   0.475   8.909  0.2318 -0.5246 -0.1957
 8636SOL    HW137370   3.682   0.433   8.845 -1.0592 -1.7628 -0.5468
 8636SOL    HW237371   3.633   0.421   8.987 -0.1157  0.9770  0.8813
 8637SOL     OW37372   0.099   1.478  10.393  0.5681 -0.1739 -0.0905
 8637SOL    HW137373   0.024   1.529  10.422  0.4720  0.0641 -0.7662
 8637SOL    HW237374   0.100   1.399  10.446 -1.0571 -0.9566 -1.2233
 8638SOL     OW37375   1.344   3.001   7.005  0.3113  0.0900  0.2635
 8638SOL    HW137376   1.283   3.069   6.977  0.9419  1.2506  1.6905
 8638SOL    HW237377   1.352   2.963   6.918 -0.9255  0.1783  0.1127
 8639SOL     OW37378   2.970   2.967   1.836 -0.2700 -0.3802 -0.1877
 8639SOL    HW137379   3.005   2.932   1.754 -1.4865 -0.9960 -0.4434
 8639SOL    HW237380   2.902   3.030   1.811 -0.6563 -0.6942  0.0802
 8640SOL     OW37381   1.653   1.629   6.254 -0.1449 -0.6597 -0.2315
 8640SOL    HW137382   1.683   1.692   6.189 -0.9656  0.1452  0.1601
 8640SOL    HW237383   1.622   1.680   6.329 -1.0373 -0.6697 -0.5952
 8641SOL     OW37384   2.253   0.087  13.417  0.0915  0.1052  0.5509
 8641SOL    HW137385   2.307   0.165  13.424  0.9037 -0.4665  0.6914
 8641SOL    HW237386   2.193   0.115  13.486  0.1267  0.4608  0.4328
 8642SOL     OW37387   1.856   3.509   6.803  0.3388  0.4605  0.3822
 8642SOL    HW137388   1.774   3.553   6.825  0.4771  0.0778  1.6758
 8642SOL    HW237389   1.863   3.535   6.711  0.0927  0.6617  0.4200
 8643SOL     OW37390   4.084   0.083   2.156  0.6142  0.1274  0.0686
 8643SOL    HW137391   4.076   0.107   2.064 -0.1308  1.1460  0.4086
 8643SOL    HW237392   4.136   0.004   2.142  0.3690 -0.3644  1.8456
 8644SOL     OW37393   4.152   4.083   3.675 -0.9147 -0.2040 -0.1831
 8644SOL    HW137394   4.136   4.175   3.699  0.2603 -0.3100  0.9921
 8644SOL    HW237395   4.242   4.092   3.642 -0.8401 -1.1065 -0.2271
 8645SOL     OW37396   2.988   4.564   8.774  0.3252 -0.1562 -0.2975
 8645SOL    HW137397   2.901   4.596   8.798  1.1228  1.3189  0.5792
 8645SOL    HW237398   2.986   4.477   8.813  1.8328 -0.5918 -1.1798
 8646SOL     OW37399   3.138   1.823   3.200  0.4440  0.0861 -0.2726
 8646SOL    HW137400   3.092   1.898   3.237 -3.1074 -0.9676 -2.5207
 8646SOL    HW237401   3.085   1.797   3.125  0.3265 -0.0820 -0.1317
 8647SOL     OW37402   2.940   3.899  15.022 -0.3840  0.4827 -0.3223
 8647SOL    HW137403   2.882   3.952  15.077 -2.8284 -0.5727 -1.8716
 8647SOL    HW237404   2.938   3.931  14.932  0.5825 -2.4837 -1.4157
 8648SOL     OW37405   4.612   1.187   7.517  0.1500 -0.3704  0.2144
 8648SOL    HW137406   4.618   1.094   7.538  1.5988 -0.3392 -0.0663
 8648SOL    HW237407   4.556   1.194   7.439 -0.8819 -1.8486  0.8292
 8649SOL     OW37408   4.342   4.437   5.536  0.3489  0.0891 -0.3171
 8649SOL    HW137409   4.408   4.416   5.603 -0.4867  0.0199  0.4838
 8649SOL    HW237410   4.302   4.517   5.570 -1.1234 -0.8347  0.0936
 8650SOL     OW37411   0.149   2.989   7.394 -0.0687  0.3184  0.1972
 8650SOL    HW137412   0.083   2.920   7.405 -2.1780  2.4131  0.9042
 8650SOL    HW237413   0.231   2.945   7.416 -0.4388  0.8826  2.6897
 8651SOL     OW37414   1.752   0.530   6.318 -0.4030  0.0095 -0.5456
 8651SOL    HW137415   1.680   0.573   6.272 -0.8622 -2.2418 -1.9385
 8651SOL    HW237416   1.824   0.589   6.341  1.1401 -2.1418  0.1615
 8652SOL     OW37417   4.581   2.316   6.126 -0.2893  0.1967  0.4904
 8652SOL    HW137418   4.674   2.322   6.148  0.2011 -0.0347 -1.5507
 8652SOL    HW237419   4.569   2.411   6.117  0.6803  0.1366 -1.3326
 8653SOL     OW37420   2.578   0.434   8.434 -0.3238 -0.6379  0.1549
 8653SOL    HW137421   2.665   0.409   8.464  0.4534  0.9973 -0.7310
 8653SOL    HW237422   2.538   0.348   8.423 -2.8904  0.6992 -1.0851
 8654SOL     OW37423   2.350   1.834   6.682  0.2529 -0.4305 -0.1697
 8654SOL    HW137424   2.357   1.787   6.599  0.5825 -0.0601 -0.3551
 8654SOL    HW237425   2.373   1.762   6.740 -3.2155  0.1785  1.9085
 8655SOL     OW37426   2.176   3.919   2.572  0.1646  0.4937  0.5382
 8655SOL    HW137427   2.170   3.918   2.476 -0.5788  2.2035  0.5564
 8655SOL    HW237428   2.088   3.954   2.589  0.0462  0.9808 -1.1083
 8656SOL     OW37429   2.638   2.524  15.537 -0.5387 -0.0385  0.6551
 8656SOL    HW137430   2.700   2.462  15.500 -0.9064 -0.2604  0.4147
 8656SOL    HW237431   2.677   2.548  15.621 -0.1146  1.0069  0.1558
 8657SOL     OW37432   1.147   3.074  17.218  0.0393  0.5947  0.5632
 8657SOL    HW137433   1.239   3.061  17.196  0.4664 -0.9826  3.2587
 8657SOL    HW237434   1.157   3.159  17.261 -1.3187  1.5115 -0.8940
 8658SOL     OW37435   1.837   0.055   5.477 -0.1753 -0.2015 -0.2723
 8658SOL    HW137436   1.929   0.048   5.503 -0.5960 -0.1185  1.2146
 8658SOL    HW237437   1.791   0.045   5.560  1.0645 -1.4599  0.2712
 8659SOL     OW37438   2.898   4.693   3.739  0.0250  0.9579  0.5216
 8659SOL    HW137439   2.917   4.615   3.688 -0.9384 -0.5329  2.4379
 8659SOL    HW237440   2.981   4.696   3.787  0.7489 -0.2340 -0.6612
 8660SOL     OW37441   1.864   0.125   9.269 -0.1124  0.6955  0.3640
 8660SOL    HW137442   1.940   0.073   9.293  0.7844  0.0430 -3.8544
 8660SOL    HW237443   1.870   0.187   9.342  0.4894 -0.2285  1.0922
 8661SOL     OW37444   4.010   0.340   2.124 -0.1803 -0.0097 -0.4852
 8661SOL    HW137445   4.034   0.253   2.156 -0.0454 -0.0432 -0.6796
 8661SOL    HW237446   4.081   0.387   2.168  0.1761  0.7986 -1.9559
 8662SOL     OW37447   3.856   3.718   3.577 -0.4250 -0.0029  0.3810
 8662SOL    HW137448   3.924   3.654   3.559 -0.6268  0.3919 -1.7404
 8662SOL    HW237449   3.795   3.691   3.508 -1.3237  0.8693  0.8245
 8663SOL     OW37450   4.384   3.828   0.732  0.1233 -0.1481  0.2740
 8663SOL    HW137451   4.312   3.872   0.687 -0.7213 -0.2337  1.5097
 8663SOL    HW237452   4.449   3.845   0.664 -0.1442 -0.8665 -0.1600
 8664SOL     OW37453   3.899   0.009   7.277 -0.2247 -0.5136  0.4317
 8664SOL    HW137454   3.919   4.688   7.360  2.5282  0.0635  0.0663
 8664SOL    HW237455   3.983   0.049   7.259 -0.1957 -1.1945 -0.9771
 8665SOL     OW37456   3.750   1.850   4.236 -0.8527  0.3182 -0.5077
 8665SOL    HW137457   3.682   1.882   4.296  1.3579  2.4867  0.8422
 8665SOL    HW237458   3.803   1.928   4.219  0.7658 -0.6576  0.1210
 8666SOL     OW37459   3.009   1.777   6.794 -0.4528 -0.2355  0.6901
 8666SOL    HW137460   3.026   1.742   6.706 -0.0034  0.1489  0.6213
 8666SOL    HW237461   2.987   1.869   6.785 -1.3518 -0.6228 -0.9605
 8667SOL     OW37462   4.032   3.663   3.141 -0.6806  0.0479 -0.3403
 8667SOL    HW137463   4.001   3.575   3.163  0.9582 -1.0204 -2.2738
 8667SOL    HW237464   4.070   3.644   3.055 -1.6009  1.0978 -0.9780
 8668SOL     OW37465   3.758   1.440   4.998 -0.1286 -0.6849  0.2301
 8668SOL    HW137466   3.788   1.351   4.983  1.1113 -0.0599 -1.0266
 8668SOL    HW237467   3.834   1.469   5.048 -1.1182  1.3218  0.6052
 8669SOL     OW37468   2.918   1.544   2.945  0.4605  0.9163 -0.0330
 8669SOL    HW137469   2.990   1.535   2.882 -0.0692 -1.7310 -0.2955
 8669SOL    HW237470   2.908   1.639   2.944 -0.2828  0.8281 -2.5042
 8670SOL     OW37471   2.685   3.015  15.152 -0.5614  0.0932  0.2599
 8670SOL    HW137472   2.749   2.949  15.126 -0.5350 -0.6735  2.3506
 8670SOL    HW237473   2.748   3.073  15.195 -1.3921  0.8274  0.4786
 8671SOL     OW37474   4.044   2.917  13.535 -0.2225 -0.4038 -0.1954
 8671SOL    HW137475   3.956   2.888  13.510  0.0504  0.5367 -2.2261
 8671SOL    HW237476   4.023   2.955  13.620  1.7497 -1.0405  0.5820
 8672SOL     OW37477   3.010   2.365   5.178 -0.1283  0.3693  0.3602
 8672SOL    HW137478   3.055   2.282   5.197  0.0143 -0.3030 -2.8734
 8672SOL    HW237479   3.080   2.420   5.213 -1.5860  0.0846  3.6926
 8673SOL     OW37480   4.583   1.376   1.487  0.2796 -0.5374 -0.4940
 8673SOL    HW137481   4.544   1.361   1.573  2.5404 -0.8243  0.4856
 8673SOL    HW237482   4.620   1.288   1.474  2.5867  0.3255  0.2833
 8674SOL     OW37483   4.052   4.276   6.047  0.1108  0.4249  0.4449
 8674SOL    HW137484   4.032   4.224   6.125  0.0107  1.3461  1.0464
 8674SOL    HW237485   3.970   4.318   6.023  0.6219  1.0753 -0.1774
 8675SOL     OW37486   1.385   4.311   8.620 -0.0949  0.4223  0.3563
 8675SOL    HW137487   1.392   4.311   8.525 -1.0479  0.9087  0.2890
 8675SOL    HW237488   1.331   4.386   8.646 -0.6582  0.1396  0.0028
 8676SOL     OW37489   4.562   1.757   8.249 -0.0631  0.0322 -0.4213
 8676SOL    HW137490   4.623   1.826   8.275 -1.0538 -0.1892  2.5639
 8676SOL    HW237491   4.484   1.808   8.231 -1.0941 -0.3693  2.8668
 8677SOL     OW37492   0.642   4.591   4.871 -0.0799  0.3574  0.0550
 8677SOL    HW137493   0.633   4.659   4.803  0.9925  0.9550  0.5143
 8677SOL    HW237494   0.720   4.620   4.917 -0.1323 -2.4097  1.8411
 8678SOL     OW37495   1.990   0.956   5.547 -0.2685  0.0387  0.0063
 8678SOL    HW137496   1.989   1.030   5.487 -0.4747 -0.7649 -0.9781
 8678SOL    HW237497   2.083   0.938   5.532 -0.1760  0.1015  0.4782
 8679SOL     OW37498   1.245   4.390   2.270  0.0530  0.2763 -0.3844
 8679SOL    HW137499   1.273   4.316   2.216 -1.5503  0.6708 -1.7551
 8679SOL    HW237500   1.209   4.342   2.344 -0.5819 -1.5916 -1.8739
 8680SOL     OW37501   3.120   3.131   2.159  0.1490  0.4945  0.1795
 8680SOL    HW137502   3.027   3.152   2.156  0.0424  0.1903  1.1682
 8680SOL    HW237503   3.130   3.110   2.252 -2.7295 -4.9570 -0.7265
 8681SOL     OW37504   2.357   1.114   6.954 -0.6724  0.1106  0.2079
 8681SOL    HW137505   2.298   1.076   7.018 -0.8056  0.9216  0.5707
 8681SOL    HW237506   2.377   1.033   6.908  1.5817 -0.2069  1.7652
 8682SOL     OW37507   3.976   1.441   1.056 -0.0470 -0.1743  0.6332
 8682SOL    HW137508   4.059   1.401   1.031  1.3732  1.4988  2.6066
 8682SOL    HW237509   3.992   1.529   1.092  1.0930  0.3637 -1.1772
 8683SOL     OW37510   3.108   0.280  11.823 -0.6301 -0.4996  0.2366
 8683SOL    HW137511   3.087   0.221  11.751 -2.2315 -0.8889  1.0239
 8683SOL    HW237512   3.133   0.363  11.784 -1.4616 -1.3821 -2.1904
 8684SOL     OW37513   2.279   4.096   5.606 -0.2874  0.0730  0.0565
 8684SOL    HW137514   2.262   4.017   5.656 -2.4850  1.1518  1.0163
 8684SOL    HW237515   2.374   4.105   5.609 -0.6723  4.0128  1.6345
 8685SOL     OW37516   0.948   3.142   2.019 -0.4343 -0.3469  0.5246
 8685SOL    HW137517   0.951   3.232   1.985 -2.2259 -1.3141 -2.1532
 8685SOL    HW237518   0.936   3.088   1.941 -0.4688 -0.2041  0.4302
 8686SOL     OW37519   0.896   2.680   8.359 -0.1267  0.0209 -0.8435
 8686SOL    HW137520   0.953   2.638   8.424 -0.9562 -0.8304 -0.6698
 8686SOL    HW237521   0.950   2.742   8.310 -0.7839  1.6845  0.5459
 8687SOL     OW37522   2.540   2.735   5.727 -0.4319 -0.2144 -0.9452
 8687SOL    HW137523   2.558   2.800   5.794 -0.4407 -0.1577 -0.9978
 8687SOL    HW237524   2.502   2.797   5.665 -1.3402  0.1163 -0.0613
 8688SOL     OW37525   2.571   4.466   3.638  0.1330 -0.3754  0.0708
 8688SOL    HW137526   2.600   4.526   3.569 -2.8470 -2.2432 -2.8097
 8688SOL    HW237527   2.492   4.437   3.593 -0.4847  0.1043  0.8622
 8689SOL     OW37528   3.040   0.667  10.577 -0.0854 -1.0160 -0.0608
 8689SOL    HW137529   3.019   0.626  10.494  2.2117 -0.6428 -0.8222
 8689SOL    HW237530   3.130   0.697  10.568  0.8487 -3.7147  0.2973
 8690SOL     OW37531   3.774   2.069   0.866 -0.0231 -0.0013 -0.0848
 8690SOL    HW137532   3.849   2.095   0.813 -1.3282 -0.7367 -2.2938
 8690SOL    HW237533   3.820   2.016   0.931 -0.6239 -1.1778 -0.6274
 8691SOL     OW37534   3.819   2.833  11.168  0.4511 -0.1298  0.1441
 8691SOL    HW137535   3.907   2.836  11.206  1.7692 -0.3029 -2.8780
 8691SOL    HW237536   3.791   2.923  11.180  1.5898  0.1178  1.0654
 8692SOL     OW37537   0.109   2.946   4.902 -0.4894  0.1708  0.0779
 8692SOL    HW137538   0.159   3.007   4.957 -1.5165  1.2225 -0.1494
 8692SOL    HW237539   0.022   2.976   4.930  0.6564  1.6539  2.0389
 8693SOL     OW37540   3.848   1.590   5.964  0.4867  0.3360 -0.5536
 8693SOL    HW137541   3.859   1.518   6.025 -1.6874  0.1110 -0.4153
 8693SOL    HW237542   3.861   1.544   5.881 -1.0497 -1.2858  0.1252
 8694SOL     OW37543   2.136   2.117   9.674 -0.4658 -0.0377 -0.7378
 8694SOL    HW137544   2.214   2.065   9.696  0.1387  0.6863 -1.1850
 8694SOL    HW237545   2.127   2.158   9.760  0.0095  1.3124 -1.3357
 8695SOL     OW37546   0.415   4.149   5.167 -0.7847  0.4565  0.5627
 8695SOL    HW137547   0.489   4.201   5.137 -0.9287  0.4047  0.1232
 8695SOL    HW237548   0.421   4.141   5.262  1.1573  0.6322  0.4456
 8696SOL     OW37549   3.833   3.276  13.546  0.0940  0.0738 -0.5417
 8696SOL    HW137550   3.823   3.234  13.461  0.6130 -0.3155 -0.4121
 8696SOL    HW237551   3.833   3.362  13.505 -1.1706  0.0172 -0.6635
 8697SOL     OW37552   0.384   2.205   2.716  0.0537  0.0575  0.5434
 8697SOL    HW137553   0.338   2.133   2.758 -0.3797 -0.3765 -0.6779
 8697SOL    HW237554   0.441   2.241   2.783  0.3699  0.3690  0.1117
 8698SOL     OW37555   1.710   0.486  12.365  0.1682 -0.4230 -0.1204
 8698SOL    HW137556   1.678   0.527  12.284 -1.0504  0.2621  0.7150
 8698SOL    HW237557   1.803   0.473  12.351 -0.2138 -2.1281 -1.1857
 8699SOL     OW37558   0.475   4.065  13.604  0.1871  0.0769 -0.1223
 8699SOL    HW137559   0.400   4.007  13.594  0.2992 -0.5817  2.8448
 8699SOL    HW237560   0.444   4.155  13.594 -1.1782 -0.3045  0.8291
 8700SOL     OW37561   0.882   1.063   6.318  0.4760 -0.2104  0.2370
 8700SOL    HW137562   0.919   0.992   6.266  1.9045 -0.1453  1.1633
 8700SOL    HW237563   0.833   1.025   6.391  2.2160 -0.5773  1.2048
 8701SOL     OW37564   3.586   1.526  12.354  1.2072 -0.3187 -0.3503
 8701SOL    HW137565   3.650   1.511  12.424 -0.1593  0.1490  0.9970
 8701SOL    HW237566   3.571   1.433  12.338 -1.0264  0.0625 -0.4763
 8702SOL     OW37567   2.355   2.161   3.630  0.1729 -0.3699  0.8675
 8702SOL    HW137568   2.273   2.207   3.613 -0.2744 -1.6501 -0.4756
 8702SOL    HW237569   2.413   2.226   3.668  0.0957 -1.0848  2.1870
 8703SOL     OW37570   1.778   0.547   8.921  0.1985  0.4974 -0.1828
 8703SOL    HW137571   1.737   0.462   8.934  0.5817  0.2687 -0.4471
 8703SOL    HW237572   1.712   0.609   8.950  0.3771 -0.6324  2.6923
 8704SOL     OW37573   4.504   2.543  12.660  0.0838 -0.4243  0.4671
 8704SOL    HW137574   4.457   2.461  12.679  0.3180 -1.1140 -1.9062
 8704SOL    HW237575   4.461   2.602  12.722  0.7972  0.0439  0.5157
 8705SOL     OW37576   3.431   3.707   6.293  0.2620 -0.1916 -0.1406
 8705SOL    HW137577   3.388   3.652   6.359 -1.5886 -1.1421 -2.1215
 8705SOL    HW237578   3.445   3.654   6.214  1.8418  1.8891 -1.2354
 8706SOL     OW37579   1.254   0.175  13.417  0.4971  0.3906  0.4548
 8706SOL    HW137580   1.204   0.150  13.339  3.3164 -2.0736 -0.5463
 8706SOL    HW237581   1.276   0.265  13.394  3.3163 -0.1013  1.3157
 8707SOL     OW37582   3.709   3.830   8.050  0.1850 -0.1942  0.3409
 8707SOL    HW137583   3.757   3.871   7.978  0.7444  0.6666  1.1900
 8707SOL    HW237584   3.621   3.844   8.015  0.8870 -0.4280 -1.4938
 8708SOL     OW37585   4.058   1.966   0.350  0.5468  0.5619  0.6204
 8708SOL    HW137586   4.063   1.892   0.410 -0.4757  1.5196  1.8862
 8708SOL    HW237587   3.980   1.955   0.296 -0.1475  2.5180  1.2357
 8709SOL     OW37588   4.037   2.838   1.361  0.3494 -0.4326  0.0135
 8709SOL    HW137589   4.012   2.927   1.336  0.2910 -0.4233  0.1072
 8709SOL    HW237590   4.058   2.850   1.454 -1.7197  1.1725  0.2603
 8710SOL     OW37591   2.042   2.301   3.381 -0.0010 -0.2343 -0.4195
 8710SOL    HW137592   2.056   2.306   3.475 -0.2654  0.9085 -0.4468
 8710SOL    HW237593   2.131   2.277   3.355 -0.0904 -0.0196 -0.9295
 8711SOL     OW37594   2.715   1.195   7.173  0.1533  0.7184  0.0114
 8711SOL    HW137595   2.722   1.291   7.170 -0.1147  0.7493  0.3058
 8711SOL    HW237596   2.620   1.190   7.182  0.1732  0.4272  0.0383
 8712SOL     OW37597   2.120   2.846   7.584 -0.4928  0.1080 -0.3043
 8712SOL    HW137598   2.191   2.908   7.574 -0.9060  0.5049 -0.7924
 8712SOL    HW237599   2.167   2.772   7.622 -2.8001  0.4623  3.2439
 8713SOL     OW37600   4.306   3.398   3.588  0.5451  0.8235 -0.4137
 8713SOL    HW137601   4.369   3.327   3.597 -0.0916  0.6212  2.5615
 8713SOL    HW237602   4.298   3.387   3.494 -1.3386 -2.8440  0.1802
 8714SOL     OW37603   1.206   3.618   4.300  0.6992 -0.1854 -0.4257
 8714SOL    HW137604   1.273   3.550   4.308 -0.5743 -1.4762 -0.7455
 8714SOL    HW237605   1.189   3.635   4.393  1.2233 -0.8475 -0.2051
 8715SOL     OW37606   2.680   1.968   3.915  0.3092  0.2080 -0.0078
 8715SOL    HW137607   2.628   1.984   3.836 -1.5246 -1.2826  0.8992
 8715SOL    HW237608   2.748   1.911   3.879  0.7684  0.1060  1.0187
 8716SOL     OW37609   3.905   3.259   2.754 -0.3347  0.1563 -0.4783
 8716SOL    HW137610   3.868   3.344   2.780 -0.8084 -0.6258  1.4638
 8716SOL    HW237611   3.947   3.284   2.672  2.2285 -0.2427  0.7313
 8717SOL     OW37612   2.692   3.380   5.469 -0.0867 -0.4548 -0.0438
 8717SOL    HW137613   2.733   3.466   5.478 -0.6481 -0.4451  2.3672
 8717SOL    HW237614   2.776   3.335   5.455  0.4654  0.4608  0.3631
 8718SOL     OW37615   1.329   1.572   6.871 -0.2783  0.2208  0.6402
 8718SOL    HW137616   1.337   1.647   6.811  0.6683 -0.6377 -0.3188
 8718SOL    HW237617   1.420   1.550   6.890 -0.3333 -0.4827  0.1120
 8719SOL     OW37618   0.015   1.171   8.981 -0.1463 -0.3723 -0.1512
 8719SOL    HW137619   0.029   1.112   9.055 -1.3433  0.7608  0.9859
 8719SOL    HW237620   4.644   1.160   8.961 -0.3580  3.3960 -1.3978
 8720SOL     OW37621   4.129   0.126   7.194 -0.8005 -0.3197  0.0980
 8720SOL    HW137622   4.221   0.130   7.222 -1.4410 -0.1236  2.2232
 8720SOL    HW237623   4.100   0.204   7.241 -0.6263  0.5250 -1.2139
 8721SOL     OW37624   1.278   4.315   9.990 -0.1219 -0.3559  0.1194
 8721SOL    HW137625   1.311   4.404   9.980 -1.3344 -0.0514 -1.2925
 8721SOL    HW237626   1.257   4.303  10.083  0.2344 -1.5743  0.0406
 8722SOL     OW37627   0.897   4.344   3.745 -0.0512 -0.2433 -0.1112
 8722SOL    HW137628   0.867   4.256   3.722  0.2205 -0.7321  1.3917
 8722SOL    HW237629   0.823   4.396   3.713 -1.0404 -1.8461 -0.4386
 8723SOL     OW37630   3.547   2.147   4.237  0.2555 -0.3390 -0.0542
 8723SOL    HW137631   3.509   2.219   4.287  1.1071  0.4769 -0.5743
 8723SOL    HW237632   3.482   2.077   4.238 -1.1430  1.0064  1.9364
 8724SOL     OW37633   1.030   2.539   8.556 -0.2647 -0.5970 -0.2529
 8724SOL    HW137634   1.084   2.530   8.635  1.7752  1.6391 -1.4074
 8724SOL    HW237635   0.943   2.522   8.594 -0.6598  0.0061 -0.9063
 8725SOL     OW37636   3.994   2.449   9.653 -0.1114 -0.0816 -0.7099
 8725SOL    HW137637   3.936   2.400   9.593 -0.9265  0.3757 -0.2898
 8725SOL    HW237638   3.988   2.530   9.603 -3.1648  0.2414  0.1405
 8726SOL     OW37639   0.875   4.317   5.459  0.5345  0.0692  0.0848
 8726SOL    HW137640   0.953   4.368   5.434  1.8126 -0.5006  2.8594
 8726SOL    HW237641   0.842   4.287   5.375  0.9989 -3.3553  1.1420
 8727SOL     OW37642   3.966   1.703   0.854  0.2104 -0.1113  0.2719
 8727SOL    HW137643   4.018   1.623   0.849 -2.5157 -1.9098  1.7255
 8727SOL    HW237644   3.885   1.680   0.809 -0.3551  0.3246  1.0727
 8728SOL     OW37645   3.700   4.713  12.529  0.0119 -0.0268  0.0181
 8728SOL    HW137646   3.753   0.051  12.580  2.1372 -0.5633 -1.5727
 8728SOL    HW237647   3.689   0.045  12.451 -2.8725  0.4714  0.7667
 8729SOL     OW37648   2.650   4.706   0.454 -0.0511 -0.0110  0.4609
 8729SOL    HW137649   2.606   4.656   0.385  0.0003 -0.9551  1.1034
 8729SOL    HW237650   2.669   4.633   0.513  0.9981  0.5973  0.8780
 8730SOL     OW37651   3.689   4.593  10.485 -0.0807 -0.8158 -0.4392
 8730SOL    HW137652   3.706   4.505  10.520 -0.9695 -1.7529 -2.3934
 8730SOL    HW237653   3.776   4.614  10.452 -0.8576  0.1119 -1.8827
 8731SOL     OW37654   0.688   1.152   0.685 -0.6349  0.6145 -0.7117
 8731SOL    HW137655   0.639   1.069   0.678  1.5285 -0.5009 -2.7634
 8731SOL    HW237656   0.747   1.141   0.611  0.1485 -0.0694  0.0152
 8732SOL     OW37657   2.035   2.852   3.207 -0.1415 -0.2256  0.0035
 8732SOL    HW137658   2.043   2.835   3.301  0.2852  1.2386  0.2322
 8732SOL    HW237659   2.093   2.787   3.168 -0.5859 -0.9217  0.5100
 8733SOL     OW37660   0.675   2.638  14.947  0.2648  0.5083  0.3673
 8733SOL    HW137661   0.601   2.581  14.927 -0.3038  1.0203  1.0150
 8733SOL    HW237662   0.644   2.678  15.029 -0.8966 -0.8931  0.6052
 8734SOL     OW37663   4.246   0.467   2.894 -0.5742  0.1253 -0.5015
 8734SOL    HW137664   4.195   0.500   2.821  0.6722  0.2932 -1.2906
 8734SOL    HW237665   4.312   0.417   2.847 -0.8974  0.9452 -1.8164
 8735SOL     OW37666   2.568   2.394   3.613  0.2142  0.6293 -0.2767
 8735SOL    HW137667   2.643   2.358   3.661 -0.6685 -0.3408  0.3909
 8735SOL    HW237668   2.522   2.430   3.689  1.1525 -1.1568  1.1504
 8736SOL     OW37669   0.554   0.336  16.630  0.1708 -0.1482  0.4418
 8736SOL    HW137670   0.572   0.407  16.569 -0.8178  0.3180  0.6771
 8736SOL    HW237671   0.520   0.274  16.565 -0.6901  1.2338 -0.4347
 8737SOL     OW37672   0.213   0.884   6.039  0.2973 -0.0659  0.2690
 8737SOL    HW137673   0.193   0.836   6.119 -0.6039  1.6792  1.0956
 8737SOL    HW237674   0.181   0.968   6.071  2.1008  1.7964 -2.7700
 8738SOL     OW37675   3.658   2.180   0.309  0.4665 -0.3488  0.7501
 8738SOL    HW137676   3.712   2.101   0.313  3.1224  1.3267 -2.9293
 8738SOL    HW237677   3.725   2.243   0.283  1.4060 -1.4593  0.5198
 8739SOL     OW37678   1.352   3.508  12.676  0.0132 -0.3017  0.9284
 8739SOL    HW137679   1.403   3.504  12.756  0.6417  1.5368  0.6113
 8739SOL    HW237680   1.331   3.415  12.661  2.0233 -0.5623 -0.2469
 8740SOL     OW37681   2.260   2.266   7.389 -0.2421  0.2025  0.2054
 8740SOL    HW137682   2.231   2.187   7.343  0.4238  0.2310 -0.2539
 8740SOL    HW237683   2.349   2.283   7.359 -0.0067 -0.1339  0.7072
 8741SOL     OW37684   0.369   2.855   7.612  0.0711 -0.5144 -0.2089
 8741SOL    HW137685   0.423   2.917   7.661  2.7455 -1.7208 -1.6178
 8741SOL    HW237686   0.281   2.884   7.637  0.4619  1.3117 -0.9848
 8742SOL     OW37687   3.137   1.905   1.971 -0.1489  1.0216 -0.1725
 8742SOL    HW137688   3.134   1.980   2.031  1.8214  1.3183 -0.4487
 8742SOL    HW237689   3.212   1.931   1.918 -1.5818  1.5921 -1.9294
 8743SOL     OW37690   4.008   1.888  11.277  0.0167  0.6325  0.2869
 8743SOL    HW137691   4.011   1.897  11.182 -0.9179 -1.4995  0.0478
 8743SOL    HW237692   3.915   1.871  11.294  0.2744 -0.7232  0.3485
 8744SOL     OW37693   4.070   1.876   4.360 -0.1719  0.6374 -0.2361
 8744SOL    HW137694   4.126   1.817   4.410 -2.5909 -0.8585  0.6745
 8744SOL    HW237695   4.024   1.800   4.324 -0.1339 -0.4719  2.1036
 8745SOL     OW37696   3.218   4.215   4.559  0.1127  0.2244  0.1525
 8745SOL    HW137697   3.298   4.164   4.575  0.8114  0.8593 -1.3031
 8745SOL    HW237698   3.256   4.303   4.553 -1.8897  1.0545 -0.1994
 8746SOL     OW37699   1.926   2.770  11.214 -0.9088 -0.1780 -0.0357
 8746SOL    HW137700   1.845   2.740  11.256 -0.8960  2.0277  1.5917
 8746SOL    HW237701   1.993   2.725  11.264  1.1523  2.5733 -0.3142
 8747SOL     OW37702   3.530   1.264   4.303 -0.2868  0.7240  0.7397
 8747SOL    HW137703   3.452   1.254   4.249  1.0889  2.8599 -1.6344
 8747SOL    HW237704   3.593   1.277   4.232  2.0296  0.2697  2.7185
 8748SOL     OW37705   2.858   1.259   3.569 -0.4756  0.5110  0.6850
 8748SOL    HW137706   2.763   1.261   3.561 -0.4680 -0.6593  0.2889
 8748SOL    HW237707   2.891   1.319   3.502  1.4799 -0.1262  1.0687
 8749SOL     OW37708   1.648   4.340   8.732  0.1726  0.0158 -0.4371
 8749SOL    HW137709   1.659   4.432   8.758  1.6344 -0.1849 -0.3607
 8749SOL    HW237710   1.561   4.350   8.694 -0.0386 -1.3221 -0.3023
 8750SOL     OW37711   2.225   3.723   7.070 -0.2803 -0.9240 -0.3498
 8750SOL    HW137712   2.304   3.771   7.094  0.3208 -1.8595 -0.4715
 8750SOL    HW237713   2.166   3.769   7.130  1.2149 -1.1027  1.2508
 8751SOL     OW37714   3.968   0.385   5.342  0.1424  0.4773 -0.3458
 8751SOL    HW137715   3.903   0.332   5.296  1.0180  0.5479 -1.6653
 8751SOL    HW237716   4.045   0.364   5.290  0.4483  0.3366  0.1570
 8752SOL     OW37717   1.956   3.804   3.717  0.2319 -0.0334  0.5682
 8752SOL    HW137718   1.869   3.796   3.756  0.9220 -1.2082  1.8575
 8752SOL    HW237719   1.985   3.888   3.753  1.0715  0.1507 -0.5263
 8753SOL     OW37720   4.194   4.326   4.867  0.0551 -0.5383 -0.5679
 8753SOL    HW137721   4.104   4.350   4.890  0.4649  0.5980 -0.1511
 8753SOL    HW237722   4.214   4.267   4.940 -0.8861 -1.1823 -0.8230
 8754SOL     OW37723   1.914   4.523   2.623 -0.2591  0.0208 -0.1219
 8754SOL    HW137724   1.985   4.563   2.571 -0.6107  0.2038 -0.4592
 8754SOL    HW237725   1.854   4.597   2.625  2.0566  1.8541  2.1974
 8755SOL     OW37726   3.365   4.026   2.338 -0.9037  0.0985 -0.1775
 8755SOL    HW137727   3.449   3.992   2.368 -0.1372  2.0096 -0.1948
 8755SOL    HW237728   3.320   3.950   2.300  0.4389 -1.0613  0.5389
 8756SOL     OW37729   0.903   4.117   3.580 -0.2305 -0.1559 -0.2243
 8756SOL    HW137730   0.977   4.071   3.540 -0.6668 -0.1013 -1.0812
 8756SOL    HW237731   0.846   4.129   3.504 -0.3314 -0.7306 -0.2389
 8757SOL     OW37732   3.695   2.208   7.547 -0.0866 -0.7500  0.5952
 8757SOL    HW137733   3.739   2.200   7.632  0.1696 -0.1654  0.5173
 8757SOL    HW237734   3.644   2.127   7.541 -0.9065 -0.2929  1.4773
 8758SOL     OW37735   1.418   0.349   2.292 -0.6002  0.3860 -0.5635
 8758SOL    HW137736   1.395   0.311   2.377 -2.1175  2.3754 -0.0860
 8758SOL    HW237737   1.507   0.383   2.305 -1.1744  2.1389 -1.1617
 8759SOL     OW37738   4.710   2.015   9.096  0.2481  0.1300 -0.5166
 8759SOL    HW137739   4.706   1.926   9.062  0.2397  0.1030 -0.4459
 8759SOL    HW237740   0.004   1.993   9.188 -1.5754 -0.3509 -0.2986
 8760SOL     OW37741   3.723   0.478   3.068  0.2268  0.1595  0.2315
 8760SOL    HW137742   3.810   0.441   3.083 -0.2352 -0.7835  0.5872
 8760SOL    HW237743   3.739   0.571   3.081  1.1617  0.4415 -2.8842
 8761SOL     OW37744   1.769   0.564   8.099 -0.3060 -0.5896 -0.2065
 8761SOL    HW137745   1.847   0.617   8.085  0.2183 -1.6265 -1.1983
 8761SOL    HW237746   1.782   0.478   8.058  1.3741 -1.2086  1.6197
 8762SOL     OW37747   2.295   3.047   3.756  0.1352  0.1209  0.0731
 8762SOL    HW137748   2.329   3.020   3.841  1.8965  3.2656  0.3773
 8762SOL    HW237749   2.337   2.983   3.699  1.7793  0.8163  0.5203
 8763SOL     OW37750   2.035   0.355   9.075  0.5336  0.4254  0.2660
 8763SOL    HW137751   1.954   0.312   9.102 -0.3897  1.4557 -0.8633
 8763SOL    HW237752   2.026   0.449   9.091  0.4391  0.4973 -0.2039
 8764SOL     OW37753   1.136   0.866  12.624  0.2408 -0.1463  0.1055
 8764SOL    HW137754   1.181   0.798  12.674  4.1367  0.2427 -2.8822
 8764SOL    HW237755   1.057   0.825  12.588  1.3009 -2.9817  0.9423
 8765SOL     OW37756   3.854   2.319   6.929 -0.7855  0.0530 -0.3500
 8765SOL    HW137757   3.921   2.316   6.861 -0.9090  0.0765 -0.4731
 8765SOL    HW237758   3.846   2.410   6.957 -3.1177  0.3444 -1.9693
 8766SOL     OW37759   4.548   3.029   2.039 -0.0149 -0.1307 -0.3734
 8766SOL    HW137760   4.502   2.970   1.979 -0.7636  0.5907 -0.5144
 8766SOL    HW237761   4.525   3.117   2.010  1.7591  0.7229  0.8315
 8767SOL     OW37762   1.687   1.726   2.401  0.2979 -0.4229 -0.1493
 8767SOL    HW137763   1.707   1.814   2.368  1.0599 -0.0249  1.3832
 8767SOL    HW237764   1.628   1.690   2.335 -1.8408 -1.5271  2.3810
 8768SOL     OW37765   1.360   2.631   9.015 -0.4690  0.0141 -0.6043
 8768SOL    HW137766   1.446   2.598   8.988  0.0857  0.5956  0.4506
 8768SOL    HW237767   1.369   2.609   9.108 -0.1858 -1.1131 -0.9014
 8769SOL     OW37768   1.214   0.579   9.984  0.2327 -0.2855  0.3061
 8769SOL    HW137769   1.272   0.571   9.908 -2.4008 -4.1648 -1.2389
 8769SOL    HW237770   1.239   0.500  10.033 -2.1073  0.9657  3.5299
 8770SOL     OW37771   2.857   1.556   5.801 -0.0774  0.1289 -0.4341
 8770SOL    HW137772   2.871   1.645   5.835  0.1193  0.4335 -1.2989
 8770SOL    HW237773   2.763   1.568   5.789  0.1580  0.7125 -1.7374
 8771SOL     OW37774   0.104   3.668   2.500 -0.9296  0.3024 -0.1092
 8771SOL    HW137775   0.121   3.729   2.572  3.6162 -0.7184 -0.3208
 8771SOL    HW237776   0.059   3.595   2.542 -0.4995  0.1843  0.1375
 8772SOL     OW37777   2.444   3.952   2.892  0.1731 -0.1953 -0.6464
 8772SOL    HW137778   2.367   3.895   2.899  0.2714 -0.2455  0.0797
 8772SOL    HW237779   2.402   4.036   2.875 -1.7818 -0.6362  1.9051
 8773SOL     OW37780   3.290   3.307  15.722  0.2129  0.2675  0.3166
 8773SOL    HW137781   3.199   3.303  15.753 -0.2149 -2.4172 -1.3096
 8773SOL    HW237782   3.290   3.382  15.663  0.5055  0.1520  0.1716
 8774SOL     OW37783   3.962   1.095   4.035  0.5733 -0.0605 -0.7076
 8774SOL    HW137784   4.051   1.084   4.003  1.0534  1.2658  0.2025
 8774SOL    HW237785   3.934   1.179   3.998  0.7598  1.1508  1.8904
 8775SOL     OW37786   2.978   4.274   4.904  0.5136 -0.2087 -0.0687
 8775SOL    HW137787   3.044   4.206   4.890  1.6705  0.8575  0.2453
 8775SOL    HW237788   3.017   4.341   4.848  0.9178 -0.4552 -0.0864
 8776SOL     OW37789   0.954   4.626   7.315  0.1577  0.0098  0.2904
 8776SOL    HW137790   1.046   4.630   7.289  0.3089 -0.4156  0.7555
 8776SOL    HW237791   0.919   4.642   7.228  1.0492  1.1031  0.1352
 8777SOL     OW37792   0.341   1.695   2.386 -0.7002  0.0396  0.0400
 8777SOL    HW137793   0.385   1.610   2.377 -3.3951 -0.9715 -3.2632
 8777SOL    HW237794   0.256   1.676   2.347 -0.6286 -0.0920 -0.0528
 8778SOL     OW37795   3.418   2.264  13.817 -0.2620 -0.0937  0.6186
 8778SOL    HW137796   3.412   2.359  13.832 -1.9037  0.3731 -3.0937
 8778SOL    HW237797   3.443   2.269  13.724  1.5621  0.3414  1.1250
 8779SOL     OW37798   4.327   0.670   6.937  0.0572  0.4727  0.7444
 8779SOL    HW137799   4.413   0.630   6.948  0.4488  1.2313  0.4821
 8779SOL    HW237800   4.267   0.612   6.985  1.7812  0.7905  3.2618
 8780SOL     OW37801   0.641   3.373   5.501 -0.9095  0.3296  0.0384
 8780SOL    HW137802   0.700   3.339   5.434  0.1454 -0.7034  1.5021
 8780SOL    HW237803   0.594   3.439   5.449  0.4896  1.2287 -0.1028
 8781SOL     OW37804   1.300   3.832   5.014  0.5356 -0.0522  0.0070
 8781SOL    HW137805   1.340   3.794   4.936 -0.2519  0.6167 -0.7296
 8781SOL    HW237806   1.366   3.808   5.079  0.5464 -0.4563 -0.1569
 8782SOL     OW37807   3.062   4.538   5.439 -0.6608 -0.2477 -0.1771
 8782SOL    HW137808   3.062   4.445   5.415 -0.9812 -0.5486  0.9797
 8782SOL    HW237809   3.031   4.530   5.529 -0.2047 -1.4010 -0.1264
 8783SOL     OW37810   1.069   3.121   4.353 -0.4799  0.3898 -0.6867
 8783SOL    HW137811   1.113   3.171   4.421  0.9622 -0.3234 -1.0769
 8783SOL    HW237812   1.136   3.075   4.302 -1.0828 -0.1819 -0.9615
 8784SOL     OW37813   2.325   0.333   9.152 -0.2060  0.7437  0.3172
 8784SOL    HW137814   2.298   0.397   9.087  1.9740  0.5914 -0.7463
 8784SOL    HW237815   2.236   0.313   9.181 -0.4585 -0.6838 -1.4578
 8785SOL     OW37816   3.807   2.013  10.330  0.1198 -0.0920 -0.1409
 8785SOL    HW137817   3.808   2.081  10.396  1.2577 -0.2228 -0.0318
 8785SOL    HW237818   3.716   1.990  10.347  0.1595  1.1223  1.6629
 8786SOL     OW37819   0.525   0.306   2.107 -0.0237 -0.1172  0.0060
 8786SOL    HW137820   0.575   0.240   2.059 -0.0012  0.2989 -0.5402
 8786SOL    HW237821   0.461   0.243   2.140 -0.9590  0.0010 -1.5979
 8787SOL     OW37822   1.188   1.890   5.080  0.1389  0.4802 -0.2516
 8787SOL    HW137823   1.123   1.822   5.098 -0.1424  0.9773  0.6368
 8787SOL    HW237824   1.185   1.881   4.985 -1.7588 -0.6376 -0.0801
 8788SOL     OW37825   0.116   0.341   7.242  0.1646 -0.0732  0.1641
 8788SOL    HW137826   0.197   0.308   7.281 -0.4341 -0.2164  1.2809
 8788SOL    HW237827   0.057   0.266   7.247 -2.8271  2.4611  2.6175
 8789SOL     OW37828   4.537   3.948   8.981 -0.7324 -0.5690 -0.2570
 8789SOL    HW137829   4.499   3.878   9.033 -0.0440 -0.6503  0.1380
 8789SOL    HW237830   4.464   4.009   8.992 -1.5448 -1.5695 -0.1711
 8790SOL     OW37831   1.027   4.677   5.868 -0.1116 -0.0054  0.5194
 8790SOL    HW137832   0.943   4.642   5.898 -1.7194  1.5171 -2.2231
 8790SOL    HW237833   1.004   0.043   5.838 -0.1748 -0.1948  0.0196
 8791SOL     OW37834   1.821   1.269  14.220  0.5809  0.0289 -0.1853
 8791SOL    HW137835   1.814   1.218  14.139  2.5451 -0.9602  0.2674
 8791SOL    HW237836   1.861   1.202  14.275  1.2608 -0.2640 -1.0267
 8792SOL     OW37837   2.873   1.980   6.129 -0.3319  0.0855  0.0782
 8792SOL    HW137838   2.914   1.920   6.065 -3.7994 -1.3138 -0.8260
 8792SOL    HW237839   2.931   1.957   6.201 -0.4504 -1.9729 -0.4659
 8793SOL     OW37840   3.570   2.812   7.256  0.0606  0.1482  0.4240
 8793SOL    HW137841   3.487   2.800   7.210  0.5637  0.2352 -0.5090
 8793SOL    HW237842   3.539   2.809   7.346 -0.2460 -0.3429  0.3065
 8794SOL     OW37843   0.604   0.781   3.381 -0.1381 -0.7679  0.1394
 8794SOL    HW137844   0.567   0.864   3.410 -0.1230 -1.7960  3.0587
 8794SOL    HW237845   0.536   0.725   3.418 -2.4537  0.0336 -2.8936
 8795SOL     OW37846   1.417   3.245  12.246  0.2130 -0.4208  0.0148
 8795SOL    HW137847   1.363   3.287  12.178 -0.9801  1.1940  1.9626
 8795SOL    HW237848   1.423   3.310  12.316  2.7362  0.5336 -1.1120
 8796SOL     OW37849   3.685   4.281   4.606  0.3791  0.5733  0.6843
 8796SOL    HW137850   3.675   4.205   4.663 -0.0555  0.4793  0.4842
 8796SOL    HW237851   3.773   4.261   4.574  1.1605  3.7487  0.9101
 8797SOL     OW37852   0.916   1.723  15.466  0.2308 -0.2525 -0.0367
 8797SOL    HW137853   0.882   1.644  15.424 -1.3137  0.1256  0.4991
 8797SOL    HW237854   1.008   1.699  15.479  0.3476  0.3225  0.2253
 8798SOL     OW37855   1.945   3.055   9.530 -0.2627 -0.1592 -0.3252
 8798SOL    HW137856   1.860   3.088   9.558  0.5324  1.3340  0.3350
 8798SOL    HW237857   1.927   2.961   9.535  0.6448 -0.2935  0.6095
 8799SOL     OW37858   1.584   4.428   3.997  0.5732  0.2695 -0.4810
 8799SOL    HW137859   1.512   4.366   3.993 -0.1027  1.0865 -1.1090
 8799SOL    HW237860   1.637   4.414   3.918 -2.6198 -0.7173 -2.4178
 8800SOL     OW37861   2.313   2.936   4.179  0.6828  0.4216 -0.0994
 8800SOL    HW137862   2.350   2.942   4.267  2.3401  1.5505 -0.8664
 8800SOL    HW237863   2.284   3.026   4.166 -0.8331  0.1139  1.1916
 8801SOL     OW37864   2.011   2.095   2.152 -0.3630  0.3983  0.5971
 8801SOL    HW137865   1.950   2.038   2.199 -0.2999  0.0506  0.2577
 8801SOL    HW237866   2.087   2.037   2.151 -0.6630  0.0921 -2.6153
 8802SOL     OW37867   3.644   2.156   5.958 -0.0428  0.1688 -0.5378
 8802SOL    HW137868   3.550   2.153   5.975 -0.4606  1.2134 -2.6575
 8802SOL    HW237869   3.658   2.067   5.928  0.7194  1.3820 -3.7622
 8803SOL     OW37870   1.341   1.073   3.438  0.3980 -0.6171 -0.1210
 8803SOL    HW137871   1.376   1.065   3.527 -0.8004  0.3532  0.4425
 8803SOL    HW237872   1.253   1.041   3.457  0.0486  0.0409 -0.6441
 8804SOL     OW37873   0.710   2.007   1.448  0.1798 -0.3610  0.6263
 8804SOL    HW137874   0.750   2.044   1.370  1.8894 -0.4503  1.4669
 8804SOL    HW237875   0.671   2.087   1.485 -3.3253 -0.9048 -1.9102
 8805SOL     OW37876   0.828   4.126   5.664  0.0584 -0.3943 -0.0313
 8805SOL    HW137877   0.837   4.180   5.585 -1.3743  1.3896  1.0220
 8805SOL    HW237878   0.841   4.041   5.622 -2.2702 -0.7666 -0.0177
 8806SOL     OW37879   1.874   2.187   4.716 -0.4927  0.0527 -0.4623
 8806SOL    HW137880   1.849   2.184   4.808 -1.0059 -1.7682 -0.6477
 8806SOL    HW237881   1.816   2.258   4.689 -1.1002  0.2157  1.3137
 8807SOL     OW37882   0.355   4.719   5.336  0.6672 -0.2587  0.0968
 8807SOL    HW137883   0.294   0.015   5.264 -0.1450 -3.6020 -0.0313
 8807SOL    HW237884   0.427   4.676   5.289 -1.0674 -0.2860 -2.5418
 8808SOL     OW37885   2.001   1.925  15.265  0.1424 -0.1434 -0.5722
 8808SOL    HW137886   2.028   1.846  15.313 -1.3019  0.0375  0.5362
 8808SOL    HW237887   1.920   1.887  15.229 -1.7339  1.9623  1.4489
 8809SOL     OW37888   3.218   3.680   2.376 -0.2556  0.0186 -0.2358
 8809SOL    HW137889   3.309   3.669   2.404 -0.5398 -1.1792  0.2126
 8809SOL    HW237890   3.240   3.716   2.291 -0.1842  2.0649  0.6449
 8810SOL     OW37891   0.220   3.634   3.136  0.1754 -0.1623  0.3399
 8810SOL    HW137892   0.207   3.625   3.042  1.8334  0.0750  0.0872
 8810SOL    HW237893   0.240   3.728   3.136  1.1233 -0.3641  0.5814
 8811SOL     OW37894   2.112   3.378   1.914  0.2426 -0.6525  0.0969
 8811SOL    HW137895   2.096   3.284   1.915 -0.3391 -0.5523  0.8546
 8811SOL    HW237896   2.101   3.398   1.821 -1.3416 -0.3286  0.3492
 8812SOL     OW37897   0.740   2.805  14.304  0.5456  0.5040 -0.2617
 8812SOL    HW137898   0.758   2.864  14.231  1.8395  0.1700 -0.2110
 8812SOL    HW237899   0.646   2.821  14.311  0.8416  1.1316  2.2317
 8813SOL     OW37900   4.000   3.048   0.059 -0.1706 -0.5259 -0.3069
 8813SOL    HW137901   4.035   2.989  17.683  2.4014  2.3984 -1.5327
 8813SOL    HW237902   3.929   3.086   0.007 -0.6564 -1.8271 -0.6092
 8814SOL     OW37903   2.140   1.538   3.245  0.1467 -0.1328 -0.0179
 8814SOL    HW137904   2.219   1.546   3.192 -0.4912  0.3894 -0.8953
 8814SOL    HW237905   2.160   1.594   3.320 -1.5288  0.3871  0.0413
 8815SOL     OW37906   0.491   3.225   3.618  0.0910 -0.2020 -0.0251
 8815SOL    HW137907   0.473   3.266   3.703 -0.9326  1.2386 -0.9467
 8815SOL    HW237908   0.557   3.157   3.633 -0.7431 -1.4543 -2.0268
 8816SOL     OW37909   1.037   2.254   4.480 -0.1569 -0.7829 -0.2403
 8816SOL    HW137910   1.001   2.260   4.569 -2.6099  0.1501 -1.2732
 8816SOL    HW237911   0.974   2.305   4.429 -0.4860  1.2653  2.2142
 8817SOL     OW37912   0.459   2.297   8.296 -0.0934 -0.0619 -0.1229
 8817SOL    HW137913   0.492   2.309   8.207 -0.9283  0.3445 -0.3801
 8817SOL    HW237914   0.465   2.388   8.325 -0.7986 -0.3188  0.8239
 8818SOL     OW37915   3.357   3.002   1.784 -0.6060 -0.5242  0.1688
 8818SOL    HW137916   3.296   3.036   1.849 -1.4962  0.7968 -1.3607
 8818SOL    HW237917   3.424   2.960   1.838 -2.3205 -0.5135  2.2929
 8819SOL     OW37918   3.360   1.039   9.625 -0.0294  0.4957 -0.3016
 8819SOL    HW137919   3.275   1.053   9.584 -0.4588  1.5785  0.9408
 8819SOL    HW237920   3.356   1.107   9.693 -2.0700 -0.5876  0.6642
 8820SOL     OW37921   2.982   1.694   8.796 -0.6057  0.0769  0.4441
 8820SOL    HW137922   2.909   1.704   8.735  0.1506  1.8390 -0.1740
 8820SOL    HW237923   2.970   1.604   8.826 -0.4981 -0.6429 -1.6739
 8821SOL     OW37924   2.999   1.797  16.129  0.0081 -0.0252 -0.1780
 8821SOL    HW137925   2.978   1.796  16.222  0.0414 -1.1629 -0.1784
 8821SOL    HW237926   2.938   1.734  16.090  1.7123 -0.9699 -1.3046
 8822SOL     OW37927   3.323   0.938   8.534 -0.2038 -0.6206  0.6550
 8822SOL    HW137928   3.274   0.945   8.452  0.0760  1.1978  0.6411
 8822SOL    HW237929   3.359   1.026   8.519 -0.5854 -0.5602  0.0719
 8823SOL     OW37930   3.532   3.716  13.794 -0.1840 -0.4433  0.3016
 8823SOL    HW137931   3.555   3.728  13.701 -1.8529  0.0760 -0.0489
 8823SOL    HW237932   3.493   3.800  13.819 -0.5723 -1.1697  2.1235
 8824SOL     OW37933   3.139   1.746  14.343  0.2751  0.6955  0.2229
 8824SOL    HW137934   3.221   1.786  14.373 -0.6334  0.7887  2.5640
 8824SOL    HW237935   3.146   1.766  14.250  1.3338 -1.2053 -0.1036
 8825SOL     OW37936   4.524   1.791   3.555  0.4491  0.3972  0.2476
 8825SOL    HW137937   4.523   1.887   3.558  1.3942  0.3203  2.4348
 8825SOL    HW237938   4.458   1.766   3.489  1.3522 -0.0752 -0.4723
 8826SOL     OW37939   4.492   4.311   9.798 -0.0413 -0.6999 -0.0506
 8826SOL    HW137940   4.510   4.404   9.809 -1.1738 -0.6945  1.6655
 8826SOL    HW237941   4.399   4.300   9.815 -0.7118  0.4442 -2.8904
 8827SOL     OW37942   1.103   0.830   2.831  0.2125 -0.0692 -0.0378
 8827SOL    HW137943   1.174   0.893   2.813 -0.5096  0.8174  0.2365
 8827SOL    HW237944   1.133   0.783   2.753 -0.4022 -0.4948 -0.0131
 8828SOL     OW37945   1.928   3.966  13.413  0.4882 -0.0030  0.2008
 8828SOL    HW137946   1.934   3.870  13.408  2.5748  0.0330  1.7869
 8828SOL    HW237947   1.849   3.981  13.465 -0.7837 -0.9994 -1.4276
 8829SOL     OW37948   3.581   0.292   1.850  0.2206 -0.1288 -0.7443
 8829SOL    HW137949   3.643   0.362   1.828  0.0314  0.0386 -0.7459
 8829SOL    HW237950   3.645   0.226   1.878  0.4989  0.8062  0.8117
 8830SOL     OW37951   0.831   4.076   3.115  0.2815 -0.2879 -0.2711
 8830SOL    HW137952   0.805   3.995   3.072  1.8381 -0.4880 -0.8399
 8830SOL    HW237953   0.841   4.136   3.041  0.4909 -0.7800 -0.6377
 8831SOL     OW37954   2.757   0.280   4.336 -0.0523  0.0363 -0.0864
 8831SOL    HW137955   2.717   0.220   4.399  0.2631  0.4174  0.4767
 8831SOL    HW237956   2.834   0.293   4.391 -1.4856  4.9151  0.7593
 8832SOL     OW37957   3.754   1.039   3.168 -0.2462 -0.0591 -0.2446
 8832SOL    HW137958   3.762   1.007   3.078  1.6323 -2.0645  0.6394
 8832SOL    HW237959   3.782   0.962   3.216  0.0401 -0.8419 -1.6535
 8833SOL     OW37960   3.065   2.441   7.397  0.0130 -0.3863  0.0833
 8833SOL    HW137961   3.155   2.436   7.363 -0.3645  1.3190 -1.1211
 8833SOL    HW237962   3.030   2.524   7.367  0.3007 -0.2650  0.0830
 8834SOL     OW37963   3.529   0.331   7.930  0.2333 -0.4845 -0.0975
 8834SOL    HW137964   3.448   0.280   7.933  1.2022 -1.9873  0.6818
 8834SOL    HW237965   3.495   0.418   7.949 -0.9234 -1.0410  0.4334
 8835SOL     OW37966   2.515   2.515  11.472 -0.2366 -0.3389 -0.3491
 8835SOL    HW137967   2.585   2.541  11.412 -1.5255  0.9943 -1.2855
 8835SOL    HW237968   2.449   2.495  11.406 -1.2848  1.0767  0.2684
 8836SOL     OW37969   2.033   4.315   4.301 -0.3094 -0.0786 -0.0445
 8836SOL    HW137970   1.984   4.350   4.226  1.4728  5.3220  1.2678
 8836SOL    HW237971   2.109   4.276   4.257  1.0656  1.2569  1.1628
 8837SOL     OW37972   1.138   2.485  14.458  0.4956  0.1972 -0.5197
 8837SOL    HW137973   1.155   2.488  14.364 -0.0866 -2.5128 -0.7183
 8837SOL    HW237974   1.171   2.572  14.482  2.1825 -0.0115 -2.0340
 8838SOL     OW37975   1.197   1.577   4.032  0.3240  0.0846 -0.8130
 8838SOL    HW137976   1.132   1.513   4.062 -0.0863  1.4970  1.3270
 8838SOL    HW237977   1.181   1.647   4.095 -0.7514 -3.3278  2.7369
 8839SOL     OW37978   3.124   4.532   1.384 -0.1544 -0.3104 -0.0959
 8839SOL    HW137979   3.198   4.496   1.334  1.0359 -1.3406  2.3865
 8839SOL    HW237980   3.165   4.594   1.445 -0.0806  0.6237 -1.0894
 8840SOL     OW37981   0.239   1.769   3.370 -0.2329  0.3704 -0.5671
 8840SOL    HW137982   0.228   1.684   3.327 -1.3676 -0.0972  0.6228
 8840SOL    HW237983   0.275   1.751   3.456  1.9681  1.5816 -1.2459
 8841SOL     OW37984   3.628   1.145   7.553  0.1877  0.0380  0.4520
 8841SOL    HW137985   3.551   1.183   7.595  1.4243  3.2280 -0.0921
 8841SOL    HW237986   3.586   1.070   7.512  0.8079 -0.6830  1.1344
 8842SOL     OW37987   2.097   1.508   7.154  0.0858  0.2941 -0.2086
 8842SOL    HW137988   2.132   1.507   7.243 -0.6940 -0.0607  0.0963
 8842SOL    HW237989   2.005   1.504   7.180  0.0656  0.7778 -0.1992
 8843SOL     OW37990   3.076   1.969   9.191 -0.0272  0.2007 -0.4297
 8843SOL    HW137991   3.149   1.914   9.160 -0.2115 -1.3608  1.8979
 8843SOL    HW237992   3.022   1.964   9.112 -0.4845  0.8388 -0.1534
 8844SOL     OW37993   2.286   3.208   4.109  0.3295 -0.0411  0.4534
 8844SOL    HW137994   2.262   3.294   4.142  0.2347  0.7321 -1.5815
 8844SOL    HW237995   2.378   3.220   4.087  0.1176  0.7427 -0.0168
 8845SOL     OW37996   0.730   2.935   4.844  0.1102 -0.0287 -0.2027
 8845SOL    HW137997   0.638   2.918   4.861 -0.2355 -0.0248 -2.1484
 8845SOL    HW237998   0.750   2.979   4.927  1.7834  1.3194 -1.3073
 8846SOL     OW37999   2.628   0.826   6.110  0.4102 -0.2698 -0.0277
 8846SOL    HW138000   2.563   0.764   6.079 -1.2163  0.2367  2.3987
 8846SOL    HW238001   2.621   0.897   6.045  0.1825  0.3672  0.6902
 8847SOL     OW38002   3.232   3.701   2.768  0.3341  0.0621 -0.8294
 8847SOL    HW138003   3.183   3.782   2.780 -1.6174 -1.3219  0.5807
 8847SOL    HW238004   3.315   3.731   2.730  1.5400 -1.8737  0.2824
 8848SOL     OW38005   0.952   1.555  16.826  0.4740  0.4377 -0.4033
 8848SOL    HW138006   1.016   1.485  16.834  1.0201  1.1138  1.0185
 8848SOL    HW238007   0.993   1.622  16.880 -0.3273 -0.4310  1.2739
 8849SOL     OW38008   1.394   3.970   3.949  0.1511  0.4345 -0.7586
 8849SOL    HW138009   1.329   4.020   3.901 -0.7425 -0.2812 -0.2844
 8849SOL    HW238010   1.336   3.896   3.966  1.3527  0.0490  1.6027
 8850SOL     OW38011   2.210   4.286   2.366  0.1243  0.2357  0.4512
 8850SOL    HW138012   2.197   4.331   2.282  0.2983 -0.9017 -0.1807
 8850SOL    HW238013   2.199   4.192   2.355  1.1965  0.0453  1.0061
 8851SOL     OW38014   0.003   1.462   9.023 -1.3026  0.1522  0.5054
 8851SOL    HW138015   0.064   1.442   9.094  2.7515  2.3979 -2.3208
 8851SOL    HW238016   4.703   1.380   8.979 -1.8683 -0.7639  2.5237
 8852SOL     OW38017   3.653   2.586  17.639  0.2162  0.3333 -0.5952
 8852SOL    HW138018   3.726   2.579   0.009 -0.3577  0.9537  0.1795
 8852SOL    HW238019   3.642   2.492  17.628 -0.1153  0.4740 -1.4602
 8853SOL     OW38020   2.072   0.573   7.051 -0.1373 -0.0744 -0.2157
 8853SOL    HW138021   2.166   0.588   7.042  0.0399 -0.0991  1.5444
 8853SOL    HW238022   2.082   0.495   7.107  4.1003 -0.0709 -0.9547
 8854SOL     OW38023   2.473   0.217   5.152 -0.2257  0.1967 -0.2024
 8854SOL    HW138024   2.568   0.209   5.163 -0.2929  0.1580  0.3628
 8854SOL    HW238025   2.455   0.305   5.184  2.7199  0.9054 -0.4823
 8855SOL     OW38026   1.706   0.789   4.945 -0.3654  0.0295  0.4333
 8855SOL    HW138027   1.692   0.789   4.850  1.2035  4.2898  0.1998
 8855SOL    HW238028   1.638   0.733   4.983  0.2351 -1.3531 -0.5004
 8856SOL     OW38029   3.785   1.375   1.865  0.2833  0.1549  0.1248
 8856SOL    HW138030   3.771   1.442   1.932 -0.1484  1.1734 -0.9898
 8856SOL    HW238031   3.703   1.380   1.816 -0.4326  0.4954  1.3669
 8857SOL     OW38032   2.875   0.027   8.338 -0.1152  0.5077 -0.1869
 8857SOL    HW138033   2.857   0.075   8.419 -0.2748  0.4604 -0.1949
 8857SOL    HW238034   2.891   4.661   8.372  0.9391 -0.1826 -2.4335
 8858SOL     OW38035   2.941   3.549  15.578  0.5772  0.8008 -0.1181
 8858SOL    HW138036   3.034   3.544  15.599 -0.3138 -2.5480  2.8791
 8858SOL    HW238037   2.947   3.632  15.531  5.3321 -0.2414 -1.3763
 8859SOL     OW38038   3.521   4.214   8.075 -0.3996 -0.3463 -0.2980
 8859SOL    HW138039   3.495   4.272   8.146 -2.3340  0.5239 -1.7154
 8859SOL    HW238040   3.560   4.270   8.008  0.6695  0.8467  1.3496
 8860SOL     OW38041   0.382   0.070  16.052 -0.0686  0.0204  0.0904
 8860SOL    HW138042   0.470   0.099  16.077 -0.0003 -0.7122  0.7363
 8860SOL    HW238043   0.325   0.131  16.098  1.3573  1.0981  0.4306
 8861SOL     OW38044   4.267   2.052   0.725  0.2644  0.1558  0.2165
 8861SOL    HW138045   4.242   1.960   0.736  0.2292 -0.1806 -2.7252
 8861SOL    HW238046   4.358   2.038   0.700 -0.6279 -0.9465 -2.4167
 8862SOL     OW38047   0.673   0.842  15.721  0.0415  0.2580 -0.0265
 8862SOL    HW138048   0.677   0.751  15.749  1.3753 -0.0419 -1.1732
 8862SOL    HW238049   0.753   0.886  15.749 -1.0287  1.6342  0.8679
 8863SOL     OW38050   2.065   0.192   8.862  0.2431 -0.1104 -0.1464
 8863SOL    HW138051   2.050   0.245   8.939  1.3751 -0.8466  0.5841
 8863SOL    HW238052   1.985   0.139   8.858  0.8859 -1.0725 -0.5236
 8864SOL     OW38053   0.078   2.193   9.627 -0.2265  0.0157 -0.6540
 8864SOL    HW138054   0.118   2.107   9.640 -0.7836 -0.2998 -1.0459
 8864SOL    HW238055   0.157   2.247   9.628 -0.8697  0.9295  0.1819
 8865SOL     OW38056   1.090   1.113   1.778 -0.3048 -0.4313 -0.5966
 8865SOL    HW138057   1.082   1.023   1.809 -3.4659  0.4101  1.0159
 8865SOL    HW238058   0.998   1.137   1.766 -0.1710  0.0407 -0.6797
 8866SOL     OW38059   3.214   2.666   5.242 -0.5525  0.5496 -0.2246
 8866SOL    HW138060   3.291   2.647   5.189 -0.9415 -0.2373 -0.5101
 8866SOL    HW238061   3.258   2.722   5.306  0.0271  1.0210 -1.0470
 8867SOL     OW38062   0.574   1.571   2.805  0.4376 -0.0462  0.5016
 8867SOL    HW138063   0.597   1.485   2.770  1.0896  0.7305 -1.0017
 8867SOL    HW238064   0.524   1.547   2.883  0.9220  1.5956  1.3207
 8868SOL     OW38065   4.425   3.103   5.233 -0.1092  0.3728  0.5276
 8868SOL    HW138066   4.358   3.171   5.228 -0.0761  0.3829  0.2061
 8868SOL    HW238067   4.473   3.143   5.306 -1.2493  0.2794  1.3350
 8869SOL     OW38068   2.067   2.108  12.227 -0.1995 -0.2151  0.2914
 8869SOL    HW138069   2.011   2.155  12.289 -0.4017  0.4245 -0.3749
 8869SOL    HW238070   2.159   2.112  12.253  0.4559  1.2615 -2.1927
 8870SOL     OW38071   3.028   0.668  12.806 -0.0202 -0.3871 -0.8421
 8870SOL    HW138072   2.938   0.681  12.774  0.8062  1.5059 -2.3590
 8870SOL    HW238073   3.044   0.750  12.852 -0.4831 -1.6493  1.5633
 8871SOL     OW38074   3.514   4.179   5.474 -0.4304  0.2535 -0.3419
 8871SOL    HW138075   3.602   4.158   5.443 -0.6150 -2.3725  0.9143
 8871SOL    HW238076   3.534   4.210   5.562  0.7163  0.7090 -0.7729
 8872SOL     OW38077   0.941   3.803   5.979 -0.1152  0.7212  0.3874
 8872SOL    HW138078   0.951   3.754   5.897 -0.9305  0.3570  0.5056
 8872SOL    HW238079   0.983   3.747   6.044  1.6729  0.0837 -1.3058
 8873SOL     OW38080   4.500   1.375  16.810  0.4606  0.2764 -0.5802
 8873SOL    HW138081   4.506   1.465  16.840 -0.7669 -0.3620  1.5364
 8873SOL    HW238082   4.527   1.335  16.892  0.5075 -0.2454 -0.8473
 8874SOL     OW38083   2.810   2.810  13.928 -0.2080 -0.5995 -0.5205
 8874SOL    HW138084   2.844   2.767  14.006 -0.0366  4.7508  2.3409
 8874SOL    HW238085   2.805   2.901  13.958  1.7572 -0.2488 -1.2220
 8875SOL     OW38086   2.966   0.675   7.981  0.4912 -0.1187  0.1362
 8875SOL    HW138087   2.996   0.700   8.069 -1.3073 -0.8842  0.9607
 8875SOL    HW238088   2.891   0.734   7.974  1.0632  0.8078  1.8563
 8876SOL     OW38089   4.320   0.999  10.683 -0.1757  0.4182 -0.2057
 8876SOL    HW138090   4.253   1.067  10.677  0.1884  0.9716  1.9936
 8876SOL    HW238091   4.396   1.053  10.706  0.6020  0.1262 -2.0103
 8877SOL     OW38092   4.208   1.141   2.367 -0.4084 -0.0674 -0.2736
 8877SOL    HW138093   4.143   1.127   2.436 -1.1738 -0.9997 -1.1844
 8877SOL    HW238094   4.203   1.237   2.360  0.3973 -0.0544 -0.6733
 8878SOL     OW38095   1.682   3.022   6.423 -0.2383  0.1895 -0.2503
 8878SOL    HW138096   1.719   2.934   6.426 -0.7239 -0.0173 -0.3296
 8878SOL    HW238097   1.765   3.062   6.451 -0.4469  1.2102 -1.0623
 8879SOL     OW38098   2.162   0.577   5.891  0.1619  0.0318  0.0030
 8879SOL    HW138099   2.182   0.512   5.823  1.2732  0.0265  0.3346
 8879SOL    HW238100   2.234   0.569   5.953 -1.3547  4.4592  2.2863
 8880SOL     OW38101   2.415   4.640  15.415  0.3220 -0.8307 -0.3031
 8880SOL    HW138102   2.378   4.666  15.500 -0.5669 -0.7983 -0.6936
 8880SOL    HW238103   2.453   4.721  15.381  1.6504 -2.3575 -2.4696
 8881SOL     OW38104   2.360   0.998   2.820  0.1614 -0.2590 -0.3699
 8881SOL    HW138105   2.288   0.957   2.772  1.3418 -0.7122 -1.7730
 8881SOL    HW238106   2.434   0.999   2.759 -0.3643  0.7480 -0.9851
 8882SOL     OW38107   3.659   0.229  14.259 -0.2697 -0.2981  0.6286
 8882SOL    HW138108   3.616   0.170  14.197  0.5525  0.7621 -0.9277
 8882SOL    HW238109   3.743   0.184  14.252 -1.2842 -1.9411 -1.0137
 8883SOL     OW38110   4.654   2.329   1.311  0.1172  0.1164 -0.1989
 8883SOL    HW138111   4.616   2.317   1.398 -1.2750 -0.8488 -0.9523
 8883SOL    HW238112   4.612   2.412   1.288 -0.5920 -0.3811 -0.6500
 8884SOL     OW38113   2.078   3.860  16.436  0.2099 -0.0842  0.2195
 8884SOL    HW138114   1.983   3.848  16.436  0.1203  0.7925 -1.9190
 8884SOL    HW238115   2.109   3.772  16.458 -3.3385 -1.6464 -1.0464
 8885SOL     OW38116   4.247   1.995  16.807  0.2577  0.1042 -0.6858
 8885SOL    HW138117   4.198   1.919  16.838 -1.6434  2.2063  1.4852
 8885SOL    HW238118   4.255   2.044  16.888 -1.0089  0.6492 -0.8930
 8886SOL     OW38119   1.935   2.537  16.303 -0.6824  0.7928  0.3268
 8886SOL    HW138120   1.951   2.594  16.379  0.5344  1.2911 -0.2898
 8886SOL    HW238121   1.859   2.577  16.262  0.1141  1.2313 -0.7258
 8887SOL     OW38122   0.512   4.012   3.537  0.0677 -0.3411 -0.2109
 8887SOL    HW138123   0.597   3.986   3.502  0.0761 -1.5198  0.7094
 8887SOL    HW238124   0.498   3.957   3.614  1.9763  2.5190  2.1912
 8888SOL     OW38125   0.207   0.935   7.087 -0.7688 -0.1542 -0.2074
 8888SOL    HW138126   0.188   0.846   7.117 -0.5089 -0.1701 -0.0870
 8888SOL    HW238127   0.151   0.982   7.149  0.3107 -2.1557  2.3050
 8889SOL     OW38128   4.217   4.231  14.246 -0.1273  0.4917 -0.1758
 8889SOL    HW138129   4.135   4.192  14.276  1.2016 -1.4161  1.0502
 8889SOL    HW238130   4.199   4.235  14.152  1.3842 -1.7520 -0.5871
 8890SOL     OW38131   2.079   3.177   5.456  0.3533  0.0340  0.0457
 8890SOL    HW138132   2.083   3.269   5.482 -1.2272  0.4489 -1.1843
 8890SOL    HW238133   1.997   3.179   5.407  0.3039 -1.4166  0.0715
 8891SOL     OW38134   1.858   2.797   2.161 -0.1927 -0.2647 -0.5840
 8891SOL    HW138135   1.875   2.782   2.068 -1.8661  0.5974 -1.0310
 8891SOL    HW238136   1.921   2.732   2.191  0.9266  0.9971 -0.1931
 8892SOL     OW38137   4.228   0.793  14.073 -0.0998  0.0025 -0.6478
 8892SOL    HW138138   4.178   0.806  14.154  4.0532  4.0172  1.2733
 8892SOL    HW238139   4.208   0.867  14.015  0.8100  0.3771 -0.4899
 8893SOL     OW38140   2.138   1.136   8.297  0.3719 -0.2843  0.0571
 8893SOL    HW138141   2.153   1.072   8.367 -1.5484  0.5774  1.2672
 8893SOL    HW238142   2.043   1.144   8.299  0.4198  0.2030  0.9166
 8894SOL     OW38143   1.236   1.087   9.515 -0.3483 -0.3369  0.2062
 8894SOL    HW138144   1.148   1.111   9.545  0.5922  3.5423 -0.1460
 8894SOL    HW238145   1.270   1.175   9.501 -1.4414 -0.1301 -1.1749
 8895SOL     OW38146   4.430   0.241  16.705 -0.1156  0.1142  0.4361
 8895SOL    HW138147   4.525   0.252  16.701 -0.1027 -0.1107  0.1273
 8895SOL    HW238148   4.394   0.301  16.639  1.1321 -0.3399 -0.6613
 8896SOL     OW38149   2.056   2.516   4.906 -0.2810 -0.1589  0.1355
 8896SOL    HW138150   2.097   2.552   4.985 -0.5786 -0.5119  0.4557
 8896SOL    HW238151   1.966   2.538   4.929  0.0185  0.7552  0.4076
 8897SOL     OW38152   2.090   0.875   6.659  0.6327 -0.1910 -0.1706
 8897SOL    HW138153   2.111   0.967   6.645  0.9942 -0.2270  0.1213
 8897SOL    HW238154   2.125   0.851   6.573  0.2295 -0.6852 -0.2025
 8898SOL     OW38155   4.596   3.557   2.697  0.3369 -0.1411 -0.4187
 8898SOL    HW138156   4.563   3.467   2.697  0.3586 -0.1457 -2.3055
 8898SOL    HW238157   4.536   3.606   2.640 -0.3667  0.8181  1.1670
 8899SOL     OW38158   2.733   2.279  11.354  0.4073 -0.4607 -0.1206
 8899SOL    HW138159   2.724   2.213  11.285  0.1228 -0.0329 -0.4919
 8899SOL    HW238160   2.798   2.343  11.323  1.1628  0.2960  2.9833
 8900SOL     OW38161   4.454   1.826   2.687  0.1281  0.3034  0.1174
 8900SOL    HW138162   4.398   1.903   2.676  0.9728  0.3122 -4.1161
 8900SOL    HW238163   4.517   1.862   2.749  1.4718 -1.2102 -0.3634
 8901SOL     OW38164   4.031   1.671   6.200 -0.1705 -0.5866 -0.0218
 8901SOL    HW138165   4.047   1.762   6.174 -0.2359 -0.9683 -1.4264
 8901SOL    HW238166   4.007   1.633   6.115 -2.5923  2.3555 -0.6404
 8902SOL     OW38167   2.717   3.768   1.786  0.4958  0.0313  0.7324
 8902SOL    HW138168   2.729   3.777   1.691 -2.6913  0.7240  0.3763
 8902SOL    HW238169   2.703   3.860   1.807 -0.1082 -0.5472  2.8873
 8903SOL     OW38170   2.185   2.668   3.084 -0.0624 -0.2280 -0.2659
 8903SOL    HW138171   2.181   2.573   3.076  2.5492 -0.5360  2.0165
 8903SOL    HW238172   2.145   2.690   3.000 -0.7309 -1.2155 -0.2078
 8904SOL     OW38173   0.594   4.056   7.780 -0.6399 -0.1323  0.0153
 8904SOL    HW138174   0.659   4.020   7.841 -1.3217 -1.9905 -0.3327
 8904SOL    HW238175   0.520   4.005   7.815  0.7355 -0.8350  1.9306
 8905SOL     OW38176   1.640   3.482  13.864 -0.8504 -0.2380 -0.0835
 8905SOL    HW138177   1.720   3.431  13.855 -0.9691 -0.6082  1.0651
 8905SOL    HW238178   1.623   3.482  13.958 -0.5441  1.3508 -0.0140
 8906SOL     OW38179   3.646   1.545  17.177 -0.5745  0.1899  0.0469
 8906SOL    HW138180   3.647   1.485  17.103  1.0402  2.3993 -1.7216
 8906SOL    HW238181   3.731   1.589  17.167  0.1653 -1.3898 -0.5770
 8907SOL     OW38182   3.449   3.149   3.707  0.2276  0.1953  0.1682
 8907SOL    HW138183   3.360   3.133   3.675 -0.6495  2.0469  1.6868
 8907SOL    HW238184   3.442   3.233   3.751  0.7511 -1.0505  2.6297
 8908SOL     OW38185   1.724   3.772   2.548  0.0774 -0.1310  0.0874
 8908SOL    HW138186   1.783   3.844   2.571 -0.2652  0.2580 -0.2582
 8908SOL    HW238187   1.761   3.735   2.468 -2.2701 -0.2916 -0.9331
 8909SOL     OW38188   2.851   1.158   2.642 -0.4596 -0.3463  0.2697
 8909SOL    HW138189   2.923   1.140   2.703 -0.7083 -0.0117  0.6666
 8909SOL    HW238190   2.890   1.205   2.569  0.9273 -1.7478  0.1134
 8910SOL     OW38191   1.479   3.040   4.746  0.2540  0.5711  0.7125
 8910SOL    HW138192   1.544   3.109   4.761  0.6361  0.7733 -1.9002
 8910SOL    HW238193   1.409   3.059   4.809 -0.7461  1.5995 -0.7217
 8911SOL     OW38194   2.376   3.043   8.068 -0.4895  0.2981 -0.0818
 8911SOL    HW138195   2.309   2.979   8.092 -0.9238  0.6639 -0.3045
 8911SOL    HW238196   2.432   3.034   8.145 -1.6857  0.5018  0.8185
 8912SOL     OW38197   0.964   2.623  12.872 -0.0640 -0.7330 -0.1107
 8912SOL    HW138198   0.924   2.624  12.785  0.1953  1.0354 -0.2167
 8912SOL    HW238199   0.900   2.568  12.918 -0.2854  1.5473  2.3157
 8913SOL     OW38200   0.354   2.033  10.789 -0.4777  0.0610 -0.6827
 8913SOL    HW138201   0.418   2.096  10.822 -1.2245 -1.2485  3.2106
 8913SOL    HW238202   0.361   1.974  10.864 -1.8963 -0.3393 -0.8738
 8914SOL     OW38203   1.736   1.555  10.701 -0.4215 -0.4492 -0.5665
 8914SOL    HW138204   1.731   1.537  10.795 -2.4183  1.1318 -0.3717
 8914SOL    HW238205   1.675   1.485  10.678  1.0452 -1.7159 -0.6550
 8915SOL     OW38206   0.235   3.283   9.440 -0.1121  0.4747  0.0858
 8915SOL    HW138207   0.194   3.242   9.364  0.5929  0.8876 -0.5187
 8915SOL    HW238208   0.183   3.363   9.451 -0.7871 -0.2111  2.0147
 8916SOL     OW38209   3.766   1.725   2.474 -0.1371  0.0944  0.4981
 8916SOL    HW138210   3.750   1.639   2.435 -0.6907  0.6835 -0.5928
 8916SOL    HW238211   3.744   1.780   2.399  1.6589 -0.5919 -0.5315
 8917SOL     OW38212   4.234   0.326   6.638 -0.1517  0.9957 -0.4507
 8917SOL    HW138213   4.200   0.337   6.550 -0.5369 -0.8362 -0.5312
 8917SOL    HW238214   4.328   0.319   6.619 -0.4955  0.1172 -1.8293
 8918SOL     OW38215   3.306   4.136   1.388 -0.3918  0.0884 -0.0460
 8918SOL    HW138216   3.319   4.159   1.480 -0.8657 -0.3838  0.1437
 8918SOL    HW238217   3.336   4.046   1.378  1.5267  0.8820 -1.3859
 8919SOL     OW38218   4.591   2.183   5.130  0.7022 -0.5180  0.0614
 8919SOL    HW138219   4.625   2.272   5.144 -1.4370  0.3942 -0.5248
 8919SOL    HW238220   4.540   2.198   5.050  1.2456 -1.0376 -0.3778
 8920SOL     OW38221   4.632   2.845   9.661 -0.2087  0.0764  0.2711
 8920SOL    HW138222   4.633   2.768   9.604  0.8985  0.4954 -0.2574
 8920SOL    HW238223   4.588   2.816   9.741 -1.3700  0.9809 -0.0467
 8921SOL     OW38224   4.355   1.868  15.309  0.7748  0.0041 -0.0331
 8921SOL    HW138225   4.368   1.962  15.325  0.2621 -0.4329  3.0070
 8921SOL    HW238226   4.444   1.835  15.318  1.2170  0.7969 -1.4944
 8922SOL     OW38227   0.263   1.710  10.504  0.5267 -0.8989  0.3729
 8922SOL    HW138228   0.276   1.788  10.450 -0.1389 -2.8144 -2.5671
 8922SOL    HW238229   0.223   1.753  10.580  1.9069 -0.5665  0.9144
 8923SOL     OW38230   4.378   4.664   5.100 -0.3028 -0.9575  0.5145
 8923SOL    HW138231   4.431   4.590   5.130  1.1276 -0.0330  0.3037
 8923SOL    HW238232   4.356   4.630   5.014  0.1750 -2.4334  0.9844
 8924SOL     OW38233   4.118   1.789  15.139 -0.0769 -0.4844 -0.1310
 8924SOL    HW138234   4.135   1.695  15.131 -0.3496 -0.6729  1.6543
 8924SOL    HW238235   4.191   1.820  15.193  0.0236  0.5859 -0.8900
 8925SOL     OW38236   3.631   2.178  12.418  0.2651 -0.0420  0.1884
 8925SOL    HW138237   3.706   2.238  12.422  0.2927 -0.0986  0.4720
 8925SOL    HW238238   3.563   2.236  12.384  0.0052 -0.0877  0.6317
 8926SOL     OW38239   0.629   4.463  14.185  0.4944 -0.3404  0.3471
 8926SOL    HW138240   0.630   4.530  14.253  1.1350 -0.0480  0.0553
 8926SOL    HW238241   0.683   4.503  14.117 -2.3645  0.8381 -1.2581
 8927SOL     OW38242   0.760   2.120   0.262 -0.4799  0.1699 -0.5436
 8927SOL    HW138243   0.839   2.089   0.307 -1.3751  0.4377  1.2038
 8927SOL    HW238244   0.729   2.042   0.216 -0.5133 -0.0343 -0.1761
 8928SOL     OW38245   4.206   1.218   7.551  0.2236 -0.3855  0.5603
 8928SOL    HW138246   4.165   1.303   7.566 -1.3935 -0.6996 -2.0052
 8928SOL    HW238247   4.220   1.218   7.456  2.4117  2.3661  0.8913
 8929SOL     OW38248   4.169   0.883  15.721  0.0621  0.1674  0.5695
 8929SOL    HW138249   4.206   0.836  15.646  1.0187  0.4080  0.8841
 8929SOL    HW238250   4.084   0.916  15.691 -0.1765  0.5817  1.7294
 8930SOL     OW38251   1.806   1.073  10.384  0.8310 -0.3308  0.4711
 8930SOL    HW138252   1.827   1.166  10.392 -0.7861  0.0679  0.1234
 8930SOL    HW238253   1.770   1.065  10.296  3.3467  1.1749 -0.6833
 8931SOL     OW38254   4.554   0.286   8.440  0.1642  0.4818  0.0568
 8931SOL    HW138255   4.462   0.294   8.467 -0.1762  1.2515 -1.3389
 8931SOL    HW238256   4.558   0.359   8.378 -2.3405  1.6452  1.2325
 8932SOL     OW38257   4.315   3.222   8.299 -0.6310 -0.0830 -0.1217
 8932SOL    HW138258   4.357   3.136   8.306  2.4337  1.2588 -1.7684
 8932SOL    HW238259   4.383   3.270   8.251 -2.0315  0.4464 -1.5811
 8933SOL     OW38260   3.980   0.788   8.590 -0.1163  0.3925 -0.2774
 8933SOL    HW138261   3.900   0.760   8.634  0.6103 -0.7838  0.2755
 8933SOL    HW238262   4.050   0.730   8.619 -2.0973 -0.9500  1.6916
 8934SOL     OW38263   0.440   2.201   1.359  0.4570 -0.2483  0.2679
 8934SOL    HW138264   0.418   2.136   1.425  0.6551 -0.5832 -0.0011
 8934SOL    HW238265   0.417   2.284   1.402 -0.7258 -1.5455  2.1029
 8935SOL     OW38266   1.371   3.862   6.928  0.0978  0.0396 -0.5441
 8935SOL    HW138267   1.422   3.918   6.870  0.6715 -1.5256 -1.5521
 8935SOL    HW238268   1.414   3.880   7.011 -0.0028 -1.1805 -0.2172
 8936SOL     OW38269   1.066   1.148   3.205  0.2388 -0.0521  0.8126
 8936SOL    HW138270   1.052   1.109   3.292  1.6947 -0.5077  0.8392
 8936SOL    HW238271   1.121   1.081   3.165  0.8845 -0.0256  1.6528
 8937SOL     OW38272   3.974   1.967   7.237  0.1739  0.0491 -0.2208
 8937SOL    HW138273   3.987   2.052   7.280 -0.9052  0.0409  0.1251
 8937SOL    HW238274   3.884   1.988   7.212 -1.3674 -4.9132  1.1219
 8938SOL     OW38275   1.839   0.906   3.085  0.5905  0.4701 -0.0307
 8938SOL    HW138276   1.767   0.961   3.053 -2.0144 -1.9363  1.7108
 8938SOL    HW238277   1.829   0.917   3.180  4.5047  0.8840  0.3326
 8939SOL     OW38278   0.514   2.018   6.433 -0.3949  0.1324 -0.3530
 8939SOL    HW138279   0.567   1.949   6.473 -0.6220 -0.7344 -1.5472
 8939SOL    HW238280   0.580   2.064   6.382 -0.9397  0.3799 -0.8370
 8940SOL     OW38281   3.857   1.325   3.504 -0.0690  0.9006 -0.4752
 8940SOL    HW138282   3.941   1.360   3.474 -0.0484  1.0982 -0.1772
 8940SOL    HW238283   3.809   1.302   3.424 -1.0866 -0.9836  0.6933
 8941SOL     OW38284   3.150   3.646  15.332 -0.0718  0.0537  0.2367
 8941SOL    HW138285   3.061   3.668  15.358  0.6359  1.5335  1.3991
 8941SOL    HW238286   3.203   3.683  15.403  0.1856 -1.3216  0.7697
 8942SOL     OW38287   2.254   3.459  13.467 -0.0439  0.3418 -0.1302
 8942SOL    HW138288   2.343   3.491  13.453 -0.2319  0.1591 -1.7073
 8942SOL    HW238289   2.218   3.507  13.541 -0.2810 -0.4381  0.2546
 8943SOL     OW38290   0.425   0.891  15.676  0.6401 -0.4866  0.5074
 8943SOL    HW138291   0.512   0.885  15.716  0.6001 -0.5582  0.5847
 8943SOL    HW238292   0.387   0.805  15.696  1.7333 -1.0651  0.1483
 8944SOL     OW38293   0.453   0.443   7.079 -0.1638 -0.2153  0.5564
 8944SOL    HW138294   0.404   0.384   7.023 -0.4155  1.7154 -1.2540
 8944SOL    HW238295   0.482   0.395   7.157 -2.6544  0.1802  1.7387
 8945SOL     OW38296   2.198   1.064  12.181 -0.2963  0.0361 -0.4105
 8945SOL    HW138297   2.160   1.001  12.243 -0.0023  1.1004  0.8629
 8945SOL    HW238298   2.135   1.052  12.110 -1.4554 -1.1968  0.7973
 8946SOL     OW38299   0.927   1.663   7.312  0.7528 -0.4126 -0.2168
 8946SOL    HW138300   0.866   1.657   7.239  0.7211 -2.1236 -0.0502
 8946SOL    HW238301   0.916   1.754   7.340 -0.9675 -0.7384  0.1743
 8947SOL     OW38302   3.228   0.791  12.686 -0.3395  0.6363  0.0157
 8947SOL    HW138303   3.160   0.724  12.693  1.4528 -1.2967 -1.0697
 8947SOL    HW238304   3.286   0.732  12.638  0.2755  1.3264 -0.0938
 8948SOL     OW38305   1.936   3.430  15.186  0.4833 -0.5051  0.2032
 8948SOL    HW138306   1.894   3.511  15.157 -2.0585 -1.7323  0.4582
 8948SOL    HW238307   2.025   3.431  15.149  1.5740 -4.6097  2.7489
 8949SOL     OW38308   1.376   4.297  10.695 -0.3363  0.0750  0.0221
 8949SOL    HW138309   1.438   4.292  10.622  0.1250 -1.6887  0.5428
 8949SOL    HW238310   1.316   4.368  10.673  1.2440  0.3857 -3.3016
 8950SOL     OW38311   3.653   3.654   4.806 -0.1375  0.1805 -0.0332
 8950SOL    HW138312   3.664   3.598   4.729 -0.8445 -3.5703  2.5906
 8950SOL    HW238313   3.724   3.624   4.862  0.0684  0.3891 -0.1821
 8951SOL     OW38314   3.399   2.877  14.967  0.5024  0.6866  0.3942
 8951SOL    HW138315   3.463   2.947  14.951  0.7646  0.0260 -1.4098
 8951SOL    HW238316   3.324   2.934  14.953 -0.1152 -0.1095  0.4800
 8952SOL     OW38317   4.128   2.117   1.938  0.4547 -0.2434 -0.6394
 8952SOL    HW138318   4.200   2.172   1.908  1.1618 -1.1631 -0.6394
 8952SOL    HW238319   4.178   2.035   1.943 -1.2702 -1.1789  1.5412
 8953SOL     OW38320   4.583   2.657   7.808  0.1916  0.1202  0.3046
 8953SOL    HW138321   4.556   2.678   7.719 -0.5359  0.7453  0.6728
 8953SOL    HW238322   4.582   2.562   7.798  1.3499 -0.0317  1.5729
 8954SOL     OW38323   2.057   3.756  13.042  0.1120 -0.0591  0.1467
 8954SOL    HW138324   2.127   3.698  13.074 -0.4526 -2.4682 -2.9158
 8954SOL    HW238325   2.042   3.814  13.116 -2.6442  0.7958 -1.0915
 8955SOL     OW38326   2.326   4.563   7.802  0.0881 -0.2138  0.1159
 8955SOL    HW138327   2.370   4.486   7.837 -0.2121  0.1678  1.3253
 8955SOL    HW238328   2.299   4.596   7.888 -1.1838  0.4080 -0.5146
 8956SOL     OW38329   3.366   3.313   4.710  0.0819  0.0744 -0.5377
 8956SOL    HW138330   3.273   3.309   4.734  0.0477 -1.1059 -0.8816
 8956SOL    HW238331   3.398   3.378   4.772  3.5208 -1.0096 -1.1676
 8957SOL     OW38332   1.505   2.923   5.096  0.4218 -0.1887 -0.6470
 8957SOL    HW138333   1.542   3.011   5.104  1.1213 -0.3799 -1.8717
 8957SOL    HW238334   1.431   2.931   5.036  0.4511 -0.3502 -0.7045
 8958SOL     OW38335   2.019   2.583   6.559 -0.6391 -0.0714  0.8167
 8958SOL    HW138336   1.962   2.564   6.635  1.8813  0.1977  2.7674
 8958SOL    HW238337   2.043   2.499   6.520 -0.4881  0.2724  0.1867
 8959SOL     OW38338   3.115   1.336   3.978  0.9050  0.3912 -0.4529
 8959SOL    HW138339   3.049   1.372   3.919  0.9292  0.5172 -0.4025
 8959SOL    HW238340   3.088   1.246   3.996 -2.1210  1.3092 -0.3156
 8960SOL     OW38341   3.140   0.632   2.129  0.3457 -0.4810 -0.7906
 8960SOL    HW138342   3.109   0.699   2.069  0.4922  1.4990  1.3688
 8960SOL    HW238343   3.233   0.652   2.142  0.0679  0.7062 -0.6407
 8961SOL     OW38344   2.884   0.195   1.326  0.5583  0.4939 -0.3292
 8961SOL    HW138345   2.855   0.171   1.413  0.1786 -1.6538 -1.0546
 8961SOL    HW238346   2.936   0.274   1.342 -0.3851  1.1352 -0.4634
 8962SOL     OW38347   2.669   4.718   3.900  0.5394  0.3091 -0.3675
 8962SOL    HW138348   2.582   0.004   3.860  1.1980  0.2041 -1.8147
 8962SOL    HW238349   2.729   4.698   3.829  0.7846  1.3353 -0.4510
 8963SOL     OW38350   3.661   4.173   4.919 -0.1281  0.3982  0.4283
 8963SOL    HW138351   3.748   4.155   4.883  0.3650 -1.6041  2.5662
 8963SOL    HW238352   3.626   4.086   4.901 -0.2603  0.3266  1.0065
 8964SOL     OW38353   1.277   0.486   7.209  0.6429 -0.8618 -0.1274
 8964SOL    HW138354   1.318   0.429   7.274 -1.2037 -1.7353  0.2806
 8964SOL    HW238355   1.216   0.532   7.267  1.7041  0.4826 -0.0548
 8965SOL     OW38356   0.753   3.683   4.212  0.8591 -0.3422  0.1064
 8965SOL    HW138357   0.658   3.679   4.203  0.8720 -0.1059 -0.1377
 8965SOL    HW238358   0.761   3.778   4.203 -1.2956 -0.2612 -0.7979
 8966SOL     OW38359   4.687   1.827  17.300  0.1913  0.1182 -0.6743
 8966SOL    HW138360   0.020   1.796  17.371  0.5301 -0.8003 -1.3421
 8966SOL    HW238361   0.013   1.784  17.229  0.2627 -2.2243  0.7839
 8967SOL     OW38362   4.325   4.138   8.352  0.5759  0.2613  0.4763
 8967SOL    HW138363   4.365   4.051   8.359 -0.7712 -0.4431 -0.4122
 8967SOL    HW238364   4.232   4.114   8.354  0.4000  0.9948  0.8753
 8968SOL     OW38365   0.687   1.956   7.138  0.4521  0.1675  0.1347
 8968SOL    HW138366   0.697   1.861   7.129 -2.2510 -0.2210  1.2724
 8968SOL    HW238367   0.692   1.967   7.233  0.9058 -0.2831  0.1635
 8969SOL     OW38368   3.934   3.443   8.903 -0.2233  0.1381  0.0336
 8969SOL    HW138369   3.933   3.459   8.997  0.3150  1.3233 -0.1679
 8969SOL    HW238370   4.013   3.489   8.876  0.0865 -0.3670  0.0800
 8970SOL     OW38371   2.682   4.650   5.805  0.2750 -0.8494  0.2056
 8970SOL    HW138372   2.615   4.587   5.777  0.9420 -2.0528  1.3028
 8970SOL    HW238373   2.628   0.004   5.822  0.8292 -0.3004 -0.5024
 8971SOL     OW38374   0.163   3.842   3.532  0.1352 -0.0519  0.3680
 8971SOL    HW138375   0.254   3.811   3.533  0.0076 -0.3138  4.3032
 8971SOL    HW238376   0.113   3.764   3.508  1.8214 -1.7007  2.2210
 8972SOL     OW38377   0.962   1.856   2.431  0.0127  0.0450 -0.1144
 8972SOL    HW138378   0.883   1.829   2.384  0.3336  2.0014 -1.8009
 8972SOL    HW238379   1.005   1.923   2.378 -1.8198 -0.3259 -2.0452
 8973SOL     OW38380   3.125   2.167   2.106 -0.2871 -0.2703  0.2000
 8973SOL    HW138381   3.131   2.219   2.025  0.6450 -0.9464 -0.1628
 8973SOL    HW238382   3.170   2.229   2.164 -2.1795  1.3076  0.0111
 8974SOL     OW38383   2.549   0.085  17.251 -0.3038 -0.2527 -0.4037
 8974SOL    HW138384   2.480   0.049  17.307  0.6249 -0.5965  0.5168
 8974SOL    HW238385   2.565   0.019  17.183 -0.5026 -0.5867 -0.1264
 8975SOL     OW38386   2.316   0.148   8.776 -0.3116 -1.0344 -0.5038
 8975SOL    HW138387   2.306   0.112   8.687  1.9553  0.4677 -1.3697
 8975SOL    HW238388   2.223   0.166   8.788 -0.5672 -1.9870 -1.0245
 8976SOL     OW38389   1.094   2.792   8.201  0.4143  0.1297 -0.6936
 8976SOL    HW138390   1.151   2.868   8.204  0.3924  0.1974 -2.1836
 8976SOL    HW238391   1.070   2.796   8.109 -0.1325  1.0064 -0.5162
 8977SOL     OW38392   0.586   4.703   0.175 -0.0842  0.5300  0.0354
 8977SOL    HW138393   0.504   0.008   0.215 -0.7562 -0.9327 -0.3513
 8977SOL    HW238394   0.556   4.616   0.148  1.0987  0.3197 -0.6101
 8978SOL     OW38395   2.285   0.036   5.119  0.1251 -0.5111 -0.3110
 8978SOL    HW138396   2.352   0.083   5.169 -0.0237 -2.3437  1.5786
 8978SOL    HW238397   2.337   0.013   5.041  0.3135  1.6754 -0.8198
 8979SOL     OW38398   1.876   3.163  10.263 -0.4510  0.5467 -0.6605
 8979SOL    HW138399   1.925   3.081  10.266 -0.5986  0.4096 -2.2595
 8979SOL    HW238400   1.787   3.143  10.290  0.1254 -2.0693 -0.7469
 8980SOL     OW38401   1.526   1.418   3.115  0.0836  0.2083 -1.1068
 8980SOL    HW138402   1.432   1.399   3.115  0.3698 -1.2008 -0.5847
 8980SOL    HW238403   1.548   1.399   3.206  0.6316  2.1337 -0.8392
 8981SOL     OW38404   0.978   0.200   8.065  0.3895 -0.5441  0.2950
 8981SOL    HW138405   0.936   0.273   8.109  0.6272 -0.5284  0.4983
 8981SOL    HW238406   0.897   0.154   8.042 -0.5381  0.5424  1.4166
 8982SOL     OW38407   0.409   2.801  12.679  0.3848 -0.6444 -0.5595
 8982SOL    HW138408   0.444   2.890  12.679 -1.4021  0.0428 -0.2458
 8982SOL    HW238409   0.415   2.785  12.773 -1.4585 -0.1042 -0.3537
 8983SOL     OW38410   4.525   2.745  17.209  0.0329  0.1572 -0.1183
 8983SOL    HW138411   4.500   2.824  17.161 -0.2987  0.5246  0.6537
 8983SOL    HW238412   4.564   2.691  17.141  0.5485 -2.4703  2.2466
 8984SOL     OW38413   4.437   3.717   4.016  0.0961  0.0429 -0.2508
 8984SOL    HW138414   4.403   3.796   3.975 -1.3033 -0.7855 -0.6715
 8984SOL    HW238415   4.433   3.647   3.952 -0.7113 -0.0291 -0.1177
 8985SOL     OW38416   4.533   0.124   9.612  0.1798 -0.3242  0.2563
 8985SOL    HW138417   4.606   0.167   9.656  0.8172 -1.4669  0.3289
 8985SOL    HW238418   4.513   0.046   9.664  0.1904  0.0621  0.8450
 8986SOL     OW38419   0.248   2.043   2.850 -0.3643 -0.1105 -0.1030
 8986SOL    HW138420   0.179   1.998   2.801  0.3459 -0.5593 -0.6906
 8986SOL    HW238421   0.249   1.997   2.934  0.3507  1.8789  0.9927
 8987SOL     OW38422   2.970   1.189   4.929 -0.4104 -0.4763 -0.0071
 8987SOL    HW138423   2.915   1.264   4.905 -0.4272 -0.3977  0.2727
 8987SOL    HW238424   2.977   1.146   4.844  2.0819  0.5570 -0.3063
 8988SOL     OW38425   4.514   0.401  10.183 -0.4100  0.0528  0.0079
 8988SOL    HW138426   4.511   0.306  10.184  0.3983  0.0151 -0.6427
 8988SOL    HW238427   4.454   0.410  10.109  1.2673  0.5528 -1.3085
 8989SOL     OW38428   1.572   2.540   2.205  0.2617  0.1432  0.5533
 8989SOL    HW138429   1.565   2.447   2.227 -0.2483 -0.1546 -0.8546
 8989SOL    HW238430   1.619   2.574   2.281  0.7773  3.0205 -1.0276
 8990SOL     OW38431   1.999   4.516   4.499  0.2957  0.7567 -0.4618
 8990SOL    HW138432   2.089   4.531   4.529  0.1414 -0.6123  0.6982
 8990SOL    HW238433   2.001   4.455   4.425  4.8455 -0.2761  0.5132
 8991SOL     OW38434   0.593   0.065  14.817  0.3650 -0.2774 -0.5668
 8991SOL    HW138435   0.534   0.139  14.808 -0.6730 -1.3726 -2.9719
 8991SOL    HW238436   0.678   0.104  14.799 -0.3622  1.7451  0.4376
 8992SOL     OW38437   3.483   1.868   2.581  0.5652  0.3607  0.2286
 8992SOL    HW138438   3.395   1.905   2.577 -0.0484 -1.2957 -1.3661
 8992SOL    HW238439   3.537   1.941   2.549 -0.2390  0.3404 -1.1617
 8993SOL     OW38440   2.426   3.558   2.842 -0.3944  0.2336  0.3177
 8993SOL    HW138441   2.392   3.574   2.754  0.1410  0.2328  0.1045
 8993SOL    HW238442   2.513   3.596   2.829 -0.6689  0.5502 -0.6093
 8994SOL     OW38443   4.422   3.309   3.918  0.5175 -0.2438  0.1787
 8994SOL    HW138444   4.415   3.395   3.877 -0.2631 -0.2831  0.2299
 8994SOL    HW238445   4.328   3.290   3.927  0.0105  1.5858 -1.1706
 8995SOL     OW38446   2.944   1.109   3.014  0.3968 -0.0480  0.0224
 8995SOL    HW138447   2.849   1.120   3.010  0.6424  1.6165 -0.7993
 8995SOL    HW238448   2.952   1.014   3.022  1.0347 -0.0607 -0.8185
 8996SOL     OW38449   3.363   0.131  13.394  0.7492  0.3841  0.2747
 8996SOL    HW138450   3.358   0.052  13.341 -1.4173 -0.5147  1.7935
 8996SOL    HW238451   3.277   0.141  13.437 -0.0012 -0.0684 -1.1270
 8997SOL     OW38452   1.626   4.072  12.503  0.0302  0.5964 -0.1595
 8997SOL    HW138453   1.664   3.987  12.481  0.8203  0.6262  1.0697
 8997SOL    HW238454   1.599   4.058  12.593  2.3308 -0.0592  0.4322
 8998SOL     OW38455   2.926   3.683   7.442  0.1142  0.2800 -0.4321
 8998SOL    HW138456   2.955   3.770   7.414  0.6578  0.5079  0.8606
 8998SOL    HW238457   3.006   3.653   7.484 -0.8877 -2.2937 -0.3425
 8999SOL     OW38458   3.471   1.065   7.209  0.0319  1.1366  0.2830
 8999SOL    HW138459   3.520   1.015   7.274 -2.3959  1.1585  2.1443
 8999SOL    HW238460   3.393   1.012   7.195  1.8661 -1.6820  0.7611
 9000SOL     OW38461   4.346   0.721   7.276 -0.1663  0.8975 -0.5586
 9000SOL    HW138462   4.337   0.642   7.222  0.4447 -0.1793  0.9410
 9000SOL    HW238463   4.409   0.773   7.225 -0.0526  0.7705 -0.5465
 9001SOL     OW38464   4.600   4.009   2.573  0.0496  0.7374 -0.1797
 9001SOL    HW138465   4.569   3.983   2.660  0.2178 -0.1290 -0.3813
 9001SOL    HW238466   4.696   4.015   2.581  0.1702  0.0482 -1.2183
 9002SOL     OW38467   0.157   0.010   2.983  0.0927 -0.3291  0.3258
 9002SOL    HW138468   0.198   0.097   2.990 -0.6173 -0.0969  1.4996
 9002SOL    HW238469   0.207   4.704   2.906 -0.2840  0.3547 -0.1730
 9003SOL     OW38470   2.127   0.859  12.414 -0.4049 -0.0501 -0.1041
 9003SOL    HW138471   2.048   0.812  12.441 -0.2231 -1.4047 -1.9300
 9003SOL    HW238472   2.138   0.916  12.490  1.7136 -2.8209  1.6805
 9004SOL     OW38473   4.153   1.833   1.017  0.3050  0.4379 -0.1964
 9004SOL    HW138474   4.124   1.802   0.931  0.6199  0.4947 -0.3215
 9004SOL    HW238475   4.090   1.794   1.077  0.8986 -0.0279  0.1164
 9005SOL     OW38476   1.655   4.537  12.669  0.4802  0.2390 -0.1976
 9005SOL    HW138477   1.717   4.526  12.597  1.3012 -0.9440  0.6729
 9005SOL    HW238478   1.577   4.486  12.646  0.0249  2.1395 -2.7647
 9006SOL     OW38479   4.224   4.639   9.019  0.4908  0.2602 -0.2646
 9006SOL    HW138480   4.306   4.590   9.031 -0.0377 -0.5601 -0.0602
 9006SOL    HW238481   4.216   4.612   8.927  1.0235 -2.4162  0.4880
 9007SOL     OW38482   3.221   2.429   1.481 -0.1314 -0.2379 -0.4299
 9007SOL    HW138483   3.183   2.494   1.540 -1.3048 -2.1780  0.9227
 9007SOL    HW238484   3.159   2.358   1.497  0.7758 -0.5905  1.4466
 9008SOL     OW38485   0.440   4.416   9.635 -0.5073  0.1802 -0.0555
 9008SOL    HW138486   0.479   4.408   9.723 -3.0952 -0.6564  1.0155
 9008SOL    HW238487   0.356   4.457   9.655 -0.3889  0.4706 -0.1583
 9009SOL     OW38488   3.794   1.626  10.183  0.4047 -0.1899 -0.6592
 9009SOL    HW138489   3.797   1.713  10.143 -0.4115  1.0440  1.9386
 9009SOL    HW238490   3.795   1.564  10.110 -0.6498  0.4381 -1.1960
 9010SOL     OW38491   3.113   3.100   1.348  0.0006 -0.1034 -0.1867
 9010SOL    HW138492   3.170   3.041   1.397 -1.1108  0.5318  1.8806
 9010SOL    HW238493   3.172   3.175   1.357 -1.2986  0.8288  0.5735
 9011SOL     OW38494   3.385   1.173   2.183 -0.1454  0.0160 -0.3036
 9011SOL    HW138495   3.389   1.267   2.202  1.1046  0.1116 -1.0630
 9011SOL    HW238496   3.293   1.172   2.157  0.1471 -0.2431 -1.3119
 9012SOL     OW38497   0.975   3.299   8.583  0.0428 -0.0188  0.1823
 9012SOL    HW138498   0.970   3.231   8.516 -0.0122 -0.7910  0.9704
 9012SOL    HW238499   0.944   3.243   8.654  2.0723 -0.2003  0.9194
 9013SOL     OW38500   3.137   3.713   7.178  0.3499  0.7958  1.1253
 9013SOL    HW138501   3.065   3.649   7.177  0.7688  0.4180 -2.2789
 9013SOL    HW238502   3.099   3.795   7.209  0.8041  1.7007 -0.7234
 9014SOL     OW38503   4.257   3.453   4.178  0.1104 -0.3313  0.4738
 9014SOL    HW138504   4.193   3.437   4.108  1.5915  0.7819 -1.1483
 9014SOL    HW238505   4.214   3.458   4.263 -0.6339  2.0537 -0.0571
 9015SOL     OW38506   1.662   3.443   3.342  0.2599  0.5436  0.0029
 9015SOL    HW138507   1.651   3.531   3.305 -2.2636  0.4349  0.5069
 9015SOL    HW238508   1.711   3.465   3.421  1.6390 -0.5327 -0.5547
 9016SOL     OW38509   2.542   1.487   1.259 -0.1590  0.0593 -0.0569
 9016SOL    HW138510   2.535   1.466   1.166 -1.9756  0.0428  0.0774
 9016SOL    HW238511   2.618   1.433   1.283 -0.6812  0.2975  2.1515
 9017SOL     OW38512   0.902   3.261   0.771 -0.0454 -0.0973  0.5448
 9017SOL    HW138513   0.835   3.329   0.778  1.2836  1.1963  0.6151
 9017SOL    HW238514   0.955   3.286   0.696  1.1869 -1.3948  0.9645
 9018SOL     OW38515   0.765   0.813   0.743 -0.0277 -0.1471 -0.1828
 9018SOL    HW138516   0.761   0.737   0.685 -2.5836  0.7340 -1.1712
 9018SOL    HW238517   0.673   0.837   0.756  0.2662 -0.1136  1.8226
 9019SOL     OW38518   3.293   0.810   4.605 -0.0685 -0.0337  0.0487
 9019SOL    HW138519   3.265   0.901   4.612 -2.8093 -0.8483 -0.1107
 9019SOL    HW238520   3.233   0.774   4.539  1.0699  1.1865 -1.6497
 9020SOL     OW38521   1.336   2.560  15.650 -0.0505  0.1232 -0.0312
 9020SOL    HW138522   1.296   2.549  15.563 -1.5897  0.3719  0.6331
 9020SOL    HW238523   1.343   2.656  15.650 -0.7094  0.1567  2.3755
 9021SOL     OW38524   3.993   1.525   3.231 -0.0348 -0.0087 -0.0214
 9021SOL    HW138525   3.916   1.469   3.226 -0.2178  0.3702 -1.4901
 9021SOL    HW238526   4.063   1.461   3.237 -1.1678 -1.2106  0.2238
 9022SOL     OW38527   2.450   0.779   2.520  0.6024 -0.4370 -0.0320
 9022SOL    HW138528   2.509   0.751   2.590  1.7657  1.9536 -0.0667
 9022SOL    HW238529   2.488   0.725   2.451  0.2138 -0.8787  0.0975
 9023SOL     OW38530   0.698   0.620  15.848  0.8538  0.3740  0.5216
 9023SOL    HW138531   0.652   0.550  15.801 -0.0007  2.2684 -1.4680
 9023SOL    HW238532   0.780   0.571  15.861  1.0716  0.9889  1.4657
 9024SOL     OW38533   2.663   0.894   0.939 -0.2058  0.4244 -0.4378
 9024SOL    HW138534   2.622   0.956   1.000 -0.8613 -2.1427  1.7034
 9024SOL    HW238535   2.740   0.886   0.995 -0.2578  1.2522 -0.2416
 9025SOL     OW38536   3.160   2.916   2.011 -0.4827  0.0318 -0.1256
 9025SOL    HW138537   3.085   2.926   1.953  0.6507  1.0867 -1.4284
 9025SOL    HW238538   3.145   2.985   2.076 -1.5704  1.2465 -1.6571
 9026SOL     OW38539   1.615   2.562  13.761 -0.1907 -0.4553  0.1486
 9026SOL    HW138540   1.556   2.488  13.763 -0.7301 -0.0102  0.8226
 9026SOL    HW238541   1.668   2.553  13.841 -1.8370  0.6839  1.3666
 9027SOL     OW38542   4.499   2.842  15.418 -0.0163  0.3022  0.0120
 9027SOL    HW138543   4.471   2.879  15.334 -2.3535  0.3365  0.7990
 9027SOL    HW238544   4.569   2.779  15.399 -1.1753 -1.6490  2.1232
 9028SOL     OW38545   4.663   4.716   8.866 -0.0950 -0.7431  0.2720
 9028SOL    HW138546   4.653   0.074   8.815  0.6778  0.7729  2.4858
 9028SOL    HW238547   4.709   4.670   8.796  2.1976  2.0411 -0.0674
 9029SOL     OW38548   2.894   3.729   7.751 -0.0543  0.1768  0.1043
 9029SOL    HW138549   2.848   3.717   7.668 -2.8963  1.3595  1.5158
 9029SOL    HW238550   2.843   3.804   7.781 -0.1095  0.3433 -0.3994
 9030SOL     OW38551   0.741   2.880   5.659  0.3514  0.9019  0.3904
 9030SOL    HW138552   0.714   2.962   5.619  1.6668  0.8263 -0.6600
 9030SOL    HW238553   0.835   2.889   5.641  0.4784  0.3783  0.7956
 9031SOL     OW38554   2.643   0.868   4.127 -0.1041 -0.2721  0.2006
 9031SOL    HW138555   2.557   0.886   4.088 -0.1300 -0.6516  0.0786
 9031SOL    HW238556   2.671   0.947   4.173 -1.0539 -0.0039  0.3234
 9032SOL     OW38557   3.796   1.538  11.064  0.4672 -0.5067  0.7157
 9032SOL    HW138558   3.809   1.497  10.979 -0.2760 -1.8693  1.2684
 9032SOL    HW238559   3.745   1.617  11.048  0.4845 -0.8149 -0.8093
 9033SOL     OW38560   1.863   1.285  10.826 -0.1596  0.5997  0.0131
 9033SOL    HW138561   1.896   1.200  10.799 -0.9670 -0.2282  1.6316
 9033SOL    HW238562   1.811   1.309  10.749  0.4074  1.8930  0.0348
 9034SOL     OW38563   3.623   4.539   8.431 -0.0378  0.0190  0.1133
 9034SOL    HW138564   3.581   4.483   8.497 -1.4832  0.3751 -0.4972
 9034SOL    HW238565   3.550   4.579   8.383 -1.5342 -0.3261  2.1330
 9035SOL     OW38566   1.350   4.517   5.620 -0.0170 -0.0188  0.0378
 9035SOL    HW138567   1.275   4.561   5.581  0.4687 -0.2207 -1.1171
 9035SOL    HW238568   1.382   4.473   5.541  0.6812  1.5635 -0.5502
 9036SOL     OW38569   2.115   1.405  12.092 -0.3057  0.7288  0.4131
 9036SOL    HW138570   2.055   1.477  12.112  2.3166  2.2835  2.7751
 9036SOL    HW238571   2.196   1.436  12.133 -0.4940  0.3083  1.1053
 9037SOL     OW38572   0.591   0.398   3.235 -0.3217  0.0322 -0.2444
 9037SOL    HW138573   0.516   0.457   3.239  0.3505  0.9816 -1.5817
 9037SOL    HW238574   0.601   0.372   3.327  0.8081 -1.6934 -0.8560
 9038SOL     OW38575   3.457   1.794   3.920  0.2002  0.3745 -0.1503
 9038SOL    HW138576   3.535   1.763   3.876 -0.4310 -1.0960 -0.2110
 9038SOL    HW238577   3.476   1.763   4.009 -0.7568  0.1314 -0.0348
 9039SOL     OW38578   0.470   3.043  12.743 -0.0973 -0.4059 -0.1680
 9039SOL    HW138579   0.548   3.079  12.702 -0.2236 -0.7094 -0.6742
 9039SOL    HW238580   0.476   3.082  12.830 -0.0778  0.7947 -0.7042
 9040SOL     OW38581   4.559   0.774   4.013  0.2172 -0.0988 -0.5353
 9040SOL    HW138582   4.564   0.815   3.927 -0.6595 -0.2850 -0.6817
 9040SOL    HW238583   4.545   0.849   4.070 -1.9362 -1.8490  1.2717
 9041SOL     OW38584   3.808   4.664   8.749 -0.0236 -0.3021  0.1683
 9041SOL    HW138585   3.853   4.641   8.667  2.4004  2.2933  0.7565
 9041SOL    HW238586   3.760   4.584   8.771 -0.2275 -0.3122 -0.3149
 9042SOL     OW38587   4.500   0.701   1.635  0.5064 -0.3060 -0.0722
 9042SOL    HW138588   4.533   0.789   1.617 -1.2156  0.6270  1.2407
 9042SOL    HW238589   4.572   0.658   1.590 -0.4910  0.0235 -1.9474
 9043SOL     OW38590   2.015   0.680  14.263  0.0131 -0.4387  0.2062
 9043SOL    HW138591   2.062   0.637  14.191  0.8945 -0.6272  0.8917
 9043SOL    HW238592   1.977   0.757  14.220  0.7506  0.9414  2.0191
 9044SOL     OW38593   1.032   1.811   2.684 -0.0329  0.0231  0.1634
 9044SOL    HW138594   0.960   1.749   2.697  0.0614 -0.4666 -1.7049
 9044SOL    HW238595   1.006   1.831   2.594  0.4151 -1.0240 -0.1896
 9045SOL     OW38596   2.431   1.836   8.888 -0.4533 -0.6430  0.0796
 9045SOL    HW138597   2.477   1.850   8.805  2.3200  2.5423  2.1734
 9045SOL    HW238598   2.352   1.882   8.859  1.2314  1.6695 -0.8235
 9046SOL     OW38599   3.445   4.347   4.908 -0.0102  0.4517  0.1450
 9046SOL    HW138600   3.455   4.324   5.001  1.3565 -2.4597 -0.7341
 9046SOL    HW238601   3.497   4.276   4.871 -0.0070 -0.7579  2.4767
 9047SOL     OW38602   1.686   4.406  13.392  0.4086  0.6814  1.0855
 9047SOL    HW138603   1.730   4.473  13.341  1.6125 -1.9426 -1.3510
 9047SOL    HW238604   1.645   4.455  13.463  0.2757 -0.7063  1.9775
 9048SOL     OW38605   2.611   3.778  14.325  0.1612 -0.2270 -0.9327
 9048SOL    HW138606   2.687   3.791  14.269 -0.5346 -0.0375 -1.8484
 9048SOL    HW238607   2.643   3.814  14.408  0.1260  2.3389 -2.0146
 9049SOL     OW38608   0.636   1.789  11.813 -0.3042  0.5477 -1.0059
 9049SOL    HW138609   0.636   1.827  11.901 -0.3310 -2.0574  0.0939
 9049SOL    HW238610   0.558   1.735  11.826 -0.2292  0.4999 -0.7516
 9050SOL     OW38611   3.371   2.744   5.944  0.9156  0.4266 -0.3446
 9050SOL    HW138612   3.403   2.813   6.003 -0.3600  3.4229 -3.1478
 9050SOL    HW238613   3.388   2.797   5.866 -0.5711  0.0266 -0.9426
 9051SOL     OW38614   3.951   3.277  16.229  0.2870 -0.2399  0.5772
 9051SOL    HW138615   3.866   3.272  16.185  0.6985 -1.6551 -0.0206
 9051SOL    HW238616   4.013   3.249  16.162 -0.5640  3.6629 -1.8837
 9052SOL     OW38617   0.651   4.132   4.056 -0.6999 -0.5454  0.1807
 9052SOL    HW138618   0.665   4.106   3.965 -0.9541 -1.8219  0.5010
 9052SOL    HW238619   0.614   4.217   4.029 -1.7700 -0.6431  1.3399
 9053SOL     OW38620   3.631   2.503   9.178  0.1312  0.6354  0.4699
 9053SOL    HW138621   3.572   2.534   9.109  0.5907  0.5555  0.0373
 9053SOL    HW238622   3.697   2.463   9.121 -0.8618 -0.6839  0.2345
 9054SOL     OW38623   2.425   4.396   2.913  0.2777  0.4570 -0.0386
 9054SOL    HW138624   2.412   4.318   2.859  1.5690 -0.8373  1.5363
 9054SOL    HW238625   2.455   4.458   2.847 -2.0825  0.3315 -1.2329
 9055SOL     OW38626   3.404   3.866   6.060  0.0398 -0.0200  0.1814
 9055SOL    HW138627   3.429   3.838   6.148  0.3633  0.2419  0.1712
 9055SOL    HW238628   3.311   3.846   6.071  0.1929  0.4017  2.1321
 9056SOL     OW38629   0.607   1.182   0.344 -0.0413  0.0038  0.0633
 9056SOL    HW138630   0.528   1.137   0.375 -0.3976  0.7058  0.1611
 9056SOL    HW238631   0.657   1.188   0.426  2.1571  2.1843 -1.4382
 9057SOL     OW38632   1.872   2.940   5.473 -0.5727  0.3147 -0.1416
 9057SOL    HW138633   1.893   2.929   5.380  0.8663 -1.5712  0.4118
 9057SOL    HW238634   1.961   2.943   5.506 -0.2540  2.7624 -1.2421
 9058SOL     OW38635   2.852   2.452  16.213 -0.6792 -0.1324  0.4244
 9058SOL    HW138636   2.892   2.391  16.152  0.6657  1.0279  0.1628
 9058SOL    HW238637   2.836   2.396  16.289 -1.4975  1.8703  1.7306
 9059SOL     OW38638   1.172   2.071   2.687 -0.2415  0.7910  0.4042
 9059SOL    HW138639   1.246   2.032   2.735 -0.5634 -0.9771 -0.5399
 9059SOL    HW238640   1.111   1.998   2.695  0.6324  0.3184  2.9688
 9060SOL     OW38641   2.251   3.864   4.943  0.0508  0.0586 -0.3350
 9060SOL    HW138642   2.274   3.932   4.879  1.6193 -0.9020 -0.7894
 9060SOL    HW238643   2.156   3.868   4.947 -0.0027  0.8015 -2.0058
 9061SOL     OW38644   1.442   3.046   1.003 -0.5700 -0.4447  0.1701
 9061SOL    HW138645   1.404   2.980   1.060 -1.1414 -2.6797 -2.7895
 9061SOL    HW238646   1.496   2.995   0.943  0.3989  1.2466 -0.4027
 9062SOL     OW38647   3.554   1.535   8.707 -0.2356 -0.1749 -0.1921
 9062SOL    HW138648   3.648   1.541   8.690 -0.2480 -0.7970 -0.4842
 9062SOL    HW238649   3.556   1.442   8.730  1.5125 -0.1702 -0.3126
 9063SOL     OW38650   3.091   4.509  15.117 -0.1740 -0.3297 -0.4379
 9063SOL    HW138651   3.008   4.473  15.087  0.8283 -1.9570 -1.3006
 9063SOL    HW238652   3.150   4.434  15.126  0.1453  0.1405  1.4407
 9064SOL     OW38653   1.733   1.694   7.086 -0.0305 -0.4814  0.1812
 9064SOL    HW138654   1.754   1.625   7.149 -0.9641 -1.3388 -0.4431
 9064SOL    HW238655   1.816   1.741   7.090  0.0421 -0.5406 -0.5241
 9065SOL     OW38656   4.152   1.157   8.380  0.3993 -0.5995  0.1733
 9065SOL    HW138657   4.183   1.198   8.461 -1.5790  0.5430  0.3631
 9065SOL    HW238658   4.210   1.082   8.371  0.5321 -0.4347 -0.3462
 9066SOL     OW38659   1.032   3.862   8.270 -0.2989 -0.5181  0.2907
 9066SOL    HW138660   1.045   3.904   8.355 -2.5583  1.7273 -0.4531
 9066SOL    HW238661   1.093   3.917   8.221 -1.2734 -1.0683 -1.5529
 9067SOL     OW38662   1.556   1.475   5.823 -0.4126 -0.5332 -0.3663
 9067SOL    HW138663   1.530   1.531   5.750 -0.1086  0.5796  0.3756
 9067SOL    HW238664   1.636   1.431   5.795  0.5733  0.3109  1.1671
 9068SOL     OW38665   0.804   4.448   6.542  0.0458 -0.4148 -0.4563
 9068SOL    HW138666   0.895   4.419   6.547  0.1384 -0.2258 -1.0060
 9068SOL    HW238667   0.769   4.359   6.539  3.3035 -1.6885 -1.4086
 9069SOL     OW38668   2.067   2.743   2.813  0.6699 -0.5430  0.4487
 9069SOL    HW138669   2.069   2.839   2.808  3.9347 -0.7441 -2.0915
 9069SOL    HW238670   1.977   2.731   2.783  0.2855 -1.1346  1.8532
 9070SOL     OW38671   1.389   2.026   5.706 -0.2528 -0.3029 -0.0793
 9070SOL    HW138672   1.462   2.043   5.765  1.7412 -0.9744 -2.3518
 9070SOL    HW238673   1.319   2.028   5.771 -2.0317 -2.3496 -1.9221
 9071SOL     OW38674   4.458   2.702   4.222 -0.0922 -0.0342  0.4491
 9071SOL    HW138675   4.548   2.735   4.222  0.1066 -0.5726 -1.6257
 9071SOL    HW238676   4.471   2.617   4.180 -0.7603  0.5758 -1.0004
 9072SOL     OW38677   3.519   0.834  14.746  0.1353 -0.2101 -0.1593
 9072SOL    HW138678   3.515   0.782  14.826  0.4036 -1.7525 -1.1454
 9072SOL    HW238679   3.482   0.766  14.689  0.3316 -0.6930  0.2906
 9073SOL     OW38680   3.354   4.267   1.629 -0.0270 -0.1595  0.1709
 9073SOL    HW138681   3.288   4.302   1.689  0.1775  1.1943 -0.3986
 9073SOL    HW238682   3.407   4.346   1.623 -0.4310 -0.0689 -2.0685
 9074SOL     OW38683   1.314   3.666  13.992  0.0248  0.1220  0.7269
 9074SOL    HW138684   1.350   3.681  13.904  1.8565  0.4540  1.5189
 9074SOL    HW238685   1.243   3.730  13.982 -1.2159 -1.6168 -1.4980
 9075SOL     OW38686   4.422   1.137   3.521  0.4257  0.7407  0.8656
 9075SOL    HW138687   4.411   1.147   3.615 -0.6597  0.5298  0.7569
 9075SOL    HW238688   4.452   1.225   3.498  0.4881  0.8263  1.2774
 9076SOL     OW38689   2.234   4.674   7.244 -0.2979  0.2844  0.6337
 9076SOL    HW138690   2.249   0.022   7.307  0.1676 -0.1062  0.9639
 9076SOL    HW238691   2.138   4.668   7.246 -0.1934 -1.2335  1.3193
 9077SOL     OW38692   2.409   2.794   0.180  0.0682  0.6200  0.4616
 9077SOL    HW138693   2.489   2.841   0.204  0.1190  0.5492  0.4334
 9077SOL    HW238694   2.384   2.747   0.260  0.7409  0.0385  0.3281
 9078SOL     OW38695   2.846   4.512  11.447  0.1539  0.0557  0.4414
 9078SOL    HW138696   2.793   4.592  11.443 -1.7563 -1.2765 -0.9394
 9078SOL    HW238697   2.909   4.527  11.377  0.3640  0.9248  0.8152
 9079SOL     OW38698   4.069   2.456   9.915 -0.6433  0.3323 -0.1738
 9079SOL    HW138699   4.159   2.430   9.892 -0.2476  1.5852 -0.0223
 9079SOL    HW238700   4.031   2.456   9.827  2.0670 -0.8771 -1.3629
 9080SOL     OW38701   1.901   0.364   3.180  0.0645  0.1696 -0.1925
 9080SOL    HW138702   1.915   0.390   3.089  0.6668  0.8976  0.1058
 9080SOL    HW238703   1.912   0.269   3.181  0.1521  0.1967  1.5681
 9081SOL     OW38704   0.783   0.778  16.626 -0.2897 -0.1404 -0.6782
 9081SOL    HW138705   0.813   0.763  16.536 -3.9052  1.4424 -2.1533
 9081SOL    HW238706   0.836   0.717  16.676  0.3434  0.0799 -1.0801
 9082SOL     OW38707   3.132   0.595   9.674 -0.1767  0.4427 -0.3020
 9082SOL    HW138708   3.106   0.517   9.624 -0.0462  0.2861 -0.1241
 9082SOL    HW238709   3.175   0.645   9.605  1.4828  2.8213  2.4629
 9083SOL     OW38710   1.007   0.816   8.522 -0.2568  0.1105 -0.2891
 9083SOL    HW138711   1.028   0.847   8.434  1.3983  1.9373  0.7473
 9083SOL    HW238712   0.956   0.887   8.563  0.0168 -0.1677  0.5385
 9084SOL     OW38713   3.350   0.488   3.759 -0.3398 -0.4363 -0.1356
 9084SOL    HW138714   3.326   0.563   3.705  1.9405  1.1263  1.0343
 9084SOL    HW238715   3.289   0.497   3.832  0.2154  0.9765  0.1482
 9085SOL     OW38716   3.121   1.990   6.609 -0.4137  0.2725 -0.3873
 9085SOL    HW138717   3.135   2.052   6.680 -0.0044  1.1520 -1.2282
 9085SOL    HW238718   3.085   2.050   6.543 -0.0201  0.8649 -0.0635
 9086SOL     OW38719   1.730   3.400  11.560 -0.1366  0.5644  0.8429
 9086SOL    HW138720   1.711   3.316  11.518  0.2749  0.6325  0.5158
 9086SOL    HW238721   1.815   3.420  11.519 -0.8080 -1.3386 -1.5565
 9087SOL     OW38722   4.319   1.910   2.290 -0.2991 -0.3158  0.0308
 9087SOL    HW138723   4.373   1.852   2.237  1.4140 -0.3175  1.7781
 9087SOL    HW238724   4.321   1.990   2.237  1.7549  1.4337  2.6943
 9088SOL     OW38725   1.354   4.122   6.483  0.1899 -0.2617 -0.2336
 9088SOL    HW138726   1.323   4.110   6.572 -1.0676 -2.4235 -0.9680
 9088SOL    HW238727   1.378   4.214   6.480 -0.6010 -0.0387  0.5572
 9089SOL     OW38728   3.869   1.726   9.116 -0.6254 -0.3435  0.2399
 9089SOL    HW138729   3.807   1.732   9.189  0.0902 -1.0334  0.9132
 9089SOL    HW238730   3.952   1.723   9.165 -1.1720  3.2798  1.3824
 9090SOL     OW38731   2.991   3.952   3.153  0.5887  0.2530  0.0086
 9090SOL    HW138732   2.933   3.907   3.215  1.9428 -1.6849 -0.1319
 9090SOL    HW238733   3.072   3.941   3.203  1.6512  1.7068 -1.4081
 9091SOL     OW38734   1.266   3.378   7.504 -0.1829  0.2507  0.0753
 9091SOL    HW138735   1.221   3.294   7.506 -1.3192  0.8432 -0.2975
 9091SOL    HW238736   1.353   3.365   7.468  0.0908 -2.4610  1.7227
 9092SOL     OW38737   4.157   1.385   3.561 -0.4696  0.5107 -0.3698
 9092SOL    HW138738   4.161   1.462   3.618 -1.2880  0.3599 -0.1044
 9092SOL    HW238739   4.247   1.369   3.530 -0.1945  0.0259  0.6675
 9093SOL     OW38740   0.252   1.345   8.434 -0.0519 -0.6939  0.1343
 9093SOL    HW138741   0.303   1.289   8.375 -0.9888 -1.0040 -0.3914
 9093SOL    HW238742   0.219   1.420   8.385  0.6616 -0.0597  0.6315
 9094SOL     OW38743   4.254   3.810   8.784 -0.2947  0.0921  0.0650
 9094SOL    HW138744   4.242   3.847   8.696 -0.7043 -2.1067 -0.7904
 9094SOL    HW238745   4.236   3.882   8.845  0.8021  0.0265  0.4607
 9095SOL     OW38746   0.032   2.941   7.671 -0.0212 -0.2925  0.1920
 9095SOL    HW138747   4.694   2.868   7.684  1.3973 -1.5274 -0.1315
 9095SOL    HW238748   4.712   2.978   7.594  1.3348 -0.3052 -0.5532
 9096SOL     OW38749   2.810   1.406   4.873  0.0556 -0.1140  0.1583
 9096SOL    HW138750   2.788   1.498   4.858  1.1158  0.4608  2.1189
 9096SOL    HW238751   2.741   1.367   4.819 -0.2139  1.7073 -0.8199
 9097SOL     OW38752   3.922   1.298   4.558  0.3987  0.1320 -0.2853
 9097SOL    HW138753   3.915   1.203   4.558 -0.1626  0.1730 -0.1662
 9097SOL    HW238754   3.935   1.304   4.463  0.6937  2.4210 -0.1200
 9098SOL     OW38755   2.336   1.064  11.279  0.1221 -0.2216  0.1846
 9098SOL    HW138756   2.284   1.114  11.217 -0.0067  0.8968  1.1976
 9098SOL    HW238757   2.298   1.088  11.363  0.6821  0.7409  0.1512
 9099SOL     OW38758   4.614   0.813   1.303 -0.4517  0.5968  0.0544
 9099SOL    HW138759   4.616   0.765   1.220 -0.4050 -1.0758  1.0385
 9099SOL    HW238760   4.686   0.774   1.353  0.4364  0.7095 -1.1242
 9100SOL     OW38761   3.964   1.145   1.790  0.3950 -0.3025  1.0277
 9100SOL    HW138762   3.905   1.073   1.809  0.5805 -1.0923 -1.3803
 9100SOL    HW238763   3.946   1.201   1.866  0.8090 -1.2796  1.8323
 9101SOL     OW38764   0.841   4.011  12.201  0.1701 -0.3281  0.4648
 9101SOL    HW138765   0.833   4.073  12.128 -0.8349 -1.2012 -0.1786
 9101SOL    HW238766   0.824   4.071  12.273  0.5253 -0.4993  0.6879
 9102SOL     OW38767   1.580   1.831   7.936  0.1088  0.5315  0.0126
 9102SOL    HW138768   1.539   1.830   7.850 -0.5511 -2.0882  0.3635
 9102SOL    HW238769   1.670   1.851   7.909 -0.3404  0.7846 -1.2846
 9103SOL     OW38770   0.308   1.034  14.421 -0.6994  0.3124 -0.3265
 9103SOL    HW138771   0.283   0.943  14.437  3.5173 -0.7429  0.1660
 9103SOL    HW238772   0.310   1.044  14.326  0.2134  0.5175 -0.2874
 9104SOL     OW38773   2.987   3.028   0.469  0.4919  0.4929  0.3581
 9104SOL    HW138774   2.951   3.098   0.414  1.8511  1.4630  0.7241
 9104SOL    HW238775   2.924   3.021   0.540  0.5648 -1.4240  0.2283
 9105SOL     OW38776   0.605   1.053   5.754 -0.2372  0.2212 -0.8410
 9105SOL    HW138777   0.518   1.018   5.774  0.0821  0.6868  1.3893
 9105SOL    HW238778   0.648   0.969   5.735  0.8041  0.2171  1.4982
 9106SOL     OW38779   1.646   4.297  17.043  0.3053  0.0094 -0.5504
 9106SOL    HW138780   1.674   4.308  17.134  2.0434  0.8330 -1.1881
 9106SOL    HW238781   1.617   4.206  17.048  2.0079 -0.4368  1.3743
 9107SOL     OW38782   1.618   4.690   8.045  0.0519 -0.0143  0.7039
 9107SOL    HW138783   1.559   4.687   7.969  1.1288  1.5349 -0.1864
 9107SOL    HW238784   1.563   4.699   8.124 -0.2389 -1.5235  0.6793
 9108SOL     OW38785   3.992   4.608   8.559  0.0404 -0.0844 -0.6465
 9108SOL    HW138786   4.050   4.666   8.510 -1.0699  1.4128 -0.1967
 9108SOL    HW238787   4.043   4.529   8.542 -1.8691 -1.3966 -0.3464
 9109SOL     OW38788   0.594   2.747   2.209 -0.4810 -0.2898 -0.5181
 9109SOL    HW138789   0.533   2.703   2.150 -1.3486  0.8926 -0.5012
 9109SOL    HW238790   0.674   2.720   2.164 -0.3347  0.0668 -0.4672
 9110SOL     OW38791   1.799   1.717   3.886 -0.0131 -0.7031  0.5998
 9110SOL    HW138792   1.870   1.775   3.857 -1.0971  0.4979  0.3552
 9110SOL    HW238793   1.843   1.649   3.937  2.3748  1.0623  0.9022
 9111SOL     OW38794   1.539   3.343  14.692 -0.2657  0.2889  0.2220
 9111SOL    HW138795   1.545   3.294  14.774  0.9386  1.4580  0.8277
 9111SOL    HW238796   1.472   3.406  14.718  0.6413  0.7428  1.4796
 9112SOL     OW38797   1.419   1.955   4.385  0.0868 -0.2411  0.3169
 9112SOL    HW138798   1.443   2.044   4.413  0.2903  0.1981 -1.2517
 9112SOL    HW238799   1.386   1.927   4.470 -0.0224  1.0975  0.7232
 9113SOL     OW38800   3.316   3.292   6.647  0.3366 -0.1631 -0.3930
 9113SOL    HW138801   3.320   3.228   6.718 -1.4418 -0.6794 -0.7642
 9113SOL    HW238802   3.260   3.243   6.586 -0.8264  0.7594 -0.0749
 9114SOL     OW38803   0.072   4.036  10.999  0.2917  0.3229  0.1892
 9114SOL    HW138804   0.028   4.054  11.083  0.6059 -0.5108  0.5341
 9114SOL    HW238805   0.084   4.122  10.958  0.2436  1.0100  1.5989
 9115SOL     OW38806   2.876   4.350  16.380  0.0978 -0.6462 -0.2603
 9115SOL    HW138807   2.893   4.257  16.395 -1.8896 -1.1146 -0.8651
 9115SOL    HW238808   2.926   4.367  16.300  1.3057  0.1555  0.6626
 9116SOL     OW38809   1.852   3.176   7.549  0.0583 -0.3197 -0.1228
 9116SOL    HW138810   1.915   3.196   7.618 -0.3261 -2.9828  1.0233
 9116SOL    HW238811   1.835   3.082   7.561  1.2888 -0.5218  0.0374
 9117SOL     OW38812   1.388   1.014   5.128 -0.8574  0.6380  0.0849
 9117SOL    HW138813   1.374   1.003   5.034 -0.8938 -1.7687  0.3626
 9117SOL    HW238814   1.482   0.996   5.127 -0.9606 -0.0968  1.8588
 9118SOL     OW38815   0.107   3.127   7.849 -0.1228  0.8454  0.0284
 9118SOL    HW138816   0.075   3.085   7.769  1.7391  0.0356 -0.2717
 9118SOL    HW238817   0.022   3.129   7.894 -0.4168 -1.8384 -0.4110
 9119SOL     OW38818   0.342   0.244   5.775 -0.0369 -0.1955 -0.1859
 9119SOL    HW138819   0.298   0.210   5.696  0.0933 -0.5351 -0.1136
 9119SOL    HW238820   0.266   0.256   5.832  0.7204 -2.5466  1.3255
 9120SOL     OW38821   3.478   1.478   6.945 -0.5788  0.1147  0.0820
 9120SOL    HW138822   3.531   1.518   6.876  1.8529 -2.1733  0.6340
 9120SOL    HW238823   3.509   1.388   6.955  1.6542  1.0388  1.4278
 9121SOL     OW38824   3.249   2.006   8.225 -0.1087 -0.4331 -0.1169
 9121SOL    HW138825   3.264   2.101   8.227 -2.4012 -0.0086 -2.9119
 9121SOL    HW238826   3.282   1.974   8.309 -0.1660 -0.1746  0.0044
 9122SOL     OW38827   4.343   2.346   7.695 -0.7864  0.0767 -0.0066
 9122SOL    HW138828   4.280   2.314   7.631 -0.2589 -1.0999  0.0629
 9122SOL    HW238829   4.305   2.316   7.778  1.5517  1.0336  1.4033
 9123SOL     OW38830   3.435   1.581   7.187 -0.3746  0.6691  0.0270
 9123SOL    HW138831   3.458   1.531   7.109  0.6613 -0.4765  1.0529
 9123SOL    HW238832   3.499   1.544   7.248  0.2451  1.9420  0.1448
 9124SOL     OW38833   1.428   1.393  11.937  0.1011 -0.2018 -0.4760
 9124SOL    HW138834   1.478   1.318  11.968  0.3605  0.3261  0.3588
 9124SOL    HW238835   1.351   1.384  11.994  0.1796 -1.2367 -0.5235
 9125SOL     OW38836   3.267   0.860   0.897  0.0175  0.2176 -0.4665
 9125SOL    HW138837   3.315   0.934   0.934 -1.9005 -0.2292  2.8695
 9125SOL    HW238838   3.292   0.786   0.951 -0.3294 -1.0188 -1.9931
 9126SOL     OW38839   2.210   3.378   9.079 -0.3233 -0.0390  0.2598
 9126SOL    HW138840   2.183   3.425   9.000  0.5552 -0.9339 -0.5777
 9126SOL    HW238841   2.135   3.317   9.082 -0.6325  0.3647  0.7359
 9127SOL     OW38842   0.952   2.123   4.809 -0.3802 -0.0527 -0.1585
 9127SOL    HW138843   0.980   2.102   4.898  0.8412  0.8689 -0.3342
 9127SOL    HW238844   0.874   2.176   4.823 -1.5531 -1.6177 -0.7640
 9128SOL     OW38845   2.829   3.889   8.402  0.3839 -0.3691  0.9404
 9128SOL    HW138846   2.827   3.810   8.348  2.8938 -0.8691  1.5856
 9128SOL    HW238847   2.735   3.907   8.399  0.6978  1.5432  2.8222
 9129SOL     OW38848   2.089   2.598  17.068 -0.2297 -0.5135  0.3537
 9129SOL    HW138849   2.065   2.690  17.059 -1.6229 -0.9297 -0.2444
 9129SOL    HW238850   2.006   2.559  17.039  0.8054 -1.4719 -1.2834
 9130SOL     OW38851   4.227   4.141  15.366  0.0282  0.2540  0.2570
 9130SOL    HW138852   4.224   4.075  15.435 -0.0551  0.3463  0.3424
 9130SOL    HW238853   4.246   4.218  15.419 -1.2233  0.5170  0.3283
 9131SOL     OW38854   1.325   2.919   7.854  0.8594  0.0576 -0.1261
 9131SOL    HW138855   1.280   2.840   7.823 -0.4490  0.7206  0.0873
 9131SOL    HW238856   1.272   2.955   7.926 -0.9115 -1.0326 -0.8872
 9132SOL     OW38857   2.364   1.845   3.280  0.2949  0.0683 -0.3912
 9132SOL    HW138858   2.432   1.862   3.345 -0.8887  1.5650  0.4675
 9132SOL    HW238859   2.328   1.764   3.317 -1.8055  0.6948 -1.0373
 9133SOL     OW38860   2.836   1.656   1.450  0.1977  0.1502 -0.4520
 9133SOL    HW138861   2.836   1.577   1.504 -1.1466  0.6841  0.3382
 9133SOL    HW238862   2.918   1.702   1.468  0.0687 -0.2507  1.1585
 9134SOL     OW38863   2.281   2.262  15.716  0.0563  0.1993 -0.0504
 9134SOL    HW138864   2.241   2.349  15.713  0.8526  0.6000  0.8828
 9134SOL    HW238865   2.347   2.271  15.648 -0.1753 -2.3377 -0.6135
 9135SOL     OW38866   4.669   3.514   5.806  0.0893 -0.7036 -0.6483
 9135SOL    HW138867   4.619   3.529   5.726 -2.8177 -1.5028  1.0352
 9135SOL    HW238868   0.005   3.446   5.772 -1.3650 -0.8787 -2.8288
 9136SOL     OW38869   3.589   2.437   4.028  0.2013  0.6164 -0.1594
 9136SOL    HW138870   3.499   2.448   3.995  0.1419 -2.4829 -0.9667
 9136SOL    HW238871   3.569   2.429   4.122  0.1708 -0.9961 -0.3096
 9137SOL     OW38872   0.356   1.453   6.204 -0.9370  0.8596 -0.1482
 9137SOL    HW138873   0.387   1.504   6.279 -2.5734  0.8257  0.5410
 9137SOL    HW238874   0.267   1.434   6.232 -1.4766 -1.7981 -3.6771
 9138SOL     OW38875   4.564   0.428  15.997  0.3198  0.0895 -0.3410
 9138SOL    HW138876   4.488   0.465  15.952  0.5473  1.2706  0.2399
 9138SOL    HW238877   4.568   0.492  16.068 -1.0728 -0.3733  0.1531
 9139SOL     OW38878   0.950   0.009   7.060 -0.1473  0.4567  0.3982
 9139SOL    HW138879   1.042   0.021   7.081 -0.2656  0.2082  1.0465
 9139SOL    HW238880   0.964   4.644   7.022  1.0851  0.1462  1.5605
 9140SOL     OW38881   1.476   0.035  17.093  0.7929  0.1688 -0.2320
 9140SOL    HW138882   1.495   4.676  17.140  0.6469  0.2273 -0.0700
 9140SOL    HW238883   1.498   0.010  17.004  1.0380 -1.5584  0.3063
 9141SOL     OW38884   4.328   4.614   4.036 -0.1724  0.0042  0.0880
 9141SOL    HW138885   4.395   4.680   4.053  0.1635  0.2892 -2.4067
 9141SOL    HW238886   4.353   4.553   4.106 -2.1815  0.0750  0.8774
 9142SOL     OW38887   2.587   0.104   2.467 -0.3454  0.1088  0.4514
 9142SOL    HW138888   2.522   0.059   2.414  0.4996 -0.2891 -0.2531
 9142SOL    HW238889   2.583   0.189   2.423 -1.4729 -0.2877 -0.1960
 9143SOL     OW38890   1.680   1.334   9.538  0.2820 -0.9342 -0.1729
 9143SOL    HW138891   1.624   1.341   9.460 -3.0088  0.1106  2.2940
 9143SOL    HW238892   1.617   1.280   9.585 -0.6730 -0.5310 -0.9660
 9144SOL     OW38893   2.604   2.451  15.972  0.5255 -0.1185 -0.0357
 9144SOL    HW138894   2.589   2.388  16.042  0.4877 -1.9604 -1.7063
 9144SOL    HW238895   2.522   2.496  15.954  0.3832 -0.7119 -0.8915
 9145SOL     OW38896   3.559   3.404   6.646  0.0714 -0.2348  0.3432
 9145SOL    HW138897   3.568   3.368   6.558  1.0178 -1.2352  0.8507
 9145SOL    HW238898   3.471   3.369   6.659 -0.0633  0.7051  1.9397
 9146SOL     OW38899   4.511   4.023   9.441  0.8435 -0.5894 -0.3054
 9146SOL    HW138900   4.596   4.065   9.452  1.1183 -1.4249  0.7251
 9146SOL    HW238901   4.461   4.105   9.441  0.5098 -0.7864  0.5626
 9147SOL     OW38902   4.654   4.139   6.663  0.2163 -0.5203  0.3111
 9147SOL    HW138903   4.669   4.119   6.755  3.3449  1.5293  0.2620
 9147SOL    HW238904   0.010   4.181   6.628 -0.1774 -0.6701 -0.7621
 9148SOL     OW38905   0.738   3.848   3.473  0.2541  0.2971 -0.0473
 9148SOL    HW138906   0.819   3.799   3.462 -1.9355 -3.6646  1.6862
 9148SOL    HW238907   0.745   3.849   3.568  1.1273 -0.7117 -0.0998
 9149SOL     OW38908   4.334   1.581   2.630  1.6747 -0.1456  0.1342
 9149SOL    HW138909   4.378   1.666   2.630 -0.3551  0.9095 -0.8629
 9149SOL    HW238910   4.248   1.622   2.615  2.2995  1.8519  1.8968
 9150SOL     OW38911   0.788   1.771   8.072 -0.8395  0.3422  0.4911
 9150SOL    HW138912   0.808   1.800   8.161  1.0072  0.7398 -0.0594
 9150SOL    HW238913   0.837   1.838   8.024  0.6098 -0.2028  1.2164
 9151SOL     OW38914   2.834   0.812  13.750 -0.0111 -0.1171 -0.1028
 9151SOL    HW138915   2.817   0.876  13.681  1.9931 -0.2322 -0.7053
 9151SOL    HW238916   2.927   0.791  13.738  0.1635  1.2413 -1.1266
 9152SOL     OW38917   2.304   3.863   7.357  0.1480 -0.1847 -0.4721
 9152SOL    HW138918   2.233   3.841   7.417  0.0312  0.3317 -0.4187
 9152SOL    HW238919   2.278   3.955   7.344  1.5880  0.3603  0.4440
 9153SOL     OW38920   0.853   0.109   8.501  0.3368 -0.3401  0.0385
 9153SOL    HW138921   0.901   0.155   8.570 -0.2129  0.7641 -0.3031
 9153SOL    HW238922   0.773   0.156   8.527  3.0122  3.0681  2.1773
 9154SOL     OW38923   1.994   2.527   5.928  0.6861 -0.3350  0.0697
 9154SOL    HW138924   2.052   2.494   5.996  1.1286  2.4224  1.0441
 9154SOL    HW238925   2.063   2.553   5.867 -1.0912  0.9060 -1.4178
 9155SOL     OW38926   0.181   0.088   7.118 -0.0247 -0.0733  0.9141
 9155SOL    HW138927   0.152   0.008   7.073 -0.7263 -0.2254  1.6537
 9155SOL    HW238928   0.126   0.150   7.069 -0.9252 -1.2089  0.4828
 9156SOL     OW38929   1.665   4.183  12.762 -0.1918 -0.6881  0.9546
 9156SOL    HW138930   1.745   4.218  12.724  0.7123 -1.6093  2.0014
 9156SOL    HW238931   1.666   4.209  12.855  2.0277  1.7025  0.2567
 9157SOL     OW38932   0.865   0.107   6.410 -0.3307 -0.1402 -0.1442
 9157SOL    HW138933   0.874   0.201   6.400 -2.5684  0.0749 -0.0416
 9157SOL    HW238934   0.845   0.072   6.323 -0.5407 -0.1818 -0.0782
 9158SOL     OW38935   1.079   2.974   7.149  0.0212 -0.2188 -0.3025
 9158SOL    HW138936   1.010   2.912   7.174  0.7462 -1.0456 -0.3370
 9158SOL    HW238937   1.055   2.995   7.059  0.0150  0.1790 -0.2065
 9159SOL     OW38938   1.116   1.693  17.002 -0.1813 -0.1729  1.0558
 9159SOL    HW138939   1.195   1.736  16.970 -0.6997 -0.5558 -0.7406
 9159SOL    HW238940   1.138   1.674  17.093  1.7692 -1.7095  0.2636
 9160SOL     OW38941   0.858   1.973  11.680 -0.2271  0.6721  0.6632
 9160SOL    HW138942   0.942   1.932  11.701  0.2482 -0.0202 -2.5652
 9160SOL    HW238943   0.874   2.028  11.604 -1.5099 -0.7018 -0.5927
 9161SOL     OW38944   4.175   2.910   4.848  0.2039  0.3669  0.4106
 9161SOL    HW138945   4.215   2.899   4.935  0.4578 -1.0639  0.1033
 9161SOL    HW238946   4.121   2.986   4.871  1.3520  1.6876 -1.2949
 9162SOL     OW38947   1.655   0.156   3.613 -0.0794  0.0822  0.1616
 9162SOL    HW138948   1.559   0.148   3.614 -0.1787  1.3053 -0.3751
 9162SOL    HW238949   1.683   0.075   3.656  1.4395  0.0149 -0.9430
 9163SOL     OW38950   1.099   3.992   7.146 -0.6095 -0.1436  0.8525
 9163SOL    HW138951   1.041   4.032   7.211 -2.0885 -2.6445  1.0462
 9163SOL    HW238952   1.151   3.930   7.196 -0.1857 -1.7023 -1.5329
 9164SOL     OW38953   2.037   1.174   1.047 -1.0659 -0.0364 -0.0192
 9164SOL    HW138954   2.011   1.139   1.133 -0.5652 -1.0831 -0.2982
 9164SOL    HW238955   1.981   1.129   0.985 -0.8218 -1.1430  0.5605
 9165SOL     OW38956   4.013   3.922   3.245 -0.2859  0.2606  0.4523
 9165SOL    HW138957   4.020   3.830   3.220 -2.2466 -0.8847  4.1816
 9165SOL    HW238958   4.067   3.926   3.324 -2.3328 -1.8509  1.9497
 9166SOL     OW38959   1.738   4.632   7.661 -0.7637  0.3848  0.2011
 9166SOL    HW138960   1.767   4.632   7.753 -2.8334 -0.0321  0.8378
 9166SOL    HW238961   1.802   4.700   7.639 -0.3121  0.4720  1.7048
 9167SOL     OW38962   2.431   4.704   1.607  0.2091 -0.5007 -0.5525
 9167SOL    HW138963   2.495   4.722   1.538 -1.2699 -0.4026 -1.9076
 9167SOL    HW238964   2.455   0.044   1.675  0.8518 -0.4954 -0.7805
 9168SOL     OW38965   3.942   0.080   5.940 -0.4409  0.0071 -0.1936
 9168SOL    HW138966   3.991   0.103   5.861  0.1700 -1.8618 -0.3666
 9168SOL    HW238967   3.859   0.116   5.910  0.1655  1.1767 -0.4651
 9169SOL     OW38968   3.150   1.782   0.620  0.1874  0.4692 -0.2436
 9169SOL    HW138969   3.189   1.837   0.688  0.9968  0.5124 -0.7388
 9169SOL    HW238970   3.084   1.741   0.676  1.1014 -0.2220  0.3303
 9170SOL     OW38971   4.070   3.220   2.526 -0.1202  0.5122  0.6419
 9170SOL    HW138972   4.099   3.312   2.524  1.3756  0.0729  1.5128
 9170SOL    HW238973   4.149   3.165   2.530  0.9676  1.9979 -0.3783
 9171SOL     OW38974   3.665   1.421  16.935  0.2407  0.1211  0.1101
 9171SOL    HW138975   3.716   1.447  16.859  1.5274  1.3379  1.3851
 9171SOL    HW238976   3.613   1.351  16.896  0.1968 -1.0498  2.2789
 9172SOL     OW38977   4.633   3.586   4.834 -0.2179 -0.3440  0.5502
 9172SOL    HW138978   4.702   3.608   4.897  0.5207 -0.4475 -0.2139
 9172SOL    HW238979   4.664   3.641   4.762 -0.5191  0.4959  1.0795
 9173SOL     OW38980   2.056   3.698  12.413 -0.4682 -0.3453 -0.1196
 9173SOL    HW138981   2.027   3.608  12.406 -1.2766 -0.0457 -0.5471
 9173SOL    HW238982   2.151   3.689  12.423 -0.2984  1.3942 -0.0945
 9174SOL     OW38983   4.421   2.843   2.418 -0.2802  0.4347  0.0566
 9174SOL    HW138984   4.392   2.911   2.479 -0.6234  1.2467 -1.0072
 9174SOL    HW238985   4.346   2.835   2.359  0.0116 -0.1768 -0.2335
 9175SOL     OW38986   4.061   4.382   1.923  0.4447  0.2793 -0.3415
 9175SOL    HW138987   4.100   4.318   1.982 -1.2234 -1.9356 -1.6483
 9175SOL    HW238988   4.049   4.317   1.854 -1.9083  0.8543 -0.4546
 9176SOL     OW38989   4.073   0.327   7.377  0.3992 -0.3228 -0.0697
 9176SOL    HW138990   4.061   0.415   7.341  0.1942 -0.7274 -1.0001
 9176SOL    HW238991   4.009   0.323   7.448  3.8035 -0.1774  3.0452
 9177SOL     OW38992   0.419   1.037   3.984  0.7691  0.1172  0.9295
 9177SOL    HW138993   0.445   1.001   4.069  2.6854 -1.7341 -0.4327
 9177SOL    HW238994   0.486   1.007   3.923 -0.2184 -0.5908  0.1786
 9178SOL     OW38995   2.216   1.516   8.409  0.4841 -0.5544  0.0767
 9178SOL    HW138996   2.222   1.582   8.340 -2.3698 -0.0528  0.3064
 9178SOL    HW238997   2.182   1.444   8.356  1.5972 -0.1006 -1.2656
 9179SOL     OW38998   2.137   2.561   4.186 -0.0750 -0.6820  0.0568
 9179SOL    HW138999   2.130   2.597   4.274 -2.0161  0.9308 -0.7447
 9179SOL    HW239000   2.229   2.565   4.162  0.2014  1.1497  1.4154
 9180SOL     OW39001   1.484   0.156   0.118  0.2838 -0.4075  0.5516
 9180SOL    HW139002   1.471   0.243   0.154 -1.4516 -0.6585  0.5649
 9180SOL    HW239003   1.451   0.165   0.029  2.0849 -2.1538 -0.2957
 9181SOL     OW39004   1.424   3.484   2.538 -0.5184  0.0127  0.2277
 9181SOL    HW139005   1.383   3.485   2.452 -0.6425  0.9839  0.2924
 9181SOL    HW239006   1.427   3.580   2.546 -2.9832  0.1957 -0.9793
 9182SOL     OW39007   0.510   0.463  10.812  0.7715 -0.0398 -0.0737
 9182SOL    HW139008   0.578   0.431  10.753 -0.7417 -0.5867 -1.5088
 9182SOL    HW239009   0.517   0.398  10.882 -2.7776 -0.0668  0.2830
 9183SOL     OW39010   3.472   3.281   0.111 -0.3900 -0.0523 -0.0782
 9183SOL    HW139011   3.440   3.195   0.082  1.8667 -1.1242  0.5626
 9183SOL    HW239012   3.565   3.288   0.091  0.0718 -1.0473  1.7083
 9184SOL     OW39013   0.700   2.252   4.810 -1.0492  0.1601 -0.2105
 9184SOL    HW139014   0.620   2.211   4.843 -0.4513  0.6440  1.8779
 9184SOL    HW239015   0.700   2.333   4.861 -2.1446  0.5609 -0.8421
 9185SOL     OW39016   4.186   1.028   5.293  0.0096  0.4938  0.0799
 9185SOL    HW139017   4.189   1.124   5.296  0.4348  0.4960 -0.3980
 9185SOL    HW239018   4.100   1.012   5.332 -0.0202 -0.1024 -0.2343
 9186SOL     OW39019   3.704   2.135   1.293 -0.0205  0.3714  0.4748
 9186SOL    HW139020   3.693   2.050   1.251  2.0930  1.3115 -1.9968
 9186SOL    HW239021   3.635   2.183   1.248  1.5942  1.9810 -0.2977
 9187SOL     OW39022   4.337   4.461   6.770 -0.9501  0.1263  0.5403
 9187SOL    HW139023   4.386   4.468   6.852  0.7115 -0.7496 -0.3752
 9187SOL    HW239024   4.354   4.371   6.741  3.3519  0.4384  2.1155
 9188SOL     OW39025   1.020   1.297   5.939  0.0369 -0.1177  0.5808
 9188SOL    HW139026   0.941   1.244   5.931 -0.6986  1.3161 -1.6753
 9188SOL    HW239027   1.013   1.330   6.029  1.1483 -1.5275  1.1959
 9189SOL     OW39028   3.750   0.238   3.266 -0.2858 -0.3730 -0.5906
 9189SOL    HW139029   3.732   0.236   3.172 -0.3206 -0.6068 -0.5793
 9189SOL    HW239030   3.669   0.268   3.306  0.4738 -1.1512  1.5461
 9190SOL     OW39031   1.594   2.098   7.196 -0.0177  0.2420  0.2624
 9190SOL    HW139032   1.592   2.185   7.157 -0.0600  0.7201  1.3266
 9190SOL    HW239033   1.674   2.059   7.161  0.5666  0.9228  0.8560
 9191SOL     OW39034   2.649   0.402  16.183 -0.5199  0.1164  0.1039
 9191SOL    HW139035   2.626   0.446  16.265  0.3494 -0.8258  0.8453
 9191SOL    HW239036   2.568   0.423  16.136  0.4086  0.6958 -1.2654
 9192SOL     OW39037   3.968   1.702   0.120 -0.6567 -0.2441  0.0497
 9192SOL    HW139038   3.950   1.796   0.130  0.7050 -0.0969  1.0312
 9192SOL    HW239039   3.981   1.675   0.210  1.5922 -0.8332 -0.4594
 9193SOL     OW39040   2.449   1.570   7.188 -0.3182  0.7676 -0.0981
 9193SOL    HW139041   2.458   1.641   7.124 -0.1765 -0.9987 -2.0493
 9193SOL    HW239042   2.442   1.619   7.269 -3.0304 -0.5844  0.4663
 9194SOL     OW39043   1.709   1.998   5.179  0.4041 -0.0987 -0.2925
 9194SOL    HW139044   1.648   1.929   5.153 -2.4685  1.5714  1.9989
 9194SOL    HW239045   1.658   2.048   5.242  0.1899 -2.0071  1.0692
 9195SOL     OW39046   0.470   1.977   8.069  0.3193  0.0382 -0.7621
 9195SOL    HW139047   0.386   1.967   8.114  0.5648 -2.1166 -0.8034
 9195SOL    HW239048   0.532   2.011   8.133  0.8088 -0.2965 -1.0649
 9196SOL     OW39049   0.023   3.415   7.958  0.7017  0.0359  0.0237
 9196SOL    HW139050   0.054   3.368   8.035 -2.3136 -1.1645  0.4870
 9196SOL    HW239051   0.090   3.385   7.896  1.0939  1.6942 -0.3613
 9197SOL     OW39052   4.103   1.863  13.627  0.9696  0.3017 -0.5693
 9197SOL    HW139053   4.140   1.808  13.697  0.1966  0.3998 -0.0763
 9197SOL    HW239054   4.136   1.951  13.646 -0.3201  0.3228  1.5593
 9198SOL     OW39055   4.518   1.158  12.338 -0.0550 -0.5709  0.2968
 9198SOL    HW139056   4.432   1.116  12.335 -0.1589 -0.3197 -0.2471
 9198SOL    HW239057   4.502   1.224  12.270  1.2721  0.0763  0.6133
 9199SOL     OW39058   1.049   3.179   4.700  0.3137 -0.2875  0.6428
 9199SOL    HW139059   1.082   3.269   4.695 -2.0524  0.6403  1.3243
 9199SOL    HW239060   0.956   3.202   4.704  0.0721 -1.2640  0.5578
 9200SOL     OW39061   2.049   2.774   4.771  0.3739  0.1297  0.4849
 9200SOL    HW139062   2.027   2.762   4.678  1.7398 -1.2470  0.3458
 9200SOL    HW239063   2.026   2.691   4.813 -1.2457  0.9097  1.1567
 9201SOL     OW39064   1.686   4.325   4.268  0.1012 -0.1820 -0.5208
 9201SOL    HW139065   1.645   4.363   4.190 -1.0526 -0.4162 -0.0200
 9201SOL    HW239066   1.736   4.395   4.310  1.2722 -1.0930 -0.3840
 9202SOL     OW39067   0.270   1.865  13.658 -0.0329 -0.3332  0.5962
 9202SOL    HW139068   0.299   1.867  13.749  0.5885 -2.0014  0.4538
 9202SOL    HW239069   0.258   1.956  13.633 -0.2762 -0.0721  1.6891
 9203SOL     OW39070   1.450   4.693   4.139 -0.2508  0.2642 -0.3968
 9203SOL    HW139071   1.514   4.690   4.210  0.0794  2.9697 -0.5682
 9203SOL    HW239072   1.479   4.618   4.088 -1.0106  1.1242 -2.1001
 9204SOL     OW39073   4.489   0.965   8.141 -0.5065  0.3265 -0.6847
 9204SOL    HW139074   4.552   1.036   8.134  0.7256 -0.5881  1.0688
 9204SOL    HW239075   4.538   0.886   8.119  0.2564  0.3652  0.8397
 9205SOL     OW39076   0.531   1.465  10.850 -0.5141 -0.4396 -0.1539
 9205SOL    HW139077   0.440   1.455  10.822 -0.9525 -0.3713  1.2393
 9205SOL    HW239078   0.526   1.507  10.935  0.0832  0.1903 -0.4244
 9206SOL     OW39079   3.667   3.345   2.581  0.5503 -0.1616 -0.1056
 9206SOL    HW139080   3.705   3.426   2.549  1.4653 -0.2716  0.7084
 9206SOL    HW239081   3.671   3.293   2.501 -3.1416 -2.1130  0.9932
 9207SOL     OW39082   4.605   2.559  10.926  0.2408 -0.9293  0.6503
 9207SOL    HW139083   4.523   2.511  10.931 -0.1297 -0.1731  1.8985
 9207SOL    HW239084   4.634   2.547  10.836  0.4346  0.4766  0.5192
 9208SOL     OW39085   2.760   2.890   7.885 -0.4566  0.4207  0.1426
 9208SOL    HW139086   2.842   2.934   7.863 -0.9639  0.9861 -0.6191
 9208SOL    HW239087   2.773   2.860   7.975 -0.9509  1.6896  0.6382
 9209SOL     OW39088   2.465   1.619   1.484  0.2545  0.1260  0.4106
 9209SOL    HW139089   2.537   1.663   1.530 -0.6252  1.6178  0.3647
 9209SOL    HW239090   2.495   1.565   1.411 -0.7010  0.3455 -0.1380
 9210SOL     OW39091   4.460   3.843   9.245 -0.5192  0.1930  0.0940
 9210SOL    HW139092   4.487   3.908   9.310 -0.4556 -0.6010  0.8630
 9210SOL    HW239093   4.376   3.814   9.279 -0.6795  0.5651  0.0157
 9211SOL     OW39094   2.183   3.207   2.941 -0.5957  0.2045 -0.1757
 9211SOL    HW139095   2.179   3.167   3.028 -0.0005  1.4132  0.4118
 9211SOL    HW239096   2.089   3.212   2.925 -0.5814  2.1965  0.2875
 9212SOL     OW39097   0.550   3.257   8.629  0.6118 -0.0176 -0.5203
 9212SOL    HW139098   0.490   3.195   8.587 -0.6848  0.3389  0.8005
 9212SOL    HW239099   0.600   3.196   8.684 -0.2183 -1.4980 -1.3954
 9213SOL     OW39100   1.404   3.813   8.886  0.4172  0.5233 -0.2687
 9213SOL    HW139101   1.386   3.732   8.838  1.4782  0.7659 -1.0765
 9213SOL    HW239102   1.496   3.823   8.861  0.5588 -0.4358 -0.1157
 9214SOL     OW39103   0.947   4.123   6.936 -0.6700  0.1238  0.4625
 9214SOL    HW139104   1.007   4.076   6.994  0.7234 -1.5248 -2.2932
 9214SOL    HW239105   0.993   4.207   6.935 -0.2587 -0.1210 -1.8857
 9215SOL     OW39106   3.202   3.532  12.589 -0.3582 -0.0588  0.0013
 9215SOL    HW139107   3.171   3.601  12.529  1.6535 -1.2799 -2.4324
 9215SOL    HW239108   3.150   3.558  12.665  2.4809  0.3436  1.8122
 9216SOL     OW39109   2.170   1.461   6.759 -0.4534 -0.0535 -0.3654
 9216SOL    HW139110   2.147   1.546   6.797 -0.2530 -0.5673  0.9074
 9216SOL    HW239111   2.264   1.476   6.750 -0.0459 -2.1888  0.3719
 9217SOL     OW39112   3.701   3.054   8.581  0.7685 -0.1188 -0.1505
 9217SOL    HW139113   3.737   3.102   8.506 -0.4928  0.1816 -0.5684
 9217SOL    HW239114   3.752   3.106   8.643 -1.3245  1.2179  0.4414
 9218SOL     OW39115   3.156   4.237  12.701 -0.2169 -0.4177  0.3461
 9218SOL    HW139116   3.180   4.286  12.779 -2.2799  0.3294  0.5130
 9218SOL    HW239117   3.236   4.197  12.667 -1.0550 -1.5313 -0.3563
 9219SOL     OW39118   1.612   0.868   6.628 -0.5096  1.1836 -0.2739
 9219SOL    HW139119   1.677   0.800   6.612 -0.4098  0.7546  2.0467
 9219SOL    HW239120   1.625   0.908   6.541 -2.4522 -2.3585 -2.1644
 9220SOL     OW39121   1.469   1.463  15.797 -0.0068 -0.6602 -0.0275
 9220SOL    HW139122   1.411   1.413  15.855 -0.5810  0.2627  0.1925
 9220SOL    HW239123   1.513   1.398  15.742  1.2279  1.5430 -1.5987
 9221SOL     OW39124   0.801   1.374  10.797 -0.7692 -0.0331  0.0869
 9221SOL    HW139125   0.754   1.326  10.728 -2.2467  0.6614  0.6011
 9221SOL    HW239126   0.735   1.439  10.823  0.6379  1.3061  0.3246
 9222SOL     OW39127   1.705   3.090   9.037  0.1878  0.0678  0.2275
 9222SOL    HW139128   1.617   3.054   9.026 -0.0543  0.2559  1.5885
 9222SOL    HW239129   1.744   3.019   9.088  1.4886 -0.2741 -1.2434
 9223SOL     OW39130   2.748   2.825   8.969  0.7207 -0.1783  0.2342
 9223SOL    HW139131   2.767   2.777   9.050  1.6511  2.7403  1.7379
 9223SOL    HW239132   2.733   2.913   9.003 -1.4898  0.6867 -3.0369
 9224SOL     OW39133   0.572   3.824   2.013  0.6605 -0.0853 -0.0360
 9224SOL    HW139134   0.595   3.907   1.971  1.5750 -0.7329 -0.8448
 9224SOL    HW239135   0.547   3.851   2.101  1.4223 -2.1459  0.8106
 9225SOL     OW39136   4.053   4.544   7.115 -0.4570 -0.3296 -0.6468
 9225SOL    HW139137   4.148   4.527   7.118 -0.4772 -0.4519 -0.7017
 9225SOL    HW239138   4.046   4.601   7.039  1.4774 -0.0558 -0.6347
 9226SOL     OW39139   1.311   1.553   3.411 -0.2428  0.0208  0.1119
 9226SOL    HW139140   1.318   1.577   3.504 -1.8117 -0.9093  0.4517
 9226SOL    HW239141   1.321   1.635   3.362 -0.9292 -0.7024 -1.1979
 9227SOL     OW39142   0.061   4.667   9.107  0.5361 -0.4482 -0.1095
 9227SOL    HW139143   0.024   4.679   9.020  1.9179 -0.4981 -0.7068
 9227SOL    HW239144   0.087   4.575   9.102 -2.9345 -1.2863 -2.1228
 9228SOL     OW39145   3.781   4.631  14.073  0.3363 -0.3413 -0.0378
 9228SOL    HW139146   3.801   4.665  14.160 -3.0090  1.9868 -0.2066
 9228SOL    HW239147   3.699   4.673  14.049  0.2519 -0.2539  0.4057
 9229SOL     OW39148   2.827   3.781   1.027 -0.1274 -0.6560  0.1793
 9229SOL    HW139149   2.817   3.721   0.953  1.8918 -1.9872  0.9885
 9229SOL    HW239150   2.768   3.742   1.091  0.4264 -2.5244 -0.4489
 9230SOL     OW39151   2.156   0.768   3.679  0.3859  0.0045  0.3462
 9230SOL    HW139152   2.223   0.834   3.660 -0.0645 -0.3190 -2.4193
 9230SOL    HW239153   2.093   0.803   3.616  1.7622 -1.0380 -1.6139
 9231SOL     OW39154   4.200   0.931   7.148  0.3473 -0.0592 -0.0524
 9231SOL    HW139155   4.215   0.836   7.147 -2.6398 -0.5498 -1.9625
 9231SOL    HW239156   4.251   0.958   7.072 -1.2301  0.3327 -0.9853
 9232SOL     OW39157   2.918   3.212   4.144  0.2755  0.5293  0.0166
 9232SOL    HW139158   3.012   3.198   4.151  0.4417 -0.4521 -4.4598
 9232SOL    HW239159   2.890   3.121   4.142  3.1482 -0.3335 -0.3825
 9233SOL     OW39160   1.225   3.243  16.853  0.5810  0.3221  0.4069
 9233SOL    HW139161   1.151   3.220  16.797  1.7619 -0.7888 -0.7196
 9233SOL    HW239162   1.175   3.296  16.915 -0.4958  2.0721 -1.9745
 9234SOL     OW39163   1.353   2.777  15.904 -0.1897  0.1839  0.7660
 9234SOL    HW139164   1.356   2.869  15.876  0.5882 -0.2685 -0.6341
 9234SOL    HW239165   1.263   2.748  15.892 -0.2272  1.4330 -1.9218
 9235SOL     OW39166   3.925   0.042   8.147  0.1502 -0.2981  0.4627
 9235SOL    HW139167   3.891   0.041   8.237 -0.1063  1.7985  0.3872
 9235SOL    HW239168   3.871   0.110   8.107 -0.1482 -0.2993  0.8583
 9236SOL     OW39169   4.264   0.599  12.686  0.1220  0.0883  0.0710
 9236SOL    HW139170   4.272   0.591  12.591  1.7981  1.9531  0.0787
 9236SOL    HW239171   4.345   0.554  12.710  0.8431  0.0495 -2.4311
 9237SOL     OW39172   3.851   1.176   6.983 -0.1038  0.1339  0.4596
 9237SOL    HW139173   3.805   1.139   7.058  1.5592 -2.1792  0.3230
 9237SOL    HW239174   3.877   1.102   6.929 -1.0604 -0.3727  0.6935
 9238SOL     OW39175   4.203   1.186   7.273 -0.0262 -0.2781 -0.0296
 9238SOL    HW139176   4.203   1.091   7.257 -1.4209 -0.7104  2.5270
 9238SOL    HW239177   4.155   1.211   7.194 -0.6582 -0.0028  0.4410
 9239SOL     OW39178   3.116   4.654   2.372 -0.1837  0.0221  0.2456
 9239SOL    HW139179   3.173   0.008   2.383 -0.2969  0.2133 -0.5113
 9239SOL    HW239180   3.040   4.697   2.334  1.0989  2.4375  0.4022
 9240SOL     OW39181   0.026   2.060   8.486 -0.5192  0.2004  0.2390
 9240SOL    HW139182   0.107   2.009   8.486  1.3957  3.2418 -0.8339
 9240SOL    HW239183   0.052   2.147   8.457 -1.8135  0.6949  0.5669
 9241SOL     OW39184   2.772   3.454  14.402 -0.0792 -0.3599  0.0298
 9241SOL    HW139185   2.801   3.539  14.369  1.7491 -0.9214  0.2041
 9241SOL    HW239186   2.691   3.481  14.446 -0.9329 -3.2218  0.2371
 9242SOL     OW39187   4.316   2.756   6.409 -0.0924  0.0759  0.4691
 9242SOL    HW139188   4.399   2.799   6.388 -0.9580  2.2419  1.4553
 9242SOL    HW239189   4.258   2.832   6.414  0.7714  0.7762 -0.0840
 9243SOL     OW39190   4.517   2.672   7.501  0.0024  0.0226  0.7380
 9243SOL    HW139191   4.467   2.752   7.512 -0.5937 -0.3600  0.8112
 9243SOL    HW239192   4.443   2.612   7.492 -0.2219  0.5118 -0.6695
 9244SOL     OW39193   0.578   2.426   4.312  0.1994 -0.2113 -0.4268
 9244SOL    HW139194   0.589   2.358   4.379 -0.3330  1.0570  0.9332
 9244SOL    HW239195   0.603   2.386   4.228 -0.2102 -0.9225 -0.2072
 9245SOL     OW39196   3.718   3.081  13.911  0.1909 -0.6446 -0.4094
 9245SOL    HW139197   3.700   3.091  14.005 -1.4403  1.1371 -0.9151
 9245SOL    HW239198   3.661   3.151  13.881 -0.1771 -2.0889 -3.0975
 9246SOL     OW39199   2.307   0.667   2.238 -0.0292  0.2491 -0.3619
 9246SOL    HW139200   2.394   0.707   2.247  0.9133 -1.7250 -0.8599
 9246SOL    HW239201   2.279   0.690   2.149 -0.8126  0.1833 -0.1305
 9247SOL     OW39202   0.722   1.164  14.381  0.3925  0.9168 -0.2676
 9247SOL    HW139203   0.726   1.092  14.444  2.9173 -0.8250 -2.4422
 9247SOL    HW239204   0.648   1.146  14.323 -0.7234 -0.5500  1.6196
 9248SOL     OW39205   2.912   0.918   7.271 -0.3080 -0.2151 -0.5873
 9248SOL    HW139206   2.913   0.823   7.255  1.0973 -0.5345  1.4806
 9248SOL    HW239207   2.860   0.955   7.200 -1.9791  0.4779  0.9735
 9249SOL     OW39208   2.599   1.189   6.450  0.2890  0.0163  0.0477
 9249SOL    HW139209   2.625   1.130   6.379  1.0292 -0.3816  0.6564
 9249SOL    HW239210   2.591   1.128   6.523  0.1639  0.8714  0.7424
 9250SOL     OW39211   1.907   3.256   5.228 -0.7481  0.2154  0.5615
 9250SOL    HW139212   1.883   3.344   5.197 -1.1203 -0.0183  0.1904
 9250SOL    HW239213   1.974   3.234   5.164 -1.7839  1.8589 -1.1007
 9251SOL     OW39214   0.547   4.108  15.384 -0.3888  0.2731  0.1892
 9251SOL    HW139215   0.548   4.046  15.311 -1.6622  0.9525 -0.3916
 9251SOL    HW239216   0.468   4.156  15.362 -1.1995 -0.9809  0.3493
 9252SOL     OW39217   0.715   1.007   3.800 -0.4216 -0.1790 -0.5828
 9252SOL    HW139218   0.709   1.009   3.896  0.3505 -1.1880 -0.5170
 9252SOL    HW239219   0.669   0.926   3.777  2.0661 -1.6058 -0.5261
 9253SOL     OW39220   0.283   2.833   1.884 -0.0862  0.0414  0.0957
 9253SOL    HW139221   0.273   2.880   1.966 -1.2510 -1.1015  0.6080
 9253SOL    HW239222   0.323   2.900   1.828  1.0229 -0.8496 -0.1695
 9254SOL     OW39223   1.683   3.475   2.384 -0.0759 -0.9018  0.2250
 9254SOL    HW139224   1.705   3.416   2.312 -0.2100  0.6939 -1.1315
 9254SOL    HW239225   1.637   3.546   2.340 -0.2500 -1.7228 -0.8982
 9255SOL     OW39226   3.316   0.157   2.443  0.1495 -0.0438  0.6874
 9255SOL    HW139227   3.257   0.232   2.445  1.3910  0.9449  0.4884
 9255SOL    HW239228   3.364   0.169   2.524  0.6814  0.1778  0.3389
 9256SOL     OW39229   0.970   1.010   8.914  0.4029 -0.3130 -0.4206
 9256SOL    HW139230   0.968   0.915   8.904  1.1970 -0.3552 -0.2208
 9256SOL    HW239231   0.890   1.027   8.865  2.3380 -3.1426 -4.5985
 9257SOL     OW39232   1.476   1.487   1.259 -0.4646  0.0774  0.0910
 9257SOL    HW139233   1.538   1.477   1.331 -1.1248 -2.0045  0.3746
 9257SOL    HW239234   1.450   1.398   1.235 -0.9784  0.6206 -1.3892
 9258SOL     OW39235   2.112   2.372   6.405  0.0496 -0.3336 -0.6961
 9258SOL    HW139236   2.204   2.396   6.414  0.1657  0.1493 -3.1034
 9258SOL    HW239237   2.110   2.278   6.420  2.6103 -0.2975 -0.0566
 9259SOL     OW39238   2.739   4.040   1.837 -0.1751  0.1782 -0.0651
 9259SOL    HW139239   2.701   4.121   1.871  0.0034  1.1163 -2.0944
 9259SOL    HW239240   2.782   4.073   1.758 -1.2228  2.5515  0.3350
 9260SOL     OW39241   1.890   3.847   8.363  0.0379  0.0097 -0.7937
 9260SOL    HW139242   1.858   3.873   8.277  0.0004 -0.4494 -0.9175
 9260SOL    HW239243   1.830   3.903   8.413 -0.9529 -0.4750 -1.4389
 9261SOL     OW39244   0.932   1.329   6.213 -0.6581  0.0040 -0.5615
 9261SOL    HW139245   0.850   1.377   6.224 -0.5127  0.2165 -0.3816
 9261SOL    HW239246   0.906   1.237   6.207 -1.6960  0.1768  1.2118
 9262SOL     OW39247   1.752   0.942  11.983  0.0659 -0.0785 -0.2985
 9262SOL    HW139248   1.769   0.874  12.049 -0.9890 -1.0120 -0.9895
 9262SOL    HW239249   1.688   0.894  11.930  0.1580 -0.6471  0.0989
 9263SOL     OW39250   2.465   3.102   6.507 -0.5560  0.4567 -0.4728
 9263SOL    HW139251   2.557   3.124   6.494 -0.4005  0.7412  1.0670
 9263SOL    HW239252   2.428   3.159   6.439 -0.4255  3.4256  1.9168
 9264SOL     OW39253   3.656   2.668   8.876  0.6392 -0.1704 -0.1164
 9264SOL    HW139254   3.746   2.649   8.848  0.9695  1.2922 -0.0503
 9264SOL    HW239255   3.636   2.580   8.908 -2.8709  1.4666  2.0997
 9265SOL     OW39256   1.245   2.028   3.060 -0.1216  0.3460  0.7232
 9265SOL    HW139257   1.194   2.101   3.095 -0.9107  1.4882 -2.8610
 9265SOL    HW239258   1.200   1.948   3.087  0.1910  0.7751  2.5662
 9266SOL     OW39259   2.022   3.480   3.693  0.0348 -0.0677  0.3709
 9266SOL    HW139260   2.083   3.433   3.750 -0.8795 -1.0125  0.5600
 9266SOL    HW239261   2.039   3.570   3.721 -0.3039 -0.3231  1.3787
 9267SOL     OW39262   3.607   1.701   5.374 -0.2893 -0.6865 -0.8788
 9267SOL    HW139263   3.629   1.722   5.283 -0.2194 -1.8784 -1.1345
 9267SOL    HW239264   3.635   1.610   5.382 -0.0342 -0.4557  0.8662
 9268SOL     OW39265   1.903   0.370  13.643  0.1907 -0.0384  0.1327
 9268SOL    HW139266   1.857   0.371  13.559  0.1907 -0.5340  0.1272
 9268SOL    HW239267   1.882   0.457  13.678 -2.1885  0.0402 -1.4978
 9269SOL     OW39268   2.833   0.382   8.524  0.5721 -0.0296  0.2592
 9269SOL    HW139269   2.846   0.462   8.575 -1.6377  0.4619  0.0196
 9269SOL    HW239270   2.922   0.355   8.502  0.3012  1.2364 -2.4251
 9270SOL     OW39271   3.783   0.235   3.735  0.1964  0.0597 -0.1483
 9270SOL    HW139272   3.722   0.254   3.664 -0.2651 -1.5881 -0.1946
 9270SOL    HW239273   3.830   0.317   3.747  1.6667 -0.9230  0.8245
 9271SOL     OW39274   0.221   1.379   2.067  0.0572  0.1737 -0.1688
 9271SOL    HW139275   0.238   1.311   2.132  2.4369  1.1117  0.1787
 9271SOL    HW239276   0.311   1.413   2.067 -0.5834  1.8541 -1.5368
 9272SOL     OW39277   0.506   3.351  13.031  0.0824  0.2047  0.1991
 9272SOL    HW139278   0.511   3.379  12.939  0.4975 -1.9994 -0.4743
 9272SOL    HW239279   0.521   3.256  13.025 -0.6128  0.0619  0.7547
 9273SOL     OW39280   4.031   1.605   0.368 -0.0437 -0.3329 -0.3589
 9273SOL    HW139281   4.093   1.535   0.389  0.7265  0.2563 -0.6193
 9273SOL    HW239282   4.032   1.656   0.449  3.0214  0.7178 -1.0511
 9274SOL     OW39283   3.678   0.622   1.943  0.5057  0.2281 -0.0192
 9274SOL    HW139284   3.598   0.675   1.936 -0.0970 -0.4691  1.4348
 9274SOL    HW239285   3.716   0.633   1.856 -1.3885 -1.6160 -1.0754
 9275SOL     OW39286   1.187   4.686  10.803  0.5741 -0.2929  0.1360
 9275SOL    HW139287   1.143   4.672  10.719  0.8662  1.8906 -0.3880
 9275SOL    HW239288   1.264   0.017  10.783  0.7923 -0.5827  0.1946
 9276SOL     OW39289   2.078   3.324  15.730  0.0529 -0.2154  0.6346
 9276SOL    HW139290   2.118   3.410  15.741  2.6296 -1.7002  3.0391
 9276SOL    HW239291   2.104   3.280  15.811  0.7668 -0.3884  0.3097
 9277SOL     OW39292   1.627   3.264   7.768 -0.0318 -0.0402  0.0657
 9277SOL    HW139293   1.566   3.192   7.782 -0.2721 -0.1941 -1.7427
 9277SOL    HW239294   1.685   3.220   7.706  0.5654  2.2759 -1.0381
 9278SOL     OW39295   3.765   0.868   2.176  0.3229 -0.3908 -0.4862
 9278SOL    HW139296   3.682   0.914   2.177 -0.3636 -1.6060 -2.5651
 9278SOL    HW239297   3.739   0.808   2.246 -0.2696  1.9373  1.3098
 9279SOL     OW39298   3.916   2.189   5.107  0.0205  0.5698 -0.1017
 9279SOL    HW139299   3.965   2.113   5.076  0.7836  0.9122  0.2824
 9279SOL    HW239300   3.980   2.225   5.168  1.8210  0.5126 -1.9684
 9280SOL     OW39301   4.474   2.518   1.176 -0.4800  0.1052  0.0706
 9280SOL    HW139302   4.415   2.531   1.251  0.6380 -1.8093  1.2896
 9280SOL    HW239303   4.435   2.445   1.128 -0.2624  0.6349 -0.8982
 9281SOL     OW39304   4.017   3.976  16.353  0.3857  0.3009 -0.1181
 9281SOL    HW139305   3.958   3.912  16.314  2.3794 -1.9368  0.5581
 9281SOL    HW239306   4.071   3.996  16.276 -0.5381 -2.0675 -1.3901
 9282SOL     OW39307   3.791   2.655   8.544  0.1221  0.1027 -0.0771
 9282SOL    HW139308   3.709   2.701   8.560  1.7812  2.5656  1.5491
 9282SOL    HW239309   3.853   2.724   8.569 -0.0161  0.0507  0.4052
 9283SOL     OW39310   2.514   3.428   1.300  0.0260 -0.1620  0.0448
 9283SOL    HW139311   2.521   3.484   1.222  2.5908 -1.6777 -0.8096
 9283SOL    HW239312   2.493   3.342   1.265 -2.9842  0.7181 -0.3190
 9284SOL     OW39313   0.282   4.203  15.659  0.0100 -0.2657 -0.0554
 9284SOL    HW139314   0.255   4.126  15.708  1.1562 -0.5202  0.1942
 9284SOL    HW239315   0.267   4.177  15.568 -0.9853 -3.3508  1.0089
 9285SOL     OW39316   0.027   0.773   8.514 -0.1132 -0.2932  0.0269
 9285SOL    HW139317   0.016   0.855   8.561  0.9135 -0.3271  0.3396
 9285SOL    HW239318   4.677   0.773   8.452  0.8240  2.1138 -1.0548
 9286SOL     OW39319   4.307   4.238  15.972 -0.6819  0.2614 -0.3484
 9286SOL    HW139320   4.347   4.305  16.027  0.6168 -0.2291 -0.6897
 9286SOL    HW239321   4.251   4.298  15.922 -0.6859  1.5235  1.1602
 9287SOL     OW39322   0.401   2.588   7.016 -0.1524 -0.4830 -0.6259
 9287SOL    HW139323   0.318   2.566   7.058  1.1252 -2.0444  1.0644
 9287SOL    HW239324   0.443   2.507   6.986  1.4296  0.4776 -1.0211
 9288SOL     OW39325   3.417   1.885  17.506  0.3661  0.3957  0.3479
 9288SOL    HW139326   3.389   1.797  17.481 -1.4393  1.0436  0.0828
 9288SOL    HW239327   3.447   1.909  17.419  0.5182  0.1920  0.3459
 9289SOL     OW39328   1.311   2.541   4.320 -0.4166 -0.0239 -0.7280
 9289SOL    HW139329   1.240   2.591   4.362  1.6053 -0.0095  2.6788
 9289SOL    HW239330   1.386   2.577   4.367 -0.9408 -2.0479  1.6969
 9290SOL     OW39331   4.676   2.413   7.018  0.3140  0.1563  0.4955
 9290SOL    HW139332   4.694   2.391   7.109  1.9480 -1.4074 -0.2039
 9290SOL    HW239333   4.669   2.321   6.990 -0.4119 -0.2972  2.1694
 9291SOL     OW39334   4.563   3.292   2.709 -0.4044  0.2410  0.4246
 9291SOL    HW139335   4.608   3.227   2.763 -1.0784  1.3916  2.3726
 9291SOL    HW239336   4.625   3.303   2.637 -0.2759  2.0520  0.7917
 9292SOL     OW39337   4.576   4.500  13.027 -0.0434 -0.7974 -0.0572
 9292SOL    HW139338   4.509   4.486  13.094 -0.2118 -1.4784 -0.3766
 9292SOL    HW239339   4.578   4.595  13.039  0.7908 -1.2342  3.3722
 9293SOL     OW39340   3.782   2.938  10.591 -0.0272  0.2488  0.2853
 9293SOL    HW139341   3.739   2.891  10.519  0.2467  1.3166 -0.5802
 9293SOL    HW239342   3.797   3.021  10.545  1.3146 -1.4495 -2.3947
 9294SOL     OW39343   3.532   4.376  13.475  0.6909  1.1507  0.0732
 9294SOL    HW139344   3.554   4.464  13.504 -1.6582  1.3831  1.1459
 9294SOL    HW239345   3.456   4.394  13.420  0.2283 -1.7759 -0.2751
 9295SOL     OW39346   0.726   4.150   2.092  0.2076 -0.4356  0.1042
 9295SOL    HW139347   0.805   4.128   2.142 -0.8071 -1.9756  1.0295
 9295SOL    HW239348   0.756   4.133   2.003  0.9415  1.6490 -0.0566
 9296SOL     OW39349   0.352   2.746   3.244  0.5037  0.5409 -0.1992
 9296SOL    HW139350   0.396   2.709   3.321  1.6638 -0.8568 -1.5178
 9296SOL    HW239351   0.273   2.773   3.290  1.6781 -0.7364  2.6254
 9297SOL     OW39352   4.507   0.078   6.807 -0.2001 -0.2549  0.5968
 9297SOL    HW139353   4.462   0.096   6.725 -0.9701  2.3928  1.5972
 9297SOL    HW239354   4.526   4.709   6.783 -0.7872 -0.0082 -0.7645
 9298SOL     OW39355   2.921   1.846   5.879 -0.5539  0.2243  0.1566
 9298SOL    HW139356   2.826   1.844   5.890 -0.4989  2.2795  1.0077
 9298SOL    HW239357   2.934   1.860   5.785  1.1408 -2.1722  0.0316
 9299SOL     OW39358   1.508   2.032   3.640  0.0300  0.1904  0.3863
 9299SOL    HW139359   1.565   1.960   3.666  1.5677  0.7674 -1.3573
 9299SOL    HW239360   1.466   2.049   3.724  2.5453  3.3562  1.0203
 9300SOL     OW39361   0.740   3.190   7.714 -0.5672 -0.1213 -0.3225
 9300SOL    HW139362   0.797   3.117   7.691 -1.5038 -0.1090 -2.6774
 9300SOL    HW239363   0.653   3.149   7.723 -0.3659 -0.9838 -2.2665
 9301SOL     OW39364   1.187   3.162   2.328 -0.0966 -0.2625  0.1923
 9301SOL    HW139365   1.223   3.251   2.337 -0.2289 -0.2584  0.7195
 9301SOL    HW239366   1.151   3.164   2.417 -1.3011 -0.9213 -0.2955
 9302SOL     OW39367   0.485   4.505   5.980  0.2384 -0.1054  0.0705
 9302SOL    HW139368   0.523   4.592   5.970  0.5063 -0.2216  0.0830
 9302SOL    HW239369   0.550   4.456   5.931  0.9424  1.2310 -0.3389
 9303SOL     OW39370   1.799   2.973  17.489  0.5272 -0.4225  0.2138
 9303SOL    HW139371   1.705   2.984  17.505  0.5197 -0.7916  0.4228
 9303SOL    HW239372   1.834   3.037  17.552  1.3844  0.2481 -0.9468
 9304SOL     OW39373   4.611   4.333   2.508  0.8896  0.4501  0.4728
 9304SOL    HW139374   4.574   4.344   2.420  0.2589 -1.8044  0.4331
 9304SOL    HW239375   4.534   4.302   2.556  1.7556 -1.7293  0.4545
 9305SOL     OW39376   1.758   4.233   9.037 -0.0636 -0.2882 -0.0256
 9305SOL    HW139377   1.817   4.200   8.969  0.0060 -0.2669  0.0240
 9305SOL    HW239378   1.708   4.152   9.043 -2.8340  1.3165 -1.6109
 9306SOL     OW39379   4.170   4.428   0.127  0.4746 -0.6192  0.7086
 9306SOL    HW139380   4.091   4.472   0.158  0.2353 -1.6167  1.5240
 9306SOL    HW239381   4.129   4.361   0.073  0.6202  0.5534 -0.8639
 9307SOL     OW39382   2.667   3.261   8.629  0.4541 -0.3258  0.1318
 9307SOL    HW139383   2.608   3.306   8.569  0.9986  1.5393  0.9816
 9307SOL    HW239384   2.612   3.260   8.707 -0.2747 -2.9623 -0.4353
 9308SOL     OW39385   4.622   2.027  16.229 -0.4981 -0.2478  0.3378
 9308SOL    HW139386   4.663   2.098  16.279 -0.1931 -0.1038 -0.1178
 9308SOL    HW239387   4.533   2.053  16.253 -0.5065 -0.1631  0.2121
 9309SOL     OW39388   2.633   3.001   8.644 -0.9174  0.4572 -0.2376
 9309SOL    HW139389   2.724   2.982   8.667 -1.0132  0.1702 -0.0967
 9309SOL    HW239390   2.645   3.094   8.627 -1.3205  0.6896  0.7370
 9310SOL     OW39391   3.053   2.730  10.771 -0.8868 -0.0204 -0.2854
 9310SOL    HW139392   3.090   2.710  10.685  0.0162 -0.2414  0.1527
 9310SOL    HW239393   3.005   2.812  10.758  1.1683  1.1541 -0.4857
 9311SOL     OW39394   0.632   1.841  12.077  0.0337  0.1465 -0.3216
 9311SOL    HW139395   0.579   1.884  12.144  1.3133  1.3168 -0.0702
 9311SOL    HW239396   0.715   1.867  12.117 -0.7338  1.7402  0.2429
 9312SOL     OW39397   1.622   3.856   5.020  0.0964 -0.2377  0.1579
 9312SOL    HW139398   1.652   3.788   4.959 -1.3600 -0.0807 -0.7168
 9312SOL    HW239399   1.707   3.892   5.047 -0.1939  0.6442 -0.1061
 9313SOL     OW39400   1.238   4.101  13.216 -0.1243  0.0253 -0.0814
 9313SOL    HW139401   1.186   4.167  13.170 -1.6750 -2.0422 -1.2706
 9313SOL    HW239402   1.183   4.085  13.293  0.5250 -0.1346  0.3519
 9314SOL     OW39403   3.244   2.140   6.868  0.0668  0.9196 -0.1453
 9314SOL    HW139404   3.293   2.060   6.888  1.5856  1.9709  0.3285
 9314SOL    HW239405   3.259   2.196   6.943  1.2011  0.3772  0.0399
 9315SOL     OW39406   3.351   0.427   8.638 -0.3185 -0.2676  0.3900
 9315SOL    HW139407   3.360   0.369   8.713 -0.4719  0.0495  0.6537
 9315SOL    HW239408   3.351   0.513   8.680  0.9592  0.4665 -1.1204
 9316SOL     OW39409   0.015   0.181   6.933  0.2464 -0.2256  0.0955
 9316SOL    HW139410   4.646   0.154   6.936 -0.4467  2.1434  0.4392
 9316SOL    HW239411   0.032   0.199   6.841 -0.2370 -0.4838 -0.0430
 9317SOL     OW39412   3.635   3.185   2.794 -0.0651  0.1197 -0.0015
 9317SOL    HW139413   3.719   3.140   2.799  0.8502  1.8770  0.4789
 9317SOL    HW239414   3.648   3.238   2.715 -0.8495 -1.6688 -1.3112
 9318SOL     OW39415   3.617   4.248   9.251 -0.4182 -0.3492  0.0177
 9318SOL    HW139416   3.710   4.274   9.254  0.0288 -2.1357  1.4500
 9318SOL    HW239417   3.628   4.186   9.179 -1.7311  1.0678 -1.4083
 9319SOL     OW39418   1.455   0.314  13.010  0.4126 -0.1550 -0.2342
 9319SOL    HW139419   1.533   0.369  13.010  0.3723 -0.0989  0.4743
 9319SOL    HW239420   1.487   0.226  12.987  1.4650 -0.1360  1.1962
 9320SOL     OW39421   3.128   0.219   5.255 -0.4814  0.4941  0.1676
 9320SOL    HW139422   3.083   0.301   5.273  1.0538  1.6691 -1.3218
 9320SOL    HW239423   3.102   0.163   5.328  0.2151 -0.9796 -0.7158
 9321SOL     OW39424   1.290   2.894   1.558  0.4038 -0.0429 -0.2833
 9321SOL    HW139425   1.290   2.823   1.493  0.5899 -1.7688  1.6147
 9321SOL    HW239426   1.194   2.898   1.560  0.4336  0.6208  0.0156
 9322SOL     OW39427   0.059   1.590   1.547  0.6041 -0.2023  0.3290
 9322SOL    HW139428   0.006   1.521   1.509  0.8571 -0.7066  0.8939
 9322SOL    HW239429   0.036   1.591   1.640 -0.8616  1.7693 -0.0578
 9323SOL     OW39430   2.586   2.331   8.649  0.7443  0.1440  0.1271
 9323SOL    HW139431   2.553   2.249   8.611  1.5750  0.2620 -0.8408
 9323SOL    HW239432   2.638   2.295   8.721 -1.0183 -1.7806  0.4570
 9324SOL     OW39433   1.960   3.889   5.005  0.1374 -0.3035 -0.5604
 9324SOL    HW139434   1.972   3.983   5.018  0.5769 -0.4028 -0.2540
 9324SOL    HW239435   1.949   3.870   5.098 -0.4723 -0.2809 -0.6294
 9325SOL     OW39436   3.886   4.345   2.811  0.1347  0.2922  0.3085
 9325SOL    HW139437   3.872   4.331   2.717 -2.7587 -0.0534  0.7914
 9325SOL    HW239438   3.957   4.282   2.821 -1.7818 -1.6531  1.6463
 9326SOL     OW39439   4.260   0.349  10.351 -0.2301 -0.1114 -0.0433
 9326SOL    HW139440   4.190   0.413  10.363 -0.7618 -0.5282 -0.9456
 9326SOL    HW239441   4.335   0.397  10.388 -2.5302  1.8706  2.0853
 9327SOL     OW39442   4.139   3.422  12.234  0.2984  0.4694  0.1780
 9327SOL    HW139443   4.055   3.408  12.276  1.4894  0.2018  2.4450
 9327SOL    HW239444   4.126   3.369  12.155 -0.2585  2.4477 -1.0829
 9328SOL     OW39445   0.972   3.505   4.180 -0.0074  0.3140 -0.1212
 9328SOL    HW139446   1.037   3.548   4.235  0.2970  0.6774 -0.7564
 9328SOL    HW239447   0.892   3.545   4.212  0.6976  1.3737  0.3227
 9329SOL     OW39448   1.464   4.625   0.300 -0.4879  0.0940 -0.3279
 9329SOL    HW139449   1.460   4.715   0.269 -0.5056 -0.0226 -0.6686
 9329SOL    HW239450   1.437   4.634   0.391 -0.7444  1.7865 -0.5732
 9330SOL     OW39451   3.490   2.493   6.004 -0.4679 -0.4559 -0.1495
 9330SOL    HW139452   3.442   2.446   5.936 -0.1681 -0.4150 -0.3927
 9330SOL    HW239453   3.441   2.575   6.001  1.3535  0.7219  1.9220
 9331SOL     OW39454   1.724   1.463  10.238 -0.1025  0.3058  0.4171
 9331SOL    HW139455   1.699   1.376  10.207 -0.2047  0.9376 -1.2922
 9331SOL    HW239456   1.702   1.495  10.150 -1.0361 -0.9933  0.1742
 9332SOL     OW39457   0.962   0.515   6.148 -0.2003 -0.5055 -0.4765
 9332SOL    HW139458   0.890   0.468   6.105  0.9041 -0.7286 -2.0822
 9332SOL    HW239459   0.978   0.580   6.080 -1.5456 -0.4417 -0.7407
 9333SOL     OW39460   2.136   3.297   0.900  0.7699 -0.3926  0.2554
 9333SOL    HW139461   2.077   3.234   0.943  0.6268 -0.0304  0.5876
 9333SOL    HW239462   2.216   3.288   0.952  0.9909  0.3263  0.0314
 9334SOL     OW39463   3.303   4.265   6.937 -0.3074  0.2277 -0.6287
 9334SOL    HW139464   3.320   4.186   6.988  0.3905  1.4731  1.0265
 9334SOL    HW239465   3.368   4.254   6.868 -1.2204 -1.7734 -1.1826
 9335SOL     OW39466   4.285   2.266   3.376 -0.4180 -0.0473  0.0418
 9335SOL    HW139467   4.343   2.189   3.374  0.4094  0.6149 -2.0430
 9335SOL    HW239468   4.227   2.243   3.448 -1.8543  1.3941 -0.6650
 9336SOL     OW39469   3.956   3.055  13.751  0.1493  0.4992  0.0523
 9336SOL    HW139470   3.876   3.049  13.803 -1.5102 -0.8033 -2.6526
 9336SOL    HW239471   3.939   3.129  13.692  2.5972  2.5205  1.9009
 9337SOL     OW39472   4.665   3.680  13.209  0.3810  0.1219  0.2613
 9337SOL    HW139473   0.002   3.653  13.280 -1.4628  0.9139  2.1044
 9337SOL    HW239474   4.706   3.761  13.179  0.5985  0.1084  0.5188
 9338SOL     OW39475   2.812   2.155  12.145  0.2851  0.1837 -0.1032
 9338SOL    HW139476   2.757   2.195  12.212 -1.1933 -0.2765 -1.0385
 9338SOL    HW239477   2.810   2.222  12.077 -2.0960 -1.6605 -1.8505
 9339SOL     OW39478   0.362   4.106   4.577 -0.1685 -0.4052 -0.4000
 9339SOL    HW139479   0.301   4.048   4.532  2.0282 -2.7764 -0.3200
 9339SOL    HW239480   0.437   4.052   4.600  0.9660  0.1145 -2.8095
 9340SOL     OW39481   4.189   4.544   6.284 -0.6358 -0.5597  0.1889
 9340SOL    HW139482   4.242   4.471   6.315 -1.2368 -1.0817 -0.0048
 9340SOL    HW239483   4.227   4.551   6.196 -0.9347  0.3942  0.1358
 9341SOL     OW39484   1.353   1.271   4.534 -0.3125  0.5487 -0.0086
 9341SOL    HW139485   1.395   1.354   4.556  1.4989 -0.7372  1.4512
 9341SOL    HW239486   1.430   1.214   4.543  0.5377  1.3911 -2.0226
 9342SOL     OW39487   0.704   4.480  15.419 -0.3062  0.1942 -0.2203
 9342SOL    HW139488   0.710   4.559  15.365  0.4467  1.2305  1.3773
 9342SOL    HW239489   0.610   4.483  15.438 -0.6633 -0.2521 -1.8816
 9343SOL     OW39490   2.225   1.741   1.475  0.1580 -0.2407 -0.1461
 9343SOL    HW139491   2.312   1.705   1.489  1.1417  1.9620 -0.7198
 9343SOL    HW239492   2.200   1.688   1.399 -1.0593  0.1217 -0.0033
 9344SOL     OW39493   0.095   3.022  15.687 -0.8774  0.1846  0.4916
 9344SOL    HW139494   0.176   3.048  15.643 -0.7815  0.5277  0.8758
 9344SOL    HW239495   0.119   3.006  15.779 -1.1778 -2.2068  0.1563
 9345SOL     OW39496   3.564   4.054   3.485  0.0198 -0.1640  0.2933
 9345SOL    HW139497   3.550   3.961   3.465 -2.8636 -0.0798  1.9164
 9345SOL    HW239498   3.598   4.076   3.398  0.0423  0.1894  0.3923
 9346SOL     OW39499   1.286   2.426  16.630 -0.0496  0.1705  0.0895
 9346SOL    HW139500   1.192   2.414  16.646  0.1393  2.6140  3.0182
 9346SOL    HW239501   1.305   2.332  16.621  1.5823  0.1510  3.8502
 9347SOL     OW39502   4.113   4.070   6.838 -0.4966  0.5215 -0.1140
 9347SOL    HW139503   4.042   4.031   6.889 -0.9422  1.6092  0.1003
 9347SOL    HW239504   4.105   4.163   6.861  1.3085  0.5883  0.2548
 9348SOL     OW39505   2.948   1.189   6.518 -0.3881 -0.1658  0.6497
 9348SOL    HW139506   3.007   1.215   6.447 -0.8421 -0.3431  0.2055
 9348SOL    HW239507   2.865   1.228   6.491  0.0648 -0.0166 -0.5447
 9349SOL     OW39508   0.459   4.022   9.019 -0.7974 -0.0390 -0.2554
 9349SOL    HW139509   0.493   3.933   9.012  0.0665  0.4035 -1.6080
 9349SOL    HW239510   0.393   4.003   9.086  0.3574 -1.8090  0.3671
 9350SOL     OW39511   3.560   3.882   1.958  0.3529 -0.5968  0.4860
 9350SOL    HW139512   3.513   3.958   1.923  0.9033  0.3663  1.8678
 9350SOL    HW239513   3.547   3.830   1.879  0.3131 -2.1088  1.4970
 9351SOL     OW39514   3.680   4.396  10.038 -0.0200 -0.2685 -0.2055
 9351SOL    HW139515   3.748   4.464  10.035 -1.1265  0.9347  1.5767
 9351SOL    HW239516   3.626   4.433  10.109 -2.6224 -2.5632 -0.9997
 9352SOL     OW39517   2.918   2.858   5.074  0.4206  0.1540 -0.3508
 9352SOL    HW139518   2.932   2.821   5.162 -0.2613  3.4047  1.1420
 9352SOL    HW239519   3.003   2.837   5.035  0.7469  1.1524 -0.1687
 9353SOL     OW39520   0.387   0.119   6.139 -0.1075 -0.2503  1.0211
 9353SOL    HW139521   0.389   0.136   6.233 -1.7499 -0.4732  1.0995
 9353SOL    HW239522   0.303   0.154   6.108  1.3460  1.8568 -0.4986
 9354SOL     OW39523   3.773   3.935   8.477  0.2726 -0.0048 -0.3825
 9354SOL    HW139524   3.842   3.879   8.441  0.0424 -0.8953  0.5766
 9354SOL    HW239525   3.695   3.936   8.422 -0.1791 -1.9410  0.2479
 9355SOL     OW39526   3.939   2.478   1.894  0.2270  0.1304  0.5313
 9355SOL    HW139527   4.018   2.504   1.848  1.7376  0.5621  3.3746
 9355SOL    HW239528   3.869   2.501   1.833  0.3560 -0.7386  0.0541
 9356SOL     OW39529   0.916   1.523   2.983  0.1768  0.4180 -0.2074
 9356SOL    HW139530   1.009   1.537   3.003 -0.6519  0.6286  3.4315
 9356SOL    HW239531   0.910   1.430   3.001  0.7909  0.6853  1.4347
 9357SOL     OW39532   1.571   2.367   7.749  0.0488  0.3031  0.1561
 9357SOL    HW139533   1.548   2.457   7.774 -0.2390  0.0863  0.6661
 9357SOL    HW239534   1.502   2.323   7.799 -0.9327  0.4917 -1.0186
 9358SOL     OW39535   0.137   2.387   5.812 -0.6288  0.0159 -0.0849
 9358SOL    HW139536   0.168   2.313   5.865  0.9778  0.7211 -0.0210
 9358SOL    HW239537   0.215   2.394   5.756 -0.0673  1.1723  0.8476
 9359SOL     OW39538   2.326   2.219   5.652 -0.0232  0.0979 -0.6240
 9359SOL    HW139539   2.345   2.200   5.744 -0.1744  2.6425 -0.0788
 9359SOL    HW239540   2.300   2.132   5.622  2.7593 -0.8855 -0.2259
 9360SOL     OW39541   0.267   3.030   3.302 -0.1315  0.3859  0.3288
 9360SOL    HW139542   0.354   3.001   3.330 -0.2459  1.1346  1.4458
 9360SOL    HW239543   0.249   3.094   3.371 -0.5659  1.2082 -0.5558
 9361SOL     OW39544   1.825   3.877  12.899 -0.1369  0.1972 -0.0772
 9361SOL    HW139545   1.866   3.934  12.964 -2.9809  3.0158 -0.7167
 9361SOL    HW239546   1.878   3.905  12.825  0.2858  1.3575  0.6777
 9362SOL     OW39547   4.103   2.571  16.418 -0.2011 -0.5451  0.5559
 9362SOL    HW139548   4.106   2.644  16.481 -0.4461 -0.1442  0.1044
 9362SOL    HW239549   4.173   2.600  16.360 -1.7062  1.4486 -0.2810
 9363SOL     OW39550   3.011   0.107   6.045  0.4340  0.1354 -0.3690
 9363SOL    HW139551   3.091   0.065   6.014  1.0334  1.0305 -0.0485
 9363SOL    HW239552   2.942   0.041   6.034  0.8553 -0.3308 -0.1891
 9364SOL     OW39553   0.937   1.395   9.060 -0.2860  0.5329  0.3714
 9364SOL    HW139554   0.886   1.475   9.070  0.2121  0.8230  0.5626
 9364SOL    HW239555   0.994   1.406   9.136 -0.6190 -2.7716  1.1283
 9365SOL     OW39556   3.016   2.090  14.975 -0.6041 -0.5935  0.1436
 9365SOL    HW139557   2.931   2.047  14.978 -1.2531  0.5871 -1.1826
 9365SOL    HW239558   2.988   2.166  14.923  3.8149  0.9495  0.0256
 9366SOL     OW39559   2.200   3.629  10.075  0.2124 -0.8105 -0.6902
 9366SOL    HW139560   2.147   3.555  10.103  1.5762 -0.8639  1.7247
 9366SOL    HW239561   2.136   3.675  10.021 -2.7321 -2.9421  0.9891
 9367SOL     OW39562   3.788   2.366   4.944  0.3803 -0.2784 -0.4114
 9367SOL    HW139563   3.852   2.301   4.974  0.4313  0.9014  2.0060
 9367SOL    HW239564   3.737   2.310   4.885 -0.6281 -0.8808  1.0309
 9368SOL     OW39565   4.068   1.115  11.528  0.4059 -0.1048  0.0196
 9368SOL    HW139566   4.011   1.189  11.547 -0.5861 -0.9827  0.4965
 9368SOL    HW239567   4.069   1.074  11.614 -0.3568 -1.5946 -0.6817
 9369SOL     OW39568   3.908   2.562   7.952  0.1552 -0.1929 -0.1084
 9369SOL    HW139569   3.997   2.583   7.980  0.2020  0.1653 -0.5342
 9369SOL    HW239570   3.920   2.481   7.901  1.8442  1.7201 -2.7221
 9370SOL     OW39571   2.392   2.480  11.233 -0.1273 -0.4568 -0.0717
 9370SOL    HW139572   2.350   2.557  11.194 -1.1594 -2.2277 -2.4400
 9370SOL    HW239573   2.325   2.413  11.217  1.2496 -2.2254  1.5630
 9371SOL     OW39574   3.088   2.670   8.026  0.2295  0.9133 -0.5852
 9371SOL    HW139575   3.088   2.578   8.052  2.2031  1.9675  3.2445
 9371SOL    HW239576   3.035   2.715   8.092 -0.3655 -2.5527  1.2903
 9372SOL     OW39577   4.528   0.721   7.794 -0.2075  0.2478 -1.2558
 9372SOL    HW139578   4.622   0.699   7.792  0.3307  2.5440 -1.7171
 9372SOL    HW239579   4.501   0.737   7.703 -2.6034  0.0619 -0.5552
 9373SOL     OW39580   0.704   4.029   1.410 -0.3490  0.1741  0.6598
 9373SOL    HW139581   0.621   4.076   1.414 -0.9884 -1.1768  2.9132
 9373SOL    HW239582   0.676   3.940   1.429 -0.7533 -0.0535 -1.0396
 9374SOL     OW39583   2.698   3.337   3.775  0.3539  0.0659 -0.8115
 9374SOL    HW139584   2.681   3.264   3.715  1.1820 -0.4845 -0.3753
 9374SOL    HW239585   2.726   3.401   3.709 -0.5656  2.3271  0.9878
 9375SOL     OW39586   2.575   3.935   0.908 -0.0079 -0.0755 -0.1384
 9375SOL    HW139587   2.568   4.028   0.888 -0.2928  0.3526  1.8701
 9375SOL    HW239588   2.665   3.926   0.938 -0.0841  2.5283  0.8670
 9376SOL     OW39589   0.023   0.522   3.920  0.4110 -0.1830 -0.4808
 9376SOL    HW139590   0.118   0.532   3.916  0.4674  0.6015  2.3210
 9376SOL    HW239591   0.005   0.599   3.974 -2.2737 -0.4711 -0.9648
 9377SOL     OW39592   4.241   1.540   5.565 -0.0484  0.3126  0.4437
 9377SOL    HW139593   4.232   1.601   5.491  1.5514 -0.7279 -0.5937
 9377SOL    HW239594   4.324   1.564   5.607 -0.2541 -0.2647  1.1734
 9378SOL     OW39595   0.320   2.128   8.927  0.0193  0.2384 -0.4136
 9378SOL    HW139596   0.308   2.113   8.833  2.2538  0.0212 -0.6721
 9378SOL    HW239597   0.317   2.223   8.921  2.7528  0.2708 -1.3654
 9379SOL     OW39598   4.186   1.140   1.645  0.5751 -0.2334  0.1502
 9379SOL    HW139599   4.197   1.236   1.640  0.2675 -0.2534 -0.9674
 9379SOL    HW239600   4.117   1.146   1.710  0.6538 -0.1635  0.2273
 9380SOL     OW39601   2.003   2.961   7.834 -0.3673  0.2361 -0.6608
 9380SOL    HW139602   2.051   3.043   7.821 -0.4803  0.2548 -0.9767
 9380SOL    HW239603   2.033   2.908   7.760 -0.5112 -0.5160 -0.1744
 9381SOL     OW39604   3.952   1.298   2.891 -0.4200  0.1498 -0.3852
 9381SOL    HW139605   3.987   1.250   2.966 -4.2585 -2.3939 -0.2046
 9381SOL    HW239606   3.875   1.254   2.857  0.0795  0.5786 -2.0735
 9382SOL     OW39607   1.640   0.786  16.747  0.6338 -0.7273  0.1995
 9382SOL    HW139608   1.690   0.826  16.818  1.5721  1.2185 -1.5679
 9382SOL    HW239609   1.713   0.733  16.715 -0.3528 -3.2392  2.1191
 9383SOL     OW39610   3.419   1.193  16.543  0.1760  0.2069 -0.1494
 9383SOL    HW139611   3.325   1.177  16.538  0.4568 -2.4565  3.0199
 9383SOL    HW239612   3.464   1.135  16.481  1.3208  0.8211  0.1070
 9384SOL     OW39613   0.956   1.912  14.718 -0.2598 -0.5649  0.4745
 9384SOL    HW139614   0.882   1.876  14.766 -0.7654 -1.3521 -0.8803
 9384SOL    HW239615   0.909   1.987  14.681 -0.5313 -1.6194 -1.3259
 9385SOL     OW39616   3.222   1.942   4.010  0.0229  0.0651 -0.8576
 9385SOL    HW139617   3.193   1.853   3.993 -0.0056 -0.2153  0.7042
 9385SOL    HW239618   3.259   1.970   3.926  1.0564 -0.3121 -0.5195
 9386SOL     OW39619   3.164   3.701   5.535 -0.1802  0.2024 -0.0539
 9386SOL    HW139620   3.187   3.626   5.589 -0.9790  0.8709  1.2114
 9386SOL    HW239621   3.094   3.741   5.586 -0.7320  0.6379 -1.1548
 9387SOL     OW39622   3.394   0.289   2.652  0.5780 -0.4705 -0.1401
 9387SOL    HW139623   3.334   0.293   2.727  0.2417  1.4775 -0.5136
 9387SOL    HW239624   3.445   0.369   2.669  0.4230 -0.4374  0.1836
 9388SOL     OW39625   4.192   3.522   1.928  0.4498 -0.8145  0.1278
 9388SOL    HW139626   4.158   3.515   2.018  1.4666  0.7343  0.6263
 9388SOL    HW239627   4.281   3.555   1.944  0.3958 -0.9996  0.8470
 9389SOL     OW39628   0.087   2.921   2.741 -0.0334  0.2266 -0.2935
 9389SOL    HW139629   0.115   2.832   2.761 -0.0339  0.1711 -0.5316
 9389SOL    HW239630   0.169   2.963   2.714  0.0539  0.4235  0.2813
 9390SOL     OW39631   1.615   4.426   9.545  0.0187 -0.1625  0.3207
 9390SOL    HW139632   1.522   4.417   9.563 -0.2518 -0.8027 -1.4576
 9390SOL    HW239633   1.648   4.341   9.574 -1.9379 -1.6185 -1.7225
 9391SOL     OW39634   1.161   2.176   7.869  0.7417 -0.6274 -0.6049
 9391SOL    HW139635   1.136   2.224   7.948  0.6054  0.8683 -1.5680
 9391SOL    HW239636   1.105   2.099   7.855  2.6424 -2.0550 -0.4834
 9392SOL     OW39637   4.086   0.195   0.347 -0.6677  0.3421  0.3239
 9392SOL    HW139638   4.006   0.176   0.299  0.0335 -0.0424 -0.7022
 9392SOL    HW239639   4.135   0.245   0.281 -0.0716  0.3535  0.7684
 9393SOL     OW39640   1.267   2.445   2.406  0.6838  0.5131  0.1212
 9393SOL    HW139641   1.285   2.352   2.418  1.2668  0.5839 -0.2083
 9393SOL    HW239642   1.353   2.487   2.415 -0.4637  2.6460  0.9590
 9394SOL     OW39643   1.355   4.515   3.308  0.6150  0.3802 -0.0445
 9394SOL    HW139644   1.275   4.477   3.345  0.7212  0.4622  0.2719
 9394SOL    HW239645   1.321   4.595   3.269 -1.1935 -1.2471 -1.8494
 9395SOL     OW39646   0.554   4.204   3.078  0.0167  0.3142 -0.9135
 9395SOL    HW139647   0.622   4.168   3.020  3.6065  1.2059  2.7337
 9395SOL    HW239648   0.510   4.128   3.115  0.5233  0.6274  0.3353
 9396SOL     OW39649   4.339   2.632   6.126 -0.1664 -0.5424  0.2231
 9396SOL    HW139650   4.255   2.605   6.089 -1.3427  1.9551  1.0054
 9396SOL    HW239651   4.327   2.654   6.219  2.2023 -0.1177  0.4337
 9397SOL     OW39652   3.442   3.328   8.045  0.2839  0.1651 -0.0138
 9397SOL    HW139653   3.490   3.411   8.044 -0.2391  0.4677 -0.3996
 9397SOL    HW239654   3.508   3.271   8.006 -1.3379 -1.9919  0.4289
 9398SOL     OW39655   3.423   1.727   0.513 -0.0848 -0.4666 -0.2239
 9398SOL    HW139656   3.401   1.801   0.456 -1.8830 -0.0809  0.9468
 9398SOL    HW239657   3.334   1.709   0.543  1.0941 -2.6833  1.8987
 9399SOL     OW39658   2.434   3.686   7.696  0.4632 -0.3360 -0.4296
 9399SOL    HW139659   2.519   3.652   7.667 -0.3787 -2.0059 -0.9244
 9399SOL    HW239660   2.376   3.615   7.669 -1.1660  1.3460 -1.2988
 9400SOL     OW39661   2.944   1.857   0.200 -0.3249  0.5271 -0.0364
 9400SOL    HW139662   2.877   1.798   0.168 -2.3138  1.5915  2.1982
 9400SOL    HW239663   2.953   1.920   0.128  0.8979  1.5503  0.9958
 9401SOL     OW39664   2.792   3.491   6.119 -0.5691  0.1891 -0.6405
 9401SOL    HW139665   2.880   3.522   6.098 -0.2317 -0.0271  0.4222
 9401SOL    HW239666   2.748   3.526   6.042  1.8830  0.7091 -1.7671
 9402SOL     OW39667   4.068   2.962   9.248 -0.1509  0.1973  0.8557
 9402SOL    HW139668   4.024   2.878   9.257 -0.0914 -0.2454 -2.8829
 9402SOL    HW239669   4.001   3.023   9.279  0.9395  1.8794 -0.1263
 9403SOL     OW39670   1.930   2.745   1.894  0.5573  0.6856  0.6028
 9403SOL    HW139671   1.889   2.788   1.819  1.9036 -0.8745 -1.0354
 9403SOL    HW239672   2.018   2.761   1.861  0.9966 -0.7813  1.0861
 9404SOL     OW39673   4.714   3.918   5.666  1.0441 -0.0418  0.1691
 9404SOL    HW139674   0.004   3.831   5.703  3.5633 -0.1164 -0.8479
 9404SOL    HW239675   4.649   3.947   5.730 -0.2983 -3.6540  0.3920
 9405SOL     OW39676   3.253   2.385   1.229  0.3959 -0.6301  0.2827
 9405SOL    HW139677   3.175   2.433   1.202  1.9897  1.5312 -0.5200
 9405SOL    HW239678   3.251   2.419   1.319  1.8766 -0.4655  0.2549
 9406SOL     OW39679   1.019   0.800   6.217  0.2330 -0.0733 -0.0992
 9406SOL    HW139680   1.103   0.827   6.179 -0.0957  0.5353 -0.3831
 9406SOL    HW239681   1.031   0.705   6.210 -0.5439 -0.2215  0.5703
 9407SOL     OW39682   4.146   1.461   8.921 -0.1988  0.0768 -0.1872
 9407SOL    HW139683   4.162   1.472   9.015 -0.2066  0.1057 -0.1894
 9407SOL    HW239684   4.051   1.470   8.931  0.2279  4.2796 -0.0895
 9408SOL     OW39685   0.972   2.806   7.929 -0.0693 -0.3270 -0.2201
 9408SOL    HW139686   0.988   2.712   7.938  0.4752  0.1063  3.0452
 9408SOL    HW239687   0.877   2.799   7.914 -0.4258  0.6015  1.6674
 9409SOL     OW39688   3.115   2.743  11.337  0.2903 -0.1859  0.3805
 9409SOL    HW139689   3.105   2.734  11.243  0.1279  2.4278  0.1467
 9409SOL    HW239690   3.203   2.710  11.358  0.1694 -0.7517 -0.0006
 9410SOL     OW39691   3.081   0.846   3.644 -0.5596 -0.0798 -0.1258
 9410SOL    HW139692   3.169   0.813   3.658 -0.4345 -0.4099 -1.7071
 9410SOL    HW239693   3.097   0.937   3.620 -0.1018  0.3473  1.7481
 9411SOL     OW39694   3.272   0.738   5.633  0.4679 -0.1811 -0.0244
 9411SOL    HW139695   3.315   0.726   5.718 -1.3287 -0.0366  0.9215
 9411SOL    HW239696   3.215   0.808   5.665  0.7096 -0.4278  0.9710
 9412SOL     OW39697   0.801   1.036  13.323 -0.2501  0.1511  0.2526
 9412SOL    HW139698   0.838   1.048  13.235  0.7096  0.8486  0.7564
 9412SOL    HW239699   0.729   1.099  13.324  0.3211  0.8327 -0.5895
 9413SOL     OW39700   4.655   4.466   0.296 -0.0062  0.2097 -0.1102
 9413SOL    HW139701   4.587   4.508   0.349 -0.4776  1.1052 -1.4181
 9413SOL    HW239702   4.634   4.373   0.292 -1.2161  0.4790 -0.2915
 9414SOL     OW39703   4.437   2.121  15.314 -0.1208  0.6210  0.1794
 9414SOL    HW139704   4.384   2.149  15.239 -0.7110 -0.3448  0.2447
 9414SOL    HW239705   4.450   2.209  15.349  0.8891  0.0115  1.3370
 9415SOL     OW39706   4.334   1.581   4.749 -0.1522 -0.3305 -0.6175
 9415SOL    HW139707   4.411   1.576   4.692  0.9667 -1.7011  1.0259
 9415SOL    HW239708   4.366   1.528   4.821 -1.1964  0.4095  0.3878
 9416SOL     OW39709   2.052   1.780  17.525 -0.0451  0.4298  0.2019
 9416SOL    HW139710   2.114   1.851  17.543 -0.6965  0.6527  1.5843
 9416SOL    HW239711   1.970   1.825  17.546  0.9644  3.3852 -2.1201
 9417SOL     OW39712   4.336   2.978   6.206 -0.2462  0.1317  0.1027
 9417SOL    HW139713   4.412   2.945   6.255 -0.1456 -1.7137 -1.2810
 9417SOL    HW239714   4.353   2.949   6.116  1.4547  1.4228  0.0037
 9418SOL     OW39715   3.671   0.927   8.426 -0.1315  0.2548 -0.4229
 9418SOL    HW139716   3.757   0.957   8.454  0.0655  0.3370 -1.1204
 9418SOL    HW239717   3.634   0.953   8.510  0.4013  2.4019 -0.8672
 9419SOL     OW39718   3.616   4.336   3.649  0.2640  0.0686  0.0457
 9419SOL    HW139719   3.669   4.257   3.654  0.4875  0.3822  2.4930
 9419SOL    HW239720   3.542   4.308   3.703  1.3090 -1.0182  0.9033
 9420SOL     OW39721   3.359   2.238   8.492  0.3910  0.2712  0.1173
 9420SOL    HW139722   3.283   2.271   8.444  1.9587  3.4057 -0.2104
 9420SOL    HW239723   3.419   2.299   8.449 -0.7373 -0.8002 -2.9683
 9421SOL     OW39724   3.551   4.131  17.340  0.3598  0.2317 -0.4042
 9421SOL    HW139725   3.569   4.201  17.277 -3.0413  2.4010  1.0363
 9421SOL    HW239726   3.637   4.092  17.351  0.0359 -0.6517 -0.9329
 9422SOL     OW39727   2.742   4.026   9.419  0.0641 -0.2983  0.0740
 9422SOL    HW139728   2.798   3.989   9.488 -2.1764 -1.1933  1.4371
 9422SOL    HW239729   2.693   4.093   9.467 -0.2111 -1.0896  0.8923
 9423SOL     OW39730   3.400   4.014   2.807 -0.5169 -0.3324  0.2914
 9423SOL    HW139731   3.453   3.936   2.793  0.0347  0.3631 -1.4577
 9423SOL    HW239732   3.471   4.064   2.848 -0.4828 -0.9459  0.9802
 9424SOL     OW39733   3.656   1.098  12.806 -0.6102 -0.8663 -0.2253
 9424SOL    HW139734   3.693   1.178  12.843 -1.9762  0.0406 -0.8462
 9424SOL    HW239735   3.594   1.131  12.742 -0.4702 -1.2994 -0.5912
 9425SOL     OW39736   3.078   3.333  16.612 -0.5635 -0.0674  0.5663
 9425SOL    HW139737   3.024   3.410  16.595  1.7055  1.5011  0.5096
 9425SOL    HW239738   3.007   3.280  16.649 -0.3705 -1.0672 -0.4776
 9426SOL     OW39739   4.408   1.294   6.087  0.0559 -0.0437 -0.4699
 9426SOL    HW139740   4.484   1.263   6.036  1.1696  1.9081  0.0228
 9426SOL    HW239741   4.434   1.268   6.175 -1.1825 -1.3282 -0.4859
 9427SOL     OW39742   2.117   2.497   3.836  0.0794  0.6465 -0.2084
 9427SOL    HW139743   2.041   2.502   3.894 -0.6064 -0.2523 -1.0195
 9427SOL    HW239744   2.177   2.430   3.870 -1.3535 -0.7609 -0.4432
 9428SOL     OW39745   4.165   2.712   0.572 -0.5015  0.1660 -0.1094
 9428SOL    HW139746   4.185   2.622   0.546  0.5982 -0.7115  3.7503
 9428SOL    HW239747   4.220   2.717   0.650  0.1870  1.1035 -0.6647
 9429SOL     OW39748   1.556   4.651  16.852  0.3946  0.3245  0.0829
 9429SOL    HW139749   1.596   4.682  16.770 -1.9518  0.4876 -1.0093
 9429SOL    HW239750   1.630   4.631  16.909 -0.7539 -0.9142  1.1406
 9430SOL     OW39751   3.961   2.357   5.517  0.0489  0.2549  0.2473
 9430SOL    HW139752   3.905   2.294   5.562  0.4537 -0.3458 -0.0846
 9430SOL    HW239753   3.956   2.337   5.423 -2.3529 -0.3888  0.5218
 9431SOL     OW39754   4.462   0.338  11.029 -0.2945  0.3750  0.4663
 9431SOL    HW139755   4.513   0.368  11.104  0.6902  2.2836 -0.9824
 9431SOL    HW239756   4.378   0.368  11.063 -1.6382 -0.2884 -2.2685
 9432SOL     OW39757   2.752   0.174   5.185  0.1441 -0.7514 -0.5810
 9432SOL    HW139758   2.787   0.254   5.225 -0.0373 -0.3632 -1.2009
 9432SOL    HW239759   2.814   0.164   5.113  0.9654 -2.5711  0.3676
 9433SOL     OW39760   1.204   3.041   3.785  0.2438  0.5380  0.3178
 9433SOL    HW139761   1.253   2.977   3.734  0.7786  0.8177  0.4808
 9433SOL    HW239762   1.260   3.117   3.774  0.2473  0.5173  0.1883
 9434SOL     OW39763   3.505   0.059   8.787 -0.1597  0.1343 -0.0519
 9434SOL    HW139764   3.575   4.721   8.814  1.1333  0.9636 -1.4921
 9434SOL    HW239765   3.436   0.003   8.753  0.3496 -0.3291 -0.3247
 9435SOL     OW39766   4.246   1.097   0.318  0.0475 -0.0581  0.1135
 9435SOL    HW139767   4.315   1.137   0.371  0.9797 -1.9824  0.3248
 9435SOL    HW239768   4.236   1.147   0.237 -0.3950 -0.9534 -0.3794
 9436SOL     OW39769   4.467   2.561   9.180 -0.0516 -0.0325  0.3528
 9436SOL    HW139770   4.466   2.655   9.159 -0.2942 -0.2680 -0.6891
 9436SOL    HW239771   4.473   2.577   9.274  1.0766  0.8589  0.1387
 9437SOL     OW39772   1.196   4.717   7.167  0.2438  0.4724  0.0056
 9437SOL    HW139773   1.257   4.676   7.105  3.1441  0.6140  2.8031
 9437SOL    HW239774   1.249   0.047   7.227 -1.9101  1.9410  0.6425
 9438SOL     OW39775   3.566   4.598   9.540  0.2675  0.0674  0.1185
 9438SOL    HW139776   3.653   4.639   9.549  0.6399 -0.7124  0.0464
 9438SOL    HW239777   3.564   4.554   9.625 -0.0129 -1.9514 -0.9343
 9439SOL     OW39778   0.821   2.198   2.846  0.2149  0.5123  0.6418
 9439SOL    HW139779   0.814   2.147   2.927  0.8184 -1.0049 -0.2621
 9439SOL    HW239780   0.814   2.125   2.785  1.4697 -0.9670  2.2701
 9440SOL     OW39781   3.699   2.913   1.034 -0.2175 -0.3523 -0.3853
 9440SOL    HW139782   3.759   2.858   0.984  0.1827  0.6077 -0.9677
 9440SOL    HW239783   3.665   2.867   1.111 -1.3529  0.7605 -0.2237
 9441SOL     OW39784   2.917   3.904   5.420 -0.2096  0.4057 -0.0579
 9441SOL    HW139785   3.003   3.944   5.432 -0.1349 -0.0386  0.8626
 9441SOL    HW239786   2.899   3.939   5.333  3.0860 -0.3580 -1.0791
 9442SOL     OW39787   1.445   1.162   9.056  0.6734  0.6005  0.2667
 9442SOL    HW139788   1.451   1.149   8.962  1.6317 -1.1394  0.5837
 9442SOL    HW239789   1.354   1.156   9.086 -0.3098  0.2506 -2.7669
 9443SOL     OW39790   2.038   4.596   3.103 -0.3438  0.7355 -0.0286
 9443SOL    HW139791   2.099   4.528   3.130 -1.2000  0.1698  0.5072
 9443SOL    HW239792   2.096   4.668   3.079 -0.7538  1.6775  1.8314
 9444SOL     OW39793   4.111   1.286   7.037 -0.6977  0.3645 -0.4465
 9444SOL    HW139794   4.141   1.255   6.951 -0.8253  0.2152 -0.4366
 9444SOL    HW239795   4.020   1.261   7.021 -0.7924  2.3367 -3.0004
 9445SOL     OW39796   4.410   2.060   6.614 -0.1661  0.0647  0.2415
 9445SOL    HW139797   4.347   2.043   6.544 -1.2484 -1.4462  1.5697
 9445SOL    HW239798   4.395   2.154   6.618 -0.1233  0.1553 -1.4622
 9446SOL     OW39799   3.094   4.379   2.382 -0.4887  0.2799 -0.8362
 9446SOL    HW139800   3.094   4.475   2.372  2.7690  0.1044 -2.4965
 9446SOL    HW239801   3.164   4.356   2.322  0.7848  1.3635  0.2194
 9447SOL     OW39802   1.869   0.685   9.238  0.2584 -0.1855 -0.6757
 9447SOL    HW139803   1.836   0.741   9.309  0.0835  1.5157 -2.1042
 9447SOL    HW239804   1.883   0.608   9.293  1.0322  0.5203  0.1341
 9448SOL     OW39805   2.958   2.914  15.019  0.2201 -0.5166  1.0741
 9448SOL    HW139806   3.012   2.985  15.052 -0.4721  0.0990  0.8845
 9448SOL    HW239807   2.978   2.926  14.926 -5.1491 -0.4004 -0.0548
 9449SOL     OW39808   2.686   3.083   9.077  0.3448  0.0931  0.3045
 9449SOL    HW139809   2.632   3.023   9.129 -0.5102  0.6916  0.0968
 9449SOL    HW239810   2.619   3.144   9.048  0.7077  0.6740  0.6894
 9450SOL     OW39811   2.294   2.670   7.708  0.4469  0.1271  0.3729
 9450SOL    HW139812   2.349   2.648   7.783 -0.3817 -0.8183  0.6964
 9450SOL    HW239813   2.240   2.594   7.690 -0.4567  0.9596 -0.4620
 9451SOL     OW39814   2.012   1.425   5.560  0.5383  0.0585 -0.0374
 9451SOL    HW139815   2.016   1.438   5.654 -1.0386  1.9290 -0.2255
 9451SOL    HW239816   1.920   1.442   5.543  0.4533 -0.2529  0.1220
 9452SOL     OW39817   3.143   0.461   6.699 -0.3309  0.1618 -0.5825
 9452SOL    HW139818   3.106   0.374   6.687 -0.0845  0.0558 -0.5871
 9452SOL    HW239819   3.150   0.465   6.794 -2.3415 -0.2622 -0.4197
 9453SOL     OW39820   2.009   2.883  13.183 -0.0368  0.3538  0.2626
 9453SOL    HW139821   1.985   2.975  13.172  0.8119  0.6248  0.6302
 9453SOL    HW239822   2.043   2.859  13.097  0.2378 -0.6662  0.6520
 9454SOL     OW39823   0.777   4.594  13.056 -0.1637  0.2125  0.3025
 9454SOL    HW139824   0.837   4.532  13.098  1.3336  1.7584  0.4305
 9454SOL    HW239825   0.702   4.541  13.029 -1.5362  2.0754  0.4902
 9455SOL     OW39826   1.829   1.508   7.253 -0.5626 -0.1764  0.3959
 9455SOL    HW139827   1.873   1.541   7.331 -0.3384  0.7997 -0.1431
 9455SOL    HW239828   1.836   1.413   7.257  0.3649 -0.1581 -0.8329
 9456SOL     OW39829   4.077   2.589   4.855 -0.5280  0.5425 -0.3347
 9456SOL    HW139830   4.005   2.543   4.813  1.3126 -2.6665  0.0234
 9456SOL    HW239831   4.045   2.675   4.884 -1.6810  0.1701 -0.5000
 9457SOL     OW39832   0.207   1.091   6.876  0.0583  0.2407 -0.6152
 9457SOL    HW139833   0.269   1.039   6.824 -2.5651 -1.0971 -2.3971
 9457SOL    HW239834   0.183   1.028   6.944 -2.4116 -1.2855 -2.8739
 9458SOL     OW39835   2.022   0.812   7.562  0.1120  0.4098  0.4960
 9458SOL    HW139836   2.093   0.772   7.613 -2.4891 -3.0073  1.4697
 9458SOL    HW239837   2.020   0.900   7.599  0.6430  0.7984 -0.3795
 9459SOL     OW39838   0.914   0.378   9.137 -0.5122  0.2790 -0.3271
 9459SOL    HW139839   0.831   0.374   9.089  0.4481  0.9235 -2.0379
 9459SOL    HW239840   0.885   0.378   9.228  0.4028  2.1113 -0.0449
 9460SOL     OW39841   2.560   1.342   8.549  0.5756  0.3796  0.0896
 9460SOL    HW139842   2.490   1.290   8.509  0.4963 -0.3767  1.2093
 9460SOL    HW239843   2.634   1.282   8.556 -1.2281 -1.7990  0.3593
 9461SOL     OW39844   3.624   2.079  17.471 -0.0293 -0.3116  0.3919
 9461SOL    HW139845   3.573   2.004  17.503  2.4782 -1.3285  1.9432
 9461SOL    HW239846   3.581   2.098  17.387 -2.0985  0.6031  1.6490
 9462SOL     OW39847   3.024   4.703  10.402  0.7330 -0.1077  0.8620
 9462SOL    HW139848   3.059   0.070  10.408  1.9080 -0.5410  0.4182
 9462SOL    HW239849   3.103   4.650  10.413  0.4993 -0.7839 -0.7375
 9463SOL     OW39850   1.819   2.289   7.814  0.5853 -0.8738 -0.2643
 9463SOL    HW139851   1.723   2.295   7.810  0.6861  0.2224 -0.8088
 9463SOL    HW239852   1.843   2.380   7.828 -2.9971  0.3575 -2.0851
 9464SOL     OW39853   0.810   2.369  12.383 -0.4725  1.1143 -0.1197
 9464SOL    HW139854   0.810   2.340  12.292 -0.4486 -0.0720  0.2556
 9464SOL    HW239855   0.717   2.390  12.392 -0.1855  1.1989  2.7576
 9465SOL     OW39856   3.291   0.697   0.670 -0.2184  0.0086 -0.0036
 9465SOL    HW139857   3.278   0.750   0.591  1.4420 -0.4022 -0.5590
 9465SOL    HW239858   3.283   0.758   0.743 -1.4098  0.3169 -0.3912
 9466SOL     OW39859   0.699   2.983   3.951  0.1375  0.6094  0.0378
 9466SOL    HW139860   0.792   2.986   3.976  0.8691 -2.0444 -2.2982
 9466SOL    HW239861   0.692   2.992   3.856 -0.8104 -0.2242  0.0393
 9467SOL     OW39862   4.310   2.635   0.803 -0.5653  0.5690  0.3929
 9467SOL    HW139863   4.293   2.562   0.743 -1.4398  0.1724  1.1201
 9467SOL    HW239864   4.298   2.585   0.884  0.0321  1.0617  0.7801
 9468SOL     OW39865   1.175   2.059  16.102  0.0632 -0.4582 -0.0600
 9468SOL    HW139866   1.127   2.139  16.123  0.3828 -0.3817  0.3730
 9468SOL    HW239867   1.110   1.990  16.114  0.6951 -1.3014 -1.4934
 9469SOL     OW39868   3.983   3.262   4.957  0.1285 -0.3419 -0.1781
 9469SOL    HW139869   4.063   3.307   4.986 -0.0187 -0.2190  0.0311
 9469SOL    HW239870   4.000   3.220   4.872  2.0909 -0.5395  0.3116
 9470SOL     OW39871   3.944   1.340   3.925  0.1430  0.5055 -0.1667
 9470SOL    HW139872   3.936   1.404   3.996  1.5924 -0.7549  1.0987
 9470SOL    HW239873   4.035   1.349   3.899 -0.4944  1.9223 -1.9301
 9471SOL     OW39874   3.793   4.320   6.668 -0.5306  0.2968  0.1630
 9471SOL    HW139875   3.846   4.304   6.746 -0.3468 -1.5866 -0.3403
 9471SOL    HW239876   3.805   4.240   6.618  0.0438  1.7025 -1.9416
 9472SOL     OW39877   0.591   3.271   4.955  0.2431 -0.3384  0.3093
 9472SOL    HW139878   0.567   3.251   5.045 -0.0803  0.6795  0.4420
 9472SOL    HW239879   0.646   3.348   4.970 -0.6985  0.3495  0.2309
 9473SOL     OW39880   1.823   3.222   5.688 -0.6202  0.7258 -0.2687
 9473SOL    HW139881   1.789   3.254   5.771 -1.4425 -0.2587 -0.2248
 9473SOL    HW239882   1.916   3.202   5.695 -0.6641  0.8474  0.6206
 9474SOL     OW39883   3.444   2.400   5.230 -0.4016 -0.2783  0.0371
 9474SOL    HW139884   3.517   2.389   5.169 -0.0522 -1.3366  0.6419
 9474SOL    HW239885   3.367   2.363   5.187 -1.0917  0.9047  0.2812
 9475SOL     OW39886   1.489   1.124   7.312 -0.0799 -0.5928  0.3367
 9475SOL    HW139887   1.514   1.185   7.242 -0.3577 -1.8171 -0.8270
 9475SOL    HW239888   1.514   1.169   7.392  0.6360 -2.0959  0.9487
 9476SOL     OW39889   4.339   2.890  17.661  0.2042 -0.1849  0.3631
 9476SOL    HW139890   4.254   2.880  17.617 -0.3528  0.1231  1.3431
 9476SOL    HW239891   4.385   2.825  17.609  0.8073  0.4843  0.0708
 9477SOL     OW39892   0.536   3.973   7.002  0.0774 -0.1493 -0.5313
 9477SOL    HW139893   0.574   4.060   6.988  1.7794 -0.7871  0.1589
 9477SOL    HW239894   0.574   3.941   7.084 -0.0904  0.0027 -0.3956
 9478SOL     OW39895   3.455   1.772   3.553  0.3246  0.1477 -0.1475
 9478SOL    HW139896   3.408   1.721   3.487  0.5728  1.2011 -1.1280
 9478SOL    HW239897   3.539   1.729   3.567  0.0790 -0.3685 -0.2562
 9479SOL     OW39898   2.090   3.924   7.935 -0.0454  0.2895  0.2357
 9479SOL    HW139899   2.111   3.879   8.016  2.3284  1.9491  0.5370
 9479SOL    HW239900   2.012   3.875   7.910  0.0598  0.2224  0.0330
 9480SOL     OW39901   3.960   1.114  14.286 -0.1446 -0.4489  0.5748
 9480SOL    HW139902   4.013   1.037  14.306  0.3540  0.0292  1.0951
 9480SOL    HW239903   3.873   1.074  14.278  0.0351 -0.0377 -3.2801
 9481SOL     OW39904   1.304   1.063   5.402 -0.0526 -0.2030 -0.0005
 9481SOL    HW139905   1.298   1.044   5.309  1.1616  2.2072 -0.5532
 9481SOL    HW239906   1.231   1.124   5.415 -1.3686 -1.6682 -0.3742
 9482SOL     OW39907   2.896   1.800   3.809 -0.4266  0.2388 -0.3347
 9482SOL    HW139908   2.878   1.758   3.725 -0.5395 -0.8675  0.2369
 9482SOL    HW239909   2.973   1.749   3.834  1.2411  3.3152  0.7901
 9483SOL     OW39910   4.604   0.634   6.976 -0.4492 -0.2295  0.1022
 9483SOL    HW139911   4.613   0.561   7.037  1.8413 -0.0460 -0.0465
 9483SOL    HW239912   4.592   0.712   7.031 -0.2601 -0.2486  0.1698
 9484SOL     OW39913   0.038   3.949   1.343  0.5592  0.0121 -0.4184
 9484SOL    HW139914   4.705   4.026   1.357  0.3818 -0.3575  0.9041
 9484SOL    HW239915   4.696   3.892   1.301 -0.3404  0.7959 -0.1108
 9485SOL     OW39916   4.001   1.704   1.217  0.6410 -0.4205 -0.1136
 9485SOL    HW139917   4.019   1.762   1.291  0.8905 -0.8932  0.1901
 9485SOL    HW239918   3.907   1.692   1.229  0.4949  0.3425 -0.4668
 9486SOL     OW39919   1.266   2.917   1.158  0.5409  0.0043 -0.2851
 9486SOL    HW139920   1.193   2.867   1.195  1.6148 -1.4542 -0.1566
 9486SOL    HW239921   1.244   3.008   1.179 -0.2535 -0.0696 -0.7911
 9487SOL     OW39922   2.222   1.962   3.505  0.0558 -0.4362  0.6727
 9487SOL    HW139923   2.251   2.029   3.567  0.5083 -0.2684  0.2773
 9487SOL    HW239924   2.295   1.969   3.444  0.1588 -3.2005  0.4377
 9488SOL     OW39925   0.075   2.379  15.277 -0.0073  0.4485 -0.0691
 9488SOL    HW139926   0.163   2.357  15.309  1.2000  4.0098 -0.9406
 9488SOL    HW239927   0.091   2.460  15.228 -0.1521 -0.7416 -2.0828
 9489SOL     OW39928   0.656   3.085   8.834  0.1489  0.5466  0.0039
 9489SOL    HW139929   0.720   3.124   8.894  0.3007 -0.2293  0.3488
 9489SOL    HW239930   0.593   3.051   8.898 -0.8906  3.0064  0.2680
 9490SOL     OW39931   3.795   3.077   6.322 -0.2360 -0.0061  0.4519
 9490SOL    HW139932   3.799   3.005   6.385  0.0002 -1.8515 -1.6607
 9490SOL    HW239933   3.794   3.027   6.241  0.3328  2.1070 -0.8616
 9491SOL     OW39934   1.605   0.626   9.439  0.0066  0.4891  0.7688
 9491SOL    HW139935   1.661   0.602   9.512 -0.5727  2.3633  1.8256
 9491SOL    HW239936   1.565   0.710   9.461 -0.5581  0.0807  1.3021
 9492SOL     OW39937   4.627   4.516   3.984  0.1065  0.5387 -0.3310
 9492SOL    HW139938   4.618   4.559   4.069 -0.1506  0.6994 -0.4416
 9492SOL    HW239939   4.655   4.429   4.013  1.8656  1.4307  0.6548
 9493SOL     OW39940   0.021   1.707   3.106  0.1077 -0.5098  0.0539
 9493SOL    HW139941   4.650   1.686   3.112  0.0002 -0.0212  0.1314
 9493SOL    HW239942   0.062   1.625   3.079 -0.2311  0.8327 -4.3800
 9494SOL     OW39943   2.844   0.331   2.414  0.0751  0.2861  0.1443
 9494SOL    HW139944   2.865   0.412   2.366  0.0436  0.2787  0.1179
 9494SOL    HW239945   2.769   0.366   2.463  0.2299  2.1949 -0.9613
 9495SOL     OW39946   1.780   0.220  12.581 -0.2193  0.2650  0.2723
 9495SOL    HW139947   1.746   0.293  12.529 -3.9757  0.0278  2.3378
 9495SOL    HW239948   1.694   0.180  12.599 -0.5657  0.4902 -0.9100
 9496SOL     OW39949   2.068   4.238   3.428 -0.1048 -0.3186  0.1431
 9496SOL    HW139950   2.098   4.147   3.425  1.0850  0.0845 -0.1735
 9496SOL    HW239951   2.041   4.246   3.336  0.7646 -5.3534 -0.5623
 9497SOL     OW39952   3.579   0.166   8.506 -0.2361 -0.6597 -0.3182
 9497SOL    HW139953   3.530   0.138   8.583  1.2107 -1.5822  0.2570
 9497SOL    HW239954   3.568   0.261   8.510  0.5420 -0.5501 -0.8536
 9498SOL     OW39955   1.804   3.118  15.738  0.2961 -0.8727  0.1244
 9498SOL    HW139956   1.874   3.164  15.692 -0.1238  0.7250  1.0694
 9498SOL    HW239957   1.769   3.183  15.799  0.4304  0.6519 -1.4589
 9499SOL     OW39958   3.941   0.950   5.421  0.2849  0.8716 -0.4211
 9499SOL    HW139959   3.887   0.963   5.342 -0.0631 -2.3137 -0.7023
 9499SOL    HW239960   3.905   0.865   5.448  0.8709  0.8286  0.2092
 9500SOL     OW39961   2.055   3.469   4.395 -0.2621 -0.6923 -0.4209
 9500SOL    HW139962   2.048   3.374   4.395 -1.3964 -0.6001  1.8608
 9500SOL    HW239963   2.130   3.481   4.336  0.2444  1.1624  0.5881
 9501SOL     OW39964   1.877   3.398  17.515  0.2913  0.8792 -0.4331
 9501SOL    HW139965   1.931   3.395  17.436 -2.3545  0.6712 -2.2285
 9501SOL    HW239966   1.909   3.328  17.572 -1.0623  1.8868  1.5365
 9502SOL     OW39967   3.663   4.016  17.618  0.1216  0.2676 -0.2891
 9502SOL    HW139968   3.664   3.921  17.603  1.0729  0.3544 -0.7877
 9502SOL    HW239969   3.708   4.039  17.537  0.8714  1.2499  0.4115
 9503SOL     OW39970   3.163   3.893  11.554  0.1264  0.0404  0.0959
 9503SOL    HW139971   3.252   3.895  11.518 -0.8196  2.1272 -2.0938
 9503SOL    HW239972   3.115   3.845  11.487 -0.4354  0.2849  0.3295
 9504SOL     OW39973   3.545   4.472   2.123  0.2712  0.0664  0.3640
 9504SOL    HW139974   3.566   4.470   2.030 -0.3081 -0.7514  0.2544
 9504SOL    HW239975   3.556   4.561   2.155 -2.1090  0.0736  1.1616
 9505SOL     OW39976   0.150   0.702   7.184  0.5058 -0.1039  0.1489
 9505SOL    HW139977   0.070   0.655   7.209  0.1789  0.0646 -0.5691
 9505SOL    HW239978   0.205   0.694   7.262 -0.7587 -0.2812  1.0212
 9506SOL     OW39979   1.068   2.318   3.743  0.1355 -0.1672  0.9437
 9506SOL    HW139980   1.014   2.302   3.820 -2.1749  1.5495 -0.3456
 9506SOL    HW239981   1.056   2.241   3.687  2.6625  0.2986 -0.2248
 9507SOL     OW39982   2.639   2.267   0.541  0.6815 -0.5638  0.3344
 9507SOL    HW139983   2.603   2.194   0.592 -0.1874  0.2459  0.8910
 9507SOL    HW239984   2.730   2.245   0.522  0.9432  1.1408 -0.3660
 9508SOL     OW39985   3.233   0.712   7.259  0.0114  0.1905 -0.2386
 9508SOL    HW139986   3.225   0.711   7.355  0.1823 -0.8305 -0.2353
 9508SOL    HW239987   3.322   0.677   7.256  0.3459  1.0015  0.3508
 9509SOL     OW39988   3.533   1.694   4.178 -0.3859  0.4062  0.3192
 9509SOL    HW139989   3.618   1.737   4.189 -0.0327  0.0126 -0.8601
 9509SOL    HW239990   3.523   1.645   4.259 -1.8052  0.3266  0.1041
 9510SOL     OW39991   0.050   3.405   6.341 -0.1835  0.9362  0.5800
 9510SOL    HW139992   0.009   3.489   6.361 -0.4294  0.3031  2.7012
 9510SOL    HW239993   0.100   3.392   6.422  2.2721 -0.1721 -1.1375
 9511SOL     OW39994   0.779   4.212  15.753 -0.4298  0.3917  0.5654
 9511SOL    HW139995   0.688   4.234  15.774 -0.3983 -0.0752  1.2074
 9511SOL    HW239996   0.782   4.216  15.658 -0.1420  1.5986  0.6222
 9512SOL     OW39997   3.462   3.740  11.883  0.4575 -0.5277  0.2656
 9512SOL    HW139998   3.459   3.821  11.832 -2.2767  0.2543  1.6474
 9512SOL    HW239999   3.526   3.685  11.839 -2.1197 -3.0373 -0.3333
 9513SOL     OW40000   4.185   0.329   5.204 -0.3924  1.1340 -0.4659
 9513SOL    HW140001   4.243   0.326   5.280  0.3562 -0.1411 -1.0891
 9513SOL    HW240002   4.243   0.371   5.140  1.4821 -1.8271 -0.7097
 9514SOL     OW40003   0.712   3.284   6.502  0.4281 -0.1417  0.3163
 9514SOL    HW140004   0.680   3.375   6.507  0.8654  0.2442 -4.8626
 9514SOL    HW240005   0.768   3.285   6.425  1.6822  0.2081  1.2317
 9515SOL     OW40006   0.627   0.372   6.670  0.1573 -0.5360 -0.0083
 9515SOL    HW140007   0.596   0.286   6.642 -2.7308  1.0960 -1.8580
 9515SOL    HW240008   0.544   0.417   6.653  1.5154  1.2564 -1.9511
 9516SOL     OW40009   0.754   2.979  10.329  0.0989  0.4227 -0.3023
 9516SOL    HW140010   0.665   2.958  10.358  0.2186  0.3265 -0.0002
 9516SOL    HW240011   0.801   2.986  10.413  2.0746 -2.3760 -1.1616
 9517SOL     OW40012   0.685   2.569   2.430 -0.8653  0.6885  0.3336
 9517SOL    HW140013   0.676   2.502   2.362 -0.7000 -0.4320  1.3943
 9517SOL    HW240014   0.679   2.653   2.385 -2.7383 -0.2724 -1.1908
 9518SOL     OW40015   3.658   1.787   5.125  0.5602 -0.4791 -0.3998
 9518SOL    HW140016   3.657   1.845   5.049 -1.0864 -1.9734 -1.5275
 9518SOL    HW240017   3.608   1.716   5.084 -1.0678  1.6969 -2.1652
 9519SOL     OW40018   4.077   4.096   0.812 -0.0983  0.2396  0.2367
 9519SOL    HW140019   4.089   4.178   0.764  0.2068  0.4843  0.7302
 9519SOL    HW240020   4.095   4.029   0.746 -0.6777  1.6948 -1.3838
 9520SOL     OW40021   3.832   1.746  10.477 -0.0425 -0.3988  0.0475
 9520SOL    HW140022   3.912   1.725  10.524  1.9542  0.3530 -3.0154
 9520SOL    HW240023   3.871   1.795  10.405 -2.6774 -1.7845 -2.3012
 9521SOL     OW40024   1.665   2.438  16.556 -0.1083  0.5805 -0.5689
 9521SOL    HW140025   1.615   2.480  16.626  1.2015 -0.7035  1.1432
 9521SOL    HW240026   1.656   2.496  16.481  0.7614 -0.7218 -1.6706
 9522SOL     OW40027   1.847   2.894   8.272  0.6418 -0.0777 -0.4501
 9522SOL    HW140028   1.858   2.907   8.178 -3.2697 -0.9566 -1.0534
 9522SOL    HW240029   1.921   2.943   8.308  1.7504 -1.9413 -0.1887
 9523SOL     OW40030   4.505   2.661   0.377  0.5485  0.5057 -0.1390
 9523SOL    HW140031   4.544   2.581   0.413 -2.5718 -1.2131 -0.6365
 9523SOL    HW240032   4.421   2.626   0.348  0.3184 -0.2206  1.4220
 9524SOL     OW40033   4.428   3.884   7.298 -0.3114 -0.0021  0.0085
 9524SOL    HW140034   4.382   3.942   7.358 -1.6461 -0.9576 -0.0934
 9524SOL    HW240035   4.355   3.846   7.249 -0.8186  0.4513  0.4199
 9525SOL     OW40036   4.592   3.315   4.129  0.4764  0.2481 -0.4726
 9525SOL    HW140037   4.504   3.321   4.091  1.1541 -0.7205 -2.1580
 9525SOL    HW240038   4.637   3.360   4.058  1.6142 -1.1387 -0.6177
 9526SOL     OW40039   4.264   1.710   5.351  0.6651  0.0233 -0.0369
 9526SOL    HW140040   4.288   1.785   5.407  0.1513 -0.7011  1.1538
 9526SOL    HW240041   4.252   1.762   5.271  0.3320  2.5032  1.5997
 9527SOL     OW40042   0.685   0.046   2.619  0.1651 -0.0775  0.2083
 9527SOL    HW140043   0.704   0.140   2.627  0.3360 -0.0935 -0.0431
 9527SOL    HW240044   0.705   0.025   2.710  1.9488 -0.5528 -0.3059
 9528SOL     OW40045   2.009   1.759  13.630 -0.0917  0.0445  0.4236
 9528SOL    HW140046   2.080   1.695  13.625 -2.2273 -2.1487 -2.0485
 9528SOL    HW240047   1.994   1.757  13.724 -1.0153  0.0546  0.2779
 9529SOL     OW40048   1.964   0.596  10.938  0.0198  0.0100 -0.5231
 9529SOL    HW140049   2.049   0.617  10.899  0.4987 -0.5831  0.1977
 9529SOL    HW240050   1.979   0.622  11.029 -0.6352 -1.6838  0.0688
 9530SOL     OW40051   1.906   3.529  17.068  0.3255  0.2599 -0.6173
 9530SOL    HW140052   1.944   3.533  17.156  0.1553 -1.0702 -0.4846
 9530SOL    HW240053   1.861   3.614  17.062  0.1272  0.1501 -0.6768
 9531SOL     OW40054   3.147   3.550   7.548  0.3211 -0.3943 -0.4206
 9531SOL    HW140055   3.179   3.494   7.620  2.1964 -0.1436 -1.0715
 9531SOL    HW240056   3.131   3.487   7.478 -2.4284 -0.8476  0.6103
 9532SOL     OW40057   0.147   4.531   9.802  0.4293 -0.1257 -0.6047
 9532SOL    HW140058   0.113   4.610   9.844  1.9705  0.0863  0.2604
 9532SOL    HW240059   0.210   4.508   9.870 -0.0963  1.6238  0.4771
 9533SOL     OW40060   0.057   1.502   2.740 -0.0754  0.4159  0.7864
 9533SOL    HW140061   0.047   1.451   2.660  0.2171 -0.2160  1.1579
 9533SOL    HW240062   0.118   1.447   2.789  0.2491  2.2100  2.4005
 9534SOL     OW40063   3.278   0.969   3.224  0.0800  0.1473 -0.1454
 9534SOL    HW140064   3.242   0.880   3.226  0.8826 -0.1245  2.5361
 9534SOL    HW240065   3.321   0.967   3.139 -2.4044 -0.7915 -1.3709
 9535SOL     OW40066   1.075   2.658   6.597  0.0311  0.2789 -0.0986
 9535SOL    HW140067   1.111   2.587   6.544 -1.6967 -1.5825  1.1993
 9535SOL    HW240068   1.032   2.715   6.534  0.6481  0.8142 -0.0358
 9536SOL     OW40069   2.930   4.605   5.683  0.2076 -0.5323  0.0268
 9536SOL    HW140070   2.937   4.519   5.724 -1.4246 -0.6968 -0.0311
 9536SOL    HW240071   2.836   4.621   5.688  0.7185  2.3036  0.4386
 9537SOL     OW40072   3.924   1.041  13.998 -0.1576 -0.2763 -0.0448
 9537SOL    HW140073   3.954   1.077  14.081 -0.8905 -2.0798  1.0161
 9537SOL    HW240074   4.007   1.037  13.950  0.3554  0.7507  0.7694
 9538SOL     OW40075   1.806   3.554  12.113  0.0533  0.4131  0.5572
 9538SOL    HW140076   1.839   3.481  12.060 -2.8028 -0.3604 -0.1399
 9538SOL    HW240077   1.790   3.509  12.196 -0.9744  1.7048  1.0424
 9539SOL     OW40078   3.645   2.760   5.157 -0.0127 -0.0768  0.0165
 9539SOL    HW140079   3.702   2.825   5.200  0.1770 -0.1489 -0.1236
 9539SOL    HW240080   3.706   2.688   5.140  0.7996  0.9227 -1.3950
 9540SOL     OW40081   2.809   2.226  10.974 -0.8038  0.0104 -0.1432
 9540SOL    HW140082   2.887   2.269  11.010 -1.3272 -1.1311  2.3161
 9540SOL    HW240083   2.735   2.265  11.020 -2.0397 -0.2861 -1.8737
 9541SOL     OW40084   4.347   4.260   7.762  0.0436 -0.4173  0.0602
 9541SOL    HW140085   4.346   4.350   7.729 -0.0220 -0.5637 -0.3429
 9541SOL    HW240086   4.420   4.265   7.824  0.8607 -0.3568 -0.8849
 9542SOL     OW40087   0.263   0.229  10.530 -0.1054  0.3498  0.2093
 9542SOL    HW140088   0.233   0.193  10.613  1.1232 -0.5774  0.2536
 9542SOL    HW240089   0.352   0.195  10.538 -0.8240 -1.2562  1.4031
 9543SOL     OW40090   3.577   1.385   5.691 -0.2403  0.1806 -0.3182
 9543SOL    HW140091   3.554   1.293   5.675  0.8440 -0.0274 -0.6232
 9543SOL    HW240092   3.598   1.417   5.604 -1.5245  0.3484 -0.5699
 9544SOL     OW40093   3.722   2.017  11.424  0.2072 -0.0761  0.1672
 9544SOL    HW140094   3.674   1.936  11.439  1.8946 -0.9005  1.0522
 9544SOL    HW240095   3.689   2.064  11.500  0.2705  0.2645 -0.0138
 9545SOL     OW40096   0.854   1.580  16.417  0.4321  0.5883 -0.2404
 9545SOL    HW140097   0.814   1.576  16.331 -0.1061  0.0165  0.0438
 9545SOL    HW240098   0.937   1.533  16.408  0.4796  0.8000 -0.9019
 9546SOL     OW40099   0.969   0.054   1.512  0.4763  0.1596 -0.7757
 9546SOL    HW140100   1.010   0.056   1.425 -0.4084  1.5253 -1.1763
 9546SOL    HW240101   0.884   0.096   1.498  0.6290  1.2722  1.5729
 9547SOL     OW40102   2.865   1.464   5.135 -0.4841 -0.3382  0.2824
 9547SOL    HW140103   2.777   1.497   5.151 -0.0556  0.2059  1.5769
 9547SOL    HW240104   2.844   1.427   5.050 -2.3798  0.4538  0.3953
 9548SOL     OW40105   1.233   2.120   5.505 -0.4049  0.4451  0.1305
 9548SOL    HW140106   1.244   2.074   5.422  0.4472 -0.9882  1.0417
 9548SOL    HW240107   1.314   2.088   5.544 -0.1326 -0.4744 -1.1948
 9549SOL     OW40108   1.561   1.897   6.909  0.4379 -0.0135  0.1116
 9549SOL    HW140109   1.621   1.830   6.942 -1.7128 -1.0720  1.7953
 9549SOL    HW240110   1.611   1.979   6.899  1.4620 -0.4493  1.6565
 9550SOL     OW40111   3.127   0.701   1.814  0.2019  0.2936 -0.4566
 9550SOL    HW140112   3.048   0.752   1.834  1.1921  2.0625 -1.0367
 9550SOL    HW240113   3.146   0.737   1.727  2.0927  1.4920  0.4632
 9551SOL     OW40114   3.169   1.011   8.308 -0.4353 -0.3628  0.2741
 9551SOL    HW140115   3.196   1.099   8.283 -1.8706 -0.1751 -0.5892
 9551SOL    HW240116   3.075   1.027   8.317 -0.1365  0.6685  1.6358
 9552SOL     OW40117   2.317   4.482  15.754  0.4171 -0.5995 -0.5217
 9552SOL    HW140118   2.339   4.572  15.728  1.2420 -0.5153  0.4902
 9552SOL    HW240119   2.246   4.509  15.813  0.7666  2.2230 -1.3722
 9553SOL     OW40120   0.985   2.042  14.289  0.1751  0.0831 -0.0194
 9553SOL    HW140121   0.936   2.037  14.207 -0.6302 -0.9045  0.5267
 9553SOL    HW240122   0.963   2.125  14.331  1.0787 -0.1146  0.8602
 9554SOL     OW40123   3.044   0.096  14.940  0.0442 -0.1536 -0.1469
 9554SOL    HW140124   3.020   0.183  14.908 -2.1600 -1.5370 -2.1987
 9554SOL    HW240125   3.126   0.077  14.894 -0.5248 -1.9524 -0.4161
 9555SOL     OW40126   4.706   3.719   1.082  0.2695 -0.4885 -0.1741
 9555SOL    HW140127   0.014   3.715   0.991  1.3735 -1.5086  0.2482
 9555SOL    HW240128   0.051   3.781   1.111 -0.6089 -0.8879  2.6991
 9556SOL     OW40129   0.387   1.608   4.719  0.2858  0.2495 -0.4885
 9556SOL    HW140130   0.408   1.525   4.761 -1.3844  0.3484  0.5578
 9556SOL    HW240131   0.445   1.664   4.770  1.5011 -1.3774 -0.1167
 9557SOL     OW40132   2.584   1.567   5.764  0.0152  0.2538  0.1443
 9557SOL    HW140133   2.495   1.550   5.793  0.7651 -3.1661  0.4851
 9557SOL    HW240134   2.585   1.533   5.675  0.1157 -0.4663  0.4227
 9558SOL     OW40135   0.659   0.203   6.201 -0.0723  0.1100 -0.4733
 9558SOL    HW140136   0.743   0.157   6.195 -0.9711 -1.6319  0.4362
 9558SOL    HW240137   0.619   0.176   6.118  0.4931 -0.5000 -0.5479
 9559SOL     OW40138   3.959   4.334   4.541  0.1460  0.0421  0.1381
 9559SOL    HW140139   4.036   4.278   4.554  0.8379  1.0337  0.3240
 9559SOL    HW240140   3.990   4.401   4.481  2.4547 -2.1785 -1.1407
 9560SOL     OW40141   0.915   3.549   6.627  0.2195  0.0850  0.3705
 9560SOL    HW140142   0.928   3.505   6.712 -1.2353  2.1338  1.6468
 9560SOL    HW240143   0.827   3.583   6.645 -0.1641 -0.9359  0.4734
 9561SOL     OW40144   1.977   2.858   4.469 -0.3615 -0.0656  0.0651
 9561SOL    HW140145   1.953   2.849   4.377  1.5853  0.9265 -0.5495
 9561SOL    HW240146   1.902   2.821   4.515  1.3715  0.2132  3.1635
 9562SOL     OW40147   2.174   4.551   1.738 -0.1996  0.0744  0.6063
 9562SOL    HW140148   2.080   4.536   1.726 -0.3571  1.6075 -0.0806
 9562SOL    HW240149   2.174   4.647   1.733  1.0526  0.2047  3.4543
 9563SOL     OW40150   3.208   0.099   1.871  0.5826  0.3089 -0.1160
 9563SOL    HW140151   3.185   0.142   1.953 -0.8810  0.3907 -0.5754
 9563SOL    HW240152   3.134   0.119   1.814  0.6960  0.0507 -0.3533
 9564SOL     OW40153   2.438   0.700  16.173 -0.0032  0.0659  0.2679
 9564SOL    HW140154   2.413   0.693  16.081  0.5120  0.6687  0.0792
 9564SOL    HW240155   2.513   0.760  16.168  0.8327 -0.8782  1.6925
 9565SOL     OW40156   4.062   2.217   9.066 -0.5021  0.6318 -0.2285
 9565SOL    HW140157   4.018   2.285   9.117  1.5819  0.3778  1.9239
 9565SOL    HW240158   3.997   2.152   9.089 -1.9336  1.3183 -2.3357
 9566SOL     OW40159   4.274   4.068   1.161 -0.0954 -0.2067 -0.0137
 9566SOL    HW140160   4.296   4.085   1.069  0.2150  0.2047  0.1387
 9566SOL    HW240161   4.203   4.003   1.162  1.5884 -2.1156 -2.5176
 9567SOL     OW40162   4.283   3.686   7.708  0.4268 -0.8783  0.5342
 9567SOL    HW140163   4.325   3.762   7.748  0.9715 -1.2988  0.7504
 9567SOL    HW240164   4.205   3.695   7.763  0.2178  0.0940  0.0842
 9568SOL     OW40165   4.181   2.552  17.220  0.4801  0.1379  0.0928
 9568SOL    HW140166   4.100   2.502  17.229  0.1619  0.5938 -0.2171
 9568SOL    HW240167   4.206   2.554  17.312 -1.0878 -0.7921  0.5304
   4.72226   4.72226  17.69115
