Membrane in water
40167
    1TCq1    O1    1   1.768   2.784  10.500 -0.0383  0.0921 -0.1882
    1TCq1    C1    2   1.850   2.816  10.606 -0.1242  0.5934  0.1483
    1TCq1    O2    3   1.962   2.855  10.596 -0.0951 -0.1357 -0.9333
    1TCq1    C2    4   1.792   2.772  10.731 -0.1017  0.5221  0.2051
    1TCq1    C3    5   1.657   2.761  10.740  0.0450 -0.1463  0.0965
    1TCq1    C4    6   1.606   2.710  10.855  0.2217  0.3654 -0.1097
    1TCq1    C5    7   1.694   2.677  10.952  0.1735  0.4430 -0.3045
    1TCq1    C6    8   1.825   2.696  10.943 -0.2254 -0.2600  0.0162
    1TCq1    C7    9   1.885   2.744  10.830 -0.3986  0.2799  0.3844
    1TCq1    C8   10   1.906   2.634  11.050 -0.2354  0.1862  0.1202
    1TCq1    O4   11   1.859   2.619  11.160  0.7760 -0.5705  0.4532
    1TCq1    C9   12   1.455   2.690  10.872 -0.2623 -1.0849 -0.5219
    1TCq1    O5   13   1.390   2.733  10.779 -0.2055  0.3785  0.3436
    1TCq1    O6   14   1.420   2.613  10.968 -0.1797  0.2044 -0.2280
    1TCq1    H1   15   1.681   2.748  10.529 -0.4429  1.9071  0.9319
    1TCq1    H2   16   1.591   2.789  10.659  1.1162  0.7501 -0.4663
    1TCq1    H3   17   1.642   2.639  11.039  0.8165 -2.3768 -1.1794
    1TCq1    H4   18   1.992   2.749  10.810 -0.5548 -0.9747 -0.7970
    2MPD2     C   19   2.348   2.423  11.247  0.1526  0.1790 -0.3582
    2MPD2    C1   20   2.215   2.422  11.287  0.2974 -0.3339  1.0471
    2MPD2    C2   21   2.113   2.483  11.216  0.4721 -0.1699 -0.4012
    2MPD2    C3   22   2.141   2.557  11.102  0.4612  0.0521 -0.0369
    2MPD2    C4   23   2.272   2.559  11.061  0.4449  1.1595  0.9164
    2MPD2    C5   24   2.378   2.491  11.130 -0.5266  0.3533  0.0679
    2MPD2     H   25   2.010   2.471  11.246  0.9632  0.1061  1.3461
    2MPD2    H1   26   2.298   2.603  10.966 -0.7674 -2.0446 -0.8862
    2MPD2    H2   27   2.423   2.361  11.296  0.4820  1.0145  0.2089
    2MPD2    H3   28   2.470   2.475  11.075 -0.1183 -1.5663  1.3287
    2MPD2     N   29   2.038   2.613  11.025  0.3045  0.2271 -0.3683
    2MPD2    H5   30   2.058   2.638  10.928 -0.2830 -0.6136 -0.7069
    2MPD2    N1   31   2.172   2.352  11.397 -0.2189  1.0337  0.5693
    2MPD2    H7   32   2.073   2.360  11.416 -0.1052  0.1014  1.5574
    3TCq1    O1   33   0.981   3.135   9.877  0.0551 -0.2632 -0.5132
    3TCq1    C1   34   0.961   3.264   9.863  0.8120  0.1255  0.0230
    3TCq1    O2   35   0.893   3.319   9.777 -0.5002 -0.0470  0.0814
    3TCq1    C2   36   1.010   3.345   9.976 -0.1348 -0.7314  0.0328
    3TCq1    C3   37   1.001   3.478   9.958 -0.0245 -0.0293 -0.8844
    3TCq1    C4   38   1.032   3.554  10.065 -0.4415  0.2546 -0.1149
    3TCq1    C5   39   1.048   3.505  10.191 -0.1665 -0.3016 -0.3969
    3TCq1    C6   40   1.031   3.367  10.206 -0.0487  0.1108 -0.1338
    3TCq1    C7   41   1.005   3.290  10.099 -0.1312  0.4225  0.6534
    3TCq1    C8   42   0.995   3.304  10.332  0.4547 -0.1277  0.1424
    3TCq1    O4   43   0.968   3.183  10.333 -0.0406  0.1931 -0.0941
    3TCq1    C9   44   1.027   3.699  10.042  0.3715 -0.3088 -0.5076
    3TCq1    O5   45   1.028   3.768  10.146  0.0999  0.8277 -0.3243
    3TCq1    O6   46   0.995   3.737   9.924  0.3719 -0.4882  0.5539
    3TCq1    H1   47   1.066   3.107   9.918 -1.4948 -0.3707  2.6725
    3TCq1    H2   48   1.003   3.525   9.860 -0.5566  0.5565 -0.6157
    3TCq1    H3   49   1.069   3.567  10.278 -0.5411 -1.7155  0.7048
    3TCq1    H4   50   0.990   3.184  10.116  1.5679  0.1195  0.2994
    4MPD2     C   51   0.877   3.302  10.827 -0.0109  0.3340 -0.3507
    4MPD2    C1   52   0.876   3.432  10.787 -0.0809 -0.0607  0.2456
    4MPD2    C2   53   0.929   3.454  10.658 -0.6529  0.4457 -0.2488
    4MPD2    C3   54   0.963   3.355  10.572 -0.7383 -0.1114 -0.0642
    4MPD2    C4   55   0.955   3.223  10.611  0.5433 -0.1105  0.0844
    4MPD2    C5   56   0.913   3.201  10.740 -0.0146 -0.4403 -0.2188
    4MPD2     H   57   0.922   3.557  10.625  0.7822  1.2250  1.8587
    4MPD2    H1   58   0.974   3.137  10.548 -1.1568  0.9024 -1.8049
    4MPD2    H2   59   0.854   3.275  10.929  0.1030  0.7539 -0.2156
    4MPD2    H3   60   0.915   3.097  10.771 -1.4318 -0.3532  0.1722
    4MPD2     N   61   0.990   3.393  10.437 -0.4975  0.0151 -0.7026
    4MPD2    H5   62   1.012   3.490  10.417 -0.5053 -0.2481 -1.9684
    4MPD2    N1   63   0.827   3.533  10.876  0.2328  0.0386 -0.7199
    4MPD2    H7   64   0.848   3.631  10.858  2.5597 -0.2337  0.5119
    5TCq1    O1   65   1.145   0.115  12.126  0.7492 -0.5946  0.0531
    5TCq1    C1   66   1.144   0.163  11.998  0.1946  0.4156 -0.1065
    5TCq1    O2   67   1.072   0.112  11.912  0.6246  0.2998  0.0737
    5TCq1    C2   68   1.278   0.204  11.967 -0.1482  0.2281  0.4901
    5TCq1    C3   69   1.341   0.290  12.049  0.1593  0.0747 -0.0440
    5TCq1    C4   70   1.460   0.336  12.006 -0.9387  0.1520  0.0004
    5TCq1    C5   71   1.512   0.301  11.884  0.1644  0.1301 -0.5373
    5TCq1    C6   72   1.438   0.222  11.797  0.7140  0.1179  0.2799
    5TCq1    C7   73   1.320   0.168  11.841 -0.2682 -0.7713  0.6046
    5TCq1    C8   74   1.483   0.170  11.667  0.5504  0.2053  0.1461
    5TCq1    O4   75   1.422   0.073  11.628 -0.4858  0.3274 -0.9991
    5TCq1    C9   76   1.517   0.441  12.083  0.5972  0.4906  0.2014
    5TCq1    O5   77   1.637   0.456  12.057  0.0674  0.3470 -0.2322
    5TCq1    O6   78   1.452   0.478  12.184 -0.3518 -0.3089  0.0207
    5TCq1    H1   79   1.226   0.125  12.181  1.2133 -1.6696 -0.4137
    5TCq1    H2   80   1.285   0.330  12.133  0.8693  0.5695  0.1894
    5TCq1    H3   81   1.602   0.349  11.848 -0.4429 -0.0522 -2.2854
    5TCq1    H4   82   1.252   0.104  11.785 -0.1110  0.1553 -0.6548
    6MPD2     C   83   1.630   0.374  11.391 -0.0899 -0.3040 -0.1020
    6MPD2    C1   84   1.578   0.259  11.449 -1.0853  0.2171  0.0666
    6MPD2    C2   85   1.580   0.142  11.382 -0.4526  0.4860  0.1611
    6MPD2    C3   86   1.617   0.140  11.245  0.0815 -0.3628  0.3927
    6MPD2    C4   87   1.654   0.258  11.187 -0.6466 -0.0721  0.4907
    6MPD2    C5   88   1.664   0.374  11.258  0.2122 -0.5583  0.1966
    6MPD2     H   89   1.543   0.050  11.426  0.5813 -0.1774 -0.3696
    6MPD2    H1   90   1.682   0.255  11.083 -1.0468  1.3509  0.3472
    6MPD2    H2   91   1.649   0.463  11.450 -1.1693 -1.5660  2.1758
    6MPD2    H3   92   1.688   0.466  11.205 -1.5821 -0.3053 -0.1866
    6MPD2     N   93   1.618   0.015  11.176 -1.2038  0.1408  1.0013
    6MPD2    H5   94   1.610   4.658  11.234 -0.0031 -0.6400  0.0578
    6MPD2    N1   95   1.548   0.267  11.585  0.0261  0.7430 -0.0693
    6MPD2    H7   96   1.573   0.352  11.635 -0.5664 -0.5474  2.4549
    7TCq1    O1   97   3.631   0.336  13.231 -0.0672 -0.1702 -0.3304
    7TCq1    C1   98   3.655   0.346  13.362 -0.8785  0.5620  0.6434
    7TCq1    O2   99   3.593   0.424  13.427 -0.2511  0.0071 -0.5952
    7TCq1    C2  100   3.681   0.212  13.400  0.3546 -0.2863  0.2229
    7TCq1    C3  101   3.601   0.167  13.495  0.5458 -0.0813  0.1414
    7TCq1    C4  102   3.635   0.045  13.550 -0.3082  0.1627 -0.6601
    7TCq1    C5  103   3.746   4.698  13.519 -0.7931  0.2644 -0.5281
    7TCq1    C6  104   3.827   0.029  13.422 -0.2468 -0.4828  0.5028
    7TCq1    C7  105   3.792   0.150  13.361  0.1439  0.4973  0.4890
    7TCq1    C8  106   3.934   4.669  13.373  0.3730  0.5012 -0.2261
    7TCq1    O4  107   3.932   4.547  13.373  0.1717  0.0874  0.1773
    7TCq1    C9  108   3.533   4.711  13.635  0.3327 -0.7379  0.3126
    7TCq1    O5  109   3.431   0.053  13.667 -0.5765  0.5592 -0.2730
    7TCq1    O6  110   3.546   4.587  13.658 -0.4895  0.2641  0.2636
    7TCq1    H1  111   3.665   0.254  13.190 -0.1864 -0.8567  0.9473
    7TCq1    H2  112   3.514   0.219  13.533 -0.3835 -2.2588  0.9989
    7TCq1    H3  113   3.762   4.600  13.562 -1.1320  0.0165 -0.9636
    7TCq1    H4  114   3.859   0.208  13.299 -0.4070 -1.2264 -1.7301
    8MPD2     C  115   4.424   4.646  13.188 -0.2295  0.3335  0.8018
    8MPD2    C1  116   4.316   4.560  13.181 -0.8860 -0.9627  0.3818
    8MPD2    C2  117   4.194   4.599  13.230  0.0841 -0.3253 -0.5176
    8MPD2    C3  118   4.170   4.722  13.278  0.6895 -0.3234  0.9581
    8MPD2    C4  119   4.278   0.082  13.277  0.4330 -0.0149 -0.6089
    8MPD2    C5  120   4.401   0.050  13.227 -0.1384  0.6489  0.0309
    8MPD2     H  121   4.111   4.530  13.219 -0.2773  0.1202 -0.5624
    8MPD2    H1  122   4.280   0.183  13.316  1.4658  0.0903 -0.9440
    8MPD2    H2  123   4.515   4.615  13.137 -0.2210 -0.7969  1.4937
    8MPD2    H3  124   4.480   0.125  13.221  1.4162 -0.9575  0.5539
    8MPD2     N  125   4.042   0.030  13.335  0.2405  0.1360 -0.0811
    8MPD2    H5  126   4.041   0.128  13.362 -0.1479 -0.3954  1.8514
    8MPD2    N1  127   4.345   4.427  13.150  0.5046 -0.2380  0.1828
    8MPD2    H7  128   4.442   4.399  13.141  0.1450 -0.4518 -3.1968
    9TCq1    O1  129   1.042   2.817  10.286 -0.0516 -0.3995 -0.4371
    9TCq1    C1  130   1.130   2.875  10.372 -0.1459  0.3434 -0.3921
    9TCq1    O2  131   1.102   2.871  10.493  0.3694  0.4286  0.9921
    9TCq1    C2  132   1.252   2.930  10.306  0.6208 -0.3344  0.3166
    9TCq1    C3  133   1.238   2.981  10.179  0.3974  0.5921  0.5446
    9TCq1    C4  134   1.343   3.051  10.131  0.0620  0.1425  0.0710
    9TCq1    C5  135   1.455   3.070  10.204  0.3832 -0.0473  0.3272
    9TCq1    C6  136   1.461   3.017  10.329 -0.2622 -0.6353 -0.2048
    9TCq1    C7  137   1.358   2.956  10.389  0.4750 -0.3219 -0.9314
    9TCq1    C8  138   1.568   3.071  10.422  0.3321  0.3215  0.0573
    9TCq1    O4  139   1.676   3.097  10.360 -0.2688  0.5908  0.8142
    9TCq1    C9  140   1.338   3.101   9.991 -0.2505  0.4711  0.0112
    9TCq1    O5  141   1.226   3.082   9.934  0.3320 -0.3251  0.3334
    9TCq1    O6  142   1.431   3.169   9.941  0.1487 -0.4218  0.4202
    9TCq1    H1  143   1.060   2.814  10.190  0.6344  0.8494 -0.3467
    9TCq1    H2  144   1.147   2.981  10.120  1.0513 -2.6088 -0.4892
    9TCq1    H3  145   1.532   3.138  10.170 -1.3954  1.1689 -1.2601
    9TCq1    H4  146   1.374   2.903  10.483  0.1205  0.8836 -0.1907
   10MPD2     C  147   1.755   3.149  10.632  0.2223  0.9365  0.1384
   10MPD2    C1  148   1.634   3.087  10.665  0.3809  0.4521  0.2691
   10MPD2    C2  149   1.606   3.058  10.787  0.4506 -0.2772 -0.0733
   10MPD2    C3  150   1.693   3.080  10.892 -0.4451 -0.1583 -0.4446
   10MPD2    C4  151   1.817   3.122  10.861 -0.0293 -0.0014  0.3816
   10MPD2    C5  152   1.848   3.164  10.733  0.4307 -0.6408 -0.2922
   10MPD2     H  153   1.506   3.020  10.804  0.7395 -1.4866 -1.1312
   10MPD2    H1  154   1.902   3.137  10.927  0.1597  0.2594  0.0786
   10MPD2    H2  155   1.787   3.190  10.537  0.4244  1.0473  0.2539
   10MPD2    H3  156   1.949   3.197  10.710 -0.4436  0.7519 -2.1593
   10MPD2     N  157   1.670   3.032  11.021 -0.2946 -0.3595 -0.2203
   10MPD2    H5  158   1.751   3.036  11.082  0.3234 -1.1787 -0.9817
   10MPD2    N1  159   1.546   3.057  10.556  0.5327  0.1751 -0.3146
   10MPD2    H7  160   1.450   3.031  10.580 -0.0680  0.9494 -1.9179
   11TCq1    O1  161   3.117   2.582  14.288 -0.9667 -0.0570  0.2676
   11TCq1    C1  162   3.066   2.687  14.363 -0.2638  0.4503  0.3103
   11TCq1    O2  163   2.975   2.671  14.443 -0.2972 -0.1601  0.2420
   11TCq1    C2  164   3.062   2.792  14.268 -0.1387 -0.0662  0.4358
   11TCq1    C3  165   3.171   2.878  14.248  0.0770 -0.8942  0.3842
   11TCq1    C4  166   3.157   2.978  14.160  0.1794 -0.6278  0.3890
   11TCq1    C5  167   3.036   2.996  14.101  0.3509 -0.6200 -1.5417
   11TCq1    C6  168   2.925   2.907  14.112 -1.1652 -0.1231 -0.0948
   11TCq1    C7  169   2.942   2.800  14.196  0.0136 -0.1435 -0.2402
   11TCq1    C8  170   2.804   2.944  14.047  0.6585 -0.2307  0.0005
   11TCq1    O4  171   2.800   3.056  13.995  0.4711  0.1501  0.3070
   11TCq1    C9  172   3.263   3.082  14.155 -0.4391 -0.0327 -0.1590
   11TCq1    O5  173   3.230   3.180  14.083  0.7677  0.1441 -0.4272
   11TCq1    O6  174   3.339   3.093  14.252  0.1615 -0.2014 -0.0738
   11TCq1    H1  175   3.173   2.606  14.212 -1.8442  2.8593  0.5533
   11TCq1    H2  176   3.268   2.856  14.291 -0.7997  0.6901  3.2029
   11TCq1    H3  177   3.026   3.093  14.053  2.4218  0.2963 -0.1395
   11TCq1    H4  178   2.857   2.736  14.215 -0.1307  0.3119  0.6718
   12MPD2     C  179   2.514   3.001  13.977 -0.0084  0.5675 -0.1469
   12MPD2    C1  180   2.575   2.879  13.997 -0.0149  0.2108  1.1268
   12MPD2    C2  181   2.495   2.768  13.965  0.5163  0.6168  0.0206
   12MPD2    C3  182   2.360   2.782  13.926 -0.1169  0.2152 -0.1672
   12MPD2    C4  183   2.300   2.903  13.914  0.1673  0.2770 -0.1439
   12MPD2    C5  184   2.388   3.012  13.933 -0.1015  0.2977 -0.4567
   12MPD2     H  185   2.542   2.671  13.958 -0.6649 -0.1995  3.6510
   12MPD2    H1  186   2.204   2.926  13.869 -1.2093 -2.6579  1.3677
   12MPD2    H2  187   2.567   3.095  13.989  2.2139 -0.7793  0.5480
   12MPD2    H3  188   2.343   3.111  13.922 -0.6424  0.0402 -0.5475
   12MPD2     N  189   2.286   2.659  13.904 -0.3012 -0.3911  0.5809
   12MPD2    H5  190   2.338   2.573  13.922  0.9163  0.4878  1.2510
   12MPD2    N1  191   2.699   2.857  14.056 -0.1517  0.1094  0.4797
   12MPD2    H7  192   2.717   2.764  14.093 -1.6997  0.2848  1.6802
   13TCq1    O1  193   1.943   2.584   9.954 -0.2123  0.2441 -0.5688
   13TCq1    C1  194   1.864   2.536  10.053 -0.5617 -0.8137  0.6635
   13TCq1    O2  195   1.908   2.461  10.142  0.4066  0.0901 -0.4331
   13TCq1    C2  196   1.747   2.619  10.069 -0.1914  0.2195  0.3042
   13TCq1    C3  197   1.687   2.660   9.950  0.0435 -0.5272 -0.4553
   13TCq1    C4  198   1.562   2.708   9.969  0.0727 -0.1394 -0.1176
   13TCq1    C5  199   1.496   2.715  10.090  0.3301 -0.8133  0.3669
   13TCq1    C6  200   1.557   2.662  10.201  0.3138 -0.1766  0.0103
   13TCq1    C7  201   1.684   2.608  10.186 -0.0743 -0.1012  0.3852
   13TCq1    C8  202   1.474   2.641  10.316  0.3521  0.4134 -0.3862
   13TCq1    O4  203   1.528   2.628  10.423  0.2198 -0.1249 -0.8114
   13TCq1    C9  204   1.497   2.755   9.849  0.2294 -0.3046 -0.4419
   13TCq1    O5  205   1.375   2.777   9.858 -0.0180 -0.1561  0.4498
   13TCq1    O6  206   1.570   2.791   9.754  0.2094  0.2175 -0.3493
   13TCq1    H1  207   1.910   2.665   9.910 -2.2089 -0.3749 -0.2295
   13TCq1    H2  208   1.722   2.635   9.850 -0.7677 -2.1937 -0.3131
   13TCq1    H3  209   1.398   2.761  10.088 -0.4403 -2.4930 -0.5274
   13TCq1    H4  210   1.730   2.555  10.268  1.2493 -1.1846 -1.0626
   14MPD2     C  211   1.130   2.494  10.330 -0.4183  0.0804  0.2678
   14MPD2    C1  212   1.246   2.548  10.380  0.7585  0.6800  0.5278
   14MPD2    C2  213   1.254   2.580  10.513 -0.0019  0.7314  0.0399
   14MPD2    C3  214   1.153   2.548  10.601 -0.0717 -0.3057  0.1054
   14MPD2    C4  215   1.036   2.489  10.552  0.3195 -0.2472 -0.2627
   14MPD2    C5  216   1.023   2.473  10.415  0.0623 -0.3383 -0.8039
   14MPD2     H  217   1.345   2.608  10.564  1.5471  0.3550 -2.5049
   14MPD2    H1  218   0.948   2.468  10.613  1.2525 -0.7687  0.8856
   14MPD2    H2  219   1.119   2.477  10.224  0.9620  1.3627 -0.0755
   14MPD2    H3  220   0.929   2.442  10.372 -0.5845 -0.3487  0.6068
   14MPD2     N  221   1.167   2.603  10.729 -0.8338  0.1433 -0.0809
   14MPD2    H5  222   1.240   2.670  10.750 -0.6266  0.0466 -0.4899
   14MPD2    N1  223   1.350   2.580  10.286  0.3078  0.1872  0.4216
   14MPD2    H7  224   1.336   2.581  10.185 -1.6746  0.6849  0.6887
   15TCq1    O1  225   2.456   2.518   1.289  0.2611 -0.1503 -0.0555
   15TCq1    C1  226   2.524   2.441   1.201 -0.0135  0.7688  0.0051
   15TCq1    O2  227   2.479   2.394   1.094 -0.5506 -0.1632  0.6142
   15TCq1    C2  228   2.654   2.413   1.260 -0.0548 -0.0977  0.3703
   15TCq1    C3  229   2.722   2.513   1.318 -0.1434 -0.5158  0.1057
   15TCq1    C4  230   2.836   2.486   1.387 -0.1560  0.1598 -0.6817
   15TCq1    C5  231   2.890   2.356   1.382  0.7692  0.0076 -0.5024
   15TCq1    C6  232   2.827   2.263   1.304  0.2634  0.4649 -0.0739
   15TCq1    C7  233   2.707   2.291   1.241  0.0312 -0.3158  0.3963
   15TCq1    C8  234   2.883   2.131   1.282 -0.3408 -0.2847  0.1415
   15TCq1    O4  235   2.980   2.105   1.359 -0.0541  0.1768 -0.5452
   15TCq1    C9  236   2.911   2.595   1.432 -0.0046  0.7406 -0.3706
   15TCq1    O5  237   3.017   2.552   1.483  0.2111 -0.2561  0.7020
   15TCq1    O6  238   2.858   2.709   1.439 -0.2839  0.1138 -0.0982
   15TCq1    H1  239   2.498   2.509   1.376 -2.4112  0.4487  1.3075
   15TCq1    H2  240   2.683   2.614   1.311 -1.2320 -1.0626 -1.8676
   15TCq1    H3  241   2.990   2.339   1.421  0.8777  0.7779 -0.4420
   15TCq1    H4  242   2.657   2.214   1.184 -0.4403  0.4690 -0.2471
   16MPD2     C  243   2.814   1.883   1.024 -0.4745 -0.2697  0.1669
   16MPD2    C1  244   2.874   1.931   1.138 -0.7836  0.7654  0.0455
   16MPD2    C2  245   2.966   1.850   1.200 -0.4872 -0.5036 -0.2580
   16MPD2    C3  246   3.006   1.728   1.156  0.6292 -0.6430 -0.9033
   16MPD2    C4  247   2.934   1.676   1.043  0.0074 -0.3543  0.7290
   16MPD2    C5  248   2.840   1.759   0.976  0.1387 -0.2241 -0.1788
   16MPD2     H  249   2.997   1.891   1.296 -1.6141  1.1229 -0.5747
   16MPD2    H1  250   2.950   1.581   0.992 -0.8900  0.3288 -0.8360
   16MPD2    H2  251   2.740   1.945   0.973  0.0524  0.9946  0.9228
   16MPD2    H3  252   2.807   1.718   0.881  1.6137  3.0846 -2.1107
   16MPD2     N  253   3.108   1.662   1.231  0.4705  0.6212 -0.2060
   16MPD2    H5  254   3.165   1.712   1.299 -0.1013  1.0314 -0.0329
   16MPD2    N1  255   2.831   2.055   1.183  0.0418  0.0415  0.7392
   16MPD2    H7  256   2.766   2.103   1.122  1.4225 -1.5071 -1.9717
   17TCq1    O1  257   1.630   1.680  11.491  0.4970 -0.1224 -0.2314
   17TCq1    C1  258   1.650   1.812  11.459  0.3812  0.0472 -0.3595
   17TCq1    O2  259   1.658   1.900  11.546 -0.2718  0.4992 -0.0610
   17TCq1    C2  260   1.725   1.822  11.340  0.0104  0.1081  0.5461
   17TCq1    C3  261   1.808   1.715  11.307  0.3747  0.8038  0.1765
   17TCq1    C4  262   1.909   1.741  11.224  0.4592 -0.6154  0.3883
   17TCq1    C5  263   1.937   1.863  11.171  0.6500  0.7199  0.8902
   17TCq1    C6  264   1.874   1.972  11.224 -0.4402  0.4007  0.1171
   17TCq1    C7  265   1.761   1.948  11.300  0.4315 -0.2694  0.4696
   17TCq1    C8  266   1.856   2.085  11.126 -0.5342 -0.3401 -0.1181
   17TCq1    O4  267   1.740   2.129  11.127 -0.0108 -0.2589 -0.0656
   17TCq1    C9  268   1.980   1.631  11.187  0.2915  0.4392 -0.0231
   17TCq1    O5  269   1.912   1.529  11.166  0.1603 -0.6566  0.0950
   17TCq1    O6  270   2.096   1.654  11.144  0.6199 -0.0942  0.1293
   17TCq1    H1  271   1.630   1.621  11.413  0.5006  1.8621 -1.7140
   17TCq1    H2  272   1.785   1.613  11.339  2.0040  0.0037 -1.2304
   17TCq1    H3  273   2.022   1.876  11.105  0.2992 -2.5084 -0.2371
   17TCq1    H4  274   1.692   2.030  11.321 -1.2177 -0.9887 -2.2340
   18MPD2     C  275   1.862   2.277  10.893  0.8979  0.5209 -0.3616
   18MPD2    C1  276   1.973   2.228  10.956  0.0662  0.9245  0.2877
   18MPD2    C2  277   2.089   2.263  10.900  0.3883  0.6826  0.2582
   18MPD2    C3  278   2.107   2.356  10.795 -0.1308  0.7485  0.1497
   18MPD2    C4  279   1.999   2.408  10.741  0.2537  0.6032  0.0081
   18MPD2    C5  280   1.874   2.371  10.796 -0.2029 -0.3638  0.1055
   18MPD2     H  281   2.179   2.240  10.957  0.5484  0.0073 -0.2765
   18MPD2    H1  282   2.003   2.472  10.654  1.5065  0.1348 -0.2790
   18MPD2    H2  283   1.758   2.259  10.921  1.1287 -1.3411 -0.7247
   18MPD2    H3  284   1.792   2.427  10.751  0.6673  1.5046  0.8817
   18MPD2     N  285   2.234   2.407  10.756 -0.0166 -0.4595 -0.4958
   18MPD2    H5  286   2.224   2.494  10.705 -0.2851 -0.0987  0.1649
   18MPD2    N1  287   1.971   2.121  11.055  0.3212 -0.0334 -0.2429
   18MPD2    H7  288   2.062   2.083  11.079  1.2912  1.5055 -1.4253
   19TMC2    C1  289   3.555   2.935  13.941  1.0891  0.1260  0.0547
   19TMC2    C2  290   3.544   2.990  13.812 -0.2935  0.7930 -0.8243
   19TMC2    C3  291   3.434   2.956  13.739 -0.4490  0.3140 -0.2212
   19TMC2    C4  292   3.465   2.836  13.981 -0.6025  0.4524 -0.1625
   19TMC2    C5  293   3.361   2.798  13.900 -0.4034  0.0003  0.8527
   19TMC2    C6  294   3.343   2.857  13.779 -0.3484  0.1649  0.4673
   19TMC2     C  295   3.694   2.949  13.991  0.7607  0.5384 -0.1320
   19TMC2     O  296   3.771   3.011  13.916 -0.5204 -0.5455  0.0294
   19TMC2     H  297   3.609   3.074  13.789 -0.6640  1.0848 -0.8121
   19TMC2    H1  298   3.484   2.775  14.069 -0.8823 -0.1413 -0.5160
   19TMC2    H2  299   3.255   2.843  13.716  0.0654 -0.0173 -0.0689
   19TMC2    C7  300   3.273   2.697  13.959 -0.6354 -0.2589  0.4033
   19TMC2    C8  301   3.428   2.988  13.594  0.4592 -0.2267  0.3393
   19TMC2    O1  302   3.311   2.632  14.059 -0.1649 -0.3836 -0.1887
   19TMC2    O2  303   3.332   2.966  13.524 -0.2820  0.5470 -0.4513
   19TMC2    O5  304   3.557   2.968  13.540  0.1629  0.1954 -0.0568
   19TMC2    H5  305   3.631   2.984  13.602 -1.4277 -1.0508  2.1995
   20MPD2     C  306   3.957   2.910  14.111  0.2541  0.0001 -0.3170
   20MPD2    C1  307   3.834   2.872  14.174 -0.2991  0.5338 -0.1277
   20MPD2    C2  308   3.829   2.810  14.301 -0.6050 -0.1546  0.7061
   20MPD2    C3  309   3.953   2.797  14.375 -0.1754 -0.7021  0.5171
   20MPD2    C4  310   4.072   2.824  14.303  0.2415 -0.1225  0.0145
   20MPD2    C5  311   4.071   2.869  14.180  0.3624 -0.4859 -0.2529
   20MPD2     H  312   3.733   2.778  14.340 -0.4464 -0.0779  1.1639
   20MPD2    H1  313   4.174   2.803  14.332 -0.1805  1.6784  2.8676
   20MPD2    H2  314   3.967   2.933  14.006 -1.5525 -0.0522 -0.5014
   20MPD2    H3  315   4.162   2.881  14.123 -0.8771  2.3055 -1.6437
   20MPD2     N  316   3.973   2.741  14.501 -0.7049 -0.3896 -0.4949
   20MPD2    H5  317   4.068   2.747  14.536 -1.2497 -1.5147  1.1500
   20MPD2    N1  318   3.710   2.895  14.112  0.3244 -0.4951 -0.1582
   20MPD2    H7  319   3.632   2.869  14.170 -1.5556  1.9666 -1.5645
   21MPD2     C  320   1.280   3.582  14.503  0.2799 -0.2517  0.0985
   21MPD2    C1  321   1.282   3.461  14.557  0.8931  0.2421  0.0400
   21MPD2    C2  322   1.162   3.412  14.596 -0.3134 -0.9655 -0.7146
   21MPD2    C3  323   1.048   3.486  14.583 -0.2981 -0.2032 -0.5582
   21MPD2    C4  324   1.053   3.615  14.549 -0.6872  0.3636 -0.0923
   21MPD2    C5  325   1.173   3.666  14.508 -0.0108  0.0503  0.2479
   21MPD2     H  326   1.149   3.308  14.624  0.3669 -1.0357 -0.6784
   21MPD2    H1  327   0.968   3.680  14.565 -2.7992 -2.1839 -0.7906
   21MPD2    H2  328   1.370   3.617  14.454 -0.5296  1.3379 -0.2537
   21MPD2    H3  329   1.180   3.771  14.480  2.6553 -0.2532 -0.1636
   21MPD2     N  330   0.917   3.445  14.609  0.0613 -0.1536  0.5661
   21MPD2    H5  331   0.835   3.503  14.622  1.0451  1.3897 -0.0681
   21MPD2    N1  332   1.400   3.383  14.584  0.4377  0.2606  0.3580
   21MPD2    H7  333   1.379   3.295  14.631 -1.9963  0.7695  0.2405
   22TCq2    C1  334   0.881   3.313  14.622 -0.4067  0.1892  0.2337
   22TCq2    O2  335   0.943   3.207  14.611  0.1255  0.1213 -0.3512
   22TCq2    C2  336   0.748   3.296  14.672  0.2301  0.4682  0.5242
   22TCq2    C3  337   0.737   3.187  14.751 -0.6464 -1.0937  0.3026
   22TCq2    C4  338   0.694   3.186  14.880  0.0264  0.1372  0.4325
   22TCq2    C5  339   0.649   3.302  14.934  0.0369 -0.2269 -0.3685
   22TCq2    C6  340   0.638   3.405  14.852  0.2145 -0.3499 -0.1230
   22TCq2    C7  341   0.691   3.407  14.722  0.6466 -0.6708 -0.1930
   22TCq2    C8  342   0.602   3.530  14.914 -0.0510 -0.5768  0.1362
   22TCq2    O4  343   0.598   3.536  15.038 -0.0904 -0.7484  0.0139
   22TCq2    C9  344   0.705   3.069  14.959 -0.4576 -0.0577 -0.2271
   22TCq2    O5  345   0.671   3.078  15.080 -0.1654  0.0071  0.0633
   22TCq2    O6  346   0.759   2.970  14.909 -0.2100 -0.3567 -0.2039
   22TCq2    H2  347   0.786   3.094  14.723  0.1741 -1.0208  1.4798
   22TCq2    H3  348   0.615   3.315  15.036  1.5595  0.0095  0.1068
   22TCq2    H4  349   0.693   3.500  14.668 -1.5051 -1.0341 -0.9293
   23MPD2     C  350   2.752   3.981  14.369  0.0852  0.4233 -0.3084
   23MPD2    C1  351   2.741   4.031  14.497 -0.4109  0.5957  0.9500
   23MPD2    C2  352   2.726   4.163  14.511  0.0384 -0.2286  0.1139
   23MPD2    C3  353   2.727   4.247  14.402  0.2456 -0.7858  0.0756
   23MPD2    C4  354   2.752   4.201  14.282 -0.0306  0.6290 -0.3267
   23MPD2    C5  355   2.762   4.064  14.266  1.1575 -0.6088 -0.4894
   23MPD2     H  356   2.702   4.204  14.609  1.4109  1.0019 -0.0618
   23MPD2    H1  357   2.750   4.263  14.193  0.9959  0.6343 -0.3516
   23MPD2    H2  358   2.757   3.873  14.357  0.7667  0.4034  0.2179
   23MPD2    H3  359   2.771   4.032  14.163 -0.2995 -0.8664 -0.5329
   23MPD2     N  360   2.697   4.385  14.414 -0.6735  0.0993  0.3299
   23MPD2    H5  361   2.683   4.440  14.330  0.3335  0.1727  0.2100
   23MPD2    N1  362   2.699   3.960  14.611  0.4016  0.0376  0.4454
   23MPD2    H7  363   2.671   4.015  14.692 -1.5636  1.4221 -1.1972
   24TCq2    C1  364   2.700   4.456  14.530  0.5125  0.3806 -0.4469
   24TCq2    O2  365   2.749   4.432  14.637  0.6294  0.0884 -0.5175
   24TCq2    C2  366   2.677   4.603  14.509  0.1970 -0.1332  0.4146
   24TCq2    C3  367   2.735   4.697  14.592 -0.0813 -0.2694  0.2150
   24TCq2    C4  368   2.730   0.099  14.563  0.0832 -0.3986  0.1713
   24TCq2    C5  369   2.676   0.136  14.452 -0.0319 -0.7949  0.1109
   24TCq2    C6  370   2.609   0.050  14.372  0.0983 -0.2179 -0.8660
   24TCq2    C7  371   2.614   4.644  14.398 -0.0224  0.0089  0.3340
   24TCq2    C8  372   2.514   0.097  14.266  0.3992  0.4495  0.3056
   24TCq2    O4  373   2.553   0.196  14.211  0.2007 -0.4858 -0.4163
   24TCq2    C9  374   2.810   0.186  14.649 -0.0896 -0.0544 -0.2566
   24TCq2    O5  375   2.835   0.147  14.769 -0.0095  0.1713 -0.1724
   24TCq2    O6  376   2.852   0.287  14.589  0.0165 -0.7163 -0.4816
   24TCq2    H2  377   2.794   4.667  14.678 -0.3389  0.1714  0.5438
   24TCq2    H3  378   2.672   0.242  14.429  3.4033 -0.0412  3.0532
   24TCq2    H4  379   2.560   4.573  14.336  0.3428  0.6604 -0.7165
   25TMC2    C1  380   1.839   1.544  12.054  0.0596 -0.5632  0.1311
   25TMC2    C2  381   1.944   1.613  12.111 -0.8441  0.0156  0.4622
   25TMC2    C3  382   1.914   1.716  12.197  0.1539  0.4537 -0.6217
   25TMC2    C4  383   1.707   1.583  12.064  0.1308 -0.1819 -0.2334
   25TMC2    C5  384   1.686   1.700  12.132 -0.4147 -0.1864 -0.2561
   25TMC2    C6  385   1.783   1.767  12.198 -0.0119 -0.5805 -0.2333
   25TMC2     C  386   1.862   1.446  11.955 -0.3966 -0.1706  0.1430
   25TMC2     O  387   1.971   1.450  11.902 -0.7010 -0.6413 -0.5537
   25TMC2     H  388   2.048   1.584  12.099 -0.6758  0.9756 -0.3626
   25TMC2    H1  389   1.625   1.529  12.019 -0.0333 -1.7883  2.0148
   25TMC2    H2  390   1.756   1.852  12.260  2.6137 -0.9167  1.4053
   25TMC2    C7  391   1.562   1.774  12.115 -0.5438 -0.1213  0.2120
   25TMC2    C8  392   2.023   1.815  12.231 -0.1473  0.3128  0.0648
   25TMC2    O1  393   1.538   1.855  12.203 -0.0438 -0.2575 -0.2526
   25TMC2    O2  394   1.998   1.931  12.247  0.0905  0.0718  0.7956
   25TMC2    O5  395   2.147   1.760  12.214 -0.5814  0.0755  0.1445
   25TMC2    H5  396   2.153   1.663  12.230  1.3658  0.3540  1.0385
   26MPD2     C  397   1.795   1.049  11.653 -0.1373 -0.2058 -0.4383
   26MPD2    C1  398   1.670   1.088  11.690 -0.5005  0.5890  0.0609
   26MPD2    C2  399   1.652   1.191  11.779  0.4384  0.2565  0.0846
   26MPD2    C3  400   1.762   1.254  11.832 -0.1141 -0.0011 -0.1681
   26MPD2    C4  401   1.890   1.193  11.808 -0.7844 -0.3577 -0.2554
   26MPD2    C5  402   1.910   1.099  11.714  0.1158 -0.0989 -0.1494
   26MPD2     H  403   1.552   1.226  11.803  0.4614 -0.6609  1.5050
   26MPD2    H1  404   1.978   1.230  11.859 -1.1375 -2.3492  1.8273
   26MPD2    H2  405   1.810   0.971  11.580 -0.5446 -2.1435  1.5465
   26MPD2    H3  406   2.011   1.062  11.696  0.4117 -0.9914  3.3219
   26MPD2     N  407   1.754   1.367  11.916 -0.0567  0.4712  0.2262
   26MPD2    H5  408   1.664   1.379  11.961 -0.1493  1.2646 -0.1703
   26MPD2    N1  409   1.561   1.006  11.642 -0.3627 -0.4084 -0.6072
   26MPD2    H7  410   1.586   0.940  11.569 -0.2066  0.8191 -1.6664
   27TMC2    C1  411   0.180   3.622  11.877  0.2320 -0.3503  0.1214
   27TMC2    C2  412   0.085   3.636  11.783 -0.0748  0.6722 -0.0719
   27TMC2    C3  413   0.093   3.727  11.680 -0.3888 -0.0268  0.0398
   27TMC2    C4  414   0.291   3.702  11.873 -0.5454 -0.5517  0.0087
   27TMC2    C5  415   0.290   3.813  11.786  0.1735 -0.1775 -0.4954
   27TMC2    C6  416   0.198   3.821  11.687 -0.3546  0.3921 -0.3848
   27TMC2     C  417   0.164   3.548  11.999 -0.0700  0.0626 -0.1413
   27TMC2     O  418   0.266   3.488  12.029  0.3610 -0.5789 -0.6253
   27TMC2     H  419   4.720   3.579  11.798  1.2662 -1.2596  0.6099
   27TMC2    H1  420   0.362   3.683  11.954  2.1616  0.3288 -2.1465
   27TMC2    H2  421   0.184   3.903  11.617 -0.5254 -1.9270 -3.0909
   27TMC2    C7  422   0.297   3.944  11.855  0.0026  0.9032  0.7419
   27TMC2    C8  423   4.689   3.783  11.652 -0.1648  0.0777 -0.4939
   27TMC2    O1  424   0.247   4.037  11.793  0.1162 -0.3976  0.0563
   27TMC2    O2  425   4.643   3.887  11.700  0.0026  0.4313 -0.2387
   27TMC2    O5  426   4.621   3.689  11.587 -0.5153 -0.3194 -0.0018
   27TMC2    H5  427   4.677   3.622  11.543  1.6344  1.2850  0.2282
   28MPD2     C  428   4.710   3.430  12.461 -0.6541  0.2298  0.2496
   28MPD2    C1  429   4.644   3.544  12.415 -0.0020  0.3361 -0.3375
   28MPD2    C2  430   4.669   3.595  12.291  0.2739 -0.2491  0.1024
   28MPD2    C3  431   0.032   3.528  12.207  0.1474  0.6906  0.5736
   28MPD2    C4  432   0.099   3.417  12.258  0.2124  0.0176 -1.0561
   28MPD2    C5  433   0.074   3.362  12.381 -0.4523 -0.5130 -0.5022
   28MPD2     H  434   4.617   3.687  12.270  0.0678 -0.2944  0.4189
   28MPD2    H1  435   0.174   3.360  12.203 -1.5115 -0.2781 -3.1151
   28MPD2    H2  436   4.687   3.386  12.558  0.8950 -1.4376 -0.1437
   28MPD2    H3  437   0.132   3.277  12.415 -0.2478 -0.9557 -1.9841
   28MPD2     N  438   0.050   3.573  12.075  0.4221 -0.6652  0.6009
   28MPD2    H5  439   4.718   3.651  12.042 -0.2183 -0.9813  0.9563
   28MPD2    N1  440   4.535   3.588  12.500  0.2125  0.1037  0.4845
   28MPD2    H7  441   4.507   3.545  12.588  0.7842 -0.9289  0.1566
   29MPD2     C  442   4.592   1.504  14.266 -0.5749  0.2682 -0.5429
   29MPD2    C1  443   4.586   1.461  14.393 -0.2642  0.0711 -0.0535
   29MPD2    C2  444   4.547   1.546  14.495  0.1481 -0.0303 -0.2759
   29MPD2    C3  445   4.524   1.673  14.460 -0.6883  0.0538 -0.0218
   29MPD2    C4  446   4.562   1.721  14.334 -0.3405  0.6110 -0.1975
   29MPD2    C5  447   4.590   1.634  14.236 -0.0003  0.2809 -0.4013
   29MPD2     H  448   4.544   1.518  14.600 -1.0764  0.5951 -0.1523
   29MPD2    H1  449   4.558   1.825  14.306  1.7546  0.9573  0.7419
   29MPD2    H2  450   4.625   1.436  14.188 -0.2120  0.8048 -0.8527
   29MPD2    H3  451   4.617   1.666  14.135  0.9530  0.3387 -0.1345
   29MPD2     N  452   4.476   1.769  14.554  0.8596 -0.1531  0.3447
   29MPD2    H5  453   4.469   1.868  14.532 -0.5057  0.6108  4.2469
   29MPD2    N1  454   4.605   1.322  14.414  0.1353 -0.3309  0.1886
   29MPD2    H7  455   4.627   1.272  14.329 -0.4976 -1.0710  0.4666
   30TCq2    C1  456   4.419   1.737  14.684  0.5138 -0.1126 -0.2554
   30TCq2    O2  457   4.398   1.627  14.732 -0.0020 -0.4358 -0.1835
   30TCq2    C2  458   4.378   1.861  14.751 -0.8947  0.3969  0.5526
   30TCq2    C3  459   4.393   1.884  14.881  0.3565  0.4078 -0.1052
   30TCq2    C4  460   4.339   1.988  14.948 -0.0388 -0.9904  0.4618
   30TCq2    C5  461   4.278   2.086  14.877  0.1682  0.8502  0.0688
   30TCq2    C6  462   4.260   2.075  14.745  0.4454  0.6008  0.2815
   30TCq2    C7  463   4.307   1.960  14.682  0.0859 -0.1850 -0.6651
   30TCq2    C8  464   4.277   2.204  14.669 -0.1790  0.6464 -0.2891
   30TCq2    O4  465   4.232   2.212  14.555  0.0004  0.8709 -0.5109
   30TCq2    C9  466   4.364   2.001  15.087 -0.3896  0.6336  0.1108
   30TCq2    O5  467   4.288   2.073  15.156  0.6334 -0.0994  0.0078
   30TCq2    O6  468   4.466   1.949  15.135 -0.3926 -0.2698 -0.0443
   30TCq2    H2  469   4.448   1.809  14.937 -2.3390 -1.3651  0.1738
   30TCq2    H3  470   4.233   2.164  14.938  1.4662  2.2419 -0.7602
   30TCq2    H4  471   4.308   1.951  14.574 -0.6449  3.0445 -0.9275
   31MPD2     C  472   2.431   0.468  14.893  0.2096 -0.5741  0.3077
   31MPD2    C1  473   2.327   0.452  14.809 -0.4148 -0.7496  0.2669
   31MPD2    C2  474   2.234   0.348  14.837  0.1332 -0.5317  0.9887
   31MPD2    C3  475   2.260   0.266  14.942 -0.4695 -0.0522 -0.3325
   31MPD2    C4  476   2.373   0.281  15.022 -0.2995  0.5145 -0.3675
   31MPD2    C5  477   2.452   0.392  15.001 -1.0129  0.1782 -0.5646
   31MPD2     H  478   2.156   0.341  14.763  0.9802  1.3095 -0.0885
   31MPD2    H1  479   2.387   0.231  15.117  0.6525 -1.3847 -1.5119
   31MPD2    H2  480   2.500   0.550  14.875  0.6137 -0.7029  1.2414
   31MPD2    H3  481   2.535   0.412  15.067 -2.2333  2.0265  0.4043
   31MPD2     N  482   2.173   0.161  14.982 -0.3674  0.4574 -0.0603
   31MPD2    H5  483   2.204   0.102  15.058  1.8695  0.2826 -1.1167
   31MPD2    N1  484   2.320   0.543  14.697  0.4732 -0.4085 -0.0566
   31MPD2    H7  485   2.395   0.611  14.691 -0.8679  1.0522 -0.1426
   32TCq2    C1  486   2.048   0.140  14.934  0.0203 -0.1955 -0.0863
   32TCq2    O2  487   1.978   0.185  14.844  0.1219 -0.1495 -0.1219
   32TCq2    C2  488   1.981   0.025  15.002 -0.5058  0.4213 -0.5613
   32TCq2    C3  489   1.843   0.016  15.007 -0.0279  0.9900  0.0082
   32TCq2    C4  490   1.792   4.626  15.054 -0.0292 -0.4455 -0.2337
   32TCq2    C5  491   1.871   4.535  15.111 -0.7209  0.4204 -0.5222
   32TCq2    C6  492   2.007   4.547  15.118 -0.0706  0.3338 -0.1224
   32TCq2    C7  493   2.060   4.658  15.063  0.0123  0.1679  0.0175
   32TCq2    C8  494   2.075   4.489  15.231  0.0926 -0.5152  0.2199
   32TCq2    O4  495   2.197   4.494  15.237 -0.1923  0.7881  0.2091
   32TCq2    C9  496   1.649   4.617  15.083  0.1848  0.4425 -0.4685
   32TCq2    O5  497   1.581   4.714  15.055 -0.4228  0.0340 -0.0053
   32TCq2    O6  498   1.606   4.516  15.148 -0.0398  0.2139  0.1730
   32TCq2    H2  499   1.782   0.099  14.973  3.4064  2.1784 -3.3349
   32TCq2    H3  500   1.835   4.441  15.151  0.3522 -0.4734 -1.6562
   32TCq2    H4  501   2.168   4.667  15.069 -0.1289  2.4583 -0.9013
   33MPD2     C  502   2.838   2.483  10.128  0.4199  0.3651 -0.1031
   33MPD2    C1  503   2.705   2.474  10.167 -0.5895 -0.1524  0.4637
   33MPD2    C2  504   2.610   2.528  10.087  0.4343  0.4305 -0.5194
   33MPD2    C3  505   2.645   2.592   9.969 -0.4782 -0.3610  1.0043
   33MPD2    C4  506   2.777   2.599   9.934  1.1148  0.7179 -0.5334
   33MPD2    C5  507   2.876   2.542  10.010  0.4339 -0.9454  0.1015
   33MPD2     H  508   2.508   2.534  10.125  0.3712  2.5292 -1.0480
   33MPD2    H1  509   2.799   2.646   9.839  2.0768 -0.5150 -0.9132
   33MPD2    H2  510   2.914   2.431  10.185 -1.7741  0.3823  2.8306
   33MPD2    H3  511   2.977   2.544   9.973  0.6003 -2.1939  0.4806
   33MPD2     N  512   2.554   2.661   9.884  0.2557  0.1308 -0.8253
   33MPD2    H5  513   2.597   2.716   9.810 -0.2282 -0.5987 -1.6588
   33MPD2    N1  514   2.682   2.437  10.304 -0.7864  0.5489 -0.2179
   33MPD2    H7  515   2.769   2.422  10.354 -0.3798 -2.2303 -1.7470
   34TCq2    C1  516   2.419   2.663   9.907 -0.1503 -0.2355 -0.3578
   34TCq2    O2  517   2.347   2.601   9.982  0.5922 -0.1752 -0.0393
   34TCq2    C2  518   2.352   2.768   9.829  0.4408 -1.0791 -0.0128
   34TCq2    C3  519   2.213   2.779   9.852 -0.1762  0.6331 -0.0827
   34TCq2    C4  520   2.146   2.879   9.788 -0.4271  0.9419  0.1408
   34TCq2    C5  521   2.204   2.959   9.693  0.1249  0.0149 -0.0812
   34TCq2    C6  522   2.338   2.933   9.672  0.0024  0.8559 -1.1722
   34TCq2    C7  523   2.418   2.852   9.747 -0.5258 -0.6533 -0.2971
   34TCq2    C8  524   2.403   3.019   9.579 -0.1443  0.7509 -1.1404
   34TCq2    O4  525   2.515   3.062   9.611 -0.7730 -0.4550 -0.8596
   34TCq2    C9  526   2.010   2.907   9.823 -0.0478 -0.0964 -0.1529
   34TCq2    O5  527   1.933   2.822   9.876  0.0568  0.4852  0.0819
   34TCq2    O6  528   1.973   3.010   9.772  0.1238 -0.1220 -0.4209
   34TCq2    H2  529   2.163   2.722   9.929  1.4669  1.0134  1.2531
   34TCq2    H3  530   2.146   3.036   9.644 -0.3265  0.4679  1.1635
   34TCq2    H4  531   2.518   2.831   9.708 -0.2980  0.6447 -0.3878
   35MPD2     C  532   4.030   4.271  11.830  0.6049  0.3042 -0.4112
   35MPD2    C1  533   3.983   4.146  11.858 -0.5954  0.2743  0.1470
   35MPD2    C2  534   3.877   4.096  11.796  0.1567 -0.1501  0.1461
   35MPD2    C3  535   3.812   4.174  11.697  0.5302  0.1215  0.1577
   35MPD2    C4  536   3.864   4.297  11.662  0.1239 -0.1663 -0.1279
   35MPD2    C5  537   3.974   4.341  11.731  0.3347 -1.0286 -1.4340
   35MPD2     H  538   3.837   3.998  11.818 -0.1793 -0.2997 -1.0940
   35MPD2    H1  539   3.820   4.370  11.594  2.3131 -0.3065 -1.7058
   35MPD2    H2  540   4.119   4.315  11.873 -1.2883  1.3666  2.4373
   35MPD2    H3  541   4.019   4.439  11.721 -1.0570 -0.3541 -1.0243
   35MPD2     N  542   3.702   4.112  11.629  0.0045  0.1149  0.5160
   35MPD2    H5  543   3.672   4.021  11.661  2.8105 -1.0703 -0.2538
   35MPD2    N1  544   4.041   4.072  11.962  0.1301  0.0247  0.2581
   35MPD2    H7  545   4.117   4.120  12.010 -0.5874  0.8451  0.5835
   36TCq2    C1  546   3.643   4.169  11.516  0.0614  0.0521 -0.0963
   36TCq2    O2  547   3.677   4.267  11.445 -0.1669  0.0943 -0.5864
   36TCq2    C2  548   3.520   4.092  11.469 -0.3855  0.3053 -0.2722
   36TCq2    C3  549   3.469   4.122  11.345  0.5890  0.0348 -0.3468
   36TCq2    C4  550   3.335   4.093  11.328 -0.2550 -0.0265  0.5945
   36TCq2    C5  551   3.256   4.024  11.416  0.3940 -0.1464  0.5192
   36TCq2    C6  552   3.317   3.995  11.540  0.6245  0.3959  0.6128
   36TCq2    C7  553   3.443   4.031  11.566  0.3459 -0.5284 -0.3706
   36TCq2    C8  554   3.239   3.907  11.621  0.0897 -0.0869 -0.0251
   36TCq2    O4  555   3.137   3.859  11.572  0.3287  0.4754  0.4331
   36TCq2    C9  556   3.277   4.136  11.198 -0.3071  0.2331 -0.2887
   36TCq2    O5  557   3.171   4.082  11.160 -0.3075 -0.8893 -0.0024
   36TCq2    O6  558   3.346   4.219  11.136 -0.0193 -0.2812 -0.0536
   36TCq2    H2  559   3.530   4.167  11.268 -0.5910  3.5275  0.7718
   36TCq2    H3  560   3.148   4.018  11.404  0.3522 -1.8157  1.6718
   36TCq2    H4  561   3.489   4.023  11.664  3.0817 -0.4851 -1.6538
   37TMC2    C1  562   1.150   3.462  11.404 -0.1565  0.2118  0.2655
   37TMC2    C2  563   1.162   3.327  11.399  0.2697  0.0927  0.1904
   37TMC2    C3  564   1.292   3.262  11.410  0.1649 -0.1998  0.5181
   37TMC2    C4  565   1.261   3.535  11.434 -0.4758  0.0322  0.2950
   37TMC2    C5  566   1.383   3.469  11.446 -0.0218 -0.6700  0.1748
   37TMC2    C6  567   1.405   3.336  11.428 -0.4259  0.7248  0.4886
   37TMC2     C  568   1.016   3.513  11.424  0.2772 -0.7974 -0.9053
   37TMC2     O  569   0.933   3.446  11.365 -0.1456  0.2024  0.0616
   37TMC2     H  570   1.066   3.277  11.391  1.0333 -1.6439  1.6694
   37TMC2    H1  571   1.256   3.641  11.459  2.3478  0.3755 -0.5989
   37TMC2    H2  572   1.504   3.301  11.455  0.4241 -0.4681 -4.0688
   37TMC2    C7  573   1.498   3.562  11.441 -0.3900  0.3983 -0.8680
   37TMC2    C8  574   1.290   3.139  11.479  0.3909  0.5894 -0.6696
   37TMC2    O1  575   1.484   3.678  11.478  0.1012 -0.2801  0.2487
   37TMC2    O2  576   1.327   3.141  11.596 -0.4745 -0.1839  0.1429
   37TMC2    O5  577   1.187   3.066  11.428 -0.0534 -0.3756 -0.1833
   37TMC2    H5  578   1.186   3.097  11.335 -2.1290  0.6213  0.1789
   38MPD2     C  579   0.655   3.740  11.691 -0.4690 -0.0646  0.3597
   38MPD2    C1  580   0.770   3.782  11.753 -0.1730 -0.1540  0.7031
   38MPD2    C2  581   0.885   3.729  11.695  0.8718 -0.1912 -0.6269
   38MPD2    C3  582   0.879   3.649  11.578  0.4021  0.3602  0.5855
   38MPD2    C4  583   0.758   3.620  11.517  0.2931  0.1809 -0.5741
   38MPD2    C5  584   0.646   3.677  11.569  0.2094 -0.0310  0.0927
   38MPD2     H  585   0.985   3.753  11.728  1.3756 -1.4108 -1.2714
   38MPD2    H1  586   0.755   3.564  11.424 -2.9561  3.6695 -2.5902
   38MPD2    H2  587   0.561   3.786  11.721  0.4906  1.0088  1.7205
   38MPD2    H3  588   0.552   3.662  11.517  0.1738  0.5243 -0.0046
   38MPD2     N  589   1.006   3.606  11.527  0.3028 -0.4731  0.4497
   38MPD2    H5  590   1.091   3.631  11.577 -0.6923  0.8775  1.4708
   38MPD2    N1  591   0.778   3.864  11.870  0.0580  0.5780  0.2821
   38MPD2    H7  592   0.867   3.906  11.895  0.0821  0.0768  1.0467
   39MPD2     C  593   3.795   0.942   1.591  0.0883 -0.3525 -0.3921
   39MPD2    C1  594   3.750   1.071   1.606 -0.3107 -0.7532 -0.0722
   39MPD2    C2  595   3.609   1.092   1.594  0.0710  0.3763 -0.4924
   39MPD2    C3  596   3.522   0.994   1.560 -0.6534  0.5002 -0.7517
   39MPD2    C4  597   3.571   0.869   1.562 -0.5938 -0.0425 -0.1543
   39MPD2    C5  598   3.708   0.837   1.576  0.0318 -0.0602  0.5698
   39MPD2     H  599   3.572   1.194   1.601 -1.5933 -0.0281 -3.1764
   39MPD2    H1  600   3.515   0.782   1.530 -1.6514  0.0822  1.3868
   39MPD2    H2  601   3.901   0.919   1.602 -0.5442 -2.7095  0.7879
   39MPD2    H3  602   3.753   0.738   1.575  0.5365  0.1776 -0.1253
   39MPD2     N  603   3.383   1.005   1.535  0.3435 -0.0631  0.4019
   39MPD2    H5  604   3.334   0.924   1.499  3.3610 -1.7032 -0.0294
   39MPD2    N1  605   3.850   1.173   1.634 -0.8109 -0.7167  0.0832
   39MPD2    H7  606   3.945   1.140   1.638 -0.7631 -0.3915  1.5146
   40TCq2    C1  607   3.826   1.307   1.638  0.8383 -0.2203  0.4242
   40TCq2    O2  608   3.714   1.359   1.637 -0.1838  1.2809 -0.0459
   40TCq2    C2  609   3.947   1.388   1.657 -0.6155 -0.2998 -0.1380
   40TCq2    C3  610   3.932   1.521   1.686  0.1459  0.0625  0.6478
   40TCq2    C4  611   4.044   1.600   1.678  0.0627  0.1386 -0.0552
   40TCq2    C5  612   4.167   1.563   1.622  0.5203  0.3098 -0.2874
   40TCq2    C6  613   4.174   1.428   1.591 -0.6050 -0.5640 -0.1692
   40TCq2    C7  614   4.070   1.343   1.605  0.0688  0.3424 -0.1720
   40TCq2    C8  615   4.301   1.374   1.548 -0.1695  0.3338 -0.9853
   40TCq2    O4  616   4.313   1.253   1.546 -0.1037  1.1634  0.8490
   40TCq2    C9  617   4.040   1.735   1.732 -0.4267 -0.2538  0.1928
   40TCq2    O5  618   4.150   1.799   1.720 -0.2034  0.1677 -0.3697
   40TCq2    O6  619   3.946   1.762   1.813 -0.0242 -0.2362 -0.1914
   40TCq2    H2  620   3.838   1.563   1.722 -0.7382 -1.9393  0.6436
   40TCq2    H3  621   4.248   1.634   1.618 -0.5827  1.6567  0.9512
   40TCq2    H4  622   4.082   1.237   1.587  2.8655  0.3849  1.4463
   41TMC2    C1  623   3.096   4.461  13.410 -0.5211 -0.0832 -1.0516
   41TMC2    C2  624   3.010   4.537  13.481  0.2727 -0.3860 -0.3549
   41TMC2    C3  625   2.956   4.638  13.407 -0.5400 -0.9416  0.2798
   41TMC2    C4  626   3.133   4.481  13.283 -0.6304  0.1679 -0.8958
   41TMC2    C5  627   3.072   4.582  13.211 -0.0572 -0.1316 -0.0231
   41TMC2    C6  628   2.980   4.660  13.274  0.3837  0.4823  0.2713
   41TMC2     C  629   3.098   4.326  13.455 -0.1938  0.5620  0.1599
   41TMC2     O  630   3.103   4.243  13.364  0.5608  0.2979  0.0062
   41TMC2     H  631   2.969   4.525  13.580 -0.2471 -1.8869 -0.7651
   41TMC2    H1  632   3.210   4.422  13.235  0.8737 -0.0759  1.8393
   41TMC2    H2  633   2.928   0.013  13.219  2.7122  1.2803 -0.7651
   41TMC2    C7  634   3.064   4.580  13.071  1.2140  0.0431 -0.8134
   41TMC2    C8  635   2.875   0.004  13.477  0.2299  0.1701 -0.1090
   41TMC2    O1  636   3.013   4.674  13.010 -0.3911 -0.3336  0.0485
   41TMC2    O2  637   2.808   4.703  13.575  0.2467 -0.3798  0.3809
   41TMC2    O5  638   2.894   0.128  13.429  0.3661 -0.4535 -0.0177
   41TMC2    H5  639   2.962   0.134  13.359  0.0465  2.4241 -0.1106
   42MPD2     C  640   2.991   4.088  13.590 -0.6998  0.2704 -0.0799
   42MPD2    C1  641   3.050   4.191  13.655  0.4556 -0.0793 -0.7340
   42MPD2    C2  642   3.071   4.194  13.796  0.0762  0.0611  0.5273
   42MPD2    C3  643   3.024   4.086  13.872 -0.6564  0.0764  0.2703
   42MPD2    C4  644   2.961   3.980  13.805  0.2450 -0.0051  0.5247
   42MPD2    C5  645   2.940   3.986  13.668  0.3844  0.0525 -0.0859
   42MPD2     H  646   3.121   4.280  13.839  0.9240  0.5125 -1.3417
   42MPD2    H1  647   2.916   3.901  13.864  0.6971  1.2907  2.6016
   42MPD2    H2  648   2.984   4.076  13.483 -2.4996  2.9221 -0.2540
   42MPD2    H3  649   2.879   3.912  13.619  0.0411  0.6479 -0.5522
   42MPD2     N  650   3.037   4.075  14.011  0.1279  1.1103 -0.4778
   42MPD2    H5  651   3.020   3.981  14.047 -0.9451  1.4226 -0.1463
   42MPD2    N1  652   3.088   4.307  13.585  0.4956  0.0354  0.1060
   42MPD2    H7  653   3.108   4.387  13.644  1.3135  0.2903 -0.5068
   43MPD2     C  654   4.490   2.468  17.626 -0.2242 -0.1203  0.3024
   43MPD2    C1  655   4.506   2.441   0.054 -0.7872 -0.0989 -0.2451
   43MPD2    C2  656   4.448   2.528   0.149 -0.8206  0.6093 -0.5953
   43MPD2    C3  657   4.379   2.645   0.113  0.3639 -0.3240  0.0030
   43MPD2    C4  658   4.372   2.667  17.680 -1.0066 -0.2740  0.7955
   43MPD2    C5  659   4.421   2.581  17.586 -0.2595  0.5217  0.4935
   43MPD2     H  660   4.465   2.500   0.252 -1.4718 -0.3287 -0.7458
   43MPD2    H1  661   4.318   2.754  17.644 -0.7719 -0.2831  0.4177
   43MPD2    H2  662   4.517   2.398  17.547  1.8577 -0.3093  1.1658
   43MPD2    H3  663   4.388   2.601  17.484  0.2611 -1.4922 -0.0649
   43MPD2     N  664   4.325   2.734   0.207  0.1834 -0.2970  0.0958
   43MPD2    H5  665   4.268   2.810   0.170 -0.4602 -0.1324  1.4532
   43MPD2    N1  666   4.567   2.323   0.103 -0.3694 -1.1715 -0.0671
   43MPD2    H7  667   4.573   2.313   0.204 -1.2049 -0.5688  0.0413
   44TCq2    C1  668   4.252   2.914   0.760  0.0862  0.0707 -0.2193
   44TCq2    O2  669   4.367   2.886   0.797 -0.4712 -0.0801 -0.4780
   44TCq2    C2  670   4.201   2.894   0.623 -0.5946  0.5118  0.1184
   44TCq2    C3  671   4.073   2.930   0.587  0.1438  0.0952  0.5245
   44TCq2    C4  672   4.038   2.900   0.457 -0.1777 -0.0498  0.7927
   44TCq2    C5  673   4.125   2.837   0.371  0.3799 -0.6455 -0.2512
   44TCq2    C6  674   4.244   2.792   0.419 -0.0981  0.5788 -0.5084
   44TCq2    C7  675   4.279   2.810   0.551  0.6483 -0.3440  0.4356
   44TCq2    C8  676   4.339   2.722   0.344 -0.4974  0.4668  0.7517
   44TCq2    O4  677   4.435   2.665   0.402 -0.1502 -0.4639 -0.1833
   44TCq2    C9  678   3.900   2.921   0.409  0.0910  0.0569  0.4508
   44TCq2    O5  679   3.823   2.973   0.492 -0.6551  0.3091 -1.0559
   44TCq2    O6  680   3.862   2.845   0.313 -0.2794 -0.3998  0.4757
   44TCq2    H2  681   4.007   2.995   0.643  0.7317  1.6259 -0.5243
   44TCq2    H3  682   4.096   2.809   0.271  1.1430  1.6762 -1.1235
   44TCq2    H4  683   4.378   2.785   0.586 -0.6842 -2.9362  2.3337
   45TMC2    C1  684   0.028   0.390   9.924 -0.1224 -0.1446 -0.4159
   45TMC2    C2  685   4.679   0.499   9.888 -0.7406  0.9195  0.3583
   45TMC2    C3  686   4.665   0.591   9.987  0.6001 -0.3549 -0.0484
   45TMC2    C4  687   0.084   0.369  10.046  0.7403 -0.0873  0.3433
   45TMC2    C5  688   0.052   0.454  10.146  0.0386  0.6991  0.1571
   45TMC2    C6  689   4.701   0.566  10.122  0.4938  0.5643  0.3532
   45TMC2     C  690   0.060   0.279   9.829  0.6396  0.1577  0.3650
   45TMC2     O  691   0.142   0.194   9.865 -0.5778 -0.5872 -0.7083
   45TMC2     H  692   4.645   0.528   9.789 -0.2179  1.7864  0.4319
   45TMC2    H1  693   0.140   0.280  10.070 -0.4685 -0.6254  1.1804
   45TMC2    H2  694   4.692   0.649  10.192 -2.2465 -1.0217  1.8886
   45TMC2    C7  695   0.081   0.415  10.282 -0.0593  0.1052  0.2581
   45TMC2    C8  696   4.620   0.720   9.944 -0.0517  0.1110 -0.4101
   45TMC2    O1  697   0.127   0.304  10.296  0.1880  0.0372 -0.9730
   45TMC2    O2  698   4.637   0.760   9.832  0.1839  0.5248  0.3175
   45TMC2    O5  699   4.578   0.791  10.051 -0.4366 -0.2615 -0.3231
   45TMC2    H5  700   4.579   0.755  10.143  3.7445  1.7058  0.3997
   46MPD2     C  701   0.068   0.098   9.601 -1.0223  0.5528 -0.2843
   46MPD2    C1  702   4.695   0.184   9.617 -0.1794  0.6935  0.5336
   46MPD2    C2  703   4.585   0.194   9.530 -1.0159  0.3688  0.1056
   46MPD2    C3  704   4.572   0.092   9.429  0.2433  0.0935  0.8245
   46MPD2    C4  705   4.677   0.010   9.408  0.3245  0.2320 -0.1933
   46MPD2    C5  706   0.060   0.017   9.494  1.0374 -0.2505  0.1515
   46MPD2     H  707   4.507   0.268   9.541 -1.8740 -0.1259 -2.6883
   46MPD2    H1  708   4.678   4.660   9.330 -1.3465 -0.5210  0.5034
   46MPD2    H2  709   0.157   0.086   9.661  0.5870  0.9879 -2.5863
   46MPD2    H3  710   0.148   4.682   9.476  0.9579 -0.2917 -0.0919
   46MPD2     N  711   4.444   0.076   9.372  0.4681  0.3094 -0.6345
   46MPD2    H5  712   4.380   0.151   9.397 -0.4428 -0.4800 -0.5821
   46MPD2    N1  713   4.696   0.278   9.722 -0.0029 -0.0680 -0.9605
   46MPD2    H7  714   4.628   0.353   9.727 -0.5005 -0.7729  2.8681
   47TMC2    C1  715   1.237   4.494   9.594  0.0893  0.0732 -0.2347
   47TMC2    C2  716   1.313   4.503   9.480 -0.7599 -0.2698  0.4856
   47TMC2    C3  717   1.241   4.509   9.367 -0.5805  0.6422  0.0973
   47TMC2    C4  718   1.096   4.496   9.594  0.7380 -0.3571  0.5760
   47TMC2    C5  719   1.038   4.526   9.477 -1.2815 -0.1031 -0.8290
   47TMC2    C6  720   1.107   4.519   9.361  0.4563 -0.9931  0.0592
   47TMC2     C  721   1.300   4.469   9.722  0.0335  0.6141  0.2037
   47TMC2     O  722   1.223   4.454   9.817  0.4217  0.3204  1.0481
   47TMC2     H  723   1.420   4.511   9.472 -0.9016  1.2209 -0.1042
   47TMC2    H1  724   1.042   4.530   9.682 -1.9992 -0.8108 -0.9328
   47TMC2    H2  725   1.069   4.551   9.265  3.2403  0.1623 -0.6649
   47TMC2    C7  726   0.972   4.653   9.481 -0.3424  0.0834  0.0845
   47TMC2    C8  727   1.306   4.476   9.243 -0.3106  0.2446  0.2217
   47TMC2    O1  728   1.046   0.026   9.507  0.7507  0.6335 -0.0693
   47TMC2    O2  729   1.237   4.475   9.142  0.5009  0.3397 -0.1291
   47TMC2    O5  730   1.384   4.379   9.273  0.7436 -0.4784 -0.2450
   47TMC2    H5  731   1.460   4.380   9.335 -0.6163  1.0444  1.3939
   48MPD2     C  732   1.490   4.448   9.958  0.0389  0.2663 -0.0879
   48MPD2    C1  733   1.526   4.468   9.824  0.4964 -0.4240  0.3478
   48MPD2    C2  734   1.657   4.491   9.801  0.8992  0.1395 -0.1939
   48MPD2    C3  735   1.757   4.487   9.892 -0.5483  0.2471 -0.2459
   48MPD2    C4  736   1.721   4.480  10.026  1.2210  0.3640  0.0729
   48MPD2    C5  737   1.592   4.455  10.051 -1.1784 -0.5460 -0.0654
   48MPD2     H  738   1.689   4.498   9.698  0.6087  0.5049 -0.2590
   48MPD2    H1  739   1.796   4.494  10.103  2.0772  2.4208 -1.1330
   48MPD2    H2  740   1.386   4.425   9.979  0.9560 -2.2787  1.6175
   48MPD2    H3  741   1.561   4.458  10.155 -0.0583 -0.9656  0.2747
   48MPD2     N  742   1.890   4.513   9.846 -0.1341 -0.0489 -0.6449
   48MPD2    H5  743   1.905   4.541   9.749  1.2118 -1.6278 -0.8935
   48MPD2    N1  744   1.436   4.473   9.715 -0.2575 -0.2137 -0.5305
   48MPD2    H7  745   1.477   4.489   9.623 -1.7022 -0.1269 -1.1616
   49MPD2     C  746   1.798   1.886  10.404 -0.5797  0.4394 -0.2471
   49MPD2    C1  747   1.698   1.975  10.447 -0.0317  0.3276 -0.5549
   49MPD2    C2  748   1.647   1.949  10.571  0.3558  0.0621 -0.1070
   49MPD2    C3  749   1.688   1.848  10.656 -0.0039 -0.2128  0.3602
   49MPD2    C4  750   1.787   1.774  10.618 -0.6032  0.6574  0.2936
   49MPD2    C5  751   1.831   1.790  10.493 -0.6453  0.9820  0.2499
   49MPD2     H  752   1.587   2.031  10.607  1.1178  0.0337  1.2268
   49MPD2    H1  753   1.824   1.693  10.679  0.7038  1.5327  0.6498
   49MPD2    H2  754   1.847   1.890  10.307  2.8715  0.8784  1.4985
   49MPD2    H3  755   1.908   1.723  10.458 -1.6949  0.9652 -2.0326
   49MPD2     N  756   1.633   1.836  10.784 -0.1151 -0.0843 -0.0784
   49MPD2    H5  757   1.676   1.761  10.837 -1.8822 -1.0501 -0.0224
   49MPD2    N1  758   1.646   2.083  10.368 -0.2924  0.4423 -0.2348
   49MPD2    H7  759   1.565   2.130  10.407  0.2022  1.2939 -0.2588
   50TCq2    C1  760   1.678   2.095  10.237  1.0183 -0.1055 -1.1277
   50TCq2    O2  761   1.771   2.047  10.179 -0.6201 -0.6570 -0.1523
   50TCq2    C2  762   1.598   2.190  10.167  0.0654  0.6772  0.4879
   50TCq2    C3  763   1.649   2.230  10.046 -0.1572 -0.2099  0.2511
   50TCq2    C4  764   1.563   2.287   9.952 -0.0333 -0.3361  0.2111
   50TCq2    C5  765   1.425   2.279   9.972 -0.4611  0.8114  0.0986
   50TCq2    C6  766   1.381   2.229  10.096  0.4176 -0.3565 -0.1981
   50TCq2    C7  767   1.461   2.181  10.195 -0.2376  0.2435 -0.1130
   50TCq2    C8  768   1.240   2.227  10.135 -0.0377  0.2257  0.0781
   50TCq2    O4  769   1.206   2.159  10.231  0.0566  0.0028 -0.5755
   50TCq2    C9  770   1.610   2.335   9.820  0.4489  0.0318  0.3759
   50TCq2    O5  771   1.533   2.412   9.758 -0.0883  0.4869  0.1274
   50TCq2    O6  772   1.725   2.297   9.790  0.4828 -0.2066 -0.2055
   50TCq2    H2  773   1.755   2.222  10.022 -0.0464  1.0714  0.2976
   50TCq2    H3  774   1.356   2.308   9.894  1.3607 -0.6918 -2.0798
   50TCq2    H4  775   1.424   2.138  10.287 -1.9892 -0.8033 -1.3039
   51MPD2     C  776   2.101   0.324   1.324 -0.5157  0.2842 -0.9076
   51MPD2    C1  777   1.993   0.328   1.232  0.5297 -1.0757 -0.8998
   51MPD2    C2  778   1.873   0.381   1.264 -0.7291 -0.2549  0.7669
   51MPD2    C3  779   1.870   0.463   1.372  0.0122  0.4503  0.7758
   51MPD2    C4  780   1.984   0.493   1.443  0.7679 -0.0504 -0.4023
   51MPD2    C5  781   2.092   0.406   1.433 -0.0941 -0.5989 -0.6855
   51MPD2     H  782   1.794   0.391   1.191 -1.4752 -0.1015  1.5907
   51MPD2    H1  783   1.993   0.576   1.513  3.9355  0.5740 -1.5658
   51MPD2    H2  784   2.195   0.273   1.304  0.5390  1.7240  0.4133
   51MPD2    H3  785   2.175   0.425   1.499 -0.1487 -2.4355 -0.0690
   51MPD2     N  786   1.759   0.542   1.415  0.0866  0.7505  0.0361
   51MPD2    H5  787   1.779   0.618   1.480  0.7080  0.7621 -0.1759
   51MPD2    N1  788   1.993   0.253   1.117  0.0355  0.0303  0.4237
   51MPD2    H7  789   1.907   0.233   1.067 -0.2456 -4.1178  2.4964
   52TCq2    C1  790   1.629   0.514   1.378  0.0212 -0.3185 -0.0777
   52TCq2    O2  791   1.583   0.418   1.318  0.1475 -0.1200  0.0992
   52TCq2    C2  792   1.533   0.602   1.425 -0.0025  0.2999  0.1665
   52TCq2    C3  793   1.405   0.563   1.439  0.2292  0.1242 -0.3844
   52TCq2    C4  794   1.304   0.656   1.474 -0.3107  1.3666  0.8262
   52TCq2    C5  795   1.336   0.789   1.493 -0.1008 -0.4419  0.2003
   52TCq2    C6  796   1.460   0.825   1.479 -0.2776  0.0782  0.2692
   52TCq2    C7  797   1.563   0.740   1.439 -0.3900 -0.0436  0.2800
   52TCq2    C8  798   1.488   0.957   1.528 -0.0276 -0.1879 -0.2765
   52TCq2    O4  799   1.401   1.038   1.545  0.2880  0.2475 -0.7194
   52TCq2    C9  800   1.165   0.619   1.478  0.4989  0.0020 -0.5425
   52TCq2    O5  801   1.087   0.699   1.540 -0.0257 -0.4141  0.2315
   52TCq2    O6  802   1.137   0.500   1.446 -0.1122  0.2547  0.0021
   52TCq2    H2  803   1.375   0.459   1.427 -0.4534  0.4952 -1.9811
   52TCq2    H3  804   1.256   0.855   1.525 -1.3816 -1.0868 -1.6523
   52TCq2    H4  805   1.659   0.781   1.409 -0.5066 -0.4797 -0.7115
   53TMC2    C1  806   2.100   3.984  11.493 -0.1400  0.0568 -0.1285
   53TMC2    C2  807   2.228   4.002  11.538  0.7453 -0.0026 -0.5385
   53TMC2    C3  808   2.237   4.110  11.625 -0.6100  0.0842  0.1951
   53TMC2    C4  809   1.999   4.071  11.508  0.5168  0.1559 -0.5126
   53TMC2    C5  810   2.012   4.179  11.589  0.3051  0.8225 -0.1141
   53TMC2    C6  811   2.134   4.202  11.639 -0.5435 -0.6255 -0.5679
   53TMC2     C  812   2.085   3.852  11.423  0.4050  0.3699 -0.3653
   53TMC2     O  813   2.182   3.797  11.367 -0.3784 -0.5883 -0.3587
   53TMC2     H  814   2.313   3.938  11.518  1.2237  1.0194 -1.7625
   53TMC2    H1  815   1.902   4.047  11.466 -0.8083 -0.5049  2.9538
   53TMC2    H2  816   2.141   4.272  11.722  2.9536 -0.1860 -1.2386
   53TMC2    C7  817   1.900   4.262  11.624 -0.0212 -0.4631 -0.4675
   53TMC2    C8  818   2.375   4.152  11.649 -0.5367  0.6351 -0.4707
   53TMC2    O1  819   1.786   4.222  11.605  0.2602  0.4354 -0.1255
   53TMC2    O2  820   2.458   4.167  11.560  0.4624 -0.9913 -0.2039
   53TMC2    O5  821   2.372   4.204  11.777 -0.1247  0.1585  0.2581
   53TMC2    H5  822   2.301   4.173  11.837  1.1691 -3.4260 -0.0663
   54MPD2     C  823   1.962   3.647  11.256  0.2850 -0.0132  0.4956
   54MPD2    C1  824   1.890   3.713  11.351 -0.6085 -0.3068  0.1869
   54MPD2    C2  825   1.766   3.673  11.384 -0.3688  0.3932  0.3587
   54MPD2    C3  826   1.711   3.561  11.322  0.3332 -0.0617 -0.5665
   54MPD2    C4  827   1.788   3.489  11.225  0.2753 -0.2759  0.0113
   54MPD2    C5  828   1.912   3.535  11.197  0.9386 -0.8088 -0.0308
   54MPD2     H  829   1.722   3.726  11.468 -0.2402 -1.7921  1.8249
   54MPD2    H1  830   1.748   3.402  11.174  0.9878 -0.5614 -0.0747
   54MPD2    H2  831   2.065   3.669  11.232  0.7549 -2.6991  0.0039
   54MPD2    H3  832   1.964   3.474  11.124 -1.5554 -2.9153 -0.0656
   54MPD2     N  833   1.584   3.510  11.351  0.3366 -0.5019 -0.1374
   54MPD2    H5  834   1.558   3.426  11.302  0.3228 -1.8424  2.1647
   54MPD2    N1  835   1.950   3.816  11.421 -0.0772  0.6502 -0.3352
   54MPD2    H7  836   1.884   3.868  11.478  0.3460  0.9162 -0.0901
   55MPD2     C  837   2.138   1.879  17.669 -0.4187  0.4859 -0.3767
   55MPD2    C1  838   2.056   1.800   0.042 -0.3525 -0.2431  0.7363
   55MPD2    C2  839   1.948   1.854   0.113 -0.4392  0.6784 -0.7684
   55MPD2    C3  840   1.923   1.991   0.101  0.0813  1.0248 -0.5198
   55MPD2    C4  841   2.005   2.073   0.024  0.3073  0.1979  0.2156
   55MPD2    C5  842   2.116   2.014  17.663 -0.2728 -0.1118 -0.1272
   55MPD2     H  843   1.887   1.794   0.180  0.9012  0.0507 -0.0842
   55MPD2    H1  844   1.988   2.179   0.010 -0.2564  0.0953  0.1262
   55MPD2    H2  845   2.203   1.834  17.595 -0.6850 -0.4074 -0.0623
   55MPD2    H3  846   2.181   2.067  17.595 -1.8120  1.2465 -0.5250
   55MPD2     N  847   1.801   2.036   0.165 -0.4192 -0.5376 -0.0071
   55MPD2    H5  848   1.736   1.968   0.204  1.2752 -2.5392 -0.6677
   55MPD2    N1  849   2.091   1.667   0.039 -0.2513  0.8332  0.0598
   55MPD2    H7  850   2.177   1.648  17.691  0.3793 -1.3410  1.9536
   56TCq2    C1  851   2.038   1.572   0.122  0.2215  0.5798 -0.0143
   56TCq2    O2  852   1.934   1.565   0.189  0.9494  0.1321  0.1703
   56TCq2    C2  853   2.132   1.462   0.138 -0.7838  0.0573 -0.0844
   56TCq2    C3  854   2.213   1.433   0.027  0.5961 -0.0711 -0.6907
   56TCq2    C4  855   2.338   1.386   0.054 -0.2787 -0.1510 -0.3323
   56TCq2    C5  856   2.379   1.364   0.186  0.0748  0.1043  0.5571
   56TCq2    C6  857   2.288   1.383   0.295 -0.9825 -0.1920 -0.4687
   56TCq2    C7  858   2.165   1.440   0.272 -0.3601  0.2604  0.0016
   56TCq2    C8  859   2.339   1.376   0.435  0.1002 -0.0010 -0.2567
   56TCq2    O4  860   2.459   1.364   0.451 -0.1007  0.9149 -0.0783
   56TCq2    C9  861   2.440   1.361  17.653 -0.3682  0.2559 -0.3489
   56TCq2    O5  862   2.433   1.417  17.544  0.0144  0.0127 -0.0455
   56TCq2    O6  863   2.541   1.292  17.691 -0.1481  0.1587 -0.1562
   56TCq2    H2  864   2.186   1.441  17.625  1.3043  1.5189 -0.7448
   56TCq2    H3  865   2.478   1.327   0.211  0.6921  0.8052 -0.9033
   56TCq2    H4  866   2.100   1.484   0.347 -0.5607  0.1281 -0.0942
   57TMC2    C1  867   1.658   2.806  13.381  0.7660  0.3145 -0.2807
   57TMC2    C2  868   1.785   2.828  13.415 -0.4588  0.8593 -0.6022
   57TMC2    C3  869   1.879   2.774  13.335  0.3326 -0.1276  0.2946
   57TMC2    C4  870   1.614   2.742  13.274 -0.0465  0.3000 -0.3103
   57TMC2    C5  871   1.710   2.689  13.192  0.4170 -0.3030 -0.1593
   57TMC2    C6  872   1.845   2.698  13.224 -0.1712  0.1024  0.2608
   57TMC2     C  873   1.564   2.857  13.479  0.0302  0.2281  0.1377
   57TMC2     O  874   1.611   2.877  13.591  0.5688 -0.0146 -0.0992
   57TMC2     H  875   1.806   2.879  13.508 -2.3006 -0.5584  0.5987
   57TMC2    H1  876   1.511   2.709  13.262  0.4175  0.2488 -4.2707
   57TMC2    H2  877   1.933   2.658  13.175 -0.1615  1.7773 -1.0544
   57TMC2    C7  878   1.674   2.631  13.065  0.0409 -0.1508  0.1812
   57TMC2    C8  879   2.009   2.749  13.396  0.3813 -0.8841  0.1533
   57TMC2    O1  880   1.561   2.646  13.019  0.5307 -0.5293 -0.2140
   57TMC2    O2  881   2.079   2.649  13.383 -0.3796 -0.1817  0.4553
   57TMC2    O5  882   2.050   2.850  13.476  0.3821 -0.0979  0.3802
   57TMC2    H5  883   1.997   2.930  13.460 -0.2962 -0.8377 -1.0473
   58MPD2     C  884   1.103   3.074  13.573  0.2586 -0.2654  0.5219
   58MPD2    C1  885   1.210   3.049  13.656 -0.1916  0.3990 -0.2404
   58MPD2    C2  886   1.326   2.996  13.604 -0.0397  0.2666 -0.1070
   58MPD2    C3  887   1.337   2.955  13.474  0.5593 -0.0886  0.9084
   58MPD2    C4  888   1.228   2.961  13.399 -0.3423  0.2635 -0.0440
   58MPD2    C5  889   1.115   3.030  13.442  0.1036  0.9857  0.1621
   58MPD2     H  890   1.411   2.973  13.667 -0.4979 -0.0406  0.3956
   58MPD2    H1  891   1.232   2.922  13.298 -0.5462  1.4477 -0.5184
   58MPD2    H2  892   1.010   3.125  13.594  0.4769 -0.5289  2.1543
   58MPD2    H3  893   1.030   3.039  13.374 -1.3760  2.9910  2.2933
   58MPD2     N  894   1.444   2.886  13.419  1.0610  0.1718  0.0283
   58MPD2    H5  895   1.437   2.872  13.319 -1.2662 -1.0300  0.3492
   58MPD2    N1  896   1.204   3.094  13.791  0.0391  0.7570 -0.1847
   58MPD2    H7  897   1.290   3.096  13.845 -0.4777 -0.6991  0.6766
   59MPD2     C  898   4.190   3.441  13.194  0.2834 -0.3214  0.9841
   59MPD2    C1  899   4.304   3.387  13.143 -0.3881  0.1981 -0.9169
   59MPD2    C2  900   4.428   3.434  13.183 -0.4014  1.0087 -0.1521
   59MPD2    C3  901   4.442   3.537  13.271 -0.4496 -0.4987  0.7463
   59MPD2    C4  902   4.324   3.589  13.317  0.3014  0.3841  0.4023
   59MPD2    C5  903   4.199   3.543  13.285 -0.2627 -0.3148  0.5562
   59MPD2     H  904   4.510   3.385  13.133 -0.3285  0.0360  0.9357
   59MPD2    H1  905   4.313   3.670  13.388  0.6293  0.3020  0.5461
   59MPD2    H2  906   4.091   3.405  13.172  0.9904  0.3476 -3.1642
   59MPD2    H3  907   4.108   3.575  13.335 -1.2452 -0.5280 -1.0949
   59MPD2     N  908   4.558   3.598  13.312 -0.3332  0.2266 -0.0741
   59MPD2    H5  909   4.555   3.690  13.355  0.0502 -0.2513  1.0029
   59MPD2    N1  910   4.308   3.272  13.062  0.5556  0.0207  0.0754
   59MPD2    H7  911   4.391   3.249  13.008  2.2571  1.8399  1.9776
   60TCq2    C1  912   4.198   3.191  13.035 -0.3211 -0.2204  0.2823
   60TCq2    O2  913   4.095   3.174  13.103 -0.3059 -1.1081 -0.7306
   60TCq2    C2  914   4.201   3.115  12.906  0.2695 -0.1519 -0.1597
   60TCq2    C3  915   4.133   2.992  12.894 -0.1208  0.0662  0.0416
   60TCq2    C4  916   4.171   2.898  12.801  0.0047  0.8746 -0.0325
   60TCq2    C5  917   4.281   2.921  12.720 -1.0458 -0.1143 -0.4459
   60TCq2    C6  918   4.329   3.050  12.733  0.0147 -0.1262  0.3093
   60TCq2    C7  919   4.291   3.150  12.816 -0.0704 -0.3075 -0.5789
   60TCq2    C8  920   4.381   3.098  12.602  0.2362 -0.3352  1.2149
   60TCq2    O4  921   4.454   3.015  12.544 -0.0193 -0.2723  0.5187
   60TCq2    C9  922   4.118   2.767  12.798 -0.1663  0.2629  0.2249
   60TCq2    O5  923   4.158   2.695  12.700 -0.2598  0.3748 -0.0953
   60TCq2    O6  924   4.027   2.740  12.885  0.1629 -0.1922  0.1710
   60TCq2    H2  925   4.058   2.966  12.969  0.4859  0.6319  0.8511
   60TCq2    H3  926   4.326   2.844  12.658 -0.9345 -1.2081  0.9975
   60TCq2    H4  927   4.356   3.236  12.825  0.8698 -1.0739 -0.0098
   61MPD2     C  928   3.565   4.248  14.533 -0.2055  0.4343 -0.2754
   61MPD2    C1  929   3.549   4.333  14.643  0.1378 -0.3874 -0.6847
   61MPD2    C2  930   3.618   4.453  14.647  0.0849  0.0153  0.1457
   61MPD2    C3  931   3.679   4.504  14.529 -0.6643  0.3958  0.3830
   61MPD2    C4  932   3.684   4.421  14.417 -0.0036  0.3108 -0.4931
   61MPD2    C5  933   3.629   4.291  14.418 -0.8044 -0.1896 -0.6841
   61MPD2     H  934   3.604   4.520  14.731 -0.7581  1.5091 -1.1603
   61MPD2    H1  935   3.714   4.456  14.319  1.0384  0.3627 -0.1523
   61MPD2    H2  936   3.514   4.152  14.527  0.8410 -0.2564  2.1318
   61MPD2    H3  937   3.641   4.233  14.328  0.4399 -1.6459  0.4176
   61MPD2     N  938   3.727   4.634  14.540  0.2740 -0.3328  0.0781
   61MPD2    H5  939   3.726   4.672  14.634 -1.9569 -0.9745  0.3176
   61MPD2    N1  940   3.461   4.294  14.746  0.1066 -0.2874  0.1575
   61MPD2    H7  941   3.450   4.361  14.822  1.3722  0.1795 -0.0787
   62TCq2    C1  942   3.396   4.173  14.762 -0.2653  0.6103 -0.4157
   62TCq2    O2  943   3.406   4.061  14.709 -0.5802  0.4284  0.3780
   62TCq2    C2  944   3.311   4.175  14.876  0.6731 -0.2407 -0.8433
   62TCq2    C3  945   3.308   4.061  14.953 -0.7374  0.0487  0.0976
   62TCq2    C4  946   3.249   4.066  15.076  0.1021 -0.4563  0.0487
   62TCq2    C5  947   3.198   4.175  15.133 -0.1428 -0.0290  0.3413
   62TCq2    C6  948   3.204   4.291  15.049 -0.5812  0.0763 -0.6682
   62TCq2    C7  949   3.249   4.288  14.917 -0.0514  0.5877 -0.7374
   62TCq2    C8  950   3.181   4.419  15.106 -0.0215  0.2916  0.7220
   62TCq2    O4  951   3.161   4.511  15.029  0.2154  0.6808  0.3088
   62TCq2    C9  952   3.245   3.944  15.161 -0.4277 -0.2086 -0.3527
   62TCq2    O5  953   3.217   3.947  15.288 -0.6707  0.5652  0.5934
   62TCq2    O6  954   3.236   3.838  15.090 -0.3571  0.0791  0.2318
   62TCq2    H2  955   3.351   3.966  14.924 -1.4461  0.6649 -2.9544
   62TCq2    H3  956   3.167   4.179  15.237  0.7683  2.1528  0.5354
   62TCq2    H4  957   3.245   4.377  14.856  1.3399  1.1342 -0.0196
   63TMC2    C1  958   2.667   4.682  10.930  0.4224  0.3083  0.1342
   63TMC2    C2  959   2.781   4.669  11.002  0.2935 -0.3495  0.0621
   63TMC2    C3  960   2.906   4.677  10.935 -0.3153  0.0622 -1.5100
   63TMC2    C4  961   2.683   4.701  10.792  0.3039 -0.3521  1.1481
   63TMC2    C5  962   2.806   4.692  10.736 -0.3885 -0.5065 -0.1475
   63TMC2    C6  963   2.925   4.681  10.803  0.0299  0.0986 -0.1246
   63TMC2     C  964   2.570   4.592  10.979  0.2210 -0.1327 -0.7948
   63TMC2     O  965   2.592   4.501  11.061  0.0352  0.2450 -1.2577
   63TMC2     H  966   2.767   4.649  11.108  0.6345  1.6361  0.4875
   63TMC2    H1  967   2.594   4.682  10.733  0.9729  0.3998 -0.0895
   63TMC2    H2  968   3.024   4.681  10.758  0.0933 -0.9913  0.0206
   63TMC2    C7  969   2.800   4.713  10.594 -0.2060 -0.6114 -0.3592
   63TMC2    C8  970   3.024   4.630  11.015 -0.2222  0.3530 -0.5649
   63TMC2    O1  971   2.703   0.026  10.531 -0.2669  0.7776 -0.2056
   63TMC2    O2  972   3.060   4.513  11.006  0.1136 -0.2277  0.4062
   63TMC2    O5  973   3.094   0.019  11.015 -0.0232  0.1944  0.2367
   63TMC2    H5  974   3.039   0.100  11.002  1.2808  1.0942  0.3145
   64MPD2     C  975   2.151   4.337  10.861  0.4741 -0.1101 -0.4026
   64MPD2    C1  976   2.279   4.290  10.881 -0.2046  0.4828  0.1072
   64MPD2    C2  977   2.374   4.385  10.922 -0.1624  0.0047  0.0060
   64MPD2    C3  978   2.348   4.525  10.917 -0.3111 -0.6548 -0.0744
   64MPD2    C4  979   2.216   4.565  10.900  0.0379 -0.5423 -0.5705
   64MPD2    C5  980   2.120   4.469  10.875 -0.3565  0.1274  0.2576
   64MPD2     H  981   2.473   4.352  10.949 -0.6975  0.0485  2.0319
   64MPD2    H1  982   2.182   4.668  10.904  0.4500 -0.4593  0.8100
   64MPD2    H2  983   2.078   4.261  10.834  0.6049  0.4757 -2.4515
   64MPD2    H3  984   2.016   4.497  10.863 -0.2155  0.3114 -0.5077
   64MPD2     N  985   2.450   4.622  10.928 -0.8477 -0.3869  0.0399
   64MPD2    H5  986   2.429   4.713  10.888  0.4975 -1.3867 -2.9235
   64MPD2    N1  987   2.324   4.161  10.861  0.0209 -0.2801 -0.5166
   64MPD2    H7  988   2.424   4.152  10.877 -0.1117  0.3821  0.7060
   65MPD2     C  989   3.872   3.935  15.411  0.5334 -0.3646  0.2210
   65MPD2    C1  990   3.935   3.963  15.293  0.5125 -0.7979  0.3660
   65MPD2    C2  991   3.965   3.861  15.207  0.2369  0.3944 -0.1570
   65MPD2    C3  992   3.946   3.724  15.237 -0.0691 -0.2941  0.2511
   65MPD2    C4  993   3.890   3.700  15.360 -0.4054 -0.0525  0.5169
   65MPD2    C5  994   3.856   3.799  15.447  1.1579  0.2946 -0.1933
   65MPD2     H  995   4.004   3.889  15.109 -1.3515 -1.5603 -1.3484
   65MPD2    H1  996   3.857   3.598  15.372 -0.1525 -0.2377 -0.3080
   65MPD2    H2  997   3.849   4.012  15.483 -2.4361 -0.3977 -0.6826
   65MPD2    H3  998   3.822   3.779  15.548 -3.7878  0.8071 -1.7412
   65MPD2     N  999   3.969   3.616  15.153  0.2220  0.1234  0.4436
   65MPD2    H5 1000   3.934   3.526  15.186 -0.6951  0.7522  1.1699
   65MPD2    N1 1001   3.954   4.094  15.245 -0.2096 -0.1649 -0.5284
   65MPD2    H7 1002   4.021   4.102  15.168 -0.5555 -0.4640 -0.8594
   66TCq2    C1 1003   3.906   4.209  15.293 -0.4394 -0.3871 -0.5775
   66TCq2    O2 1004   3.820   4.216  15.382  0.2279 -0.1372  0.0849
   66TCq2    C2 1005   3.943   4.330  15.226  0.9212 -0.4021 -0.9923
   66TCq2    C3 1006   4.036   4.329  15.127  0.0886 -0.1726 -0.1607
   66TCq2    C4 1007   4.077   4.447  15.073  0.3558  0.2279  0.4043
   66TCq2    C5 1008   4.015   4.568  15.102  0.5427 -0.2224  0.2186
   66TCq2    C6 1009   3.919   4.572  15.198  0.1159 -0.1276 -1.0329
   66TCq2    C7 1010   3.875   4.446  15.263  0.7927  0.3822 -0.0807
   66TCq2    C8 1011   3.874   4.693  15.259  0.2988  0.0886  0.0310
   66TCq2    O4 1012   3.882   0.068  15.187 -0.0817  0.8622  0.4313
   66TCq2    C9 1013   4.194   4.459  14.983  0.0812 -0.8939 -0.2582
   66TCq2    O5 1014   4.215   4.570  14.923  0.2917 -0.0473  0.3536
   66TCq2    O6 1015   4.254   4.349  14.963  1.2851  0.3883 -0.1779
   66TCq2    H2 1016   4.095   4.243  15.099  0.5283  0.9316 -2.5993
   66TCq2    H3 1017   4.059   4.662  15.072 -0.6359  0.2485 -0.0449
   66TCq2    H4 1018   3.787   4.433  15.325  1.1584  1.8781  0.7776
   67MPD2     C 1019   4.317   3.632  14.042  0.2518 -0.1135 -0.0181
   67MPD2    C1 1020   4.240   3.698  14.134  0.0488 -0.7141  0.0430
   67MPD2    C2 1021   4.109   3.668  14.143 -0.4138  0.7742 -0.1625
   67MPD2    C3 1022   4.045   3.579  14.057  0.3897  0.5392  0.7785
   67MPD2    C4 1023   4.121   3.516  13.959 -0.2733  0.8436  0.0834
   67MPD2    C5 1024   4.252   3.552  13.951 -0.1699  0.2310 -0.7232
   67MPD2     H 1025   4.060   3.716  14.227 -0.4489 -0.8962  0.7583
   67MPD2    H1 1026   4.075   3.447  13.890 -2.6346  1.1072  1.3741
   67MPD2    H2 1027   4.425   3.642  14.036  0.2638 -0.5696 -0.5183
   67MPD2    H3 1028   4.313   3.517  13.868 -0.6729  0.9935 -1.4095
   67MPD2     N 1029   3.909   3.545  14.066 -0.0432  0.6552 -0.6347
   67MPD2    H5 1030   3.885   3.467  14.005  1.5581 -1.7163  1.7340
   67MPD2    N1 1031   4.304   3.785  14.221  1.0656  0.2754 -0.2330
   67MPD2    H7 1032   4.257   3.861  14.269  1.5565 -0.0086  0.6941
   68TCq2    C1 1033   4.438   3.772  14.261 -0.1855  0.5990  0.6529
   68TCq2    O2 1034   4.516   3.682  14.239  0.0553  0.2933  0.4074
   68TCq2    C2 1035   4.483   3.876  14.356 -0.6278  0.4774  0.2092
   68TCq2    C3 1036   4.431   4.003  14.347 -0.0143 -0.4460  0.5303
   68TCq2    C4 1037   4.463   4.091  14.444 -0.2823 -0.4684  0.0525
   68TCq2    C5 1038   4.551   4.066  14.544  0.1387 -0.7092 -0.4987
   68TCq2    C6 1039   4.604   3.936  14.548 -0.6479 -0.4550 -0.1906
   68TCq2    C7 1040   4.569   3.842  14.449  0.7167 -0.4395  0.4787
   68TCq2    C8 1041   4.702   3.902  14.656  0.2759  0.1112  0.3156
   68TCq2    O4 1042   0.050   3.809  14.640  0.4109  0.2909 -0.3054
   68TCq2    C9 1043   4.396   4.220  14.454 -0.3369  0.6037 -0.6701
   68TCq2    O5 1044   4.341   4.273  14.359  0.3199 -0.8875 -0.4400
   68TCq2    O6 1045   4.354   4.242  14.574  0.1146 -0.1521 -0.1344
   68TCq2    H2 1046   4.354   4.035  14.278 -1.2310 -2.1336  1.1250
   68TCq2    H3 1047   4.582   4.146  14.610 -0.8365  0.2927 -1.2718
   68TCq2    H4 1048   4.610   3.742  14.449  0.4284 -0.5636 -1.5737
   69TMC2    C1 1049   1.653   0.074  12.461 -0.4915 -0.5408  0.5052
   69TMC2    C2 1050   1.603   0.193  12.497  0.4165 -0.2622  0.1032
   69TMC2    C3 1051   1.636   0.301  12.425  0.4554  0.2917  0.0173
   69TMC2    C4 1052   1.729   0.063  12.352 -0.4461  0.1851 -0.3212
   69TMC2    C5 1053   1.765   0.173  12.283  0.3509  0.4290 -0.1279
   69TMC2    C6 1054   1.718   0.300  12.315 -0.2589  0.4178 -0.1157
   69TMC2     C 1055   1.610   4.673  12.525 -0.6017  0.6195  0.2269
   69TMC2     O 1056   1.690   4.580  12.508  0.3014  0.0070 -0.1710
   69TMC2     H 1057   1.549   0.198  12.591  0.4472 -2.0136  0.2088
   69TMC2    H1 1058   1.787   4.698  12.335 -0.8144 -0.1329  0.1332
   69TMC2    H2 1059   1.767   0.389  12.279  0.7018  0.1078  0.4198
   69TMC2    C7 1060   1.874   0.166  12.195 -0.1654 -0.3498 -0.9261
   69TMC2    C8 1061   1.606   0.425  12.488  0.0457  0.3518 -0.4397
   69TMC2    O1 1062   1.953   0.076  12.194  0.2215  0.5259 -0.4714
   69TMC2    O2 1063   1.620   0.426  12.609  0.7330 -0.0048  0.2570
   69TMC2    O5 1064   1.627   0.521  12.393 -0.2060  0.3230  0.5181
   69TMC2    H5 1065   1.612   0.473  12.309 -0.6918  0.7213  0.3783
   70MPD2     C 1066   1.339   4.639  12.774 -0.2100  0.4168 -0.0592
   70MPD2    C1 1067   1.446   4.601  12.707 -0.7734 -0.8332  0.1697
   70MPD2    C2 1068   1.506   4.479  12.738  0.0133  0.6591 -0.4917
   70MPD2    C3 1069   1.461   4.402  12.846  0.0297  0.5584 -0.0203
   70MPD2    C4 1070   1.337   4.436  12.901 -0.0405 -0.5668  0.4449
   70MPD2    C5 1071   1.272   4.553  12.862  0.0474  0.5078  0.0888
   70MPD2     H 1072   1.598   4.451  12.688  0.0479  0.7974 -0.5058
   70MPD2    H1 1073   1.297   4.370  12.977  0.6273  0.7052  1.8833
   70MPD2    H2 1074   1.284   0.004  12.750  0.1920  0.4562 -0.8256
   70MPD2    H3 1075   1.177   4.579  12.908  0.1592 -1.6133  1.5320
   70MPD2     N 1076   1.532   4.290  12.901  0.3976  0.0177  0.2422
   70MPD2    H5 1077   1.491   4.248  12.984  1.8101 -2.2214 -0.2060
   70MPD2    N1 1078   1.496   4.693  12.610 -0.8042 -0.0450  0.3171
   70MPD2    H7 1079   1.438   0.049  12.590 -1.0315 -0.3274 -0.1649
   71TMC2    C1 1080   2.910   0.922   1.782 -0.2525 -0.3616 -1.5952
   71TMC2    C2 1081   3.019   0.920   1.866  0.8413  0.1952 -1.1554
   71TMC2    C3 1082   3.011   1.009   1.971  1.1138 -0.2161  0.1627
   71TMC2    C4 1083   2.804   1.002   1.785 -0.9350 -0.0238 -0.1597
   71TMC2    C5 1084   2.798   1.089   1.890  0.0287  0.2045  0.8280
   71TMC2    C6 1085   2.901   1.098   1.979 -0.3940  0.0576 -1.2565
   71TMC2     C 1086   2.928   0.837   1.661 -0.3055 -0.4862 -0.0297
   71TMC2     O 1087   3.042   0.805   1.638 -0.1138 -0.0039  0.2450
   71TMC2     H 1088   3.103   0.854   1.846 -0.7275 -2.0266 -0.4902
   71TMC2    H1 1089   2.730   0.997   1.706  1.3300 -2.0127 -2.1457
   71TMC2    H2 1090   2.892   1.176   2.054  1.2930 -1.1945  0.2486
   71TMC2    C7 1091   2.671   1.170   1.906  0.0234 -0.1875  0.5529
   71TMC2    C8 1092   3.142   1.047   2.026 -0.4330  0.7115 -0.7769
   71TMC2    O1 1093   2.673   1.281   1.960 -0.0207  1.1178 -0.1402
   71TMC2    O2 1094   3.173   1.163   2.031 -0.4160  0.1047  0.0154
   71TMC2    O5 1095   3.235   0.945   2.006 -0.2418  0.4573  0.6868
   71TMC2    H5 1096   3.183   0.862   2.008  1.5942 -0.6785  1.4588
   72MPD2     C 1097   2.753   0.565   1.258 -0.3556  0.4212  0.5299
   72MPD2    C1 1098   2.880   0.605   1.292  0.4168  0.2313 -0.3845
   72MPD2    C2 1099   2.907   0.679   1.407 -0.1749 -0.6491 -0.1593
   72MPD2    C3 1100   2.804   0.707   1.493 -0.0758  0.3823 -0.3652
   72MPD2    C4 1101   2.682   0.655   1.469  0.8220 -0.2904 -0.3395
   72MPD2    C5 1102   2.654   0.596   1.351 -0.5776  0.0475 -0.4549
   72MPD2     H 1103   3.008   0.717   1.416 -0.8021  0.9136  0.2297
   72MPD2    H1 1104   2.599   0.668   1.537  2.6898  0.7615  1.7133
   72MPD2    H2 1105   2.738   0.504   1.170  0.2964  1.1322 -0.0775
   72MPD2    H3 1106   2.550   0.584   1.320 -0.6990 -2.8050  1.0556
   72MPD2     N 1107   2.811   0.784   1.612 -0.2008 -0.0590 -0.2624
   72MPD2    H5 1108   2.728   0.796   1.669 -0.3621  0.4950 -0.6045
   72MPD2    N1 1109   2.993   0.589   1.208 -0.5935 -0.3361  0.2836
   72MPD2    H7 1110   3.084   0.611   1.247  1.4471 -1.6814 -3.6983
   73TMC2    C1 1111   3.478   2.329  14.240 -0.5355 -0.2460  0.3015
   73TMC2    C2 1112   3.420   2.439  14.304  0.3520  0.1837  0.4964
   73TMC2    C3 1113   3.463   2.466  14.429  0.9567  0.4603  0.2483
   73TMC2    C4 1114   3.581   2.265  14.299  0.0986  0.5372  0.1002
   73TMC2    C5 1115   3.633   2.303  14.420  1.1953 -0.0929 -0.5187
   73TMC2    C6 1116   3.559   2.400  14.494  0.2787  0.5123 -0.0635
   73TMC2     C 1117   3.497   2.347  14.101  0.1696  0.1486 -0.3023
   73TMC2     O 1118   3.617   2.341  14.066 -0.1451  0.0866 -0.1717
   73TMC2     H 1119   3.331   2.490  14.268 -0.2413  0.3574  2.2007
   73TMC2    H1 1120   3.625   2.185  14.240 -0.5537  0.9256 -0.9021
   73TMC2    H2 1121   3.593   2.450  14.584 -3.7854  0.8855  1.2966
   73TMC2    C7 1122   3.775   2.328  14.420  0.3284  0.5853 -0.3731
   73TMC2    C8 1123   3.402   2.585  14.484 -0.0447  0.0933  0.1466
   73TMC2    O1 1124   3.857   2.294  14.506 -0.3540 -0.4072  0.0581
   73TMC2    O2 1125   3.363   2.677  14.419 -0.2369 -0.3665  0.3050
   73TMC2    O5 1126   3.353   2.555  14.607  0.0022 -0.2077 -0.3430
   73TMC2    H5 1127   3.364   2.460  14.628  0.0056 -0.1155  0.0573
   74MPD2     C 1128   3.386   2.459  13.621  0.8046  0.0765  0.0137
   74MPD2    C1 1129   3.494   2.492  13.695 -0.5454  0.2340 -0.0180
   74MPD2    C2 1130   3.500   2.452  13.830 -0.3965 -0.8834 -0.5215
   74MPD2    C3 1131   3.404   2.374  13.886 -0.6608  0.6305  0.0464
   74MPD2    C4 1132   3.297   2.347  13.802  0.2009  0.4466  0.6945
   74MPD2    C5 1133   3.287   2.384  13.671 -0.1613 -0.1225 -0.1705
   74MPD2     H 1134   3.586   2.481  13.890 -1.6174  2.4052 -0.3705
   74MPD2    H1 1135   3.223   2.282  13.847  0.2115 -0.4126 -0.5388
   74MPD2    H2 1136   3.382   2.489  13.517 -0.7296 -1.2495 -0.3128
   74MPD2    H3 1137   3.193   2.366  13.620 -0.7474  1.2271  0.4428
   74MPD2     N 1138   3.387   2.343  14.022 -0.2842 -0.3690  0.1955
   74MPD2    H5 1139   3.295   2.332  14.064  1.2895 -0.5865  3.5429
   74MPD2    N1 1140   3.592   2.571  13.638 -0.0073 -0.3097  0.2212
   74MPD2    H7 1141   3.598   2.591  13.539  0.4802  0.6004  0.4401
   75TCq2    C1 1142   3.815   3.598  14.153  0.5907  0.0852 -0.0369
   75TCq2    O2 1143   3.822   3.698  14.223 -0.7422  0.0986 -0.3901
   75TCq2    C2 1144   3.680   3.548  14.122  0.1538 -0.3691  0.7048
   75TCq2    C3 1145   3.590   3.573  14.221 -0.5918  0.1170  0.3823
   75TCq2    C4 1146   3.470   3.510  14.214 -0.1054 -0.1876 -0.7627
   75TCq2    C5 1147   3.439   3.428  14.115 -0.0882  0.2264 -0.5207
   75TCq2    C6 1148   3.522   3.425  14.007  0.4880  0.4199 -0.4112
   75TCq2    C7 1149   3.647   3.481  14.010  0.3220 -0.8494 -0.2743
   75TCq2    C8 1150   3.479   3.369  13.870 -0.1234  0.6266 -0.1240
   75TCq2    O4 1151   3.559   3.380  13.780 -0.7250  0.1221  0.2382
   75TCq2    C9 1152   3.366   3.537  14.315 -0.3682 -0.1232 -0.3150
   75TCq2    O5 1153   3.415   3.579  14.423  0.2790 -0.5382  0.7894
   75TCq2    O6 1154   3.247   3.495  14.296 -0.0374 -0.2138  0.0075
   75TCq2    H2 1155   3.624   3.629  14.307  0.5929 -0.7196  0.4447
   75TCq2    H3 1156   3.346   3.374  14.120  0.3571 -0.3978  0.9232
   75TCq2    H4 1157   3.714   3.469  13.926  0.9013  0.7980 -0.0484
   76MPD2     C 1158   2.879   4.307  11.879 -0.4016 -1.0556 -0.5861
   76MPD2    C1 1159   2.780   4.263  11.790 -0.2803  0.3790  0.5792
   76MPD2    C2 1160   2.787   4.126  11.753  0.5869 -0.7158  0.1354
   76MPD2    C3 1161   2.865   4.028  11.816  0.3934  0.2087  0.4992
   76MPD2    C4 1162   2.950   4.073  11.911 -0.4486  0.5276 -0.2576
   76MPD2    C5 1163   2.965   4.211  11.933  0.0199  0.2471 -0.1110
   76MPD2     H 1164   2.710   4.096  11.682 -1.5182  0.0312  2.0861
   76MPD2    H1 1165   3.034   4.010  11.937 -0.0633  1.8345  1.6843
   76MPD2    H2 1166   2.883   4.410  11.913  1.6067 -0.5722 -2.2858
   76MPD2    H3 1167   3.039   4.243  12.005  0.8450  0.9472 -1.2651
   76MPD2     N 1168   2.868   3.884  11.790 -0.2162 -0.9141  0.8579
   76MPD2    H5 1169   2.932   3.829  11.847  1.4119  0.8638  0.7468
   76MPD2    N1 1170   2.676   4.352  11.741  0.1119 -0.2095 -0.5854
   76MPD2    H7 1171   2.614   4.313  11.670  0.7146  0.0412 -1.2454
   77TCq2    C1 1172   2.783   3.822  11.706 -0.6646 -0.5571 -0.0329
   77TCq2    O2 1173   2.712   3.870  11.616 -0.1067  0.7018 -0.0299
   77TCq2    C2 1174   2.785   3.678  11.721  0.0841  0.0181 -0.5444
   77TCq2    C3 1175   2.691   3.607  11.650 -0.2400  0.3807  0.3556
   77TCq2    C4 1176   2.650   3.484  11.689  0.4273 -1.0868  0.1091
   77TCq2    C5 1177   2.707   3.428  11.801 -0.2498 -0.3345 -0.2674
   77TCq2    C6 1178   2.803   3.497  11.876  0.5772 -0.4841  0.5375
   77TCq2    C7 1179   2.841   3.624  11.833 -0.0900 -0.0944  0.8005
   77TCq2    C8 1180   2.903   3.417  11.947  0.3543  0.1668  0.3551
   77TCq2    O4 1181   2.915   3.300  11.923  0.3627  0.5751  1.1646
   77TCq2    C9 1182   2.553   3.417  11.608 -0.6199 -0.4285 -0.0003
   77TCq2    O5 1183   2.507   3.311  11.661 -0.2213  0.2963 -0.1879
   77TCq2    O6 1184   2.480   3.489  11.536  0.1567  0.1283 -0.7147
   77TCq2    H2 1185   2.650   3.653  11.560  0.6719  0.4569 -0.0243
   77TCq2    H3 1186   2.678   3.331  11.839  1.7955 -0.9069 -0.1488
   77TCq2    H4 1187   2.939   3.659  11.866  0.5379  0.4410 -1.6607
   78MPD1     C 1188   0.623   3.258   1.767  0.2964 -0.4349  0.3715
   78MPD1    C1 1189   0.751   3.278   1.815 -0.1737  0.6749  0.2081
   78MPD1    C2 1190   0.778   3.397   1.876  0.6190  0.6591  0.4435
   78MPD1    C3 1191   0.685   3.500   1.870 -0.5153  0.2093  0.2471
   78MPD1    C4 1192   0.562   3.471   1.815 -0.3138 -0.1111 -0.6964
   78MPD1    C5 1193   0.531   3.353   1.762  0.7529  0.1735 -0.4549
   78MPD1     H 1194   0.877   3.402   1.919  0.9547  0.8338 -0.3689
   78MPD1    H1 1195   0.480   3.542   1.820 -0.5308 -0.5421  1.9529
   78MPD1    H2 1196   0.587   3.156   1.758  0.9264 -0.6110 -0.1788
   78MPD1    H3 1197   0.427   3.335   1.739  1.5501 -1.0450 -3.0903
   78MPD1     N 1198   0.702   3.625   1.930 -0.5395  0.5892 -0.0529
   78MPD1    H5 1199   0.627   3.693   1.929 -0.5752  0.5672  1.4267
   78MPD1    N1 1200   0.831   3.167   1.846 -0.2383  0.5237  0.2992
   78MPD1    H6 1201   0.927   3.190   1.870  0.7886  1.0027 -4.2273
   78MPD1    H7 1202   0.824   3.096   1.774 -1.0929  0.9303 -0.0229
   79TCq2    C1 1203   0.819   3.674   1.987 -0.8159 -0.6721 -0.1238
   79TCq2    O2 1204   0.921   3.615   2.006  0.3074  0.6748  0.4915
   79TCq2    C2 1205   0.794   3.804   2.058 -0.5696  0.0118  0.3716
   79TCq2    C3 1206   0.904   3.881   2.077  0.1923  0.1574  0.3833
   79TCq2    C4 1207   0.899   4.012   2.105  0.6890 -0.1574 -0.2661
   79TCq2    C5 1208   0.778   4.074   2.125 -0.1478 -0.5882 -0.2960
   79TCq2    C6 1209   0.671   3.996   2.092  0.5601 -0.1636 -0.1923
   79TCq2    C7 1210   0.666   3.862   2.060  0.2375  0.3592  0.2411
   79TCq2    C8 1211   0.556   4.084   2.064 -0.1171 -0.2497 -0.0636
   79TCq2    O4 1212   0.578   4.201   2.051 -0.7176 -0.6124  0.4691
   79TCq2    C9 1213   1.021   4.088   2.104 -0.1098  0.1280 -0.4653
   79TCq2    O5 1214   1.006   4.210   2.125  0.2831 -0.1227 -0.1299
   79TCq2    O6 1215   1.118   4.012   2.145 -0.3555  0.3016  0.4204
   79TCq2    H2 1216   1.002   3.837   2.067  1.0833  2.2883 -0.3567
   79TCq2    H3 1217   0.773   4.178   2.157  2.5288  0.1450 -2.2637
   79TCq2    H4 1218   0.584   3.797   2.030 -0.1768  1.6222 -1.3158
   80MPD2     C 1219   1.463   4.269  12.361  0.5066  0.2594  0.1491
   80MPD2    C1 1220   1.440   4.211  12.243  0.6159  0.0368  0.6855
   80MPD2    C2 1221   1.312   4.194  12.201 -0.1167  0.1465 -0.0078
   80MPD2    C3 1222   1.207   4.238  12.276  0.3960  0.2036  1.0617
   80MPD2    C4 1223   1.229   4.298  12.398 -0.8993 -0.7400 -0.5316
   80MPD2    C5 1224   1.365   4.319  12.441  0.6012 -0.1697  0.6241
   80MPD2     H 1225   1.303   4.153  12.101 -2.1388  0.6477 -0.0201
   80MPD2    H1 1226   1.151   4.338  12.462 -0.6328  0.4928 -0.9743
   80MPD2    H2 1227   1.568   4.269  12.390  0.2921 -0.1870  0.9114
   80MPD2    H3 1228   1.387   4.382  12.527  0.9266  0.8973 -0.2448
   80MPD2     N 1229   1.075   4.205  12.250 -0.1422  0.1364 -0.5456
   80MPD2    H5 1230   1.002   4.251  12.303 -0.9422 -1.7715 -0.0086
   80MPD2    N1 1231   1.541   4.167  12.148 -0.4308 -0.1386 -0.7004
   80MPD2    H7 1232   1.514   4.125  12.060 -0.0862 -2.9372  0.5136
   81TCq2    C1 1233   1.672   4.189  12.177  0.3192  0.2489 -0.4206
   81TCq2    O2 1234   1.740   4.211  12.278 -0.0853 -0.3396  0.0654
   81TCq2    C2 1235   1.758   4.155  12.068  0.6303 -0.1973  0.0122
   81TCq2    C3 1236   1.886   4.183  12.080 -0.2427  0.7031  0.3046
   81TCq2    C4 1237   1.978   4.132  11.989  0.1747 -0.7971 -0.0031
   81TCq2    C5 1238   1.941   4.039  11.896 -0.0966  0.9560  0.4058
   81TCq2    C6 1239   1.806   4.008  11.893  0.4092  0.3321 -0.0282
   81TCq2    C7 1240   1.713   4.073  11.972  0.0486 -0.3764 -0.7750
   81TCq2    C8 1241   1.765   3.888  11.819  0.4779 -0.0158 -0.4912
   81TCq2    O4 1242   1.812   3.880  11.708 -0.4285  0.2315 -0.1633
   81TCq2    C9 1243   2.121   4.143  12.018  0.6245  0.3504  0.3981
   81TCq2    O5 1244   2.198   4.094  11.929  0.2446  0.3159  0.2194
   81TCq2    O6 1245   2.170   4.205  12.116  0.0969  0.1634 -0.8520
   81TCq2    H2 1246   1.919   4.248  12.160  0.5530 -0.4399  0.9170
   81TCq2    H3 1247   2.015   3.982  11.842  1.4860  1.9813  1.5234
   81TCq2    H4 1248   1.610   4.048  11.949 -0.1647 -0.5802  0.4000
   82MPD2     C 1249   4.631   3.628  10.472 -0.3596 -0.5275 -0.8545
   82MPD2    C1 1250   4.567   3.505  10.481  0.1098  0.4311 -0.3993
   82MPD2    C2 1251   4.604   3.416  10.589 -0.2849  0.1961 -1.0416
   82MPD2    C3 1252   4.703   3.461  10.685  0.0739 -0.0042  0.1466
   82MPD2    C4 1253   0.033   3.587  10.658 -0.5436  0.0051 -0.1176
   82MPD2    C5 1254   4.723   3.666  10.556  0.2162  0.3415 -0.9077
   82MPD2     H 1255   4.561   3.317  10.599 -1.2143  0.5899 -1.1225
   82MPD2    H1 1256   0.102   3.619  10.735  0.0747 -1.1182 -0.2142
   82MPD2    H2 1257   4.593   3.707  10.408 -0.5087  0.2887  0.2339
   82MPD2    H3 1258   0.042   3.765  10.554  0.1028  0.4153 -0.0368
   82MPD2     N 1259   0.025   3.378  10.788  0.6859  0.4561  0.3950
   82MPD2    H5 1260   0.104   3.415  10.840  0.9696  1.2451 -0.6042
   82MPD2    N1 1261   4.457   3.483  10.394  0.5583 -0.4022  0.2355
   82MPD2    H7 1262   4.425   3.557  10.333 -0.3317 -0.1767  0.9925
   83TCq2    C1 1263   4.691   3.262  10.830 -0.3172  0.4564  0.2329
   83TCq2    O2 1264   4.599   3.197  10.793  0.2997 -0.3247 -0.9454
   83TCq2    C2 1265   0.029   3.216  10.953  0.3336  0.2306 -0.2958
   83TCq2    C3 1266   0.155   3.264  10.994  0.2182 -0.2622  0.3744
   83TCq2    C4 1267   0.236   3.198  11.085  0.7927  0.6819 -0.6384
   83TCq2    C5 1268   0.183   3.084  11.144 -0.3578 -0.5628 -0.1288
   83TCq2    C6 1269   0.059   3.035  11.108 -0.1035  0.4837 -0.4709
   83TCq2    C7 1270   4.710   3.094  11.003  0.5563 -0.2800  0.0231
   83TCq2    C8 1271   0.020   2.898  11.148 -0.4440 -0.7018 -0.9835
   83TCq2    O4 1272   0.045   2.858  11.259 -0.3744 -0.2723 -0.5888
   83TCq2    C9 1273   0.366   3.255  11.118  0.1967  0.2496  0.3868
   83TCq2    O5 1274   0.451   3.181  11.177  0.2301 -0.2913  0.1540
   83TCq2    O6 1275   0.385   3.371  11.075 -0.0804  0.7481 -0.0522
   83TCq2    H2 1276   0.203   3.348  10.946  0.9769 -1.7876 -1.5428
   83TCq2    H3 1277   0.245   3.033  11.217  0.8073 -1.7680 -1.9633
   83TCq2    H4 1278   4.612   3.062  10.970 -0.0459  0.4038  1.1452
   84TCq2    C1 1279   1.529   1.901  10.846  0.2083 -0.4189  0.1795
   84TCq2    O2 1280   1.453   1.990  10.812 -0.0785  0.1192  0.4341
   84TCq2    C2 1281   1.501   1.837  10.978 -1.2541  0.0337  0.2801
   84TCq2    C3 1282   1.543   1.715  11.021 -0.2521  0.0645 -0.5589
   84TCq2    C4 1283   1.484   1.662  11.130 -0.2956 -0.4813 -0.2297
   84TCq2    C5 1284   1.393   1.731  11.205 -0.1725  0.1188 -0.5668
   84TCq2    C6 1285   1.349   1.856  11.156  0.2632  0.2094  0.0210
   84TCq2    C7 1286   1.400   1.905  11.045 -0.1680  0.2785  0.1422
   84TCq2    C8 1287   1.235   1.931  11.225 -0.2751  0.1884  0.1656
   84TCq2    O4 1288   1.186   2.017  11.156 -0.4549 -0.1716 -0.7742
   84TCq2    C9 1289   1.539   1.541  11.176 -0.4017 -0.3859  0.3941
   84TCq2    O5 1290   1.591   1.467  11.092  0.8641 -0.3614 -0.2764
   84TCq2    O6 1291   1.546   1.517  11.297  0.0893  0.0588  0.3110
   84TCq2    H2 1292   1.610   1.656  10.960  1.3765  1.1775  0.1775
   84TCq2    H3 1293   1.350   1.686  11.294 -0.1047 -0.6297 -0.9089
   84TCq2    H4 1294   1.351   1.997  11.015  0.8672  0.1418 -1.9486
   85MPD2     C 1295   1.167   4.640  16.450  0.5839 -0.4403  0.1876
   85MPD2    C1 1296   1.063   4.600  16.368 -0.6539 -0.6789 -0.1995
   85MPD2    C2 1297   0.995   4.701  16.305  0.4769  0.1666  0.5487
   85MPD2    C3 1298   1.037   0.106  16.323 -0.2530 -0.3641 -0.0404
   85MPD2    C4 1299   1.152   0.140  16.391  0.0728  0.3357  0.4835
   85MPD2    C5 1300   1.218   0.044  16.456 -0.1577 -0.1035 -0.1452
   85MPD2     H 1301   0.910   4.673  16.243  0.2280  1.1532  0.4419
   85MPD2    H1 1302   1.186   0.240  16.417  3.0041 -1.0700  2.0507
   85MPD2    H2 1303   1.240   4.568  16.487  0.7926  0.0091  0.6683
   85MPD2    H3 1304   1.310   0.062  16.511  1.3978 -1.3041 -2.3563
   85MPD2     N 1305   0.951   0.203  16.260  0.2023  0.3677 -0.2370
   85MPD2    H5 1306   0.873   0.155  16.216  1.3122 -0.8071 -0.9194
   85MPD2    N1 1307   1.026   4.464  16.354 -0.6946  0.5165 -0.3273
   85MPD2    H7 1308   0.964   4.441  16.277 -0.2209  1.7833 -1.1049
   86TCq2    C1 1309   0.964   0.334  16.258  0.9277 -1.2209  0.0850
   86TCq2    O2 1310   1.064   0.392  16.292 -0.6341 -0.1181 -0.1708
   86TCq2    C2 1311   0.865   0.412  16.190  0.1655 -0.3272 -0.1142
   86TCq2    C3 1312   0.761   0.350  16.134 -0.3136  0.1263  0.2690
   86TCq2    C4 1313   0.682   0.422  16.047 -0.2735  0.1683  0.6065
   86TCq2    C5 1314   0.725   0.547  15.997  0.7989  0.1145 -0.7740
   86TCq2    C6 1315   0.840   0.604  16.052  0.4421 -0.4490  0.2485
   86TCq2    C7 1316   0.898   0.539  16.154 -0.0165 -0.9596  0.6445
   86TCq2    C8 1317   0.897   0.728  15.997  0.3310 -0.6374  0.4105
   86TCq2    O4 1318   1.017   0.727  16.022 -0.4631 -0.1186 -0.4699
   86TCq2    C9 1319   0.569   0.366  15.974 -0.2280 -0.6862  0.3180
   86TCq2    O5 1320   0.560   0.239  15.976 -0.1238  0.2739  0.3710
   86TCq2    O6 1321   0.482   0.446  15.924  0.4087 -0.0902 -0.4990
   86TCq2    H2 1322   0.740   0.245  16.152  1.8976 -0.8676 -2.8829
   86TCq2    H3 1323   0.676   0.577  15.905  0.7859  0.0202 -0.7978
   86TCq2    H4 1324   0.981   0.593  16.198 -0.5175 -0.3912  0.9027
   87MPD2     C 1325   3.351   4.085   0.687 -0.3706 -0.2116  0.5308
   87MPD2    C1 1326   3.391   4.135   0.809  0.7509  0.2641  0.2849
   87MPD2    C2 1327   3.310   4.218   0.882  0.3245 -0.0765 -0.5819
   87MPD2    C3 1328   3.186   4.256   0.831  0.2428 -0.5628  0.1847
   87MPD2    C4 1329   3.154   4.217   0.703 -0.4765 -0.6465  0.1444
   87MPD2    C5 1330   3.230   4.123   0.637  0.5506  0.1823  0.7295
   87MPD2     H 1331   3.346   4.250   0.980 -0.5948 -0.0914 -0.2357
   87MPD2    H1 1332   3.061   4.236   0.651 -0.5722 -0.1579  0.4883
   87MPD2    H2 1333   3.412   4.014   0.634  0.8078  1.2632 -0.0949
   87MPD2    H3 1334   3.193   4.086   0.542  1.9802 -2.5945  1.2426
   87MPD2     N 1335   3.094   4.342   0.895 -0.5254 -0.1036  0.0953
   87MPD2    H5 1336   3.018   4.377   0.838 -0.8162  0.1873  0.6605
   87MPD2    N1 1337   3.513   4.084   0.853 -0.1858 -0.1465 -0.3744
   87MPD2    H7 1338   3.566   4.028   0.787 -1.6586 -2.3727  0.3362
   88TCq2    C1 1339   3.570   4.121   0.974  0.1352 -0.8634  0.1281
   88TCq2    O2 1340   3.519   4.176   1.067 -0.2084  0.0905 -0.5128
   88TCq2    C2 1341   3.695   4.053   0.999 -0.8448  0.3064  0.9291
   88TCq2    C3 1342   3.741   4.042   1.126  0.2302 -0.3547  0.0667
   88TCq2    C4 1343   3.847   3.975   1.169 -0.3008  0.7657  0.2389
   88TCq2    C5 1344   3.927   3.914   1.076 -0.9192  0.0916 -0.9235
   88TCq2    C6 1345   3.882   3.922   0.947 -0.0955 -0.0899 -0.5775
   88TCq2    C7 1346   3.775   3.987   0.907 -0.3079 -0.2026  0.3964
   88TCq2    C8 1347   3.961   3.843   0.850  0.7221  0.1829 -0.4333
   88TCq2    O4 1348   3.911   3.803   0.749  0.0171 -0.5025  0.3078
   88TCq2    C9 1349   3.890   3.984   1.304 -0.6991  0.4649 -0.1882
   88TCq2    O5 1350   4.009   3.946   1.332  1.0449  0.0483  0.3719
   88TCq2    O6 1351   3.827   4.054   1.384  0.1518  0.2123  0.2952
   88TCq2    H2 1352   3.675   4.083   1.202  1.2101  0.4817  0.4680
   88TCq2    H3 1353   4.005   3.844   1.102  0.5037  2.5719  1.3612
   88TCq2    H4 1354   3.754   3.989   0.801  1.9764  0.3706 -0.0616
   89MPD2     C 1355   4.568   1.329   1.444  0.8448 -0.3978  0.0805
   89MPD2    C1 1356   4.512   1.453   1.456  0.5375 -0.4741  0.5479
   89MPD2    C2 1357   4.571   1.556   1.394  0.0313 -0.3924  0.5352
   89MPD2    C3 1358   4.679   1.543   1.316  0.6795 -0.3516  0.3881
   89MPD2    C4 1359   0.003   1.411   1.302 -0.2005 -1.0106  0.0807
   89MPD2    C5 1360   4.667   1.310   1.357 -0.4621  0.4902 -0.2667
   89MPD2     H 1361   4.536   1.657   1.406  1.6926  0.4187 -1.4812
   89MPD2    H1 1362   0.089   1.385   1.241 -1.0618 -0.6842 -1.2676
   89MPD2    H2 1363   4.516   1.247   1.492 -1.0032 -0.8197 -2.6421
   89MPD2    H3 1364   4.706   1.209   1.348  0.9317  1.1149 -1.1636
   89MPD2     N 1365   0.002   1.655   1.244  0.1521  0.0821 -0.3551
   89MPD2    H5 1366   4.700   1.746   1.280  0.0658  0.1755 -0.6616
   89MPD2    N1 1367   4.394   1.470   1.523  0.0998  0.2125 -0.1368
   89MPD2    H7 1368   4.358   1.565   1.522 -0.2119  0.1168  1.7113
   90TCq2    C1 1369   0.092   1.645   1.140 -0.2672 -0.7272 -0.7121
   90TCq2    O2 1370   0.135   1.543   1.078 -0.0170 -0.5016 -0.0329
   90TCq2    C2 1371   0.129   1.783   1.087  0.1844 -0.1013  0.4349
   90TCq2    C3 1372   0.098   1.901   1.146 -0.3376  0.5132  0.1384
   90TCq2    C4 1373   0.138   2.021   1.090 -0.1579 -0.3382 -0.3743
   90TCq2    C5 1374   0.212   2.013   0.969  0.2550 -0.0491  0.2579
   90TCq2    C6 1375   0.254   1.889   0.915 -0.1570 -0.0898  0.1656
   90TCq2    C7 1376   0.224   1.776   0.988 -0.0578  0.2125 -0.7294
   90TCq2    C8 1377   0.323   1.872   0.791 -0.0504  0.5806  0.3425
   90TCq2    O4 1378   0.403   1.777   0.766  0.1703 -0.3974  0.6614
   90TCq2    C9 1379   0.082   2.140   1.134 -0.2790 -0.2957  0.3164
   90TCq2    O5 1380   0.017   2.132   1.240  0.7100  0.1037 -0.0031
   90TCq2    O6 1381   0.126   2.251   1.082 -0.0304 -0.3332 -0.1290
   90TCq2    H2 1382   0.023   1.902   1.225 -1.4972 -1.2935 -0.9233
   90TCq2    H3 1383   0.228   2.111   0.925  2.2800 -0.9780 -1.0378
   90TCq2    H4 1384   0.243   1.680   0.940 -0.6225 -1.0307  1.5239
   91TMC2    C1 1385   1.375   1.681  16.375 -0.1795  0.0736 -0.4428
   91TMC2    C2 1386   1.469   1.699  16.276  0.1005 -0.4526  0.3976
   91TMC2    C3 1387   1.422   1.707  16.149 -0.6723  0.2727  0.2147
   91TMC2    C4 1388   1.238   1.662  16.349  0.4434  0.0415 -0.0968
   91TMC2    C5 1389   1.201   1.661  16.218  0.2372  0.6384 -0.4419
   91TMC2    C6 1390   1.290   1.686  16.120 -0.7097 -0.2727 -0.0251
   91TMC2     C 1391   1.424   1.616  16.496  0.1518  0.1399 -0.4519
   91TMC2     O 1392   1.342   1.578  16.577 -0.2215 -0.2719  0.0721
   91TMC2     H 1393   1.568   1.737  16.300 -0.4228  0.0884  1.6839
   91TMC2    H1 1394   1.171   1.648  16.433  0.1817 -0.3800 -0.3764
   91TMC2    H2 1395   1.268   1.704  16.015  1.5396  0.0061 -0.4328
   91TMC2    C7 1396   1.063   1.696  16.191 -0.4991  0.6408  0.2329
   91TMC2    C8 1397   1.501   1.776  16.048 -0.5645 -0.5416  0.3208
   91TMC2    O1 1398   1.050   1.763  16.088 -0.4452 -0.0614 -0.5693
   91TMC2    O2 1399   1.447   1.838  15.957  0.5372 -0.4009  0.1365
   91TMC2    O5 1400   1.625   1.717  16.041  0.3513  0.0083 -0.3088
   91TMC2    H5 1401   1.653   1.652  16.109  2.0854 -1.1272 -2.1133
   92MPD2     C 1402   1.583   1.480  16.701  0.2398  0.4112 -0.2194
   92MPD2    C1 1403   1.631   1.511  16.578 -0.2447 -0.3136 -0.4561
   92MPD2    C2 1404   1.755   1.470  16.538 -0.7336  0.3224 -0.1361
   92MPD2    C3 1405   1.835   1.391  16.613  0.3189 -0.1469  0.8434
   92MPD2    C4 1406   1.788   1.357  16.741 -0.6303 -0.0198 -0.0146
   92MPD2    C5 1407   1.660   1.397  16.779 -0.1582  0.0083 -0.0472
   92MPD2     H 1408   1.778   1.484  16.433 -0.0773  0.4268  0.0206
   92MPD2    H1 1409   1.838   1.291  16.811  1.1364 -1.2008 -2.3981
   92MPD2    H2 1410   1.491   1.515  16.747  0.7745  0.7713  0.5658
   92MPD2    H3 1411   1.628   1.366  16.878 -0.5527  0.8747  0.0964
   92MPD2     N 1412   1.965   1.352  16.567 -0.3504  0.5559 -0.9748
   92MPD2    H5 1413   1.979   1.363  16.467 -1.1090  2.5303 -0.8467
   92MPD2    N1 1414   1.553   1.578  16.486 -0.5677  0.8722  0.0728
   92MPD2    H7 1415   1.609   1.604  16.406 -2.5618 -1.7021 -2.1838
   93MPD2     C 1416   3.250   1.967  13.888  0.0059 -0.5018  0.1473
   93MPD2    C1 1417   3.246   1.848  13.955 -0.1256  0.4033  0.2977
   93MPD2    C2 1418   3.119   1.795  13.988  0.1232 -0.1996 -0.8529
   93MPD2    C3 1419   3.003   1.861  13.954  0.5748  0.2993  0.0541
   93MPD2    C4 1420   3.015   1.970  13.871 -0.0751 -0.2944 -0.2409
   93MPD2    C5 1421   3.133   2.024  13.851  0.4121 -0.2211 -0.2194
   93MPD2     H 1422   3.115   1.701  14.040  3.8354 -1.0608 -2.0671
   93MPD2    H1 1423   2.929   2.020  13.827 -1.1585 -0.8518  1.2246
   93MPD2    H2 1424   3.346   2.015  13.872  0.9134 -2.0294  0.9199
   93MPD2    H3 1425   3.146   2.113  13.791  1.0437 -0.2221 -0.0797
   93MPD2     N 1426   2.875   1.815  13.972  0.2002 -0.2405 -0.2335
   93MPD2    H5 1427   2.805   1.862  13.915 -0.9590 -3.5440 -1.5327
   93MPD2    N1 1428   3.359   1.774  13.998 -0.2608 -0.3678 -0.2819
   93MPD2    H7 1429   3.335   1.680  14.029  2.5507 -0.8885  0.3055
   94TCq2    C1 1430   3.491   1.820  13.999 -0.4825  0.1260  0.2330
   94TCq2    O2 1431   3.540   1.920  13.949 -0.3805  0.0395 -0.0685
   94TCq2    C2 1432   3.589   1.720  14.049 -0.0128  0.5027  0.1133
   94TCq2    C3 1433   3.551   1.594  14.048  0.5154  0.1395 -0.0610
   94TCq2    C4 1434   3.641   1.491  14.044 -0.3782  0.5146 -0.7487
   94TCq2    C5 1435   3.778   1.520  14.036 -0.6719  0.0531 -0.4211
   94TCq2    C6 1436   3.809   1.657  14.054  0.3880  0.1881  0.6508
   94TCq2    C7 1437   3.718   1.749  14.049  0.0840 -0.0843  0.4637
   94TCq2    C8 1438   3.949   1.691  14.030 -0.2251 -0.1838  0.9396
   94TCq2    O4 1439   4.016   1.599  13.986 -0.1094  0.1215  0.0793
   94TCq2    C9 1440   3.598   1.356  14.051  0.0275 -0.1723 -0.3905
   94TCq2    O5 1441   3.475   1.338  14.039 -0.5147 -0.0657 -0.0955
   94TCq2    O6 1442   3.680   1.264  14.025  0.0476  0.6364 -0.4256
   94TCq2    H2 1443   3.450   1.562  14.026  0.3250  0.4984  0.2860
   94TCq2    H3 1444   3.858   1.447  14.045 -0.4493  0.3453 -0.0132
   94TCq2    H4 1445   3.747   1.854  14.053  0.6103 -0.1019 -3.3273
   95TMC2    C1 1446   3.523   2.752  15.246 -0.1787  0.4121  0.0662
   95TMC2    C2 1447   3.584   2.744  15.369  0.3025 -0.0831 -0.4330
   95TMC2    C3 1448   3.503   2.777  15.478  0.0219  0.2211 -0.5235
   95TMC2    C4 1449   3.396   2.788  15.225  1.0659  0.0655 -0.0004
   95TMC2    C5 1450   3.322   2.828  15.340 -0.7539  0.0485 -0.3441
   95TMC2    C6 1451   3.371   2.808  15.463  0.3267 -0.4997  0.3365
   95TMC2     C 1452   3.623   2.780  15.139 -0.4786  0.1914 -0.3482
   95TMC2     O 1453   3.733   2.819  15.171 -0.1853  0.1369 -0.5509
   95TMC2     H 1454   3.692   2.733  15.368  0.3814  0.5688  0.7795
   95TMC2    H1 1455   3.357   2.791  15.124 -1.1098  0.2992  0.8387
   95TMC2    H2 1456   3.318   2.844  15.551  0.8891  3.0017 -0.7783
   95TMC2    C7 1457   3.185   2.853  15.338 -0.4114 -0.2686 -0.3386
   95TMC2    C8 1458   3.556   2.756  15.615 -0.3546  0.5091 -0.7229
   95TMC2    O1 1459   3.122   2.872  15.443 -0.0083  0.3483 -0.2831
   95TMC2    O2 1460   3.522   2.821  15.713 -0.3988 -0.0241 -0.0430
   95TMC2    O5 1461   3.578   2.621  15.621  0.2697  0.6547  0.1230
   95TMC2    H5 1462   3.607   2.587  15.533 -0.7949 -0.3481  0.1747
   96MPD2     C 1463   3.705   2.957  14.669  0.3134  0.9429 -0.0499
   96MPD2    C1 1464   3.753   2.999  14.788 -0.0010  0.2813 -0.5145
   96MPD2    C2 1465   3.720   2.932  14.906  0.0329  0.0942  0.3844
   96MPD2    C3 1466   3.622   2.842  14.903 -0.3496 -0.3286  0.1449
   96MPD2    C4 1467   3.570   2.810  14.780 -0.2350  0.1807  1.1078
   96MPD2    C5 1468   3.610   2.857  14.659 -0.6572  0.1829  0.4000
   96MPD2     H 1469   3.765   2.973  14.996 -0.2882  1.9775 -0.3068
   96MPD2    H1 1470   3.490   2.738  14.768  1.1675 -1.1506 -0.3195
   96MPD2    H2 1471   3.739   3.004  14.578  3.1193  2.0471  1.5625
   96MPD2    H3 1472   3.558   2.816  14.573  0.1919 -1.1939  0.5440
   96MPD2     N 1473   3.562   2.787  15.021  0.1328  0.4781  0.9450
   96MPD2    H5 1474   3.487   2.720  15.006  1.3558 -0.7172  0.1876
   96MPD2    N1 1475   3.844   3.107  14.793 -0.0158  0.2175 -0.0048
   96MPD2    H7 1476   3.868   3.153  14.706  1.3445  2.3464  1.4974
   97MPD2     C 1477   0.049   4.686   0.899 -0.2841 -0.0261  0.5347
   97MPD2    C1 1478   0.048   0.101   0.877  0.0388 -0.6618  0.1512
   97MPD2    C2 1479   0.155   0.153   0.808 -0.2020  0.1897 -0.1295
   97MPD2    C3 1480   0.256   0.067   0.758  0.4170 -0.1577  0.1602
   97MPD2    C4 1481   0.260   4.661   0.792 -0.0262  0.1589 -0.0555
   97MPD2    C5 1482   0.154   4.612   0.858 -0.6918  0.1104  0.1455
   97MPD2     H 1483   0.165   0.259   0.788 -1.3992  0.2616 -0.3659
   97MPD2    H1 1484   0.337   4.596   0.753  0.0960  0.9716 -1.1629
   97MPD2    H2 1485   4.697   4.630   0.949  1.0034 -1.1898  1.2037
   97MPD2    H3 1486   0.151   4.504   0.868  4.2317  0.1648  1.9269
   97MPD2     N 1487   0.357   0.109   0.664  0.3942  0.3038  0.4769
   97MPD2    H5 1488   0.406   0.033   0.618  0.2585  0.0913  0.6826
   97MPD2    N1 1489   4.665   0.181   0.929 -0.9128  0.3149 -0.6076
   97MPD2    H7 1490   4.588   0.138   0.980 -1.2951 -0.8996 -2.1798
   98TCq2    C1 1491   0.385   0.234   0.622 -0.9066  0.4587  0.0418
   98TCq2    O2 1492   0.345   0.344   0.664  0.4769  0.1516 -0.3228
   98TCq2    C2 1493   0.472   0.233   0.505 -0.5117 -0.3525  0.2249
   98TCq2    C3 1494   0.546   0.120   0.476 -0.4343  0.0417 -0.0009
   98TCq2    C4 1495   0.599   0.115   0.351 -0.2753 -0.2887  0.5372
   98TCq2    C5 1496   0.585   0.223   0.264  0.5588 -0.1821  0.1317
   98TCq2    C6 1497   0.515   0.335   0.291  0.5021  0.0458  0.7375
   98TCq2    C7 1498   0.461   0.341   0.422 -0.5553  0.7142 -0.4265
   98TCq2    C8 1499   0.554   0.468   0.239 -0.5505  0.2229 -0.1205
   98TCq2    O4 1500   0.653   0.465   0.167 -0.1002  0.7361 -0.1237
   98TCq2    C9 1501   0.664   4.721   0.316 -0.0580 -0.3663  0.3273
   98TCq2    O5 1502   0.596   4.618   0.347  0.4068 -0.3202 -0.2984
   98TCq2    O6 1503   0.780   4.722   0.260  0.1265 -0.0483 -0.2038
   98TCq2    H2 1504   0.558   0.041   0.549 -1.4229  0.3354  0.4705
   98TCq2    H3 1505   0.623   0.201   0.164 -0.3083  0.5890 -0.3608
   98TCq2    H4 1506   0.411   0.428   0.463 -1.7834  0.1990 -0.8064
   99MPD2     C 1507   4.153   3.113   1.219 -0.3041  0.7997 -0.3612
   99MPD2    C1 1508   4.040   3.126   1.138  0.0530  0.3504 -1.0240
   99MPD2    C2 1509   4.046   3.080   1.009  0.8023 -0.5736 -0.1046
   99MPD2    C3 1510   4.158   3.020   0.960  0.0050 -0.2015  0.0497
   99MPD2    C4 1511   4.264   3.001   1.045 -0.3326 -0.0959  0.0124
   99MPD2    C5 1512   4.263   3.046   1.174 -0.3461  0.3803  0.0141
   99MPD2     H 1513   3.963   3.105   0.944  0.4803  2.2965  1.3947
   99MPD2    H1 1514   4.352   2.949   1.010  0.1592 -0.1530  1.3518
   99MPD2    H2 1515   4.159   3.134   1.325  2.6047  2.7858 -0.8997
   99MPD2    H3 1516   4.348   3.035   1.241 -0.9887  0.9691  0.9227
   99MPD2     N 1517   4.153   2.967   0.833 -0.3031  0.2729 -0.4399
   99MPD2    H5 1518   4.061   2.978   0.790 -0.2787  0.6490 -0.3932
   99MPD2    N1 1519   3.914   3.190   1.179  0.3680 -0.0731 -0.3987
   99MPD2    H7 1520   3.835   3.206   1.116 -1.0081  3.4155  2.2067
  100TCq2    C1 1521   3.895   3.242   1.308  0.5093  1.1619  0.3881
  100TCq2    O2 1522   3.973   3.265   1.402  0.2948  0.1576 -0.2627
  100TCq2    C2 1523   3.774   3.327   1.302 -0.0847  0.0659 -0.4378
  100TCq2    C3 1524   3.786   3.442   1.382  0.5395 -0.3224  0.4510
  100TCq2    C4 1525   3.683   3.527   1.385  0.0581 -1.4113  0.6141
  100TCq2    C5 1526   3.568   3.502   1.310  0.5719  0.5613  0.6389
  100TCq2    C6 1527   3.561   3.387   1.226  0.2485  0.1147 -0.7070
  100TCq2    C7 1528   3.665   3.295   1.222  0.0861  0.4516  0.0394
  100TCq2    C8 1529   3.442   3.381   1.135  0.2172  0.3850 -0.1254
  100TCq2    O4 1530   3.388   3.492   1.114  0.1344 -0.4062  0.4139
  100TCq2    C9 1531   3.698   3.650   1.463 -0.0001 -0.2000  0.1005
  100TCq2    O5 1532   3.586   3.707   1.471  0.4001 -0.0501 -0.1418
  100TCq2    O6 1533   3.808   3.687   1.510 -0.1779  0.3291 -0.0006
  100TCq2    H2 1534   3.867   3.460   1.452  1.5116 -0.5479 -0.6142
  100TCq2    H3 1535   3.482   3.568   1.314  2.3229  2.9824 -1.4346
  100TCq2    H4 1536   3.659   3.198   1.172  0.6151  0.5793 -0.2752
  101MPD2     C 1537   0.550   3.967  12.774  0.5072 -0.2731 -0.1571
  101MPD2    C1 1538   0.448   4.045  12.807 -0.3670 -0.8145  0.0979
  101MPD2    C2 1539   0.389   4.018  12.925  0.0903 -0.2438 -0.4762
  101MPD2    C3 1540   0.437   3.920  13.013 -0.7239  0.0425 -0.7858
  101MPD2    C4 1541   0.551   3.847  12.986 -0.1350 -0.0746  0.1439
  101MPD2    C5 1542   0.604   3.876  12.864 -0.0644  0.0454  0.3426
  101MPD2     H 1543   0.309   4.081  12.961  1.1284 -0.1134  1.5726
  101MPD2    H1 1544   0.587   3.759  13.038  1.2117  0.9684  0.9764
  101MPD2    H2 1545   0.608   3.984  12.684 -2.8438  1.1840 -2.0158
  101MPD2    H3 1546   0.690   3.820  12.831 -1.9969 -3.7945  1.7626
  101MPD2     N 1547   0.356   3.892  13.123 -0.3313 -0.7805  0.4356
  101MPD2    H5 1548   0.271   3.949  13.121  0.5161  0.4595 -0.1627
  101MPD2    N1 1549   0.400   4.134  12.709  0.1552 -0.1090  0.1818
  101MPD2    H7 1550   0.448   4.132  12.619 -0.5296 -1.8815 -0.1425
  102TCq2    C1 1551   0.480   4.349  12.298  0.2064  0.1318  0.3331
  102TCq2    O2 1552   0.594   4.358  12.330  0.1175 -0.3306  0.2841
  102TCq2    C2 1553   0.374   4.369  12.397 -0.1393  0.1730 -0.1540
  102TCq2    C3 1554   0.267   4.448  12.376 -0.4416 -0.5942  0.0028
  102TCq2    C4 1555   0.171   4.458  12.473  0.2944 -0.5369 -0.3661
  102TCq2    C5 1556   0.183   4.386  12.581  0.0609 -0.1168  0.4066
  102TCq2    C6 1557   0.297   4.308  12.602  0.0742 -0.3177  0.1549
  102TCq2    C7 1558   0.400   4.310  12.515 -0.3175  0.2681  0.1705
  102TCq2    C8 1559   0.305   4.234  12.727 -0.0661  0.1269  0.3834
  102TCq2    O4 1560   0.207   4.231  12.804  0.1730 -0.8737 -0.1603
  102TCq2    C9 1561   0.042   4.513  12.447 -0.0541  0.5318  0.2571
  102TCq2    O5 1562   4.672   4.434  12.444  0.1110 -0.0215  0.0200
  102TCq2    O6 1563   0.039   4.626  12.389  0.0744 -0.3199 -0.0507
  102TCq2    H2 1564   0.247   4.488  12.277 -2.3115 -0.3803  0.4677
  102TCq2    H3 1565   0.099   4.384  12.649 -0.6135 -0.2136 -0.4357
  102TCq2    H4 1566   0.497   4.262  12.526  0.0097  1.1728  1.1786
  103TMC2    C1 1567   3.310   3.738  12.553  0.0351 -0.7205 -0.0307
  103TMC2    C2 1568   3.445   3.704  12.551  0.0367  0.2721  0.3737
  103TMC2    C3 1569   3.531   3.775  12.626  0.0789 -0.3589 -0.0697
  103TMC2    C4 1570   3.266   3.853  12.619 -0.0778 -0.4107 -0.5375
  103TMC2    C5 1571   3.359   3.922  12.679 -0.0351  0.4718  0.6213
  103TMC2    C6 1572   3.490   3.885  12.693 -0.0214  0.1711 -0.3581
  103TMC2     C 1573   3.218   3.678  12.455  0.1606  0.3506 -0.4640
  103TMC2     O 1574   3.128   3.745  12.413  0.0411 -0.1252  0.0428
  103TMC2     H 1575   3.483   3.627  12.486  1.5903  1.7861 -0.5078
  103TMC2    H1 1576   3.161   3.860  12.643  0.4155  0.0445  1.5177
  103TMC2    H2 1577   3.558   3.934  12.762 -1.1076 -0.2737  1.0227
  103TMC2    C7 1578   3.323   4.051  12.743 -0.3312 -0.2205  1.0137
  103TMC2    C8 1579   3.675   3.723  12.640  0.3601 -0.0697 -0.0701
  103TMC2    O1 1580   3.396   4.086  12.832  0.5178 -0.3207 -0.0890
  103TMC2    O2 1581   3.776   3.790  12.662  0.2937  0.5113 -0.0423
  103TMC2    O5 1582   3.676   3.590  12.609 -0.0002 -0.2525  0.0701
  103TMC2    H5 1583   3.588   3.548  12.615  0.4299 -0.9104  1.8567
  104MPD2     C 1584   3.249   3.337  12.325 -0.3974  0.2579  0.0108
  104MPD2    C1 1585   3.196   3.468  12.326 -0.2053  0.3697  0.9074
  104MPD2    C2 1586   3.095   3.512  12.236  0.2334  0.4670 -0.2989
  104MPD2    C3 1587   3.055   3.431  12.134 -0.1342 -1.1919  0.5022
  104MPD2    C4 1588   3.126   3.311  12.121  0.6461 -0.2280  0.2933
  104MPD2    C5 1589   3.214   3.262  12.218  0.4902 -0.5308 -0.6271
  104MPD2     H 1590   3.053   3.611  12.251 -0.1689  0.0446  1.4485
  104MPD2    H1 1591   3.099   3.251  12.035 -1.1629  0.7457  0.1767
  104MPD2    H2 1592   3.307   3.308  12.412  0.1246 -0.8165 -0.6970
  104MPD2    H3 1593   3.265   3.167  12.218 -0.3321 -0.9745 -1.5662
  104MPD2     N 1594   2.961   3.483  12.046  1.0935  0.0300 -0.6316
  104MPD2    H5 1595   2.936   3.580  12.066 -0.7780 -0.0901 -2.3828
  104MPD2    N1 1596   3.255   3.550  12.423  0.0175  0.0820  0.1108
  104MPD2    H7 1597   3.334   3.509  12.472 -0.7408 -1.0694  0.3757
  105MPD2     C 1598   4.640   3.074  17.510  0.1186 -0.3842  0.1154
  105MPD2    C1 1599   4.647   3.191  17.579  0.0413  0.0620  0.2759
  105MPD2    C2 1600   4.566   3.211  17.687 -0.5337 -0.3598 -0.0441
  105MPD2    C3 1601   4.475   3.122   0.022 -0.2756  0.0445  0.4548
  105MPD2    C4 1602   4.465   3.011  17.653  0.5825 -0.2907 -0.6534
  105MPD2    C5 1603   4.552   2.979  17.550 -0.4546 -0.1162  0.1570
  105MPD2     H 1604   4.561   3.310   0.028  1.6918  0.4658 -1.6647
  105MPD2    H1 1605   4.379   2.951  17.678  0.4803 -0.8369 -2.3797
  105MPD2    H2 1606   4.683   3.071  17.411 -1.7081 -0.5078 -0.6756
  105MPD2    H3 1607   4.528   2.893  17.489  1.0969  0.3354 -1.0905
  105MPD2     N 1608   4.378   3.160   0.122  0.6015 -0.0682  0.7465
  105MPD2    H5 1609   4.390   3.252   0.163 -4.2620  0.2671  1.4274
  105MPD2    N1 1610   4.704   3.310  17.532  0.2407 -0.0182 -0.7549
  105MPD2    H7 1611   4.682   3.393  17.587 -1.5584  0.4040 -2.0756
  106TCq2    C1 1612   4.265   3.092   0.162 -1.0735  0.4196  0.5338
  106TCq2    O2 1613   4.203   2.997   0.112  0.7115 -0.3091 -0.5921
  106TCq2    C2 1614   4.197   3.162   0.266 -1.2087 -0.3104  0.1732
  106TCq2    C3 1615   4.064   3.183   0.253 -0.1513  0.0657  0.0440
  106TCq2    C4 1616   4.001   3.263   0.348  0.0409 -0.8631  0.2878
  106TCq2    C5 1617   4.070   3.313   0.454 -0.1439 -0.0290  0.3740
  106TCq2    C6 1618   4.204   3.294   0.458 -1.2744 -0.5630 -0.3025
  106TCq2    C7 1619   4.268   3.211   0.368 -0.0052  0.7068  0.2087
  106TCq2    C8 1620   4.294   3.396   0.509 -0.3466  0.7811 -0.1841
  106TCq2    O4 1621   4.416   3.392   0.495  0.1728 -0.1373  0.6193
  106TCq2    C9 1622   3.855   3.269   0.338  0.3931  0.2989 -0.1912
  106TCq2    O5 1623   3.793   3.339   0.422  0.5436 -0.0427 -0.1271
  106TCq2    O6 1624   3.803   3.201   0.245  0.2042  0.5745 -0.2648
  106TCq2    H2 1625   4.001   3.149   0.172  0.3688 -0.5150 -0.1172
  106TCq2    H3 1626   4.012   3.350   0.538  1.4243  1.5026  0.7812
  106TCq2    H4 1627   4.370   3.176   0.382  0.4395  1.0452 -2.2336
  107TMC2    C1 1628   0.678   2.630  11.537  0.1632  0.6921  0.3306
  107TMC2    C2 1629   0.658   2.641  11.403 -0.8974 -0.5714  0.5023
  107TMC2    C3 1630   0.705   2.544  11.314  1.0788 -0.6883 -0.1624
  107TMC2    C4 1631   0.737   2.515  11.589 -0.7907 -0.7966  0.1503
  107TMC2    C5 1632   0.775   2.419  11.499  0.6071  0.9731  1.3905
  107TMC2    C6 1633   0.754   2.422  11.363 -0.3703 -0.2932 -0.1689
  107TMC2     C 1634   0.588   2.690  11.628  0.2685  0.1574  0.1919
  107TMC2     O 1635   0.619   2.691  11.746  0.5681 -0.1277  0.3245
  107TMC2     H 1636   0.615   2.730  11.360 -0.1519 -0.7822 -0.7029
  107TMC2    H1 1637   0.724   2.494  11.695  0.7548  1.9153  0.8660
  107TMC2    H2 1638   0.795   2.344  11.299 -0.6847 -0.7961  0.2363
  107TMC2    C7 1639   0.820   2.289  11.550  1.4967 -0.2484  0.5969
  107TMC2    C8 1640   0.679   2.556  11.170  0.0358  0.3372  0.0523
  107TMC2    O1 1641   0.768   2.252  11.650 -0.0426 -0.0604  0.1862
  107TMC2    O2 1642   0.723   2.653  11.112 -0.2452 -0.2076 -0.2431
  107TMC2    O5 1643   0.567   2.481  11.139  0.0656  0.0782 -0.0685
  107TMC2    H5 1644   0.537   2.432  11.218  2.8535 -0.6082  0.5581
  108MPD2     C 1645   0.259   2.849  11.538  0.3408  0.4554  0.1919
  108MPD2    C1 1646   0.360   2.807  11.616 -0.0661 -0.1675  0.0569
  108MPD2    C2 1647   0.348   2.836  11.749 -0.0889 -0.6061  0.6640
  108MPD2    C3 1648   0.245   2.913  11.794  0.0064 -0.0521 -0.1098
  108MPD2    C4 1649   0.145   2.945  11.705 -0.6094 -0.0046 -0.3060
  108MPD2    C5 1650   0.152   2.919  11.576 -0.2276  0.4977  0.0491
  108MPD2     H 1651   0.427   2.799  11.814  0.0011 -0.1449  0.8219
  108MPD2    H1 1652   0.061   3.010  11.726  0.4754  1.1907  0.3362
  108MPD2    H2 1653   0.268   2.825  11.432 -1.0059 -0.3472  0.2636
  108MPD2    H3 1654   0.076   2.949  11.503  0.3412 -1.7563 -1.4782
  108MPD2     N 1655   0.229   2.955  11.929 -0.2213  0.8046  0.8392
  108MPD2    H5 1656   0.135   2.977  11.961 -1.2405 -2.6374  0.2097
  108MPD2    N1 1657   0.470   2.734  11.563  0.0522  0.7580 -0.1980
  108MPD2    H7 1658   0.467   2.726  11.461 -0.0526  1.2247 -0.2310
  109MPD2     C 1659   4.233   4.533   2.048  0.7542 -0.4012 -0.0632
  109MPD2    C1 1660   4.260   4.626   1.946  0.1382 -0.3109 -0.0058
  109MPD2    C2 1661   4.163   4.685   1.861 -0.1809  0.3735 -0.9049
  109MPD2    C3 1662   4.029   4.640   1.875  0.4526 -0.1369  0.3181
  109MPD2    C4 1663   4.001   4.567   1.985 -0.3212 -0.1991  0.0002
  109MPD2    C5 1664   4.095   4.509   2.065 -0.5812 -0.4867  0.1209
  109MPD2     H 1665   4.189   0.017   1.773 -1.5662  2.9986  0.3907
  109MPD2    H1 1666   3.897   4.548   2.009 -0.3249  0.2269  0.3230
  109MPD2    H2 1667   4.305   4.483   2.112  0.1548  0.4168  1.2528
  109MPD2    H3 1668   4.054   4.448   2.145  1.3156 -0.3282  1.1933
  109MPD2     N 1669   3.943   4.667   1.761  0.1029  0.3571 -0.1084
  109MPD2    H5 1670   3.983   0.008   1.695  0.7596  1.3920  1.3161
  109MPD2    N1 1671   4.397   4.651   1.928  0.1127  0.1571  0.7785
  109MPD2    H7 1672   4.460   4.590   1.979  0.2764  1.7428  2.4549
  110TCq2    C1 1673   3.818   4.615   1.741 -0.2952  0.1081 -0.0289
  110TCq2    O2 1674   3.754   4.532   1.804  0.0082  0.1574 -0.0678
  110TCq2    C2 1675   3.743   4.656   1.618 -0.0328 -0.0219 -1.4685
  110TCq2    C3 1676   3.628   4.586   1.586 -0.1403 -0.1556  0.2853
  110TCq2    C4 1677   3.578   4.602   1.464 -0.0541 -0.4817  0.5487
  110TCq2    C5 1678   3.630   4.679   1.370  0.0915 -0.8069  0.5113
  110TCq2    C6 1679   3.745   0.020   1.399 -0.1882 -0.0126  0.7116
  110TCq2    C7 1680   3.801   0.014   1.522  0.6343 -0.0680  0.2507
  110TCq2    C8 1681   3.821   0.093   1.299 -0.7198  0.4728  0.6405
  110TCq2    O4 1682   3.899   0.178   1.334 -0.7601 -0.3798  0.7577
  110TCq2    C9 1683   3.463   4.525   1.427 -0.4383 -0.5299  0.3243
  110TCq2    O5 1684   3.449   4.493   1.307 -0.1146 -0.3729  0.0798
  110TCq2    O6 1685   3.391   4.493   1.524  0.0434 -0.3359  0.0861
  110TCq2    H2 1686   3.579   4.517   1.653 -1.2402  0.8010  0.4703
  110TCq2    H3 1687   3.575   4.694   1.278 -0.4862 -4.1673  0.3335
  110TCq2    H4 1688   3.892   0.068   1.539  0.0184  0.6108  1.3878
  111TMC2    C1 1689   0.360   0.137  11.210  0.9117  0.0283  0.3475
  111TMC2    C2 1690   0.325   0.257  11.165 -0.3865  0.0385 -0.1423
  111TMC2    C3 1691   0.428   0.349  11.159  0.4733 -0.1388  0.4609
  111TMC2    C4 1692   0.491   0.101  11.244 -0.3102 -0.1836 -0.3146
  111TMC2    C5 1693   0.588   0.200  11.230  0.1559 -0.1720  0.2681
  111TMC2    C6 1694   0.560   0.324  11.191 -0.4330  0.1429 -0.2016
  111TMC2     C 1695   0.263   0.030  11.190 -0.5114 -0.3455 -0.3155
  111TMC2     O 1696   0.196   0.029  11.087  0.2761  0.5458 -0.1543
  111TMC2     H 1697   0.220   0.282  11.171 -0.9297 -1.7930 -2.2209
  111TMC2    H1 1698   0.508   4.723  11.269 -1.6257 -0.5908 -1.1187
  111TMC2    H2 1699   0.631   0.406  11.196  0.0976 -0.3041 -0.4648
  111TMC2    C7 1700   0.717   0.153  11.268 -0.1703  0.0403  0.6004
  111TMC2    C8 1701   0.392   0.491  11.130 -0.7032  0.1264 -0.5987
  111TMC2    O1 1702   0.728   0.034  11.294  1.2314 -0.5109 -0.3116
  111TMC2    O2 1703   0.459   0.589  11.157  0.7203  0.2883 -0.0324
  111TMC2    O5 1704   0.271   0.493  11.071  0.0027 -0.5630  0.4766
  111TMC2    H5 1705   0.241   0.405  11.039 -2.4555  0.7321 -0.8120
  112MPD2     C 1706   4.667   4.415  11.390  0.2190 -0.2216  0.0171
  112MPD2    C1 1707   4.670   4.479  11.267 -0.3265 -1.0823 -0.6489
  112MPD2    C2 1708   0.042   4.570  11.243 -0.0764  0.4270  0.2812
  112MPD2    C3 1709   0.134   4.607  11.336  0.5708  0.1269 -0.1990
  112MPD2    C4 1710   0.125   4.554  11.464 -0.3242 -0.1968  1.1164
  112MPD2    C5 1711   0.027   4.456  11.488 -0.4235  0.8064 -0.2257
  112MPD2     H 1712   0.043   4.608  11.141 -0.1780 -2.9062 -0.9833
  112MPD2    H1 1713   0.187   4.585  11.547  0.7389 -1.2031  0.6942
  112MPD2    H2 1714   4.600   4.332  11.412  0.7401 -0.8040 -0.6274
  112MPD2    H3 1715   0.007   4.415  11.586  0.8293 -3.3009 -1.6931
  112MPD2     N 1716   0.243   4.691  11.312  0.1358  0.1530  0.3220
  112MPD2    H5 1717   0.292   0.000  11.394 -2.1420  1.5983  1.0750
  112MPD2    N1 1718   4.604   4.435  11.151 -0.1707 -0.5171  0.1267
  112MPD2    H7 1719   4.623   4.498  11.074  1.5127 -0.4640  0.5858
  113MPD2     C 1720   3.343   2.630   0.763  0.4616  0.6630 -0.0323
  113MPD2    C1 1721   3.260   2.712   0.696  0.8588  0.1408 -0.0625
  113MPD2    C2 1722   3.138   2.670   0.644 -0.5870  0.0776  0.4499
  113MPD2    C3 1723   3.103   2.533   0.672 -0.4348  0.0806 -0.0132
  113MPD2    C4 1724   3.191   2.443   0.741 -0.4568  0.3313  0.3481
  113MPD2    C5 1725   3.309   2.497   0.786  0.1607  1.1589 -0.1061
  113MPD2     H 1726   3.068   2.738   0.597  0.9847  0.9740 -0.6063
  113MPD2    H1 1727   3.166   2.339   0.756 -1.4993  0.5074 -0.1479
  113MPD2    H2 1728   3.442   2.663   0.792  1.3058 -2.8401  1.0770
  113MPD2    H3 1729   3.383   2.430   0.828  0.5281  1.8660  0.3727
  113MPD2     N 1730   2.980   2.479   0.634  0.8084 -0.5053  0.1278
  113MPD2    H5 1731   2.979   2.378   0.635  1.4843 -0.5322 -2.5880
  113MPD2    N1 1732   3.288   2.847   0.666 -0.0505  0.4161 -0.2944
  113MPD2    H7 1733   3.213   2.893   0.616  0.0427  0.4673 -0.3878
  114TCq2    C1 1734   2.872   2.551   0.590 -0.9344  0.3863  0.0905
  114TCq2    O2 1735   2.834   2.667   0.621  0.1282  0.1253  0.5134
  114TCq2    C2 1736   2.759   2.459   0.566 -0.0420  0.3188 -0.1289
  114TCq2    C3 1737   2.659   2.518   0.483 -0.3531  0.4214  0.8445
  114TCq2    C4 1738   2.536   2.450   0.494  0.9175 -0.0358 -0.0045
  114TCq2    C5 1739   2.516   2.341   0.563 -0.1743 -0.2849  0.3392
  114TCq2    C6 1740   2.618   2.291   0.640 -0.3854 -0.1198  1.1005
  114TCq2    C7 1741   2.739   2.348   0.636 -0.7191 -0.3487 -0.5108
  114TCq2    C8 1742   2.596   2.158   0.712  0.0945 -0.8500 -0.0480
  114TCq2    O4 1743   2.671   2.070   0.677 -0.4579  0.0485  0.2837
  114TCq2    C9 1744   2.439   2.495   0.401 -0.6903 -0.4192  0.2303
  114TCq2    O5 1745   2.319   2.470   0.431  0.1388 -0.3427  0.3608
  114TCq2    O6 1746   2.475   2.576   0.315 -0.1822 -0.3969  0.8314
  114TCq2    H2 1747   2.670   2.617   0.441  0.0454  0.7380  1.6902
  114TCq2    H3 1748   2.419   2.295   0.555  0.1942 -0.8592 -0.7782
  114TCq2    H4 1749   2.818   2.299   0.693 -3.3815  1.4725  4.6616
  115TMC2    C1 1750   4.371   0.714   0.401 -0.2276 -0.1478  0.6874
  115TMC2    C2 1751   4.507   0.689   0.399 -0.9548 -0.1535 -0.0137
  115TMC2    C3 1752   4.588   0.791   0.387  0.3745  0.2401 -0.0401
  115TMC2    C4 1753   4.325   0.845   0.397 -0.1964 -0.4476  0.2969
  115TMC2    C5 1754   4.416   0.942   0.379 -0.2085 -0.0948  0.8779
  115TMC2    C6 1755   4.544   0.920   0.373  0.4389  0.1349 -0.4426
  115TMC2     C 1756   4.285   0.615   0.348  0.6166  0.9131 -0.0682
  115TMC2     O 1757   4.332   0.510   0.300  0.1112 -0.7009  0.4256
  115TMC2     H 1758   4.542   0.586   0.407 -2.2016 -0.7585 -2.3535
  115TMC2    H1 1759   4.224   0.876   0.375 -0.4962 -1.2553  0.5559
  115TMC2    H2 1760   4.616   0.998   0.353  1.6016 -0.3783  1.7786
  115TMC2    C7 1761   4.359   1.065   0.325  0.2087 -0.2735 -0.3106
  115TMC2    C8 1762   4.722   0.752   0.358 -0.7830 -0.3925  0.0650
  115TMC2    O1 1763   4.266   1.122   0.381  0.0564 -0.2894  0.1004
  115TMC2    O2 1764   0.017   0.669   0.274 -0.2456  0.1152  0.1204
  115TMC2    O5 1765   0.078   0.858   0.384  0.0761 -0.0199  0.4447
  115TMC2    H5 1766   0.062   0.903   0.470  1.2008 -3.6474  2.5268
  116MPD2     C 1767   3.796   0.499   0.263 -0.3186  0.1700  0.3536
  116MPD2    C1 1768   3.908   0.421   0.238  0.3183  0.6333 -0.0493
  116MPD2    C2 1769   4.032   0.471   0.279 -0.4221 -0.6183  0.4429
  116MPD2    C3 1770   4.032   0.598   0.333 -0.1985  0.2957 -0.3731
  116MPD2    C4 1771   3.918   0.667   0.358 -0.0644  0.3715  0.5097
  116MPD2    C5 1772   3.797   0.619   0.323 -0.0720  0.4389 -0.5864
  116MPD2     H 1773   4.120   0.408   0.271 -0.0345 -0.0707  0.3834
  116MPD2    H1 1774   3.927   0.762   0.410  1.3155  0.6624 -0.2693
  116MPD2    H2 1775   3.696   0.476   0.228 -0.7194 -0.6764  2.0743
  116MPD2    H3 1776   3.708   0.678   0.339 -0.3125 -0.2286  0.5370
  116MPD2     N 1777   4.155   0.660   0.370  0.1027  0.2881 -0.3010
  116MPD2    H5 1778   4.149   0.734   0.439 -0.4765  1.7309 -1.9374
  116MPD2    N1 1779   3.899   0.300   0.164  0.1681 -0.1493  0.0598
  116MPD2    H7 1780   3.803   0.277   0.138  0.3837 -0.2676 -0.6298
  117TMC2    C1 1781   2.859   1.963  14.314 -0.3983 -0.1419  0.4718
  117TMC2    C2 1782   2.960   1.880  14.358 -0.1994 -0.0074  0.0708
  117TMC2    C3 1783   3.086   1.919  14.322  0.5034  0.3000 -0.2060
  117TMC2    C4 1784   2.882   2.082  14.245 -0.3196 -0.4665  0.5465
  117TMC2    C5 1785   3.010   2.113  14.217  0.7604  0.5822 -0.1188
  117TMC2    C6 1786   3.112   2.033  14.251 -0.1823  0.0983  0.3946
  117TMC2     C 1787   2.729   1.894  14.303 -0.5562 -0.3437 -0.2534
  117TMC2     O 1788   2.711   1.792  14.370 -0.6138 -0.0346  0.3397
  117TMC2     H 1789   2.950   1.790  14.417  0.9955  0.6030  1.1999
  117TMC2    H1 1790   2.802   2.149  14.217  1.0861 -0.0484 -2.5161
  117TMC2    H2 1791   3.212   2.054  14.213 -0.1174 -1.7636 -0.4206
  117TMC2    C7 1792   3.043   2.240  14.147  0.1603  0.4868 -0.5913
  117TMC2    C8 1793   3.193   1.822  14.322 -0.3383  0.4658  0.0967
  117TMC2    O1 1794   3.147   2.294  14.179  0.1581  0.3104 -0.2641
  117TMC2    O2 1795   3.313   1.841  14.328 -0.6181 -0.2657  0.0107
  117TMC2    O5 1796   3.126   1.706  14.301 -0.3088 -0.4815  0.5950
  117TMC2    H5 1797   3.031   1.711  14.277  0.0501 -0.6979 -0.8438
  118MPD2     C 1798   2.819   2.448  13.946  0.4197 -0.3923  0.2363
  118MPD2    C1 1799   2.939   2.412  14.005 -0.2058  0.4857 -0.5267
  118MPD2    C2 1800   3.050   2.493  13.994 -0.6896  0.1048 -0.0128
  118MPD2    C3 1801   3.040   2.609  13.924 -0.6905 -0.5170  0.1615
  118MPD2    C4 1802   2.922   2.644  13.864  0.4322 -0.0490  0.5965
  118MPD2    C5 1803   2.813   2.566  13.879  0.2973 -0.2960  0.0827
  118MPD2     H 1804   3.153   2.471  14.020  0.5519  2.8322 -2.6442
  118MPD2    H1 1805   2.917   2.740  13.813 -1.6208 -0.5073 -0.1070
  118MPD2    H2 1806   2.732   2.384  13.959  0.0325 -0.1091 -0.8908
  118MPD2    H3 1807   2.715   2.585  13.838 -0.6134 -2.0244  1.4523
  118MPD2     N 1808   3.149   2.697  13.899  0.0056 -0.0602 -0.0275
  118MPD2    H5 1809   3.135   2.765  13.825  1.9940 -0.1906 -0.5231
  118MPD2    N1 1810   2.942   2.286  14.061  0.0521  0.3104 -0.1291
  118MPD2    H7 1811   2.853   2.238  14.053  0.3881  0.0108 -2.0065
  119MPD2     C 1812   1.605   3.304  13.832  0.4109 -0.6696 -0.2635
  119MPD2    C1 1813   1.498   3.347  13.900  0.2068  0.1042  0.1766
  119MPD2    C2 1814   1.386   3.391  13.830 -0.0992  0.8417  0.1140
  119MPD2    C3 1815   1.385   3.380  13.692 -0.4259  0.3867  0.1990
  119MPD2    C4 1816   1.490   3.312  13.631 -0.1343 -0.4172  0.2811
  119MPD2    C5 1817   1.606   3.294  13.706 -0.8531  0.1040  0.2834
  119MPD2     H 1818   1.310   3.435  13.894  1.0005 -0.9225  2.6287
  119MPD2    H1 1819   1.481   3.287  13.526 -0.5648 -0.0842  0.2413
  119MPD2    H2 1820   1.698   3.287  13.885  1.8846  1.3129 -2.2283
  119MPD2    H3 1821   1.690   3.249  13.654  0.2769  3.7826 -1.0618
  119MPD2     N 1822   1.265   3.392  13.616  0.4292  0.6768  0.1292
  119MPD2    H5 1823   1.270   3.352  13.523  2.1157 -0.3450  0.6559
  119MPD2    N1 1824   1.511   3.358  14.037 -0.0589 -0.9315  0.1464
  119MPD2    H7 1825   1.601   3.344  14.080  0.6339  1.5512 -0.4951
  120TCq2    C1 1826   1.142   3.434  13.666  0.4495 -0.3743 -0.1396
  120TCq2    O2 1827   1.109   3.462  13.780 -0.1974  0.5710  0.5150
  120TCq2    C2 1828   1.042   3.439  13.565 -0.4839  0.1388  0.3366
  120TCq2    C3 1829   1.071   3.436  13.429 -0.4331 -0.0908  0.6184
  120TCq2    C4 1830   0.973   3.406  13.343 -0.2075  0.0016  0.1380
  120TCq2    C5 1831   0.843   3.399  13.386 -0.0242  0.1432 -0.2439
  120TCq2    C6 1832   0.815   3.415  13.521  0.6870  0.7539 -1.1679
  120TCq2    C7 1833   0.917   3.431  13.615  0.5665 -0.8437 -1.2657
  120TCq2    C8 1834   0.681   3.388  13.571 -0.7376  0.1343 -0.3181
  120TCq2    O4 1835   0.584   3.419  13.502  0.2738 -0.0597  0.4416
  120TCq2    C9 1836   1.002   3.370  13.202  0.3169  0.3598 -0.1330
  120TCq2    O5 1837   1.119   3.385  13.149  0.6564  0.1902 -0.2797
  120TCq2    O6 1838   0.903   3.345  13.129 -0.3096  0.3759  0.0924
  120TCq2    H2 1839   1.170   3.453  13.388 -0.0640 -0.4873  1.3525
  120TCq2    H3 1840   0.764   3.376  13.316 -0.1877 -0.6999  0.2121
  120TCq2    H4 1841   0.899   3.429  13.722  1.9458 -3.9640 -1.1153
  121TMC2    C1 1842   2.416   0.579  14.040  0.0889  0.1887 -0.2772
  121TMC2    C2 1843   2.388   0.492  14.149 -0.2274  0.3334 -0.2766
  121TMC2    C3 1844   2.260   0.450  14.153  0.3132 -0.1550  0.6328
  121TMC2    C4 1845   2.322   0.634  13.957  0.2615  0.5235 -0.2865
  121TMC2    C5 1846   2.194   0.592  13.971 -0.2607  0.0142  0.1559
  121TMC2    C6 1847   2.161   0.499  14.069 -0.3587 -0.0295 -0.5850
  121TMC2     C 1848   2.552   0.602  14.018 -0.2767 -0.0626  0.1123
  121TMC2     O 1849   2.625   0.558  14.110 -0.2435 -0.5878  0.4877
  121TMC2     H 1850   2.472   0.450  14.204 -1.8481 -1.4745  0.8116
  121TMC2    H1 1851   2.349   0.702  13.876  0.8018  0.0641 -0.4905
  121TMC2    H2 1852   2.056   0.477  14.088 -0.3953  0.4373 -0.2526
  121TMC2    C7 1853   2.104   0.607  13.858 -0.5218 -0.2187 -0.1847
  121TMC2    C8 1854   2.216   0.359  14.252  0.0594  0.2533 -0.3333
  121TMC2    O1 1855   2.126   0.702  13.780 -0.3105 -0.4407  0.0403
  121TMC2    O2 1856   2.096   0.326  14.251  0.3457 -0.4659  0.1648
  121TMC2    O5 1857   2.306   0.364  14.353  0.1662  0.0464  0.5124
  121TMC2    H5 1858   2.395   0.392  14.322  1.3764 -3.1745  1.0315
  122MPD2     C 1859   2.824   0.653  13.939 -0.5017  0.9771 -0.1890
  122MPD2    C1 1860   2.723   0.685  13.855  0.5024 -0.4609  0.2073
  122MPD2    C2 1861   2.748   0.757  13.744 -0.2409 -0.1452  0.0418
  122MPD2    C3 1862   2.879   0.777  13.706 -0.7638 -0.2761 -0.0587
  122MPD2    C4 1863   2.981   0.728  13.780 -0.2644 -0.2586  0.3012
  122MPD2    C5 1864   2.955   0.668  13.902  0.2647  0.2366 -0.7397
  122MPD2     H 1865   2.665   0.798  13.689  0.7602  2.5439  0.5319
  122MPD2    H1 1866   3.084   0.753  13.760 -1.0282  1.6554 -1.2577
  122MPD2    H2 1867   2.820   0.598  14.032 -0.2614 -0.8228 -1.2510
  122MPD2    H3 1868   3.034   0.627  13.963  0.2963 -1.2461 -1.7736
  122MPD2     N 1869   2.911   0.837  13.586 -0.0135 -0.4458 -0.1959
  122MPD2    H5 1870   3.011   0.850  13.582 -0.2474  0.5573 -2.6985
  122MPD2    N1 1871   2.585   0.660  13.898  0.0052  0.9937  0.5864
  122MPD2    H7 1872   2.510   0.674  13.831 -0.3457  0.9921  0.9820
  123MPD2     C 1873   4.185   2.704   9.965  0.5055  0.8397 -0.3762
  123MPD2    C1 1874   4.304   2.755   9.996 -0.7915 -0.3027 -0.1435
  123MPD2    C2 1875   4.373   2.836   9.910 -0.5169  0.1830 -0.3751
  123MPD2    C3 1876   4.309   2.875   9.788 -0.4117  0.3290  0.6979
  123MPD2    C4 1877   4.180   2.828   9.761  0.3982 -0.2742 -0.0622
  123MPD2    C5 1878   4.119   2.739   9.852 -0.6404 -0.4219  0.2524
  123MPD2     H 1879   4.472   2.873   9.935  0.1191 -2.7284  1.3487
  123MPD2    H1 1880   4.124   2.859   9.674  0.3438 -0.9483 -0.2694
  123MPD2    H2 1881   4.144   2.629  10.031  0.2595  0.5381 -0.8655
  123MPD2    H3 1882   4.019   2.703   9.828  0.0089 -1.4037 -1.0074
  123MPD2     N 1883   4.377   2.948   9.688  0.5602  0.0804 -0.1625
  123MPD2    H5 1884   4.474   2.962   9.715  0.1294  2.4179  0.1773
  123MPD2    N1 1885   4.357   2.703  10.117  0.8896 -0.2412 -0.2730
  123MPD2    H7 1886   4.302   2.626  10.153 -1.6341  0.9171 -1.6964
  124TCq2    C1 1887   4.331   2.984   9.562 -0.6366  0.2903 -0.4795
  124TCq2    O2 1888   4.215   3.001   9.522  0.8900 -0.8132 -0.0882
  124TCq2    C2 1889   4.441   3.016   9.469 -0.7909  0.0631 -0.5922
  124TCq2    C3 1890   4.418   3.102   9.372  0.0850  0.3903  0.3745
  124TCq2    C4 1891   4.527   3.166   9.315  0.0625 -0.3908 -0.5279
  124TCq2    C5 1892   4.652   3.127   9.340  0.5413 -0.1011 -0.1808
  124TCq2    C6 1893   4.673   3.029   9.435  0.8882  0.0636 -0.4016
  124TCq2    C7 1894   4.566   2.970   9.497  0.1104  0.3787  0.0891
  124TCq2    C8 1895   0.081   2.973   9.464  0.4385  0.2720 -0.5582
  124TCq2    O4 1896   0.086   2.899   9.560 -0.4876 -0.2093 -0.1110
  124TCq2    C9 1897   4.507   3.267   9.216  0.5665  0.0504  0.3040
  124TCq2    O5 1898   4.399   3.333   9.220 -0.4011 -0.1692  0.2754
  124TCq2    O6 1899   4.605   3.314   9.151 -0.2076 -0.4971 -0.2819
  124TCq2    H2 1900   4.317   3.141   9.362 -0.1868 -0.3701  0.1500
  124TCq2    H3 1901   0.011   3.169   9.287  0.4077  2.0388  1.3200
  124TCq2    H4 1902   4.578   2.898   9.577  0.2321  1.6724  1.2414
  125TMC2    C1 1903   0.866   0.671   9.793 -0.0948 -0.1825 -0.3635
  125TMC2    C2 1904   0.831   0.796   9.738  0.3367  0.1980  0.0409
  125TMC2    C3 1905   0.735   0.817   9.651 -0.9013  0.4208 -0.2407
  125TMC2    C4 1906   0.782   0.567   9.757  0.5441  0.5028 -0.0132
  125TMC2    C5 1907   0.682   0.593   9.670  1.1093 -0.6395 -0.1263
  125TMC2    C6 1908   0.653   0.716   9.617 -0.8428 -0.3583 -0.0576
  125TMC2     C 1909   0.990   0.653   9.850  0.2895  0.7140 -0.0993
  125TMC2     O 1910   1.080   0.731   9.822 -0.1299  0.6291 -0.3279
  125TMC2     H 1911   0.890   0.882   9.767  0.4548 -0.4545  1.7352
  125TMC2    H1 1912   0.810   0.472   9.800 -0.6906  1.7337  3.4749
  125TMC2    H2 1913   0.586   0.730   9.533 -1.6585  0.0794  0.6582
  125TMC2    C7 1914   0.620   0.484   9.588  0.1878  1.3040 -0.7190
  125TMC2    C8 1915   0.727   0.958   9.606 -0.1735  0.1621 -0.1965
  125TMC2    O1 1916   0.517   0.513   9.528  0.0894 -0.1234  0.2842
  125TMC2    O2 1917   0.732   1.061   9.668 -0.3610  0.0533  0.1905
  125TMC2    O5 1918   0.715   0.952   9.469  0.3686  0.4735  0.3997
  125TMC2    H5 1919   0.721   0.864   9.426  1.2160 -0.2781  2.0760
  126MPD1     C 1920   1.289   0.405  10.192 -1.1896 -0.2484  0.6956
  126MPD1    C1 1921   1.324   0.501  10.095 -0.4964  0.2815 -0.2924
  126MPD1    C2 1922   1.221   0.549  10.017  0.4301 -0.2483  0.0641
  126MPD1    C3 1923   1.091   0.505  10.017  0.6702  0.3775  0.0610
  126MPD1    C4 1924   1.060   0.408  10.116  0.2252 -0.3548 -0.0316
  126MPD1    C5 1925   1.161   0.366  10.203 -0.0926  0.1316  0.0668
  126MPD1     H 1926   1.236   0.623   9.939  1.2495  1.4646  1.8762
  126MPD1    H1 1927   0.959   0.372  10.135  0.8785 -0.8838  2.4820
  126MPD1    H2 1928   1.351   0.352  10.263 -0.1464  2.5353  1.9019
  126MPD1    H3 1929   1.130   0.292  10.276  0.4241 -0.4821 -0.3353
  126MPD1     N 1930   0.983   0.552   9.943  0.1789  0.4936 -0.9802
  126MPD1    H5 1931   0.891   0.512   9.962  0.9015 -0.6824  0.0139
  126MPD1    N1 1932   1.447   0.563  10.088 -0.2482 -0.8351 -0.1667
  126MPD1    H6 1933   1.510   0.487  10.110  1.3589  0.1935 -1.1978
  126MPD1    H7 1934   1.477   0.580   9.992 -1.2287  2.3596  0.0721
  127MPD2     C 1935   2.485   4.139   9.135  0.2446  0.6088 -0.7638
  127MPD2    C1 1936   2.563   4.115   9.249 -0.9115 -0.4866  0.0613
  127MPD2    C2 1937   2.532   4.193   9.362 -0.1260  0.2177 -0.3819
  127MPD2    C3 1938   2.422   4.279   9.360 -0.3325  0.0264 -0.2864
  127MPD2    C4 1939   2.362   4.313   9.241 -0.0594  0.6916 -0.0075
  127MPD2    C5 1940   2.389   4.238   9.132 -0.5410  0.4700 -0.9767
  127MPD2     H 1941   2.579   4.180   9.459 -2.0055 -0.6247  0.4108
  127MPD2    H1 1942   2.291   4.395   9.237 -0.0768  0.6310 -1.1668
  127MPD2    H2 1943   2.499   4.079   9.046  0.2992 -1.1389  0.4350
  127MPD2    H3 1944   2.330   4.256   9.043  0.7773 -2.1200 -2.3771
  127MPD2     N 1945   2.378   4.336   9.483 -0.5712  0.0116  0.1549
  127MPD2    H5 1946   2.425   4.298   9.565  0.6453 -0.1668 -0.6333
  127MPD2    N1 1947   2.642   3.998   9.244 -0.3693  0.4022 -0.5926
  127MPD2    H7 1948   2.653   3.937   9.163 -2.2738 -1.2667  0.4014
  128TCq2    C1 1949   2.714   3.955   9.351 -0.8371 -0.4220  1.0830
  128TCq2    O2 1950   2.752   4.018   9.446 -0.7451  0.6725  0.1138
  128TCq2    C2 1951   2.764   3.822   9.328 -0.6603 -0.4800  0.2363
  128TCq2    C3 1952   2.860   3.769   9.410  0.6151  0.1153 -0.2452
  128TCq2    C4 1953   2.897   3.637   9.401 -0.1579  0.0523  0.6252
  128TCq2    C5 1954   2.834   3.554   9.305 -0.5177 -0.9764 -0.1486
  128TCq2    C6 1955   2.730   3.608   9.234 -0.1345 -0.3317  0.6809
  128TCq2    C7 1956   2.697   3.739   9.237  0.2676  0.1078 -0.9200
  128TCq2    C8 1957   2.620   3.515   9.184 -0.6211  0.5990 -0.1693
  128TCq2    O4 1958   2.548   3.565   9.100 -0.1888 -0.8862 -0.4039
  128TCq2    C9 1959   2.988   3.586   9.502  0.0342 -0.2470  0.2526
  128TCq2    O5 1960   3.031   3.666   9.588  0.0649  0.1301 -0.7280
  128TCq2    O6 1961   3.013   3.462   9.497 -0.2064 -0.2251 -0.0605
  128TCq2    H2 1962   2.912   3.845   9.467 -1.3544 -0.0611  1.8064
  128TCq2    H3 1963   2.861   3.451   9.290 -1.8053 -1.1844 -1.0345
  128TCq2    H4 1964   2.605   3.765   9.185  0.7800  1.1867 -1.2750
  129MPD2     C 1965   1.488   4.357   0.996 -0.3785  0.3211 -0.2274
  129MPD2    C1 1966   1.500   4.477   1.065  0.0454  0.0593  0.7107
  129MPD2    C2 1967   1.601   4.568   1.025  0.0573  0.2101  0.1624
  129MPD2    C3 1968   1.674   4.541   0.908 -0.2347 -0.7531  0.1839
  129MPD2    C4 1969   1.655   4.424   0.839 -0.1414 -0.4646  0.9934
  129MPD2    C5 1970   1.573   4.326   0.891 -0.3804 -0.0755 -0.4327
  129MPD2     H 1971   1.591   4.666   1.070 -0.2552 -0.1920  0.9637
  129MPD2    H1 1972   1.701   4.409   0.742 -1.1137  2.9498 -0.0021
  129MPD2    H2 1973   1.407   4.286   1.000 -0.1462  0.1329  1.1427
  129MPD2    H3 1974   1.561   4.233   0.837 -0.9528  0.0278 -0.4819
  129MPD2     N 1975   1.773   4.634   0.878 -0.2622 -0.0553 -0.3443
  129MPD2    H5 1976   1.782   4.717   0.936  0.4008  0.8137 -1.7071
  129MPD2    N1 1977   1.423   4.504   1.180 -0.6121  0.4283 -0.0024
  129MPD2    H7 1978   1.432   4.596   1.222  1.2438  0.0665  0.3770
  130TCq2    C1 1979   1.316   4.425   1.221  1.0521  0.1012 -0.5290
  130TCq2    O2 1980   1.292   4.309   1.191 -0.0039  0.0888  0.0943
  130TCq2    C2 1981   1.244   4.476   1.336  0.0169  0.3502 -0.6224
  130TCq2    C3 1982   1.258   4.612   1.361 -0.3838  0.0750 -0.2330
  130TCq2    C4 1983   1.198   4.659   1.473 -0.3438  0.3545  0.1248
  130TCq2    C5 1984   1.114   4.578   1.556 -0.9423 -0.0946  0.4585
  130TCq2    C6 1985   1.113   4.440   1.535 -0.3739  0.3112  0.2845
  130TCq2    C7 1986   1.175   4.397   1.418  0.1113 -0.0153  0.5257
  130TCq2    C8 1987   1.003   4.362   1.579 -0.4017  0.1094  0.3027
  130TCq2    O4 1988   0.896   4.423   1.571 -0.4214 -0.0751  0.4248
  130TCq2    C9 1989   1.206   0.073   1.497 -0.3357  0.0558  1.0058
  130TCq2    O5 1990   1.178   0.103   1.614 -0.8271 -0.7272  0.1490
  130TCq2    O6 1991   1.253   0.150   1.414 -0.2870  0.7498  0.2357
  130TCq2    H2 1992   1.308   4.686   1.300  3.1741 -2.4991 -0.4054
  130TCq2    H3 1993   1.062   4.625   1.638  1.1419 -1.0414  2.3344
  130TCq2    H4 1994   1.168   4.291   1.398 -0.8833  0.2187 -0.3464
  131MPD2     C 1995   0.534   2.871  10.545 -0.1930  0.2090 -0.0154
  131MPD2    C1 1996   0.476   2.910  10.426 -0.2766  0.1518  0.4821
  131MPD2    C2 1997   0.348   2.871  10.400 -0.0155 -0.7509  0.6476
  131MPD2    C3 1998   0.283   2.784  10.483  0.3476  0.4455  0.2441
  131MPD2    C4 1999   0.334   2.750  10.605 -0.0413  0.2056  0.7437
  131MPD2    C5 2000   0.460   2.790  10.627  0.0855  0.4234 -0.7219
  131MPD2     H 2001   0.296   2.896  10.308 -0.1383 -1.3778  0.5478
  131MPD2    H1 2002   0.297   2.672  10.671  1.6920 -1.8478 -0.6585
  131MPD2    H2 2003   0.634   2.893  10.580 -0.6193  0.3280  1.1234
  131MPD2    H3 2004   0.503   2.755  10.720 -2.1787 -0.0714  0.1317
  131MPD2     N 2005   0.162   2.735  10.443 -0.5210  0.6967 -0.1628
  131MPD2    H5 2006   0.134   2.746  10.346 -0.8831 -3.3118 -0.5241
  131MPD2    N1 2007   0.550   2.988  10.340  0.5671  0.3314  0.3452
  131MPD2    H7 2008   0.644   3.013  10.369  1.2283 -1.2722 -0.3759
  132TCq2    C1 2009   0.570   3.262   9.829  0.0238  0.1770 -0.3378
  132TCq2    O2 2010   0.572   3.157   9.767  0.0750 -0.9578 -0.2733
  132TCq2    C2 2011   0.594   3.251   9.972 -0.8895  0.5872 -0.6762
  132TCq2    C3 2012   0.643   3.357  10.041  0.6389  0.1951  0.0436
  132TCq2    C4 2013   0.677   3.335  10.171  0.0315  0.1817 -0.3178
  132TCq2    C5 2014   0.659   3.211  10.236 -0.2222 -0.1671  0.1517
  132TCq2    C6 2015   0.614   3.105  10.156 -0.2573 -0.9749  0.3869
  132TCq2    C7 2016   0.586   3.123  10.022 -0.0867 -0.2432 -0.3640
  132TCq2    C8 2017   0.514   3.019  10.216 -0.0123 -0.2456  0.2254
  132TCq2    O4 2018   0.413   2.991  10.152  0.1708 -0.4867  0.0127
  132TCq2    C9 2019   0.696   3.459  10.250  0.2466 -0.6965  0.2052
  132TCq2    O5 2020   0.686   3.569  10.192  0.3273  0.0899  0.2212
  132TCq2    O6 2021   0.685   3.443  10.375  0.1625  0.1698  0.2751
  132TCq2    H2 2022   0.638   3.455   9.995  2.6630 -0.0754 -0.7426
  132TCq2    H3 2023   0.675   3.218  10.343  1.2803  1.2516 -0.1624
  132TCq2    H4 2024   0.532   3.046   9.968 -1.9743  0.6592  0.2448
  133MPD2     C 2025   3.610   0.318   8.848 -0.9172 -0.6344 -0.8311
  133MPD2    C1 2026   3.728   0.384   8.863  0.4028  0.1409  0.3726
  133MPD2    C2 2027   3.837   0.311   8.924 -0.1484  0.8695  0.1279
  133MPD2    C3 2028   3.815   0.181   8.972 -0.1174  0.5088  0.3504
  133MPD2    C4 2029   3.699   0.113   8.939 -0.2760  0.1611  1.0418
  133MPD2    C5 2030   3.595   0.186   8.882 -0.0080 -0.3452 -0.4769
  133MPD2     H 2031   3.933   0.359   8.939  0.4440 -0.2780 -0.0446
  133MPD2    H1 2032   3.677   0.008   8.951 -0.7947 -0.0994 -2.2042
  133MPD2    H2 2033   3.527   0.372   8.802 -1.4336 -1.1336 -0.4811
  133MPD2    H3 2034   3.499   0.139   8.864 -0.7142  1.4758 -1.4573
  133MPD2     N 2035   3.911   0.102   9.040  0.1093 -0.1293 -0.1615
  133MPD2    H5 2036   3.891   0.003   9.051  0.0896 -0.1551 -0.4348
  133MPD2    N1 2037   3.728   0.524   8.826  0.5045  0.2060 -0.7415
  133MPD2    H7 2038   3.647   0.576   8.795 -1.2692 -1.6855  0.6690
  134TCq2    C1 2039   3.846   0.592   8.835  0.5959 -0.3235 -0.3169
  134TCq2    O2 2040   3.962   0.559   8.860  0.7836  0.3434  0.0379
  134TCq2    C2 2041   3.825   0.726   8.779  0.2830 -0.5328 -0.4129
  134TCq2    C3 2042   3.905   0.824   8.830 -0.2419 -0.6146  0.1110
  134TCq2    C4 2043   3.864   0.951   8.827  0.2018  0.0622  0.0670
  134TCq2    C5 2044   3.748   0.980   8.763 -0.1481  0.3357  0.7540
  134TCq2    C6 2045   3.665   0.879   8.718 -1.0301  0.1309  0.1335
  134TCq2    C7 2046   3.699   0.753   8.732  0.6306  0.1574  0.2068
  134TCq2    C8 2047   3.531   0.903   8.673 -0.1307 -0.0370 -0.4898
  134TCq2    O4 2048   3.482   0.814   8.600  0.0627  0.2027 -0.0038
  134TCq2    C9 2049   3.964   1.052   8.851  0.4698 -1.4256 -0.2790
  134TCq2    O5 2050   4.080   1.013   8.878 -0.7591  0.3615  0.0309
  134TCq2    O6 2051   3.916   1.152   8.896  0.0516  0.2872  0.0024
  134TCq2    H2 2052   3.994   0.800   8.886  0.0226 -2.2050 -0.9969
  134TCq2    H3 2053   3.728   1.086   8.754 -0.0730  0.1972 -0.9823
  134TCq2    H4 2054   3.627   0.680   8.697  1.6086  0.5424 -2.5520
  135MPD2     C 2055   2.322   4.706   9.256 -0.0230 -0.1926  0.0512
  135MPD2    C1 2056   2.348   0.020   9.379  0.8662 -0.0393  0.8823
  135MPD2    C2 2057   2.467   4.715   9.432  0.2284  0.2230 -0.3051
  135MPD2    C3 2058   2.550   4.619   9.369  0.1981  0.2705  0.1159
  135MPD2    C4 2059   2.524   4.578   9.246 -0.0084  0.0803  0.6467
  135MPD2    C5 2060   2.413   4.632   9.180 -0.3008 -0.4619 -0.4332
  135MPD2     H 2061   2.496   0.034   9.526  2.3919 -0.9449 -0.4444
  135MPD2    H1 2062   2.588   4.497   9.213 -0.6421  0.1411 -0.7305
  135MPD2    H2 2063   2.232   0.012   9.204  0.3469  1.7583  0.5643
  135MPD2    H3 2064   2.388   4.604   9.078  0.7913  1.9623 -1.3594
  135MPD2     N 2065   2.672   4.569   9.423 -0.4246 -0.3766 -0.0362
  135MPD2    H5 2066   2.727   4.499   9.375  2.2037  1.3222  0.4997
  135MPD2    N1 2067   2.266   0.106   9.447  0.3559  0.2275 -0.2096
  135MPD2    H7 2068   2.310   0.164   9.517  0.8683 -0.1579 -0.2139
  136TCq2    C1 2069   2.127   0.125   9.438 -0.0418 -0.6919  0.3906
  136TCq2    O2 2070   2.045   0.050   9.384 -0.4519 -0.2156 -0.6917
  136TCq2    C2 2071   2.066   0.249   9.490  0.5595 -0.7575  0.3740
  136TCq2    C3 2072   2.138   0.361   9.515 -0.9003  0.0511  0.4238
  136TCq2    C4 2073   2.069   0.474   9.560 -0.4240 -0.2803  0.7146
  136TCq2    C5 2074   1.931   0.481   9.560  0.2088  0.4932 -0.2018
  136TCq2    C6 2075   1.862   0.363   9.533  0.2597  0.0885  0.1191
  136TCq2    C7 2076   1.930   0.249   9.510 -0.6528 -0.4338  0.3713
  136TCq2    C8 2077   1.732   0.347   9.600 -0.0595 -0.2511  0.0918
  136TCq2    O4 2078   1.716   0.263   9.684 -0.0718  0.3574  0.6152
  136TCq2    C9 2079   2.143   0.580   9.622 -0.1507  0.3604  0.2775
  136TCq2    O5 2080   2.265   0.564   9.618  0.1212  0.2397  0.1287
  136TCq2    O6 2081   2.087   0.693   9.637 -0.0359  0.2157  0.2560
  136TCq2    H2 2082   2.246   0.360   9.522 -0.8886 -0.2335  0.2421
  136TCq2    H3 2083   1.884   0.565   9.610 -0.7597  0.6476 -1.3907
  136TCq2    H4 2084   1.873   0.157   9.501  0.5766 -1.1689  0.0661
  137MPD2     C 2085   2.096   3.898   9.961  0.0930  0.0303  0.1811
  137MPD2    C1 2086   2.033   4.009   9.906 -0.0604 -0.0211  0.4862
  137MPD2    C2 2087   2.000   4.107   9.989 -0.0932  0.1855  0.3459
  137MPD2    C3 2088   2.012   4.102  10.126 -0.1790  0.2228  0.2791
  137MPD2    C4 2089   2.075   3.991  10.181 -0.6931  0.1849 -0.2211
  137MPD2    C5 2090   2.120   3.896  10.101 -1.0880  0.5445 -0.1244
  137MPD2     H 2091   1.958   4.198   9.947  0.2079 -0.3174 -1.0229
  137MPD2    H1 2092   2.099   3.996  10.286 -0.8079 -1.7452 -0.1073
  137MPD2    H2 2093   2.120   3.809   9.904 -0.7840  0.4280 -0.8261
  137MPD2    H3 2094   2.161   3.810  10.152 -0.0459  0.2649 -1.4461
  137MPD2     N 2095   1.976   4.220  10.201 -0.8891  0.0126 -0.4725
  137MPD2    H5 2096   1.956   4.305  10.150 -1.9134  0.4286  0.6233
  137MPD2    N1 2097   2.025   4.012   9.767  0.3447  0.0385  0.0850
  137MPD2    H7 2098   2.048   3.935   9.705 -1.9999  1.1981 -2.2325
  138TCq2    C1 2099   1.977   4.119   9.702 -0.1528 -0.5690  0.5468
  138TCq2    O2 2100   1.907   4.215   9.740 -0.2865 -0.2496 -0.1715
  138TCq2    C2 2101   1.932   4.098   9.559  0.0936 -0.0202 -0.0167
  138TCq2    C3 2102   1.889   4.215   9.503 -0.3790  0.4646 -0.0766
  138TCq2    C4 2103   1.771   4.220   9.435 -0.5396  0.1110 -0.1785
  138TCq2    C5 2104   1.714   4.108   9.384  0.6591 -0.3794 -0.2885
  138TCq2    C6 2105   1.763   3.998   9.429 -0.3752 -0.5294  0.1108
  138TCq2    C7 2106   1.872   3.986   9.519 -0.3755 -0.6526  0.0765
  138TCq2    C8 2107   1.690   3.876   9.407 -0.0351 -0.3262  0.3144
  138TCq2    O4 2108   1.750   3.774   9.428 -0.1522 -0.5224 -0.4097
  138TCq2    C9 2109   1.714   4.349   9.409 -0.1878 -0.2166  0.1897
  138TCq2    O5 2110   1.588   4.360   9.424  0.3496 -0.3022  0.2622
  138TCq2    O6 2111   1.800   4.444   9.390  0.4656  0.1828  0.7001
  138TCq2    H2 2112   1.937   4.311   9.521 -2.4042  1.3570  0.6233
  138TCq2    H3 2113   1.633   4.113   9.312  0.5298 -2.2649 -0.2771
  138TCq2    H4 2114   1.913   3.889   9.543  0.3442 -0.3481  0.0613
  139TMC2    C1 2115   2.439   2.879  13.521 -0.1954 -0.5413 -0.6797
  139TMC2    C2 2116   2.366   2.854  13.405 -0.2821 -0.6148  0.0435
  139TMC2    C3 2117   2.300   2.961  13.342 -0.3439  0.7503 -0.1038
  139TMC2    C4 2118   2.438   3.000  13.580 -0.8832  0.0961 -0.4060
  139TMC2    C5 2119   2.365   3.100  13.524 -0.3228 -0.7601  0.0264
  139TMC2    C6 2120   2.287   3.083  13.414 -0.3793 -0.7952  0.4392
  139TMC2     C 2121   2.512   2.768  13.580  0.1456  0.0230  0.2925
  139TMC2     O 2122   2.593   2.800  13.663  0.4333  0.0044 -0.3823
  139TMC2     H 2123   2.379   2.762  13.348  2.0171  0.4087 -1.0553
  139TMC2    H1 2124   2.494   3.018  13.671  0.2402  1.6076 -1.3861
  139TMC2    H2 2125   2.227   3.164  13.374  1.2286  1.3108  2.3883
  139TMC2    C7 2126   2.334   3.219  13.602  0.2415  0.1769  0.5622
  139TMC2    C8 2127   2.260   2.946  13.207  0.4242 -0.1281  0.1309
  139TMC2    O1 2128   2.220   3.266  13.590  0.6129 -0.3398  0.2550
  139TMC2    O2 2129   2.220   2.839  13.157  0.1032 -0.5107 -0.3742
  139TMC2    O5 2130   2.262   3.060  13.138 -0.5002 -0.0552  0.1501
  139TMC2    H5 2131   2.317   3.129  13.180 -2.1028 -0.1719  2.4528
  140MPD2     C 2132   2.403   2.434  13.638  0.0609 -0.2172  0.1302
  140MPD2    C1 2133   2.492   2.530  13.614 -0.3658 -0.4655  0.7929
  140MPD2    C2 2134   2.625   2.509  13.602  0.3265 -0.1733 -0.5298
  140MPD2    C3 2135   2.678   2.376  13.609  0.3333  0.3767 -0.5116
  140MPD2    C4 2136   2.586   2.282  13.649 -0.4780  0.7594 -0.5910
  140MPD2    C5 2137   2.450   2.309  13.652 -0.5533  0.5990 -0.0253
  140MPD2     H 2138   2.696   2.589  13.584  1.1370 -1.0340 -1.1899
  140MPD2    H1 2139   2.620   2.180  13.664 -2.0910 -0.2317 -3.6876
  140MPD2    H2 2140   2.297   2.454  13.635  0.1327 -0.1437 -1.8700
  140MPD2    H3 2141   2.385   2.225  13.673  2.2430 -1.7179 -0.5994
  140MPD2     N 2142   2.812   2.357  13.573  0.0843  0.0297 -0.1365
  140MPD2    H5 2143   2.857   2.440  13.536 -0.0550  1.2735  2.4927
  140MPD2    N1 2144   2.435   2.655  13.578  1.0375  0.5216 -0.2516
  140MPD2    H7 2145   2.335   2.656  13.556  1.8411  2.0669 -3.8433
  141TCq2    C1 2146   3.059   4.180  14.093  0.2148 -1.1401 -0.1864
  141TCq2    O2 2147   3.061   4.299  14.065  0.3793  0.6360 -0.0669
  141TCq2    C2 2148   3.076   4.135  14.232 -0.7311 -1.0008  0.5782
  141TCq2    C3 2149   3.084   4.002  14.264  0.0599 -0.0255 -0.2833
  141TCq2    C4 2150   3.114   3.966  14.393 -0.1110  0.2647  0.8955
  141TCq2    C5 2151   3.121   4.062  14.492 -0.4896 -0.0294 -0.2041
  141TCq2    C6 2152   3.111   4.190  14.458 -0.8377  0.3714  0.2235
  141TCq2    C7 2153   3.076   4.231  14.326  0.2420  0.2192  0.0697
  141TCq2    C8 2154   3.103   4.287  14.560  1.1024 -0.0078 -0.1252
  141TCq2    O4 2155   3.061   4.253  14.667  0.2277 -0.3577 -0.1561
  141TCq2    C9 2156   3.136   3.830  14.422 -0.1204 -0.2957 -0.2796
  141TCq2    O5 2157   3.181   3.800  14.535  0.1432 -0.2938 -0.0294
  141TCq2    O6 2158   3.087   3.744  14.344 -0.0340 -1.0403 -0.5093
  141TCq2    H2 2159   3.092   3.918  14.195 -3.5813 -0.6627  0.0359
  141TCq2    H3 2160   3.147   4.025  14.591  0.1534 -1.1256 -0.7868
  141TCq2    H4 2161   3.037   4.327  14.296  0.3470 -0.3070 -1.7339
  142MPD2     C 2162   0.612   2.234  10.506  0.0311  0.2762 -0.3125
  142MPD2    C1 2163   0.549   2.234  10.383  0.0419 -0.0304  0.3627
  142MPD2    C2 2164   0.559   2.347  10.306  0.1287 -0.4634  0.1783
  142MPD2    C3 2165   0.638   2.456  10.337 -0.2336 -0.4585 -0.1345
  142MPD2    C4 2166   0.692   2.454  10.463 -0.3199 -0.1086  0.7954
  142MPD2    C5 2167   0.674   2.347  10.547 -0.5054 -0.9138 -0.1147
  142MPD2     H 2168   0.503   2.352  10.213 -0.3039  1.5549  0.5446
  142MPD2    H1 2169   0.747   2.538  10.503 -0.4206  0.4597 -0.2579
  142MPD2    H2 2170   0.588   2.151  10.572  0.3889 -0.4128 -1.0469
  142MPD2    H3 2171   0.716   2.347  10.646 -0.3767 -2.6636 -0.1638
  142MPD2     N 2172   0.648   2.575  10.261  0.4619  0.0252 -0.3300
  142MPD2    H5 2173   0.710   2.649  10.292 -1.3489  1.0068  0.9599
  142MPD2    N1 2174   0.449   2.131  10.369 -0.1282  0.5003  0.7234
  142MPD2    H7 2175   0.447   2.061  10.442 -0.8807 -0.5634 -0.3110
  143TCq2    C1 2176   0.567   2.605  10.151 -0.1923 -0.2250 -0.6717
  143TCq2    O2 2177   0.454   2.561  10.130  0.0226  0.1965 -0.0109
  143TCq2    C2 2178   0.626   2.696  10.050  0.4542 -0.6003 -0.2329
  143TCq2    C3 2179   0.757   2.731  10.058  0.4764  0.2924  0.1257
  143TCq2    C4 2180   0.812   2.777   9.943  0.5261  0.3686 -0.0405
  143TCq2    C5 2181   0.741   2.808   9.837  0.0035 -0.7214  0.1611
  143TCq2    C6 2182   0.603   2.791   9.840 -0.1038 -0.0947 -1.2236
  143TCq2    C7 2183   0.544   2.727   9.947 -0.6315  0.7455 -0.6599
  143TCq2    C8 2184   0.518   2.814   9.731 -0.7379  0.5727 -0.1599
  143TCq2    O4 2185   0.397   2.777   9.742  0.4893 -0.0589  0.2196
  143TCq2    C9 2186   0.954   2.785   9.935 -0.0058 -0.1463  0.2033
  143TCq2    O5 2187   1.016   2.765  10.043  0.5146  0.3681  0.1195
  143TCq2    O6 2188   1.012   2.803   9.826  0.4267  0.7839 -0.0701
  143TCq2    H2 2189   0.827   2.690  10.130 -2.2368  1.1977  3.2648
  143TCq2    H3 2190   0.793   2.851   9.752 -0.0291  2.6336  1.8448
  143TCq2    H4 2191   0.443   2.689   9.941 -0.8748  0.7895  3.0126
  144MPD2     C 2192   2.774   2.054   0.090  0.5417  0.0592 -0.5753
  144MPD2    C1 2193   2.829   1.935   0.057 -0.1364 -0.1032  0.2575
  144MPD2    C2 2194   2.910   1.877   0.152 -0.0701 -0.5538 -0.7066
  144MPD2    C3 2195   2.904   1.924   0.288  0.1274  0.0630  0.2059
  144MPD2    C4 2196   2.846   2.049   0.315 -0.0593 -0.5890  0.4983
  144MPD2    C5 2197   2.782   2.116   0.215  0.0604  0.4789  0.6175
  144MPD2     H 2198   2.963   1.786   0.128  1.2805  0.4760 -1.6397
  144MPD2    H1 2199   2.845   2.096   0.413  2.9109 -1.1239  0.7690
  144MPD2    H2 2200   2.732   2.106   0.005  2.5040  2.8727  0.1909
  144MPD2    H3 2201   2.750   2.219   0.226  1.3672  0.7674  1.7509
  144MPD2     N 2202   2.951   1.861   0.403 -0.3680 -0.0386  0.3635
  144MPD2    H5 2203   2.944   1.901   0.496 -0.7122 -1.8039  1.0943
  144MPD2    N1 2204   2.830   1.879  17.627 -0.5336 -0.4247  0.3252
  144MPD2    H7 2205   2.877   1.792  17.603  1.2016  0.0538  1.9929
  145TCq2    C1 2206   2.993   1.730   0.408  0.6297 -0.1645  0.2679
  145TCq2    O2 2207   2.983   1.652   0.316 -0.1017 -0.0672  0.3267
  145TCq2    C2 2208   3.023   1.681   0.536  0.0456 -0.8224 -0.0591
  145TCq2    C3 2209   3.007   1.551   0.553  0.1680 -0.3617  0.0923
  145TCq2    C4 2210   3.081   1.488   0.649 -0.3384 -0.5762 -0.7519
  145TCq2    C5 2211   3.154   1.564   0.739 -0.6145 -0.1645  0.2556
  145TCq2    C6 2212   3.148   1.700   0.725 -0.0513  0.6874  1.6381
  145TCq2    C7 2213   3.091   1.764   0.617 -1.1828  0.2166  0.2865
  145TCq2    C8 2214   3.226   1.776   0.822  0.3821 -0.0494 -0.4922
  145TCq2    O4 2215   3.324   1.723   0.873  0.0598 -0.4503  0.2385
  145TCq2    C9 2216   3.068   1.345   0.653 -0.3943 -0.1013  0.4367
  145TCq2    O5 2217   2.965   1.300   0.589  0.1537  0.1954  0.0003
  145TCq2    O6 2218   3.130   1.289   0.744  0.1657  0.6421  0.3772
  145TCq2    H2 2219   2.951   1.493   0.480 -0.9692 -0.1245  0.7798
  145TCq2    H3 2220   3.197   1.517   0.827  1.0026  0.5341 -0.1606
  145TCq2    H4 2221   3.108   1.870   0.600  0.7818 -0.4506 -1.9833
  146TMC2    C1 2222   4.300   0.775  12.809  0.4481 -0.5215  0.0144
  146TMC2    C2 2223   4.225   0.868  12.745  0.2582  0.3380  0.3522
  146TMC2    C3 2224   4.120   0.819  12.667 -0.0197  0.2406 -0.7382
  146TMC2    C4 2225   4.277   0.639  12.794  0.2933 -0.6411  0.8370
  146TMC2    C5 2226   4.172   0.591  12.721  0.4807  0.4438  0.0482
  146TMC2    C6 2227   4.092   0.685  12.653  0.0150  0.3828  0.4612
  146TMC2     C 2228   4.389   0.829  12.912  0.1459 -0.1642 -0.0272
  146TMC2     O 2229   4.384   0.946  12.946  0.4967 -0.5713 -0.0340
  146TMC2     H 2230   4.252   0.971  12.763  1.5458 -0.1113  1.0379
  146TMC2    H1 2231   4.341   0.560  12.830  1.1892 -0.0313  0.5788
  146TMC2    H2 2232   4.010   0.647  12.595 -0.8396 -1.9246  3.1652
  146TMC2    C7 2233   4.178   0.458  12.662 -0.4067  0.3063 -0.2999
  146TMC2    C8 2234   4.054   0.913  12.583 -0.7882  0.5604 -0.5894
  146TMC2    O1 2235   4.080   0.401  12.616  0.2756 -0.3499  0.7041
  146TMC2    O2 2236   4.034   1.031  12.606 -0.3866  0.3049 -0.4530
  146TMC2    O5 2237   3.991   0.838  12.484 -0.6143 -0.2581 -0.7673
  146TMC2    H5 2238   4.044   0.759  12.462 -2.0825 -2.0418  2.1882
  147MPD2     C 2239   4.471   0.042  12.516 -0.5145 -0.0435  0.0621
  147MPD2    C1 2240   4.549   0.147  12.560  0.9939 -0.0325  0.1976
  147MPD2    C2 2241   4.491   0.268  12.597 -0.3182  0.0841  0.2626
  147MPD2    C3 2242   4.356   0.284  12.614 -0.5358  0.2422 -0.2965
  147MPD2    C4 2243   4.277   0.179  12.571 -0.8135 -0.8892  0.9014
  147MPD2    C5 2244   4.339   0.064  12.526 -1.1615  0.0618  0.4798
  147MPD2     H 2245   4.555   0.354  12.615  0.6289 -0.5750  0.0097
  147MPD2    H1 2246   4.168   0.183  12.565 -0.8263 -1.8954  0.5030
  147MPD2    H2 2247   4.518   4.675  12.486  0.7524  1.4147 -2.4991
  147MPD2    H3 2248   4.275   4.710  12.487 -0.0047 -0.8381  0.4116
  147MPD2     N 2249   4.308   0.409  12.651  0.7312 -0.4328 -0.3468
  147MPD2    H5 2250   4.382   0.476  12.668  0.6988 -1.0347  2.1165
  147MPD2    N1 2251   4.691   0.135  12.547  0.4710 -0.3327  0.2840
  147MPD2    H7 2252   4.723   0.050  12.502  0.1500 -0.7753  0.9003
  148MPD2     C 2253   4.469   4.444  10.077  0.6705  0.2782 -0.7645
  148MPD2    C1 2254   4.556   4.345  10.080 -0.4665 -0.4209 -0.7378
  148MPD2    C2 2255   4.536   4.237   9.993  0.2101  0.1785 -0.2486
  148MPD2    C3 2256   4.420   4.225   9.915  0.3654  0.7565 -0.7551
  148MPD2    C4 2257   4.324   4.333   9.921  0.9547 -0.0152 -0.5098
  148MPD2    C5 2258   4.361   4.442   9.994  0.2308  0.1121 -0.8995
  148MPD2     H 2259   4.609   4.157   9.983 -1.4560 -1.3433 -0.3673
  148MPD2    H1 2260   4.245   4.338   9.848  0.3003  0.4425  0.2305
  148MPD2    H2 2261   4.485   4.529  10.142  1.3830 -0.9583  0.6748
  148MPD2    H3 2262   4.292   4.525   9.995  0.7214  0.4923  1.5521
  148MPD2     N 2263   4.391   4.126   9.820  0.3735  0.2187  0.0462
  148MPD2    H5 2264   4.294   4.122   9.788  0.4057 -2.3888  0.2890
  148MPD2    N1 2265   4.669   4.341  10.159  0.6606  0.1713  0.1214
  148MPD2    H7 2266   0.007   4.262  10.154 -0.1403 -0.2887 -2.3818
  149TCq2    C1 2267   4.706   4.438  10.240 -0.1901  0.6778  0.5364
  149TCq2    O2 2268   4.646   4.542  10.271 -0.6359 -0.4666 -0.0778
  149TCq2    C2 2269   0.103   4.421  10.310  0.3152  0.9275 -0.4774
  149TCq2    C3 2270   0.158   4.525  10.367 -0.3658  0.5746  0.5507
  149TCq2    C4 2271   0.273   4.504  10.444  0.9091 -0.0400 -0.7556
  149TCq2    C5 2272   0.297   4.380  10.490 -0.2487 -0.4934 -0.7172
  149TCq2    C6 2273   0.234   4.275  10.431 -0.5412 -0.1499  0.5949
  149TCq2    C7 2274   0.144   4.288  10.335  0.5191 -0.0314 -0.3086
  149TCq2    C8 2275   0.265   4.139  10.465 -0.3061 -0.4727 -0.5296
  149TCq2    O4 2276   0.237   4.047  10.384  0.3365 -0.1084 -0.8711
  149TCq2    C9 2277   0.314   4.616  10.522 -0.0168  0.2930 -0.3439
  149TCq2    O5 2278   0.228   4.701  10.539 -0.3405 -0.1380 -0.0415
  149TCq2    O6 2279   0.430   4.616  10.582 -0.1151  0.7403 -0.4456
  149TCq2    H2 2280   0.130   4.627  10.344  0.8145  0.5817 -0.8489
  149TCq2    H3 2281   0.374   4.367  10.564 -0.9750  0.5283  0.2069
  149TCq2    H4 2282   0.095   4.196  10.306  1.7343 -0.3451 -1.3741
  150MPD2     C 2283   1.666   2.991  11.909 -0.1244  0.3073  0.3496
  150MPD2    C1 2284   1.702   3.049  11.786 -0.8175  0.9116 -0.2973
  150MPD2    C2 2285   1.771   3.166  11.786  1.1143  0.7436  0.2139
  150MPD2    C3 2286   1.803   3.231  11.900  0.1888 -1.2049 -0.2905
  150MPD2    C4 2287   1.768   3.171  12.022 -0.8730 -0.7425 -0.2314
  150MPD2    C5 2288   1.709   3.050  12.027  0.0394  0.3781  0.2458
  150MPD2     H 2289   1.797   3.220  11.695 -0.9840  1.7382  0.1980
  150MPD2    H1 2290   1.800   3.218  12.114  0.0085  3.1212 -2.5009
  150MPD2    H2 2291   1.603   2.903  11.915 -1.7363  1.3842 -1.0015
  150MPD2    H3 2292   1.690   3.002  12.122 -1.9533  1.6717  0.5013
  150MPD2     N 2293   1.866   3.358  11.899  0.1682  0.3192  0.0084
  150MPD2    H5 2294   1.878   3.402  11.808 -0.4317  3.0776  1.2438
  150MPD2    N1 2295   1.639   2.986  11.672 -0.5769 -0.0640 -0.2343
  150MPD2    H7 2296   1.610   2.890  11.684  0.8590 -0.4850 -0.1791
  151TCq2    C1 2297   1.898   3.442  12.009  0.4427  0.2884 -0.0192
  151TCq2    O2 2298   1.908   3.422  12.130  0.3423  0.1841  0.1903
  151TCq2    C2 2299   1.951   3.577  11.969  0.4562  0.3765 -0.3493
  151TCq2    C3 2300   2.009   3.589  11.844 -0.8326 -0.0277  0.1745
  151TCq2    C4 2301   2.108   3.678  11.815  0.2404 -0.0317  1.0286
  151TCq2    C5 2302   2.146   3.763  11.918  0.4362 -0.0166  0.5295
  151TCq2    C6 2303   2.080   3.754  12.033 -0.2189  0.2327 -0.0828
  151TCq2    C7 2304   1.983   3.666  12.065 -0.2237  0.4000  0.0003
  151TCq2    C8 2305   2.166   3.792  12.153 -0.1281  0.5730 -0.6733
  151TCq2    O4 2306   2.109   3.829  12.254 -0.1398 -0.3915 -0.3565
  151TCq2    C9 2307   2.193   3.675  11.694 -0.2272  0.3808  0.2160
  151TCq2    O5 2308   2.192   3.570  11.633 -0.6437  0.0891  0.3027
  151TCq2    O6 2309   2.296   3.746  11.690 -0.1780 -0.3431 -0.8492
  151TCq2    H2 2310   1.991   3.515  11.767 -1.0148 -0.8385  0.9947
  151TCq2    H3 2311   2.217   3.841  11.894 -0.6637  0.9428  0.4241
  151TCq2    H4 2312   1.943   3.658  12.166 -0.8335 -0.8872 -0.3528
  152MPD2     C 2313   1.860   2.815  12.456 -0.4392  0.2043 -0.4332
  152MPD2    C1 2314   1.881   2.954  12.444  0.0999 -0.0247 -0.3182
  152MPD2    C2 2315   1.779   3.029  12.397 -0.0534  0.3488  0.1347
  152MPD2    C3 2316   1.650   2.981  12.383 -0.2432  0.5274 -0.6642
  152MPD2    C4 2317   1.635   2.847  12.403  0.0210  0.2285  0.7869
  152MPD2    C5 2318   1.744   2.764  12.418  0.2876 -0.3529 -0.2344
  152MPD2     H 2319   1.788   3.137  12.395  2.0061  0.1773  0.2123
  152MPD2    H1 2320   1.539   2.797  12.401  0.7878 -1.2227  0.1156
  152MPD2    H2 2321   1.933   2.743  12.493 -1.6757 -0.8431 -0.0262
  152MPD2    H3 2322   1.728   2.657  12.424 -0.1837 -0.2820 -0.2136
  152MPD2     N 2323   1.547   3.069  12.349  0.4976 -0.2789 -0.1021
  152MPD2    H5 2324   1.571   3.168  12.350 -0.1244 -0.1386  0.6512
  152MPD2    N1 2325   2.015   3.000  12.463  0.6239  0.2505  0.0598
  152MPD2    H7 2326   2.087   2.935  12.491  0.4771  0.7710  1.6492
  153TCq2    C1 2327   2.064   3.134  12.442  0.7642 -0.3414 -0.5042
  153TCq2    O2 2328   2.010   3.236  12.400  0.0880  0.0827  0.0828
  153TCq2    C2 2329   2.204   3.145  12.479  0.5145 -0.0973  0.1084
  153TCq2    C3 2330   2.288   3.035  12.467 -0.0728  0.0059 -0.3514
  153TCq2    C4 2331   2.417   3.056  12.519  0.0922  0.6125 -0.7043
  153TCq2    C5 2332   2.458   3.176  12.576 -0.4862  0.5420  0.2689
  153TCq2    C6 2333   2.374   3.284  12.554 -0.3233 -0.0271  0.4199
  153TCq2    C7 2334   2.252   3.267  12.508 -0.2531  1.3113 -0.7318
  153TCq2    C8 2335   2.392   3.413  12.632  0.7997 -0.0656  0.1333
  153TCq2    O4 2336   2.297   3.476  12.672  1.1866 -0.4033 -0.1506
  153TCq2    C9 2337   2.515   2.949  12.514  0.7065 -0.0913  0.3386
  153TCq2    O5 2338   2.490   2.866  12.427 -0.2156  0.5219  0.0596
  153TCq2    O6 2339   2.620   2.965  12.576 -0.0736 -0.4680 -0.2792
  153TCq2    H2 2340   2.265   2.941  12.419 -0.5986  1.2360 -2.5069
  153TCq2    H3 2341   2.556   3.186  12.621 -0.8075 -0.5463  1.2072
  153TCq2    H4 2342   2.197   3.358  12.489 -1.3918  0.8331  0.2064
  154MPD2     C 2343   3.767   4.360   0.678  0.1481 -0.3864 -0.2223
  154MPD2    C1 2344   3.791   4.246   0.600  0.4047 -0.3709 -0.2610
  154MPD2    C2 2345   3.695   4.218   0.500 -0.1083  0.5210 -0.0146
  154MPD2    C3 2346   3.580   4.289   0.496  0.5172  0.2776 -0.3421
  154MPD2    C4 2347   3.549   4.389   0.579  0.0933  0.1063  0.1193
  154MPD2    C5 2348   3.646   4.425   0.665 -0.0476  0.1889  0.1315
  154MPD2     H 2349   3.705   4.135   0.430 -0.0673  1.5190 -1.2036
  154MPD2    H1 2350   3.455   4.444   0.585 -2.2918 -3.8262 -0.8042
  154MPD2    H2 2351   3.830   4.391   0.760 -0.7605 -0.0752  0.3598
  154MPD2    H3 2352   3.618   4.510   0.726  0.3502  0.7344 -0.4386
  154MPD2     N 2353   3.489   4.239   0.391  0.4054  0.2385  0.4054
  154MPD2    H5 2354   3.519   4.154   0.345  0.4848  0.7013 -0.4083
  154MPD2    N1 2355   3.914   4.182   0.613  0.7328 -0.0134  0.0057
  154MPD2    H7 2356   3.980   4.216   0.682  0.1413  0.1561  0.4944
  155TCq2    C1 2357   3.946   4.075   0.535  0.0711  0.1447 -0.2927
  155TCq2    O2 2358   3.872   3.992   0.481  0.3697  0.8796 -0.2593
  155TCq2    C2 2359   4.091   4.039   0.537 -0.0540  0.0555  0.9661
  155TCq2    C3 2360   4.176   4.113   0.610 -0.3224 -0.3964  0.7532
  155TCq2    C4 2361   4.309   4.091   0.592 -0.6857  0.5054 -0.2431
  155TCq2    C5 2362   4.363   3.991   0.509 -0.0150  0.2142 -0.3423
  155TCq2    C6 2363   4.274   3.919   0.439  0.1946 -1.1999 -0.1960
  155TCq2    C7 2364   4.137   3.944   0.448  0.3915 -0.2954 -0.3987
  155TCq2    C8 2365   4.308   3.807   0.352  0.3483  1.0184 -0.4047
  155TCq2    O4 2366   4.431   3.794   0.334  0.2079 -0.5869  0.6723
  155TCq2    C9 2367   4.407   4.178   0.663 -0.0027 -0.0227  1.2250
  155TCq2    O5 2368   4.531   4.138   0.667 -0.8283  0.6157 -0.5432
  155TCq2    O6 2369   4.365   4.274   0.726 -0.2152 -0.2681  0.4484
  155TCq2    H2 2370   4.142   4.189   0.681  0.5197  0.8270 -0.1500
  155TCq2    H3 2371   4.471   3.978   0.511 -0.1629 -1.1341 -1.7399
  155TCq2    H4 2372   4.061   3.895   0.388  2.2288 -0.7905 -2.3127
  156MPD2     C 2373   2.418   0.166  11.284  0.1373  0.0768  0.3263
  156MPD2    C1 2374   2.372   0.277  11.357 -0.1336 -0.0911 -0.9414
  156MPD2    C2 2375   2.427   0.312  11.479 -0.5603  0.4615 -0.6836
  156MPD2    C3 2376   2.533   0.229  11.536 -0.4011  0.0052  0.4268
  156MPD2    C4 2377   2.578   0.126  11.458 -0.2116 -0.0815 -0.2506
  156MPD2    C5 2378   2.528   0.097  11.331 -0.2230  0.2518  0.0900
  156MPD2     H 2379   2.401   0.399  11.537  0.5949 -0.4655  1.2081
  156MPD2    H1 2380   2.657   0.063  11.499 -0.7000 -1.4034 -1.3290
  156MPD2    H2 2381   2.381   0.133  11.188 -1.0937  0.6504  0.6022
  156MPD2    H3 2382   2.571   0.011  11.280 -0.0536 -0.6723  1.7992
  156MPD2     N 2383   2.584   0.270  11.662  0.0139  0.1440 -0.4987
  156MPD2    H5 2384   2.550   0.357  11.702  0.4191  0.0817 -0.0352
  156MPD2    N1 2385   2.266   0.348  11.301  0.2390 -0.4491  0.2841
  156MPD2    H7 2386   2.224   0.309  11.217 -0.4114  2.3470 -0.7083
  157TCq2    C1 2387   2.201   0.449  11.365  0.1083 -0.2140 -0.5548
  157TCq2    O2 2388   2.213   0.486  11.479 -0.1409 -0.3975 -0.6881
  157TCq2    C2 2389   2.098   0.518  11.280 -0.2412 -0.5335 -0.2854
  157TCq2    C3 2390   2.046   0.454  11.175 -0.1473 -0.5286  0.1698
  157TCq2    C4 2391   2.016   0.528  11.058  0.0641 -0.1584  0.1049
  157TCq2    C5 2392   2.026   0.661  11.055  0.3274 -0.8226  0.0070
  157TCq2    C6 2393   2.072   0.723  11.168  0.4491  0.3411  0.4433
  157TCq2    C7 2394   2.108   0.654  11.279 -0.0963 -0.3700  0.0213
  157TCq2    C8 2395   2.105   0.861  11.148  0.1219 -0.3945  0.0935
  157TCq2    O4 2396   2.148   0.900  11.039 -0.0800  0.1296  0.0805
  157TCq2    C9 2397   1.948   0.458  10.952  1.0687 -0.5615 -0.2323
  157TCq2    O5 2398   1.999   0.347  10.916 -0.2449 -0.0166  0.3177
  157TCq2    O6 2399   1.853   0.509  10.882 -0.1866 -0.0618  0.6966
  157TCq2    H2 2400   2.044   0.346  11.178 -0.2471 -0.5530 -0.8492
  157TCq2    H3 2401   1.977   0.714  10.975  1.3550 -1.2711 -0.9088
  157TCq2    H4 2402   2.171   0.693  11.359  1.1069 -2.1456 -0.0720
  158TMC2    C1 2403   2.163   4.651  13.317  0.2074  0.0643  0.2377
  158TMC2    C2 2404   2.127   0.042  13.253 -0.4801 -0.0906 -0.0658
  158TMC2    C3 2405   2.006   0.044  13.190  0.7268  0.0459  0.5109
  158TMC2    C4 2406   2.085   4.540  13.310  1.1000 -0.5062 -0.5117
  158TMC2    C5 2407   1.959   4.553  13.242  0.2458  0.2445  0.0987
  158TMC2    C6 2408   1.922   4.662  13.173  0.1909  0.2857 -1.2587
  158TMC2     C 2409   2.285   4.660  13.397  0.8378 -0.7739 -0.1429
  158TMC2     O 2410   2.346   0.037  13.376  0.1599 -0.4097  0.3774
  158TMC2     H 2411   2.181   0.134  13.271  0.1837 -1.1661  3.4203
  158TMC2    H1 2412   2.131   4.449  13.345 -1.3901 -1.7328 -0.3891
  158TMC2    H2 2413   1.822   4.685  13.139 -1.0453 -1.6126  1.0744
  158TMC2    C7 2414   1.851   4.460  13.271  0.1955  0.3573  1.1183
  158TMC2    C8 2415   1.968   0.173  13.144 -0.3964  0.2867  0.5006
  158TMC2    O1 2416   1.756   4.460  13.192 -0.0027  0.0769  0.1475
  158TMC2    O2 2417   1.855   0.213  13.139 -0.0780 -0.1818  0.4614
  158TMC2    O5 2418   2.066   0.214  13.069 -0.0617  0.1052  0.1539
  158TMC2    H5 2419   2.137   0.147  13.061 -1.8658 -2.0522  1.7589
  159MPD2     C 2420   2.537   4.641  13.849 -0.2334 -0.2284  0.0578
  159MPD2    C1 2421   2.474   4.524  13.830  0.4697 -0.0814 -0.0704
  159MPD2    C2 2422   2.398   4.495  13.714  0.4087  0.4417  0.1916
  159MPD2    C3 2423   2.374   4.592  13.618  0.1626  0.6889  0.1195
  159MPD2    C4 2424   2.451   4.706  13.637  0.2934  0.5190 -0.6312
  159MPD2    C5 2425   2.525   0.008  13.749 -0.1449  0.5382  0.1529
  159MPD2     H 2426   2.353   4.399  13.696  0.9419  0.5011 -1.5174
  159MPD2    H1 2427   2.462   0.058  13.562  2.1164  0.7232 -0.1547
  159MPD2    H2 2428   2.598   4.657  13.937  0.9620 -0.8865 -0.6596
  159MPD2    H3 2429   2.581   0.101  13.758 -1.2522  0.9711  2.6465
  159MPD2     N 2430   2.295   4.572  13.505  0.3423  0.1844 -0.4785
  159MPD2    H5 2431   2.248   4.483  13.490  1.9056 -0.4661 -1.5057
  159MPD2    N1 2432   2.489   4.433  13.941 -0.2296  0.0554 -0.0531
  159MPD2    H7 2433   2.540   4.469  14.020 -0.8322  1.4617 -0.3141
  160TMC2    C1 2434   2.025   1.898   1.315  0.1856 -0.6889  0.4543
  160TMC2    C2 2435   2.091   1.787   1.359 -0.0803 -0.3139  0.0630
  160TMC2    C3 2436   2.134   1.690   1.268  0.3355 -0.1016  0.3449
  160TMC2    C4 2437   1.984   1.904   1.186  0.3069 -0.4281  0.3464
  160TMC2    C5 2438   2.006   1.796   1.098  0.0145 -0.2055 -0.4165
  160TMC2    C6 2439   2.084   1.689   1.136  0.4051 -0.7890  0.2530
  160TMC2     C 2440   2.013   2.005   1.407  0.1710 -0.3485  0.1762
  160TMC2     O 2441   2.087   2.016   1.505 -0.3456 -0.0127  0.5573
  160TMC2     H 2442   2.141   1.792   1.455 -0.8356  0.3301  0.4242
  160TMC2    H1 2443   1.925   1.988   1.150 -1.8614 -1.3552  1.7153
  160TMC2    H2 2444   2.127   1.625   1.060  1.2155 -0.3823  0.3687
  160TMC2    C7 2445   2.003   1.822   0.955 -0.6448  0.4230  0.2278
  160TMC2    C8 2446   2.252   1.620   1.307  0.4157  0.3916  0.7274
  160TMC2    O1 2447   1.984   1.723   0.885 -0.2321  0.6116  0.4039
  160TMC2    O2 2448   2.331   1.670   1.386 -0.0121 -0.2097 -0.3146
  160TMC2    O5 2449   2.228   1.488   1.292 -1.0519  0.1457 -0.1523
  160TMC2    H5 2450   2.147   1.470   1.239 -0.4675 -0.0808 -0.9806
  161MPD2     C 2451   1.997   2.306   1.473  0.0803  0.3830  0.2616
  161MPD2    C1 2452   1.900   2.231   1.417 -0.1434 -0.0136 -0.3118
  161MPD2    C2 2453   1.775   2.293   1.391  0.3372 -0.2618 -0.5757
  161MPD2    C3 2454   1.755   2.430   1.407  0.7715  0.6842 -0.2686
  161MPD2    C4 2455   1.860   2.502   1.460 -0.1037 -0.6451  0.6246
  161MPD2    C5 2456   1.976   2.435   1.499  0.6584  0.6622 -0.8806
  161MPD2     H 2457   1.701   2.226   1.349  0.5047 -2.3834  2.4882
  161MPD2    H1 2458   1.848   2.609   1.469 -1.3255 -0.8777  1.7605
  161MPD2    H2 2459   2.089   2.262   1.510 -0.7991 -0.8249  1.0096
  161MPD2    H3 2460   2.049   2.486   1.560  0.0201  0.2803  0.2036
  161MPD2     N 2461   1.636   2.496   1.366 -0.4077  0.7206  0.2799
  161MPD2    H5 2462   1.626   2.597   1.370 -0.4590  0.6895  1.0045
  161MPD2    N1 2463   1.913   2.095   1.381 -0.0167 -0.4681  0.1705
  161MPD2    H7 2464   1.836   2.048   1.333  1.0656 -1.9102 -0.1541
  162TMC2    C1 2465   0.444   0.160   1.048 -0.7980 -0.0921  0.4756
  162TMC2    C2 2466   0.462   0.298   1.044  0.1378  0.0847  0.1912
  162TMC2    C3 2467   0.360   0.367   1.100  0.2954 -0.1536  0.0152
  162TMC2    C4 2468   0.349   0.095   1.121  0.4257  0.2444  0.1977
  162TMC2    C5 2469   0.246   0.175   1.172  0.8234 -0.9535  0.2482
  162TMC2    C6 2470   0.250   0.310   1.164 -0.2685 -0.2609  0.4974
  162TMC2     C 2471   0.535   0.071   0.983 -0.5322 -1.1707 -0.5598
  162TMC2     O 2472   0.520   4.673   0.984  0.1722 -0.2107 -0.1823
  162TMC2     H 2473   0.543   0.355   1.001  0.9991 -0.6077  0.8976
  162TMC2    H1 2474   0.361   4.713   1.132 -0.9557  0.1468  0.8714
  162TMC2    H2 2475   0.179   0.364   1.227 -2.6495 -0.6605 -1.8800
  162TMC2    C7 2476   0.130   0.125   1.250 -0.1731 -0.6425  0.4245
  162TMC2    C8 2477   0.347   0.513   1.077 -0.3776 -0.7905 -0.3608
  162TMC2    O1 2478   0.037   0.200   1.270  0.0509  0.0714 -0.3051
  162TMC2    O2 2479   0.438   0.586   1.102  0.5957 -0.2984 -0.0896
  162TMC2    O5 2480   0.216   0.536   1.049  0.4276  0.0606  0.1594
  162TMC2    H5 2481   0.168   0.453   1.029 -2.2424  2.1517 -1.9943
  163MPD2     C 2482   0.886   0.046   0.609 -0.1856  1.1585  0.3804
  163MPD2    C1 2483   0.818   4.667   0.668 -0.0710  0.2930 -0.0639
  163MPD2    C2 2484   0.732   4.697   0.770 -0.4555 -0.1858  0.7415
  163MPD2    C3 2485   0.712   0.108   0.807 -0.1209 -0.2987 -0.6649
  163MPD2    C4 2486   0.777   0.208   0.739  0.5460  0.5776  0.0318
  163MPD2    C5 2487   0.851   0.173   0.633  0.2128  0.6117  0.1128
  163MPD2     H 2488   0.685   4.617   0.826 -0.8964 -1.1042 -0.9264
  163MPD2    H1 2489   0.777   0.313   0.767  2.3695  0.5748  0.0618
  163MPD2    H2 2490   0.966   0.032   0.537 -1.9377 -0.0075 -1.3515
  163MPD2    H3 2491   0.904   0.251   0.580 -2.6803  1.3142 -1.7024
  163MPD2     N 2492   0.624   0.147   0.913 -0.4418  0.2342 -0.4703
  163MPD2    H5 2493   0.625   0.248   0.925 -2.0823  0.3811 -1.5262
  163MPD2    N1 2494   0.832   4.542   0.608  0.0567 -0.7715  0.0721
  163MPD2    H7 2495   0.880   4.538   0.518 -1.3485 -0.1999 -0.7093
  164TCq2    C1 2496   0.791   3.509  11.008  0.4375 -0.3160 -0.1209
  164TCq2    O2 2497   0.744   3.407  11.062  0.5494  0.2931  0.0424
  164TCq2    C2 2498   0.785   3.629  11.087  0.8104  0.3299 -0.2362
  164TCq2    C3 2499   0.874   3.733  11.063  0.2370 -0.7255  0.6641
  164TCq2    C4 2500   0.842   3.861  11.102 -1.0254  0.2788  0.3747
  164TCq2    C5 2501   0.729   3.880  11.174 -0.0537  0.3895 -0.4956
  164TCq2    C6 2502   0.649   3.771  11.204  0.7522  0.2834 -0.6192
  164TCq2    C7 2503   0.670   3.650  11.152  0.7809 -0.0324 -0.2154
  164TCq2    C8 2504   0.505   3.803  11.229 -0.9185 -0.1943  0.1770
  164TCq2    O4 2505   0.423   3.727  11.183 -0.4465  0.2288  0.0165
  164TCq2    C9 2506   0.947   3.962  11.093 -0.0480  0.0635 -0.5351
  164TCq2    O5 2507   1.056   3.925  11.043 -0.9601  0.1522 -0.1124
  164TCq2    O6 2508   0.937   4.074  11.152 -0.4546 -0.0923  0.6504
  164TCq2    H2 2509   0.972   3.723  11.018  0.8479  1.2663  1.5750
  164TCq2    H3 2510   0.703   3.979  11.210  3.6888  1.2497 -0.1186
  164TCq2    H4 2511   0.610   3.568  11.190 -0.0399  0.0674 -1.2923
  165MPD2     C 2512   1.800   1.034   1.712 -0.7752  0.6002  0.5095
  165MPD2    C1 2513   1.682   1.066   1.648 -0.5827 -0.4130  0.1835
  165MPD2    C2 2514   1.634   1.194   1.668 -0.1938 -0.0742  0.6120
  165MPD2    C3 2515   1.713   1.294   1.718 -0.4306  0.9583 -0.1524
  165MPD2    C4 2516   1.835   1.256   1.770 -0.4272  0.4109  0.3311
  165MPD2    C5 2517   1.877   1.131   1.777 -1.3448  0.4338  0.0362
  165MPD2     H 2518   1.540   1.211   1.617  1.0896  3.0503 -0.7260
  165MPD2    H1 2519   1.902   1.329   1.814  2.3510 -1.1072 -1.3988
  165MPD2    H2 2520   1.839   0.934   1.725 -2.5003 -0.3541 -1.7134
  165MPD2    H3 2521   1.971   1.100   1.821 -1.9366 -2.1896 -0.5799
  165MPD2     N 2522   1.674   1.431   1.742 -0.5195  0.2720  0.5268
  165MPD2    H5 2523   1.746   1.499   1.763 -0.8271  0.4613  0.9733
  165MPD2    N1 2524   1.616   0.956   1.583  0.3735  0.6480  0.1896
  165MPD2    H7 2525   1.676   0.874   1.584  0.4075  0.6759  0.6052
  166TCq2    C1 2526   1.546   1.483   1.737  0.3753 -0.1262 -0.3102
  166TCq2    O2 2527   1.438   1.422   1.722  0.1535 -0.2823 -0.0543
  166TCq2    C2 2528   1.548   1.624   1.773  0.3262  0.0320 -0.9451
  166TCq2    C3 2529   1.430   1.681   1.813  0.1819 -0.8789  0.2882
  166TCq2    C4 2530   1.427   1.813   1.856 -0.8127 -0.7897  0.4514
  166TCq2    C5 2531   1.537   1.899   1.871 -0.1065 -0.4793  0.4778
  166TCq2    C6 2532   1.655   1.832   1.827  0.0061  0.1018 -0.7062
  166TCq2    C7 2533   1.657   1.705   1.772  0.1101  0.0330  0.5738
  166TCq2    C8 2534   1.784   1.898   1.839  0.6752  0.1623  0.1324
  166TCq2    O4 2535   1.874   1.853   1.772  0.6820  0.0015  0.2865
  166TCq2    C9 2536   1.304   1.868   1.907 -0.3334  0.1704 -0.6258
  166TCq2    O5 2537   1.315   1.970   1.975 -0.1924 -0.6464 -0.0795
  166TCq2    O6 2538   1.201   1.804   1.887 -0.0335 -0.5571 -0.6741
  166TCq2    H2 2539   1.344   1.615   1.807 -0.9135  0.4272  1.6581
  166TCq2    H3 2540   1.535   2.001   1.907 -1.4131  0.5717 -2.6082
  166TCq2    H4 2541   1.752   1.668   1.736 -1.1141 -1.7025 -0.8486
  167TMC2    C1 2542   0.107   3.888  12.667 -0.9048 -0.1180 -0.6575
  167TMC2    C2 2543   0.075   3.939  12.792 -0.3600 -0.0586 -0.1302
  167TMC2    C3 2544   0.067   3.843  12.887  0.4106 -0.8868 -0.0792
  167TMC2    C4 2545   0.134   3.756  12.640 -0.1709 -0.1644  0.1324
  167TMC2    C5 2546   0.131   3.669  12.748  0.3818 -0.0690 -0.7127
  167TMC2    C6 2547   0.095   3.710  12.873  0.3783  0.3930  0.2405
  167TMC2     C 2548   0.083   3.975  12.558  0.2941 -0.1926  0.0559
  167TMC2     O 2549   4.724   4.062  12.572 -0.1757  0.3721 -0.2652
  167TMC2     H 2550   0.045   4.041  12.816 -0.8860 -0.9370  2.8466
  167TMC2    H1 2551   0.140   3.709  12.542 -3.0282 -1.1325  0.4236
  167TMC2    H2 2552   0.107   3.638  12.954 -0.9556 -1.2703 -1.0187
  167TMC2    C7 2553   0.186   3.541  12.741  0.7499  0.0863 -0.3729
  167TMC2    C8 2554   0.021   3.900  13.012 -0.7387 -0.1973  0.5452
  167TMC2    O1 2555   0.139   3.465  12.822 -0.2448  0.2015  0.2631
  167TMC2    O2 2556   0.090   3.974  13.089 -0.2066 -0.0820 -0.3139
  167TMC2    O5 2557   4.665   3.804  13.052  0.0208 -0.3715 -0.1008
  167TMC2    H5 2558   4.628   3.751  12.979 -2.4222 -1.8157  2.1843
  168MPD2     C 2559   0.091   4.118  12.287  0.4601  0.2139  0.0081
  168MPD2    C1 2560   0.162   4.003  12.315 -0.1470  0.2258  0.2973
  168MPD2    C2 2561   0.227   3.938  12.212 -0.4570 -0.4545 -0.1970
  168MPD2    C3 2562   0.226   3.990  12.083  0.2501 -0.0851 -0.4344
  168MPD2    C4 2563   0.142   4.096  12.052 -0.2051 -0.5766 -0.3078
  168MPD2    C5 2564   0.077   4.157  12.157  0.0064  0.8587  0.0552
  168MPD2     H 2565   0.273   3.842  12.231  2.1626  1.2528  2.0629
  168MPD2    H1 2566   0.126   4.129  11.950 -0.3599  0.7442  0.1372
  168MPD2    H2 2567   0.035   4.173  12.362  0.4148  0.1787 -0.0003
  168MPD2    H3 2568   0.013   4.244  12.143 -2.8023 -1.1747  0.1863
  168MPD2     N 2569   0.309   3.932  11.988 -0.2718  0.2133  0.4270
  168MPD2    H5 2570   0.372   3.859  12.020 -0.5005  0.1812  0.8013
  168MPD2    N1 2571   0.159   3.944  12.445 -0.2263 -0.0914 -0.1144
  168MPD2    H7 2572   0.215   3.859  12.450 -2.3725 -1.5196 -0.0273
  169MPD1     C 2573   2.305   3.380   8.368 -0.0286  0.2019  0.0530
  169MPD1    C1 2574   2.430   3.317   8.388 -0.1869  0.6258  0.3404
  169MPD1    C2 2575   2.454   3.252   8.512 -0.8859 -0.1757  0.0931
  169MPD1    C3 2576   2.356   3.240   8.613 -0.5028  0.6950  0.2777
  169MPD1    C4 2577   2.235   3.289   8.583 -0.1333  0.0497 -0.0024
  169MPD1    C5 2578   2.215   3.357   8.459 -0.5041  0.8023  0.0763
  169MPD1     H 2579   2.552   3.213   8.536 -1.0836 -0.3788  0.5575
  169MPD1    H1 2580   2.148   3.282   8.648  0.4876 -2.2247  0.6029
  169MPD1    H2 2581   2.281   3.447   8.287  0.1660 -0.2534 -0.3879
  169MPD1    H3 2582   2.119   3.396   8.427  0.4478  2.5823 -0.5981
  169MPD1     N 2583   2.387   3.158   8.728 -0.0719  0.0782 -0.1935
  169MPD1    H5 2584   2.473   3.103   8.730  0.3224  0.6798 -0.7262
  169MPD1    N1 2585   2.530   3.345   8.294  0.2604 -0.0378  0.2417
  169MPD1    H6 2586   2.586   3.261   8.279  0.0925 -0.0340 -0.3988
  169MPD1    H7 2587   2.504   3.376   8.201 -0.9797 -0.2001  0.5338
  170MPD1     C 2588   1.493   1.709  12.858  0.5156  0.0510  0.3490
  170MPD1    C1 2589   1.375   1.771  12.829 -0.4609 -0.0456  0.7215
  170MPD1    C2 2590   1.268   1.771  12.917 -0.2589  0.5391  0.5137
  170MPD1    C3 2591   1.283   1.709  13.041  0.6734 -0.3940 -0.0642
  170MPD1    C4 2592   1.405   1.651  13.070  0.6486  0.1476  0.5709
  170MPD1    C5 2593   1.506   1.656  12.982 -0.8999  0.2741  0.3625
  170MPD1     H 2594   1.176   1.816  12.882 -0.6437 -0.2300  0.5359
  170MPD1    H1 2595   1.429   1.587  13.154  0.7530 -1.5296 -0.7142
  170MPD1    H2 2596   1.580   1.705  12.794  1.1305  0.2324  1.1801
  170MPD1    H3 2597   1.607   1.625  13.008 -0.6534  0.6935 -0.0968
  170MPD1     N 2598   1.165   1.716  13.128 -0.2066 -0.2799  0.4658
  170MPD1    H5 2599   1.087   1.775  13.100  0.2550 -0.3059 -0.8811
  170MPD1    N1 2600   1.351   1.823  12.699  0.1154 -0.0284  0.2850
  170MPD1    H6 2601   1.436   1.845  12.648  0.2206 -1.7067 -0.2894
  170MPD1    H7 2602   1.292   1.905  12.702  0.6307  0.2946  1.8114
  171MPD1     C 2603   4.484   2.859  15.393  0.2366  0.2294 -0.3079
  171MPD1    C1 2604   4.584   2.811  15.479 -0.0110  0.7843  0.2198
  171MPD1    C2 2605   4.562   2.691  15.546 -0.1773  0.1802 -0.1693
  171MPD1    C3 2606   4.442   2.617  15.523  0.0138  0.1627  0.0540
  171MPD1    C4 2607   4.347   2.665  15.427  0.4986 -0.3348 -0.0380
  171MPD1    C5 2608   4.365   2.784  15.366 -1.2042  0.1721 -0.4630
  171MPD1     H 2609   4.632   2.674  15.626 -1.3522  0.3908  0.9017
  171MPD1    H1 2610   4.267   2.596  15.402  1.2784 -1.4297  0.4821
  171MPD1    H2 2611   4.491   2.953  15.340  0.6171  0.2442 -0.2332
  171MPD1    H3 2612   4.291   2.829  15.300  1.1407  0.0110 -3.1957
  171MPD1     N 2613   4.422   2.497  15.588 -0.0556  0.0033  0.5856
  171MPD1    H5 2614   4.334   2.449  15.573  0.5427 -0.6422 -0.7922
  171MPD1    N1 2615   4.696   2.889  15.508  0.1418 -0.4333 -0.4652
  171MPD1    H6 2616   4.714   2.954  15.431 -2.5383  1.6690  0.6754
  171MPD1    H7 2617   0.052   2.829  15.510  1.7158  1.6964 -0.2241
  172MPD1     C 2618   3.471   1.373   0.577 -0.1548  0.6155  0.5197
  172MPD1    C1 2619   3.467   1.503   0.622  1.0023  0.1700 -0.4795
  172MPD1    C2 2620   3.462   1.607   0.531  0.5302  0.0084 -0.3266
  172MPD1    C3 2621   3.434   1.577   0.401  0.6710  1.0212  0.6992
  172MPD1    C4 2622   3.435   1.446   0.356 -0.1764  0.4837 -0.5544
  172MPD1    C5 2623   3.456   1.342   0.442  0.6599  0.1225 -0.1712
  172MPD1     H 2624   3.470   1.710   0.565 -0.1033  0.8503 -2.7114
  172MPD1    H1 2625   3.411   1.423   0.253 -0.5258 -0.8445 -0.1706
  172MPD1    H2 2626   3.495   1.290   0.642  0.2218 -0.3314 -0.8418
  172MPD1    H3 2627   3.474   1.243   0.402 -1.3337 -0.9611  1.6292
  172MPD1     N 2628   3.408   1.682   0.303  0.4171 -0.6959 -0.0824
  172MPD1    H5 2629   3.386   1.651   0.209 -1.9601 -0.3574  0.3502
  172MPD1    N1 2630   3.508   1.535   0.749  0.0373 -0.2272 -0.2389
  172MPD1    H6 2631   3.508   1.455   0.812 -1.9715  0.0750  0.1287
  172MPD1    H7 2632   3.446   1.604   0.790  1.4367  0.5408  0.6174
  173MPD1     C 2633   0.204   2.172  14.051 -0.2775 -0.4787 -0.4502
  173MPD1    C1 2634   0.098   2.162  14.140 -1.1237 -0.4806  0.1450
  173MPD1    C2 2635   0.088   2.044  14.210  0.0007  0.1472  0.2721
  173MPD1    C3 2636   0.185   1.944  14.206  0.0960  0.0067  0.7000
  173MPD1    C4 2637   0.299   1.970  14.132 -0.7543 -0.9822 -0.2020
  173MPD1    C5 2638   0.305   2.083  14.051 -0.0690 -0.2381  0.5615
  173MPD1     H 2639   4.725   2.029  14.271  0.6310 -0.2531  1.0984
  173MPD1    H1 2640   0.390   1.911  14.138 -0.0765 -0.1187 -1.8655
  173MPD1    H2 2641   0.210   2.258  13.986 -0.1993 -2.0168 -2.4674
  173MPD1    H3 2642   0.394   2.094  13.989 -1.5513 -3.2829 -2.0981
  173MPD1     N 2643   0.175   1.830  14.289  0.1111  0.1724 -0.0737
  173MPD1    H5 2644   0.097   1.828  14.354  1.1105  1.8436  1.1807
  173MPD1    N1 2645   4.724   2.257  14.138 -0.4100  0.4353  0.6188
  173MPD1    H6 2646   4.658   2.263  14.215 -0.9224 -1.4708  0.3282
  173MPD1    H7 2647   0.032   2.349  14.111  0.3921  0.2865  1.1169
  174MPD1     C 2648   0.224   0.770  14.443 -0.1554 -0.0963 -0.4428
  174MPD1    C1 2649   0.255   0.853  14.339 -0.4340  0.1247 -0.0097
  174MPD1    C2 2650   0.251   0.988  14.365 -0.1352  0.6748  0.2848
  174MPD1    C3 2651   0.229   1.045  14.488 -0.4133  0.4309 -1.2777
  174MPD1    C4 2652   0.212   0.963  14.597 -0.1160 -0.3191  0.2376
  174MPD1    C5 2653   0.205   0.830  14.570 -0.7916  0.1288 -0.0088
  174MPD1     H 2654   0.269   1.051  14.279  0.3909  0.9505  0.5954
  174MPD1    H1 2655   0.202   0.997  14.699 -2.1480 -0.5274  0.1092
  174MPD1    H2 2656   0.220   0.663  14.425  3.1640 -0.4945  1.2389
  174MPD1    H3 2657   0.166   0.771  14.652  0.0086  1.0314  1.0135
  174MPD1     N 2658   0.234   1.185  14.509 -0.0428  0.3057  0.1882
  174MPD1    H5 2659   0.240   1.211  14.607  1.1194 -1.8071  0.6710
  174MPD1    N1 2660   0.266   0.803  14.206  0.5656 -0.0169 -0.3504
  174MPD1    H6 2661   0.332   0.860  14.155  0.5703  0.7245  0.4892
  174MPD1    H7 2662   0.307   0.709  14.209  0.7976  0.0733 -0.7708
  175MPD1     C 2663   3.512   2.398  15.081 -0.1277 -0.4089 -0.3218
  175MPD1    C1 2664   3.394   2.475  15.095  0.0633 -0.3180  0.8874
  175MPD1    C2 2665   3.330   2.476  15.213  0.1008  0.5022 -0.0326
  175MPD1    C3 2666   3.366   2.392  15.315 -0.2009 -1.5123 -0.4211
  175MPD1    C4 2667   3.480   2.317  15.304  0.0479 -0.5480  0.4571
  175MPD1    C5 2668   3.550   2.324  15.186  0.0376 -0.0012 -0.7533
  175MPD1     H 2669   3.244   2.541  15.214  1.2277  2.0300 -0.9825
  175MPD1    H1 2670   3.520   2.256  15.385  0.7351 -0.2530  0.3414
  175MPD1    H2 2671   3.572   2.395  14.991  1.3261  1.3999  0.5808
  175MPD1    H3 2672   3.645   2.274  15.170  1.3593  2.1724  0.2973
  175MPD1     N 2673   3.313   2.405  15.448 -0.1953 -0.5670 -0.0561
  175MPD1    H5 2674   3.366   2.351  15.515  0.9361  0.1893 -0.3448
  175MPD1    N1 2675   3.362   2.569  14.996  0.1838 -0.0318 -0.0029
  175MPD1    H6 2676   3.261   2.577  14.986  0.1751 -0.0660  0.0632
  175MPD1    H7 2677   3.402   2.539  14.907  2.4575 -0.0154  1.0024
  176MPD1     C 2678   0.827   3.477  17.012 -0.0410  0.3201 -0.1047
  176MPD1    C1 2679   0.856   3.501  17.144 -1.1790 -0.4495 -0.5194
  176MPD1    C2 2680   0.776   3.595  17.208  0.0498  0.0186 -0.2400
  176MPD1    C3 2681   0.689   3.682  17.148 -1.0056  0.4670  0.6673
  176MPD1    C4 2682   0.662   3.654  17.017 -0.0282 -0.3777 -0.6928
  176MPD1    C5 2683   0.733   3.552  16.958  0.0413  0.9769  0.9083
  176MPD1     H 2684   0.803   3.602  17.313  1.7699  2.2145 -0.8123
  176MPD1    H1 2685   0.588   3.704  16.956 -0.1472 -0.4298 -0.5911
  176MPD1    H2 2686   0.871   3.394  16.957 -2.0161 -0.6839 -0.1586
  176MPD1    H3 2687   0.712   3.530  16.854 -0.7394  1.1399  1.0295
  176MPD1     N 2688   0.622   3.786  17.214 -0.1228 -0.6923 -0.5862
  176MPD1    H5 2689   0.640   3.809  17.311 -1.7949  1.3130 -0.7407
  176MPD1    N1 2690   0.926   3.403  17.218  0.1702 -0.3222 -0.1068
  176MPD1    H6 2691   0.962   3.445  17.303 -2.8941  4.1156 -0.9648
  176MPD1    H7 2692   1.010   3.371  17.172 -1.1951 -0.9888 -2.1469
  177MPD1     C 2693   2.965   4.378  10.083  0.3340 -0.1684 -0.2859
  177MPD1    C1 2694   2.949   4.355   9.951  0.4248 -0.1541  0.1648
  177MPD1    C2 2695   2.833   4.395   9.892 -1.2514 -0.2642 -0.1052
  177MPD1    C3 2696   2.717   4.436   9.957 -0.1523 -0.2811 -0.7685
  177MPD1    C4 2697   2.733   4.454  10.098 -0.3326  0.4478  0.3692
  177MPD1    C5 2698   2.857   4.426  10.149 -0.5122  0.5658 -0.4402
  177MPD1     H 2699   2.825   4.377   9.786 -1.1230 -0.0899 -0.1456
  177MPD1    H1 2700   2.663   4.506  10.162  0.3840  0.8979  0.7893
  177MPD1    H2 2701   3.064   4.374  10.126  0.1160 -2.7047 -0.0368
  177MPD1    H3 2702   2.860   4.450  10.254  0.3638 -0.2341 -0.2716
  177MPD1     N 2703   2.599   4.451   9.875 -0.1393  0.5154  1.1770
  177MPD1    H5 2704   2.598   4.420   9.778 -1.2068  0.7135  1.1187
  177MPD1    N1 2705   3.049   4.293   9.871 -0.3771  0.0986 -0.2831
  177MPD1    H6 2706   3.013   4.238   9.793 -2.0381  1.7659 -0.7127
  177MPD1    H7 2707   3.119   4.235   9.915  1.1187 -0.1018 -2.8979
  178MPD1     C 2708   0.559   0.660  17.101  0.8355  0.6952  0.3935
  178MPD1    C1 2709   0.617   0.735  17.002  0.3307  0.3724 -0.2910
  178MPD1    C2 2710   0.690   0.668  16.907  0.0231  0.1155  0.2240
  178MPD1    C3 2711   0.688   0.528  16.902  0.3578  0.0990  0.1485
  178MPD1    C4 2712   0.603   0.461  16.983  0.3795  0.1572 -0.4726
  178MPD1    C5 2713   0.537   0.524  17.088  0.3156 -0.2030  0.8944
  178MPD1     H 2714   0.736   0.723  16.825  1.3210 -0.0169  0.8490
  178MPD1    H1 2715   0.592   0.355  16.967 -4.7614  0.8316 -1.2250
  178MPD1    H2 2716   0.495   0.703  17.177 -0.6874  0.0744 -0.5262
  178MPD1    H3 2717   0.482   0.463  17.158 -0.6403 -0.0646  0.2551
  178MPD1     N 2718   0.761   0.448  16.810 -0.1457 -0.7336 -1.0208
  178MPD1    H5 2719   0.759   0.348  16.828  2.4541 -0.3540  1.4292
  178MPD1    N1 2720   0.643   0.869  17.020  0.4372 -0.0130  0.8104
  178MPD1    H6 2721   0.653   0.910  16.927 -0.2316  0.7971  1.0934
  178MPD1    H7 2722   0.562   0.912  17.064  2.4614  2.5808  2.0001
  179MPD1     C 2723   4.660   3.515  16.688 -0.1409  0.5197 -0.3452
  179MPD1    C1 2724   0.029   3.423  16.671 -0.3107  0.1001 -0.0021
  179MPD1    C2 2725   0.086   3.405  16.544  0.4971  0.1316 -0.3104
  179MPD1    C3 2726   0.056   3.479  16.434 -0.7710 -0.5062  0.6376
  179MPD1    C4 2727   4.690   3.573  16.459 -0.3757 -0.3947  0.5185
  179MPD1    C5 2728   4.623   3.589  16.573  0.1432  0.4398  0.4039
  179MPD1     H 2729   0.160   3.330  16.522  0.7677  0.7856 -1.6357
  179MPD1    H1 2730   4.655   3.631  16.374  0.0994 -2.1040 -0.8167
  179MPD1    H2 2731   4.604   3.523  16.780 -0.6247  3.7851 -0.9161
  179MPD1    H3 2732   4.534   3.651  16.582 -0.7721 -0.8195  0.0226
  179MPD1     N 2733   0.124   3.479  16.310 -0.3584  0.0161  0.2175
  179MPD1    H5 2734   0.084   3.539  16.239  3.6615  0.6627 -1.5359
  179MPD1    N1 2735   0.061   3.337  16.778  0.1043  0.2742  0.0249
  179MPD1    H6 2736   0.035   3.371  16.870  2.3115 -0.3009  0.8629
  179MPD1    H7 2737   0.160   3.312  16.780  0.4606  1.6880  0.5003
  180MPD1     C 2738   4.670   0.309  13.861 -0.3139  0.5086  0.2610
  180MPD1    C1 2739   0.008   0.202  13.806  0.2747 -0.0393  0.0730
  180MPD1    C2 2740   0.122   0.166  13.873  0.4685 -0.4065  0.0555
  180MPD1    C3 2741   0.182   0.241  13.966 -0.0657 -0.4406 -0.4913
  180MPD1    C4 2742   0.132   0.366  14.001 -0.3429 -0.0613  0.3601
  180MPD1    C5 2743   0.003   0.395  13.948  0.3654 -0.3008  0.5023
  180MPD1     H 2744   0.167   0.069  13.857  0.3143 -0.6514  1.0948
  180MPD1    H1 2745   0.186   0.439  14.060  1.2397 -2.4610  1.9366
  180MPD1    H2 2746   4.569   0.336  13.830  0.3048  0.0350 -2.1996
  180MPD1    H3 2747   4.674   0.489  13.954 -0.5200 -0.7962  0.2249
  180MPD1     N 2748   0.310   0.197  14.011 -0.1108 -0.8601  0.0806
  180MPD1    H5 2749   0.353   0.112  13.975  0.4080 -0.9088  0.8145
  180MPD1    N1 2750   4.669   0.119  13.715  0.7575 -0.9090  0.0909
  180MPD1    H6 2751   4.585   0.166  13.681  0.3085 -2.0404 -0.3824
  180MPD1    H7 2752   0.001   0.096  13.635  0.4387 -1.3912 -0.0028
  181MPD1     C 2753   1.669   1.433   9.645  0.1537  0.0315 -0.0719
  181MPD1    C1 2754   1.719   1.468   9.768 -0.3740 -0.3909  0.1818
  181MPD1    C2 2755   1.855   1.466   9.791 -0.6657 -0.0825  0.6972
  181MPD1    C3 2756   1.941   1.456   9.682 -0.8737 -0.5566 -0.0050
  181MPD1    C4 2757   1.885   1.432   9.559  0.0689 -0.2993 -0.3202
  181MPD1    C5 2758   1.752   1.431   9.535 -0.0038  0.8345 -0.3687
  181MPD1     H 2759   1.886   1.480   9.893  0.8781  0.6891  0.1136
  181MPD1    H1 2760   1.953   1.422   9.476  1.8807 -1.3661  1.2967
  181MPD1    H2 2761   1.561   1.426   9.635 -0.1104  1.9110  1.4545
  181MPD1    H3 2762   1.716   1.405   9.435 -0.5792  0.0174  0.0493
  181MPD1     N 2763   2.081   1.475   9.683 -0.2911 -0.2523 -0.0953
  181MPD1    H5 2764   2.148   1.472   9.607  0.4703  1.1932  0.4989
  181MPD1    N1 2765   1.628   1.458   9.874 -0.7423  0.0123 -0.0839
  181MPD1    H6 2766   1.662   1.509   9.955  0.8323 -2.0868  0.5959
  181MPD1    H7 2767   1.546   1.505   9.836 -1.1871 -0.3226  0.4551
  182MPD1     C 2768   2.558   1.117   1.443 -0.9958  0.1783  0.7816
  182MPD1    C1 2769   2.451   1.195   1.407 -0.3062  0.4763 -1.3358
  182MPD1    C2 2770   2.367   1.151   1.309  0.5115 -0.7054  0.3174
  182MPD1    C3 2771   2.389   1.035   1.243  0.0320  0.4438 -0.1275
  182MPD1    C4 2772   2.494   0.949   1.279 -0.0362  0.3215  0.7635
  182MPD1    C5 2773   2.569   0.998   1.378 -0.1018  1.0445 -0.2208
  182MPD1     H 2774   2.281   1.209   1.277  0.1235 -1.4334  0.0273
  182MPD1    H1 2775   2.517   0.857   1.228  0.1211  0.4260  0.6440
  182MPD1    H2 2776   2.632   1.154   1.513 -0.7097  1.6583 -0.3066
  182MPD1    H3 2777   2.657   0.938   1.395 -1.0373 -1.2225 -3.4010
  182MPD1     N 2778   2.323   0.995   1.121  0.6650  0.0222  0.2011
  182MPD1    H5 2779   2.350   0.909   1.075 -0.2646 -0.5020  0.6367
  182MPD1    N1 2780   2.445   1.327   1.453  0.2661 -0.1430 -0.7696
  182MPD1    H6 2781   2.345   1.340   1.462  0.3103 -0.8541  0.7648
  182MPD1    H7 2782   2.470   1.335   1.551 -0.4479  2.7271 -0.8242
  183MPD1     C 2783   3.119   0.097   8.806  0.3721  0.3234  0.2422
  183MPD1    C1 2784   3.235   0.143   8.749  0.5353 -0.6515  0.5839
  183MPD1    C2 2785   3.256   0.279   8.760 -0.5354 -0.5944  0.5662
  183MPD1    C3 2786   3.170   0.365   8.822  0.2460 -0.6438 -0.0443
  183MPD1    C4 2787   3.052   0.315   8.871 -1.2805  0.2068  0.4307
  183MPD1    C5 2788   3.033   0.180   8.869  0.6700 -0.3771  0.5358
  183MPD1     H 2789   3.343   0.307   8.701 -1.0556  0.8157  0.4448
  183MPD1    H1 2790   2.986   0.372   8.937 -1.1900  2.7985 -1.7353
  183MPD1    H2 2791   3.088   4.722   8.780 -1.9500  1.4265 -1.1447
  183MPD1    H3 2792   2.945   0.137   8.914  1.7379 -0.4935  2.5278
  183MPD1     N 2793   3.197   0.504   8.825  0.5641  0.8057  0.5629
  183MPD1    H5 2794   3.277   0.537   8.771 -0.4428  2.6610  0.1954
  183MPD1    N1 2795   3.300   0.063   8.654 -0.0272  0.3756  0.4013
  183MPD1    H6 2796   3.385   0.099   8.611 -0.2170 -0.7990 -0.9481
  183MPD1    H7 2797   3.315   4.690   8.678 -0.1391  0.3983  0.5605
  184MPD1     C 2798   2.822   3.270   9.987 -0.4423  0.6196 -0.0915
  184MPD1    C1 2799   2.733   3.237   9.892  0.0194  0.3347 -0.8396
  184MPD1    C2 2800   2.690   3.341   9.815 -0.3506 -0.1870  0.0454
  184MPD1    C3 2801   2.747   3.475   9.810 -0.4955  0.9907  0.6883
  184MPD1    C4 2802   2.845   3.504   9.904 -0.1630 -0.0045 -0.4866
  184MPD1    C5 2803   2.877   3.396   9.990  0.2821  0.7367  0.4653
  184MPD1     H 2804   2.602   3.322   9.754  0.7403  0.0073 -1.5840
  184MPD1    H1 2805   2.887   3.603   9.915 -2.1334  0.8725 -0.9003
  184MPD1    H2 2806   2.855   3.200  10.064 -0.8164  1.4578  0.8357
  184MPD1    H3 2807   2.938   3.423  10.076  1.0647 -0.5359  0.3045
  184MPD1     N 2808   2.695   3.591   9.749  0.2486 -0.6755  0.3160
  184MPD1    H5 2809   2.730   3.679   9.785 -2.2453 -0.5736  2.4824
  184MPD1    N1 2810   2.664   3.120   9.901 -0.2960 -0.8004 -0.0532
  184MPD1    H6 2811   2.726   3.052   9.945 -0.7328  0.1663  2.0437
  184MPD1    H7 2812   2.617   3.081   9.819  1.0358  0.1905 -1.2977
  185MPD1     C 2813   1.942   3.991   9.025 -0.1151 -0.0661  0.3294
  185MPD1    C1 2814   1.957   3.860   9.071 -0.0541  0.8284 -0.3275
  185MPD1    C2 2815   2.061   3.839   9.158 -0.6111  0.3342  0.6321
  185MPD1    C3 2816   2.121   3.946   9.227 -0.4481  0.5129  0.8386
  185MPD1    C4 2817   2.091   4.081   9.195  0.6571 -0.0737 -0.7529
  185MPD1    C5 2818   2.010   4.100   9.081 -0.3904 -0.3090  0.3413
  185MPD1     H 2819   2.080   3.737   9.187  1.7748  0.8969  1.0529
  185MPD1    H1 2820   2.135   4.166   9.245 -0.5871 -0.6358  1.2669
  185MPD1    H2 2821   1.880   4.012   8.938 -1.9883 -2.1044  1.1710
  185MPD1    H3 2822   2.000   4.202   9.047  3.7009 -0.5412 -1.5289
  185MPD1     N 2823   2.229   3.932   9.321 -0.1020  0.0685  0.2883
  185MPD1    H5 2824   2.265   4.014   9.368  2.8798 -0.5426 -0.9144
  185MPD1    N1 2825   1.894   3.750   9.019 -0.0515  0.2080  0.6885
  185MPD1    H6 2826   1.892   3.675   9.087 -0.1198  0.7083  1.2423
  185MPD1    H7 2827   1.795   3.767   9.000 -0.2472 -0.3533  1.2267
  186MPD1     C 2828   1.261   3.001  15.952  0.4783 -0.4196 -0.2499
  186MPD1    C1 2829   1.345   2.934  16.035  0.1112 -0.0738  0.4311
  186MPD1    C2 2830   1.386   2.999  16.156 -0.7424  0.0566  0.2627
  186MPD1    C3 2831   1.381   3.133  16.163 -0.0581  0.4020 -0.3915
  186MPD1    C4 2832   1.321   3.207  16.071 -0.1655  0.2159 -0.2357
  186MPD1    C5 2833   1.260   3.139  15.969  0.5025  0.5960  0.2025
  186MPD1     H 2834   1.426   2.946  16.242 -1.0725 -0.8414 -0.1304
  186MPD1    H1 2835   1.306   3.314  16.082  1.4035  0.5781 -1.5802
  186MPD1    H2 2836   1.206   2.957  15.870  0.2839  0.5092 -0.6264
  186MPD1    H3 2837   1.209   3.196  15.893 -1.8082 -1.1147  0.4509
  186MPD1     N 2838   1.429   3.211  16.267 -0.1869  0.1492  0.5123
  186MPD1    H5 2839   1.431   3.310  16.247  2.6802  0.1557  0.9021
  186MPD1    N1 2840   1.347   2.792  16.024  0.1367  0.4150  0.1840
  186MPD1    H6 2841   1.360   2.774  15.925  0.1975 -1.6494  0.5601
  186MPD1    H7 2842   1.426   2.754  16.077 -1.1901 -0.5075  1.5189
  187MPD1     C 2843   4.508   4.683   0.271  0.3627 -0.1674 -0.6826
  187MPD1    C1 2844   4.595   4.697   0.159  0.0058  0.1370 -0.3003
  187MPD1    C2 2845   4.607   0.108   0.115 -0.0305 -0.3239  0.3509
  187MPD1    C3 2846   4.517   0.214   0.157 -0.3235  0.3681 -0.7466
  187MPD1    C4 2847   4.426   0.184   0.259  0.2664  0.4290  0.0324
  187MPD1    C5 2848   4.422   0.058   0.309 -0.5268  0.4768 -0.2816
  187MPD1     H 2849   4.683   0.122   0.039  1.2219  1.4140  1.9208
  187MPD1    H1 2850   4.355   0.255   0.299 -0.0621  0.7675 -1.1342
  187MPD1    H2 2851   4.491   4.590   0.323  2.2915 -1.2083 -1.9295
  187MPD1    H3 2852   4.349   0.028   0.383 -2.2582  1.5054 -1.5600
  187MPD1     N 2853   4.522   0.349   0.111  0.0230  0.5342  0.4237
  187MPD1    H5 2854   4.452   0.409   0.153  0.2755  0.2601  1.2453
  187MPD1    N1 2855   4.700   4.608   0.141  0.6720 -0.2952  0.0043
  187MPD1    H6 2856   0.018   4.596   0.049  0.4488  1.3989 -0.3254
  187MPD1    H7 2857   4.661   4.515   0.154  1.7915 -1.1140 -2.4733
  188MPD1     C 2858   4.331   0.511  10.139 -0.1532  0.1195 -0.4141
  188MPD1    C1 2859   4.311   0.511  10.003 -0.6482 -0.2384  0.1522
  188MPD1    C2 2860   4.352   0.393   9.939  0.2206 -0.0448 -0.2103
  188MPD1    C3 2861   4.420   0.289  10.012  0.1966 -0.0960  1.1741
  188MPD1    C4 2862   4.457   0.306  10.144 -0.2412  0.3715  0.0679
  188MPD1    C5 2863   4.404   0.416  10.201 -1.1006  0.1984  0.5964
  188MPD1     H 2864   4.336   0.383   9.833  0.1361  0.5360 -0.2498
  188MPD1    H1 2865   4.486   0.220  10.204  1.3762  0.7508 -0.1834
  188MPD1    H2 2866   4.299   0.597  10.196 -0.1894 -1.1842  1.5123
  188MPD1    H3 2867   4.412   0.413  10.309  1.2543 -1.1346  0.3860
  188MPD1     N 2868   4.461   0.165   9.949 -0.6530  0.1851  0.2373
  188MPD1    H5 2869   4.531   0.114  10.002 -0.2081 -1.7607 -2.2278
  188MPD1    N1 2870   4.211   0.592   9.939  0.8538 -0.1342  0.2311
  188MPD1    H6 2871   4.201   0.578   9.838 -1.0178 -0.2990  0.4358
  188MPD1    H7 2872   4.199   0.691   9.959  0.0193 -0.3352  0.7039
  189MPD1     C 2873   1.842   1.117   0.130  0.3233  0.4580 -0.1722
  189MPD1    C1 2874   1.777   0.997   0.104 -0.1265 -0.2940  0.4617
  189MPD1    C2 2875   1.645   0.989   0.146  0.1763 -0.1169  0.3312
  189MPD1    C3 2876   1.572   1.103   0.182 -0.4261 -0.3646  0.0995
  189MPD1    C4 2877   1.645   1.219   0.210  0.1176 -0.2961 -0.0622
  189MPD1    C5 2878   1.774   1.221   0.182  0.2082 -0.1532 -0.2352
  189MPD1     H 2879   1.589   0.899   0.125  0.4292 -0.0488 -0.6784
  189MPD1    H1 2880   1.597   1.314   0.233 -1.7827 -1.3121  0.1963
  189MPD1    H2 2881   1.947   1.127   0.105  0.4342  0.5052  0.3115
  189MPD1    H3 2882   1.831   1.313   0.193 -0.0924 -0.1897  1.5966
  189MPD1     N 2883   1.432   1.113   0.194 -1.0632 -0.3943 -0.4730
  189MPD1    H5 2884   1.399   1.206   0.218 -0.2793 -0.1829 -0.2110
  189MPD1    N1 2885   1.849   0.891   0.052 -0.5330 -0.5371  0.3195
  189MPD1    H6 2886   1.791   0.824   0.002 -0.4571  0.0933 -0.6233
  189MPD1    H7 2887   1.911   0.927  17.682 -0.1314 -2.3435 -0.2435
  190MPD1     C 2888   4.594   4.690  15.616  0.7358  0.3451 -0.1682
  190MPD1    C1 2889   4.573   4.557  15.640  0.9267  0.0800 -0.7279
  190MPD1    C2 2890   4.678   4.475  15.687  0.3663 -0.3291 -0.0947
  190MPD1    C3 2891   0.078   4.515  15.670 -0.4881 -0.3347  0.5367
  190MPD1    C4 2892   0.104   4.647  15.643 -0.1871 -0.5174 -0.0075
  190MPD1    C5 2893   4.725   0.009  15.612  0.2131 -0.3666  0.3470
  190MPD1     H 2894   4.658   4.375  15.724 -0.3496  0.2609  1.1287
  190MPD1    H1 2895   0.205   4.687  15.651 -0.8927  0.6514  2.8959
  190MPD1    H2 2896   4.513   0.036  15.607 -0.9237 -0.9470  4.6130
  190MPD1    H3 2897   0.016   0.114  15.590  0.3899 -0.4463  0.0969
  190MPD1     N 2898   0.182   4.417  15.704 -0.0233  0.0010 -0.3757
  190MPD1    H5 2899   0.150   4.329  15.743  0.3623  0.7716  1.6909
  190MPD1    N1 2900   4.442   4.516  15.647  0.0355  0.6970 -0.1308
  190MPD1    H6 2901   4.421   4.417  15.634  0.7434  0.2407  2.0969
  190MPD1    H7 2902   4.377   4.566  15.587 -1.0280 -1.2041 -0.5827
  191MPD1     C 2903   3.788   2.259  12.662  0.8861 -1.0730  0.1971
  191MPD1    C1 2904   3.811   2.395  12.680 -0.4384 -0.3018 -0.3478
  191MPD1    C2 2905   3.940   2.437  12.669  0.1502  0.1814 -1.5161
  191MPD1    C3 2906   4.044   2.359  12.625 -0.6506 -0.2396  0.6654
  191MPD1    C4 2907   4.022   2.223  12.611  0.0330  1.1849 -0.2915
  191MPD1    C5 2908   3.894   2.178  12.627 -0.3125  0.4068 -0.1942
  191MPD1     H 2909   3.973   2.538  12.692 -0.3835  0.0117 -0.0242
  191MPD1    H1 2910   4.088   2.143  12.579  0.1075  1.7442 -1.5447
  191MPD1    H2 2911   3.693   2.210  12.681  0.1710 -1.1286 -3.4628
  191MPD1    H3 2912   3.871   2.073  12.609  0.0107  0.6705 -2.2025
  191MPD1     N 2913   4.173   2.415  12.634  0.0360 -0.0008 -0.0021
  191MPD1    H5 2914   4.166   2.514  12.655  0.8370 -0.6892  3.5031
  191MPD1    N1 2915   3.717   2.491  12.724 -0.2012  0.3466 -0.2966
  191MPD1    H6 2916   3.743   2.586  12.697  1.4607  0.2640  0.9862
  191MPD1    H7 2917   3.629   2.470  12.678 -0.5662 -1.7132  1.3452
  192MPD1     C 2918   4.487   2.930  13.214  0.2241  0.2839  0.2893
  192MPD1    C1 2919   4.587   2.953  13.120  0.1556 -0.1434 -0.0585
  192MPD1    C2 2920   4.582   2.893  13.002 -0.1392 -0.3456 -0.1273
  192MPD1    C3 2921   4.485   2.797  12.980 -0.1027 -0.6382  0.0870
  192MPD1    C4 2922   4.382   2.780  13.069 -0.1795 -0.7531 -1.4301
  192MPD1    C5 2923   4.381   2.848  13.188  0.4851  0.5260 -0.4298
  192MPD1     H 2924   4.656   2.920  12.928  0.8776 -0.5285  0.8237
  192MPD1    H1 2925   4.304   2.710  13.042 -0.7117 -1.3789  1.7906
  192MPD1    H2 2926   4.483   2.979  13.311 -0.4910 -0.1618  0.4821
  192MPD1    H3 2927   4.304   2.828  13.261  0.1546  1.0977 -0.6188
  192MPD1     N 2928   4.477   2.721  12.870  0.2574 -0.4995 -0.2739
  192MPD1    H5 2929   4.393   2.665  12.867  1.4447 -2.2959  0.5519
  192MPD1    N1 2930   4.679   3.063  13.145 -0.1010  0.0213  0.5403
  192MPD1    H6 2931   4.679   3.088  13.243 -0.9987  1.2007  0.2421
  192MPD1    H7 2932   0.048   3.049  13.110  0.1529 -2.5992  2.2935
  193MPD1     C 2933   4.142   2.153  16.600  0.7841 -0.2549 -0.0401
  193MPD1    C1 2934   4.100   2.256  16.680 -0.5089 -0.2824  0.0715
  193MPD1    C2 2935   4.196   2.346  16.719  0.5086 -0.7672  0.1312
  193MPD1    C3 2936   4.324   2.347  16.672 -1.3634  0.3785  0.5253
  193MPD1    C4 2937   4.365   2.252  16.578  0.8623 -0.7234 -0.3238
  193MPD1    C5 2938   4.276   2.146  16.554 -0.0563 -0.0814 -0.1279
  193MPD1     H 2939   4.171   2.425  16.789 -1.4135  0.8594 -2.3641
  193MPD1    H1 2940   4.466   2.252  16.538  0.2642  1.7028 -1.8365
  193MPD1    H2 2941   4.066   2.092  16.551  1.4243 -0.5303 -0.6836
  193MPD1    H3 2942   4.309   2.056  16.503 -2.4132 -0.8757 -0.2795
  193MPD1     N 2943   4.417   2.451  16.693  0.6377  0.0487 -0.0037
  193MPD1    H5 2944   4.494   2.442  16.628  1.8782 -1.1521  1.6474
  193MPD1    N1 2945   3.969   2.243  16.736 -0.4766 -0.0564 -0.3588
  193MPD1    H6 2946   3.928   2.336  16.745  1.7140  0.9200 -0.4689
  193MPD1    H7 2947   3.908   2.184  16.681  0.0261 -0.6834 -0.2399
  194MPD1     C 2948   1.820   0.161  16.627 -0.4741 -0.1562  0.3827
  194MPD1    C1 2949   1.828   0.055  16.546  0.1080  0.0910  0.3737
  194MPD1    C2 2950   1.916   4.677  16.585 -0.3872  0.5432 -0.0735
  194MPD1    C3 2951   1.974   4.685  16.714  0.8052 -0.3414  0.2964
  194MPD1    C4 2952   1.953   0.065  16.800 -0.2957 -0.3118  0.0449
  194MPD1    C5 2953   1.874   0.168  16.755 -0.3566 -0.4040  0.4558
  194MPD1     H 2954   1.922   4.594  16.516 -0.0673  0.9205 -0.4978
  194MPD1    H1 2955   2.006   0.071  16.894 -3.3203 -0.0454  1.7270
  194MPD1    H2 2956   1.758   0.243  16.594  0.1744  0.4714  0.7318
  194MPD1    H3 2957   1.865   0.259  16.814  1.5407  0.1686 -0.1100
  194MPD1     N 2958   2.060   4.589  16.759 -0.3768 -0.6003 -0.3647
  194MPD1    H5 2959   2.096   4.595  16.854  0.8719 -3.8616 -0.6129
  194MPD1    N1 2960   1.778   0.050  16.413 -0.1468  0.1015  0.2637
  194MPD1    H6 2961   1.703   0.119  16.406  0.4278  0.8019  1.1103
  194MPD1    H7 2962   1.740   4.686  16.382 -1.2488  1.3566 -1.9970
  195MPD1     C 2963   0.390   0.512  17.523 -0.1564  0.8795  0.6746
  195MPD1    C1 2964   0.448   0.394  17.537 -0.0028 -0.3003 -0.4866
  195MPD1    C2 2965   0.397   0.310  17.636  0.5503  0.2078  0.1630
  195MPD1    C3 2966   0.300   0.350   0.026  0.0613  0.2856 -0.7352
  195MPD1    C4 2967   0.254   0.479   0.013  0.4037 -0.0637 -0.2728
  195MPD1    C5 2968   0.293   0.561  17.610 -0.2507 -1.3176 -0.0771
  195MPD1     H 2969   0.448   0.215  17.650  0.3849 -0.2091 -2.1152
  195MPD1    H1 2970   0.197   0.522   0.095  1.5213  1.5151 -0.3114
  195MPD1    H2 2971   0.421   0.585  17.449 -0.2906 -1.2386 -1.4628
  195MPD1    H3 2972   0.251   0.661  17.603 -1.1183 -1.6508  0.3943
  195MPD1     N 2973   0.261   0.273   0.144 -0.5373  0.0060  0.3262
  195MPD1    H5 2974   0.206   0.320   0.215 -0.2699 -1.2706  1.3848
  195MPD1    N1 2975   0.551   0.350  17.451 -0.1977 -0.4693 -0.5087
  195MPD1    H6 2976   0.580   0.434  17.402 -0.7960  0.6012  0.9784
  195MPD1    H7 2977   0.624   0.290  17.490  0.5501  0.3459 -0.6618
  196MPD1     C 2978   3.139   0.193   0.288 -0.2445 -0.0155  0.0572
  196MPD1    C1 2979   3.210   0.309   0.299 -0.6127  0.0426 -0.0496
  196MPD1    C2 2980   3.237   0.367   0.425  0.1350 -0.6143 -0.4345
  196MPD1    C3 2981   3.188   0.306   0.544 -0.4070 -0.8734 -0.1340
  196MPD1    C4 2982   3.120   0.183   0.525 -0.0985 -0.2415  0.3333
  196MPD1    C5 2983   3.105   0.131   0.400  0.4834 -0.2043  0.1369
  196MPD1     H 2984   3.281   0.466   0.435  1.2902 -1.2949  1.2892
  196MPD1    H1 2985   3.095   0.116   0.607 -0.0245  0.8433  1.2465
  196MPD1    H2 2986   3.105   0.149   0.195 -0.0878  0.6570 -0.3189
  196MPD1    H3 2987   3.039   0.045   0.394  3.5492 -2.4329 -1.4211
  196MPD1     N 2988   3.222   0.340   0.677 -0.0325 -0.7764 -0.3003
  196MPD1    H5 2989   3.171   0.294   0.752 -1.9676  1.1083 -0.4540
  196MPD1    N1 2990   3.224   0.385   0.178  0.5042  0.4289  0.4046
  196MPD1    H6 2991   3.250   0.317   0.108  1.5402  1.1518  0.0862
  196MPD1    H7 2992   3.305   0.445   0.194  1.1271 -0.0568 -0.9238
  197MPD1     C 2993   3.169   2.057  17.340 -0.5394 -0.1860 -0.4552
  197MPD1    C1 2994   3.113   2.170  17.394  0.1067  0.2841  0.2678
  197MPD1    C2 2995   3.155   2.294  17.344  0.1808  0.4650 -0.0949
  197MPD1    C3 2996   3.233   2.301  17.234  0.3790  0.1757 -0.0390
  197MPD1    C4 2997   3.262   2.188  17.166 -0.1246 -0.5395 -0.0916
  197MPD1    C5 2998   3.242   2.064  17.221 -0.8928  0.7026  0.0624
  197MPD1     H 2999   3.123   2.384  17.396  0.4947  0.5397 -0.0289
  197MPD1    H1 3000   3.319   2.192  17.073  0.9832 -0.4558  0.5883
  197MPD1    H2 3001   3.144   1.962  17.385  0.9518 -0.2007  0.3403
  197MPD1    H3 3002   3.286   1.978  17.172  2.7232  2.1214  0.8510
  197MPD1     N 3003   3.284   2.423  17.180  0.2922  0.0228 -0.5048
  197MPD1    H5 3004   3.335   2.418  17.093  2.1910  0.3041  0.6007
  197MPD1    N1 3005   3.043   2.160  17.513  0.6332 -0.1164 -0.0803
  197MPD1    H6 3006   3.001   2.067  17.521  1.2980 -0.1703  2.6324
  197MPD1    H7 3007   2.969   2.230  17.519  0.8850  0.3399 -2.1624
  198MPD1     C 3008   4.522   2.435  16.095 -0.4331 -0.1053 -0.1062
  198MPD1    C1 3009   4.513   2.307  16.141  0.8769  0.0513 -0.2130
  198MPD1    C2 3010   4.618   2.223  16.115  0.1425  0.0865 -0.7858
  198MPD1    C3 3011   4.702   2.249  16.009  0.8067  0.3535 -0.3610
  198MPD1    C4 3012   4.701   2.371  15.949 -0.3182 -0.3131 -0.1404
  198MPD1    C5 3013   4.616   2.471  16.002  0.7104  0.0766  0.0743
  198MPD1     H 3014   4.631   2.139  16.182  0.5887 -0.2401 -1.2837
  198MPD1    H1 3015   0.044   2.403  15.871 -1.8382 -0.2683 -1.4460
  198MPD1    H2 3016   4.456   2.513  16.132 -1.5368 -0.3382 -1.5775
  198MPD1    H3 3017   4.634   2.570  15.960  2.4766 -0.5539 -0.6689
  198MPD1     N 3018   0.068   2.146  15.968  0.0134  0.4807  0.6590
  198MPD1    H5 3019   0.092   2.071  16.032  2.0120  1.3287  0.9157
  198MPD1    N1 3020   4.425   2.271  16.247  0.5316  0.2947 -0.4699
  198MPD1    H6 3021   4.397   2.173  16.237 -1.9580  0.9659  0.1027
  198MPD1    H7 3022   4.340   2.325  16.242 -0.5645 -1.2303  1.8256
  199MPD1     C 3023   3.500   1.909   9.782  0.1528 -0.0488 -0.1065
  199MPD1    C1 3024   3.476   2.044   9.766  0.7234  0.4357  0.3339
  199MPD1    C2 3025   3.352   2.086   9.715  0.3245 -0.4638 -1.0612
  199MPD1    C3 3026   3.245   1.998   9.702  0.6241 -0.0626 -0.0545
  199MPD1    C4 3027   3.265   1.869   9.742  0.5473 -0.4779 -0.0319
  199MPD1    C5 3028   3.391   1.827   9.778 -0.7875  0.2447  0.3961
  199MPD1     H 3029   3.336   2.190   9.689 -1.7507 -0.3703  0.5247
  199MPD1    H1 3030   3.191   1.789   9.739 -0.6548  0.6643 -0.6894
  199MPD1    H2 3031   3.597   1.867   9.807 -0.0799 -0.4049  0.1941
  199MPD1    H3 3032   3.402   1.720   9.785 -2.4840  0.0086 -0.5475
  199MPD1     N 3033   3.111   2.027   9.665 -0.5158  0.1224  0.7400
  199MPD1    H5 3034   3.053   1.944   9.674 -1.0981  0.2803 -1.6433
  199MPD1    N1 3035   3.588   2.133   9.774  0.1209  0.1688 -0.0534
  199MPD1    H6 3036   3.670   2.105   9.827 -0.1784 -2.0940 -0.7913
  199MPD1    H7 3037   3.574   2.231   9.798 -1.1075 -0.2257  0.7823
  200MPD1     C 3038   1.065   2.480  14.098 -0.3317 -0.1502 -0.0650
  200MPD1    C1 3039   1.083   2.526  14.228  0.0028  0.4711 -0.2839
  200MPD1    C2 3040   1.190   2.468  14.302  0.6802  0.4723 -0.1396
  200MPD1    C3 3041   1.265   2.368  14.255 -0.1718 -0.5404  0.1202
  200MPD1    C4 3042   1.246   2.328  14.125 -0.4106  0.4568  0.3674
  200MPD1    C5 3043   1.143   2.381  14.051 -0.1620 -0.0527  0.1022
  200MPD1     H 3044   1.198   2.492  14.408  3.5692  1.8195 -0.6499
  200MPD1    H1 3045   1.296   2.245  14.077 -1.3571 -0.4365  0.9363
  200MPD1    H2 3046   0.981   2.510  14.037  0.0610  4.2827  1.5405
  200MPD1    H3 3047   1.123   2.348  13.950  1.5093 -1.2539  0.1705
  200MPD1     N 3048   1.372   2.315  14.334 -0.5846  0.1297 -0.3562
  200MPD1    H5 3049   1.383   2.372  14.417  0.0186 -0.4357 -0.0454
  200MPD1    N1 3050   0.988   2.602  14.299 -0.1878 -0.2903  0.3722
  200MPD1    H6 3051   1.034   2.647  14.377  0.0885 -0.7066  0.4513
  200MPD1    H7 3052   0.947   2.677  14.244 -3.4661 -2.8141 -0.7238
  201MPD1     C 3053   4.019   1.830  13.456  0.3185  0.2824 -0.9275
  201MPD1    C1 3054   4.037   1.737  13.560  0.0979  1.0611  0.3155
  201MPD1    C2 3055   4.058   1.603  13.519  0.4110 -0.5848  0.1038
  201MPD1    C3 3056   4.050   1.565  13.387 -0.5777 -0.2099 -0.2007
  201MPD1    C4 3057   4.022   1.655  13.289  0.4284  0.9654  0.0344
  201MPD1    C5 3058   4.013   1.793  13.320 -0.1098  0.5400 -0.2473
  201MPD1     H 3059   4.082   1.532  13.598  1.7916  0.2805  0.4749
  201MPD1    H1 3060   4.013   1.619  13.187  2.0277 -0.5871  0.4559
  201MPD1    H2 3061   4.011   1.935  13.481  2.6234 -0.3050  2.3482
  201MPD1    H3 3062   3.992   1.865  13.242 -1.7178  1.2851  0.8660
  201MPD1     N 3063   4.069   1.432  13.367  0.1263  0.1859  0.5616
  201MPD1    H5 3064   4.102   1.377  13.446 -0.1807  0.0730  0.6132
  201MPD1    N1 3065   4.078   1.784  13.685 -0.9110 -0.1170 -0.0360
  201MPD1    H6 3066   4.048   1.878  13.708  1.8833  1.0405 -1.0630
  201MPD1    H7 3067   4.049   1.718  13.757  0.4444 -1.3573 -0.6081
  202MPD1     C 3068   3.386   4.210   9.150 -0.5040  0.3605 -0.7606
  202MPD1    C1 3069   3.463   4.303   9.077 -0.0598  0.3268  0.0389
  202MPD1    C2 3070   3.538   4.393   9.143  0.1701  1.1191 -0.0797
  202MPD1    C3 3071   3.518   4.417   9.282  0.6075 -0.0023 -0.3650
  202MPD1    C4 3072   3.421   4.342   9.353  0.3037  1.0105  0.0659
  202MPD1    C5 3073   3.366   4.234   9.289 -0.5234  0.0152 -0.1764
  202MPD1     H 3074   3.605   4.446   9.076  1.5089 -1.7535 -0.9877
  202MPD1    H1 3075   3.393   4.355   9.457 -0.7730 -0.8462  0.0066
  202MPD1    H2 3076   3.322   4.132   9.109  2.3367 -3.6843  2.4940
  202MPD1    H3 3077   3.301   4.167   9.344 -1.5086  0.6577 -0.5605
  202MPD1     N 3078   3.575   4.527   9.358  1.0210  0.3719  0.1801
  202MPD1    H5 3079   3.544   4.532   9.455  2.4904  1.0944  0.6223
  202MPD1    N1 3080   3.509   4.262   8.954  0.2475 -0.3662  0.4200
  202MPD1    H6 3081   3.535   4.350   8.908 -1.9859 -0.9985 -2.0250
  202MPD1    H7 3082   3.440   4.215   8.897 -1.3702  1.2335  1.0353
  203MPD1     C 3083   2.499   2.147  12.276 -0.6245 -0.1534  0.1016
  203MPD1    C1 3084   2.623   2.127  12.337 -0.0757 -0.5759  0.6352
  203MPD1    C2 3085   2.667   1.997  12.368  0.7114  0.4470  0.1511
  203MPD1    C3 3086   2.588   1.891  12.327 -0.1866  0.0969  0.2730
  203MPD1    C4 3087   2.471   1.913  12.264  0.5920 -0.0460 -0.6515
  203MPD1    C5 3088   2.422   2.041  12.246  0.0082  0.3818 -0.3665
  203MPD1     H 3089   2.765   1.978  12.412  1.0002  0.0023 -0.6901
  203MPD1    H1 3090   2.408   1.827  12.243 -1.8922  1.8401 -0.8851
  203MPD1    H2 3091   2.464   2.248  12.253  0.9203 -0.2432 -2.6252
  203MPD1    H3 3092   2.325   2.056  12.199 -0.3547 -1.2300 -0.1368
  203MPD1     N 3093   2.644   1.759  12.336  0.0997  0.5272 -0.2447
  203MPD1    H5 3094   2.730   1.752  12.390  0.7378 -1.0025 -1.4625
  203MPD1    N1 3095   2.711   2.230  12.358  0.1923  0.2660  0.4653
  203MPD1    H6 3096   2.783   2.206  12.426  0.7872  0.0787 -0.2311
  203MPD1    H7 3097   2.664   2.318  12.377 -0.1150  0.2358 -0.1597
  204MPD1     C 3098   1.908   3.062  17.330  0.3361 -0.3104  0.1567
  204MPD1    C1 3099   2.028   3.087  17.387  0.0045 -0.4932  0.2473
  204MPD1    C2 3100   2.123   2.991  17.363 -0.7550  0.0114  0.5518
  204MPD1    C3 3101   2.101   2.865  17.307  0.4818 -0.2036  1.0004
  204MPD1    C4 3102   1.970   2.839  17.267  0.4429 -0.1432 -0.1683
  204MPD1    C5 3103   1.876   2.942  17.282 -0.3954 -0.1504 -0.3926
  204MPD1     H 3104   2.226   3.002  17.396 -0.8196  3.0228 -0.2264
  204MPD1    H1 3105   1.940   2.743  17.228  3.4625  0.1480 -3.2123
  204MPD1    H2 3106   1.834   3.142  17.329  3.6645  2.7427 -0.2291
  204MPD1    H3 3107   1.777   2.923  17.242  0.0272 -2.5463 -0.3255
  204MPD1     N 3108   2.213   2.774  17.287 -0.2007 -0.2306 -0.4241
  204MPD1    H5 3109   2.309   2.805  17.297 -1.1950  3.1295 -1.3152
  204MPD1    N1 3110   2.067   3.210  17.425 -0.1145  0.0204 -0.0140
  204MPD1    H6 3111   1.991   3.265  17.464  0.3834  0.5839  0.1709
  204MPD1    H7 3112   2.139   3.205  17.498  0.3834 -1.8563 -0.6324
  205MPD1     C 3113   2.805   1.703  16.254  0.6855  0.1511 -0.2478
  205MPD1    C1 3114   2.820   1.569  16.300  0.5175 -0.1643  0.3859
  205MPD1    C2 3115   2.765   1.531  16.416  0.0447 -0.4334 -0.3187
  205MPD1    C3 3116   2.710   1.630  16.501  0.5057  1.2872 -0.7236
  205MPD1    C4 3117   2.692   1.761  16.460 -0.2713 -0.0959  0.6856
  205MPD1    C5 3118   2.731   1.794  16.331  0.2792  0.2828 -0.0515
  205MPD1     H 3119   2.763   1.427  16.445 -1.4403 -0.7320 -1.4274
  205MPD1    H1 3120   2.635   1.833  16.518 -1.3264 -0.1434 -0.2846
  205MPD1    H2 3121   2.837   1.741  16.158 -0.0856  0.1235 -0.5182
  205MPD1    H3 3122   2.713   1.891  16.287 -0.0190  0.3397  0.1964
  205MPD1     N 3123   2.667   1.602  16.632 -0.2680  0.0374  1.0682
  205MPD1    H5 3124   2.634   1.685  16.681 -0.2555  0.8630 -0.3396
  205MPD1    N1 3125   2.873   1.466  16.213 -0.3142 -0.2884 -0.7264
  205MPD1    H6 3126   2.909   1.386  16.265 -0.9903  0.7906  1.3958
  205MPD1    H7 3127   2.949   1.501  16.156 -1.0694 -0.3212 -1.7423
  206MPD1     C 3128   2.944   3.807  16.248 -0.0769  0.2241 -0.2547
  206MPD1    C1 3129   2.828   3.883  16.252  0.1576 -0.0915  0.1016
  206MPD1    C2 3130   2.766   3.914  16.135  0.4622  0.7103  0.9692
  206MPD1    C3 3131   2.802   3.848  16.014 -0.0942 -0.2594  0.4215
  206MPD1    C4 3132   2.902   3.752  16.019 -0.4627 -0.1968  0.2533
  206MPD1    C5 3133   2.974   3.738  16.133 -0.7999 -0.2841 -0.0150
  206MPD1     H 3134   2.697   3.997  16.131  1.0404  1.1279 -0.7961
  206MPD1    H1 3135   2.941   3.704  15.930  1.8975 -2.3245  2.3934
  206MPD1    H2 3136   3.011   3.787  16.331 -0.1658 -1.6387 -0.6490
  206MPD1    H3 3137   3.056   3.667  16.136 -1.0279 -0.4597  1.6288
  206MPD1     N 3138   2.744   3.877  15.890 -0.7866  0.5535  0.1792
  206MPD1    H5 3139   2.788   3.831  15.811 -2.2785 -2.4832  1.1268
  206MPD1    N1 3140   2.789   3.961  16.363 -0.3275  0.2052 -0.3587
  206MPD1    H6 3141   2.688   3.967  16.359 -0.0501  4.2905 -0.3051
  206MPD1    H7 3142   2.814   3.923  16.455 -0.6696  0.0404 -0.3343
  207MPD1     C 3143   4.164   1.800  10.115  0.0046  0.5479 -0.3342
  207MPD1    C1 3144   4.239   1.896  10.043 -0.6613  0.2677  0.5746
  207MPD1    C2 3145   4.377   1.907  10.069 -0.0466 -0.1447 -1.0116
  207MPD1    C3 3146   4.445   1.818  10.150 -1.2896 -0.3727  0.5561
  207MPD1    C4 3147   4.375   1.720  10.213  1.4443  0.3965 -0.2623
  207MPD1    C5 3148   4.237   1.706  10.192 -0.1548 -0.0089  0.2263
  207MPD1     H 3149   4.439   1.982  10.021  1.6733 -1.5078 -0.9353
  207MPD1    H1 3150   4.421   1.663  10.293  3.2530  0.3028 -1.3557
  207MPD1    H2 3151   4.056   1.798  10.120 -0.0758  2.7707 -1.3425
  207MPD1    H3 3152   4.185   1.622  10.236  0.9566  0.3917  2.3223
  207MPD1     N 3153   4.584   1.826  10.181 -0.4609 -0.3166  0.2205
  207MPD1    H5 3154   4.620   1.747  10.235 -2.2596 -1.5425 -0.3631
  207MPD1    N1 3155   4.163   1.998   9.978  0.4256 -0.2228  0.1168
  207MPD1    H6 3156   4.085   1.956   9.929 -0.7833  1.1717  0.8144
  207MPD1    H7 3157   4.217   2.044   9.906 -1.1261  0.3220 -0.6905
  208MPD1     C 3158   3.579   0.851   0.703  0.4953 -0.2267 -0.2642
  208MPD1    C1 3159   3.497   0.966   0.728  0.3046  0.7074  0.2267
  208MPD1    C2 3160   3.394   0.988   0.644  0.8760 -0.4428 -0.0428
  208MPD1    C3 3161   3.362   0.893   0.546 -0.3978  0.0799 -0.1922
  208MPD1    C4 3162   3.440   0.777   0.534  0.0081 -0.4671 -0.0061
  208MPD1    C5 3163   3.558   0.763   0.603 -0.5095  0.5435  0.8350
  208MPD1     H 3164   3.336   1.078   0.661 -0.2947 -1.2840  0.4201
  208MPD1    H1 3165   3.408   0.691   0.476  0.8064  1.3202 -3.1130
  208MPD1    H2 3166   3.672   0.845   0.758 -0.1030 -1.5879  0.6098
  208MPD1    H3 3167   3.621   0.676   0.589  1.2493  2.2175 -1.7069
  208MPD1     N 3168   3.243   0.911   0.471  0.5564  0.3328  0.4840
  208MPD1    H5 3169   3.189   0.995   0.486 -0.1787  0.0052 -0.3135
  208MPD1    N1 3170   3.551   1.076   0.799 -0.4651  0.0356 -0.1488
  208MPD1    H6 3171   3.477   1.138   0.831  0.5772  1.2296 -0.0430
  208MPD1    H7 3172   3.604   1.033   0.874  0.6458  0.9300 -0.4222
  209MPD1     C 3173   0.800   0.409  10.393  0.3505  0.1483  0.6956
  209MPD1    C1 3174   0.701   0.500  10.363 -0.2850  0.0151  0.2898
  209MPD1    C2 3175   0.720   0.642  10.370  0.1151 -0.7148  0.4314
  209MPD1    C3 3176   0.833   0.693  10.427  0.0036 -0.4618 -0.0677
  209MPD1    C4 3177   0.924   0.598  10.473 -0.1686  0.9129  0.1457
  209MPD1    C5 3178   0.913   0.463  10.458  0.0653  0.3742  0.5121
  209MPD1     H 3179   0.648   0.699  10.312  0.1137 -0.2576  0.8861
  209MPD1    H1 3180   1.003   0.622  10.544  2.9761 -3.0261 -1.9938
  209MPD1    H2 3181   0.798   0.301  10.384 -0.0842  0.1792  0.3811
  209MPD1    H3 3182   0.996   0.399  10.482  0.9683  0.6100 -1.9695
  209MPD1     N 3183   0.837   0.833  10.446  0.4373  0.0548 -0.6564
  209MPD1    H5 3184   0.774   0.888  10.388 -0.8076  0.1640  0.7916
  209MPD1    N1 3185   0.591   0.435  10.299  0.0084  0.2902  0.2689
  209MPD1    H6 3186   0.582   0.340  10.335 -2.8239  0.6241  0.4296
  209MPD1    H7 3187   0.501   0.479  10.312  0.2839  1.7883 -2.9078
  210MPD1     C 3188   0.984   1.614  11.183  0.6158  0.4239  0.2920
  210MPD1    C1 3189   1.044   1.493  11.176  0.6438  0.0714  0.2884
  210MPD1    C2 3190   1.023   1.415  11.067 -0.5864  0.2417 -0.1549
  210MPD1    C3 3191   0.964   1.475  10.962  0.2258 -0.0466  0.3079
  210MPD1    C4 3192   0.934   1.610  10.959 -0.3441  0.3700 -0.0184
  210MPD1    C5 3193   0.927   1.678  11.073  0.6102  0.4067 -0.2272
  210MPD1     H 3194   1.052   1.311  11.080  0.5203  0.3252 -1.9210
  210MPD1    H1 3195   0.897   1.658  10.868 -2.0324  1.1206  1.0566
  210MPD1    H2 3196   0.986   1.672  11.274  0.7414  0.8165  0.0390
  210MPD1    H3 3197   0.886   1.778  11.078  0.3066  0.0676  4.0386
  210MPD1     N 3198   0.941   1.401  10.844  0.7385  0.5300 -0.7798
  210MPD1    H5 3199   0.904   1.461  10.771  1.7758  0.7516 -1.1139
  210MPD1    N1 3200   1.104   1.437  11.293  0.0156  0.0640 -0.1996
  210MPD1    H6 3201   1.160   1.356  11.269  2.1518  1.2426  0.8248
  210MPD1    H7 3202   1.147   1.495  11.365 -1.4522  0.0514  0.7018
  211MPD1     C 3203   2.755   0.862  16.968  0.3133 -0.3278 -0.1186
  211MPD1    C1 3204   2.700   0.982  17.018 -0.3384 -0.7559 -0.1413
  211MPD1    C2 3205   2.605   1.056  16.942  0.3759 -0.1266 -0.6314
  211MPD1    C3 3206   2.591   1.022  16.806  0.3363  0.7376 -1.4194
  211MPD1    C4 3207   2.666   0.921  16.760 -0.3312  0.1067 -0.4197
  211MPD1    C5 3208   2.738   0.836  16.836 -0.3356  0.7314 -0.6973
  211MPD1     H 3209   2.552   1.143  16.979  0.1146  0.2220 -1.8499
  211MPD1    H1 3210   2.664   0.890  16.656 -0.7312 -1.5881  0.1037
  211MPD1    H2 3211   2.812   0.791  17.027  0.6656  0.7891  0.8926
  211MPD1    H3 3212   2.803   0.759  16.796 -1.9666 -0.3486 -1.2444
  211MPD1     N 3213   2.504   1.098  16.724 -0.6387 -0.1324 -0.5774
  211MPD1    H5 3214   2.465   1.181  16.767  0.7448  0.4737 -0.4989
  211MPD1    N1 3215   2.711   0.997  17.155  0.3963 -0.5032  0.2911
  211MPD1    H6 3216   2.686   1.094  17.175  0.0358 -1.2310  3.3500
  211MPD1    H7 3217   2.798   0.969  17.201 -0.0497 -3.8750 -0.9481
  212MPD1     C 3218   1.623   4.510  16.226  0.2214  0.3042 -0.3621
  212MPD1    C1 3219   1.536   4.571  16.313  0.3225 -0.8667 -0.4469
  212MPD1    C2 3220   1.529   4.534  16.444  0.0172  0.2086  0.4419
  212MPD1    C3 3221   1.624   4.445  16.496  0.9604 -0.0911 -0.0863
  212MPD1    C4 3222   1.730   4.415  16.412 -0.1392  0.0296  0.3022
  212MPD1    C5 3223   1.728   4.443  16.276  0.3041  0.6245 -0.1418
  212MPD1     H 3224   1.443   4.567  16.503 -0.2983 -1.9605  1.2118
  212MPD1    H1 3225   1.811   4.350  16.443 -0.4694 -0.6189 -0.1998
  212MPD1    H2 3226   1.606   4.530  16.120 -1.3699 -0.2181 -0.2040
  212MPD1    H3 3227   1.802   4.409  16.205 -0.2262  1.2563 -1.0001
  212MPD1     N 3228   1.630   4.395  16.627  0.3276 -0.4927  0.0830
  212MPD1    H5 3229   1.712   4.341  16.653  0.9724 -0.5229 -1.9841
  212MPD1    N1 3230   1.439   4.659  16.263 -0.0445  0.1415 -0.7015
  212MPD1    H6 3231   1.422   0.003  16.336  2.7667 -1.1473  1.1702
  212MPD1    H7 3232   1.485   4.714  16.191  1.3517 -0.7955 -0.5073
  213MPD1     C 3233   0.106   0.090  16.079  0.1827  0.0031  0.1693
  213MPD1    C1 3234   0.210   0.159  16.029 -0.0941  0.1015  0.0801
  213MPD1    C2 3235   0.174   0.241  15.923  0.3157  0.1064  0.1913
  213MPD1    C3 3236   0.054   0.246  15.862  0.0255 -0.5115 -0.1927
  213MPD1    C4 3237   4.681   0.167  15.916 -0.4631  0.3914 -0.3821
  213MPD1    C5 3238   4.705   0.088  16.018 -0.2994  0.0034  0.1626
  213MPD1     H 3239   0.245   0.316  15.891 -0.1683 -0.2172 -1.6648
  213MPD1    H1 3240   4.577   0.171  15.886 -0.1605  1.5592 -1.3069
  213MPD1    H2 3241   0.106   0.049  16.180 -1.0019  0.0274  0.1787
  213MPD1    H3 3242   4.618   0.033  16.053 -1.1353  1.2888  0.1127
  213MPD1     N 3243   0.038   0.340  15.754 -0.0117  0.0198 -0.2827
  213MPD1    H5 3244   0.126   0.378  15.720  0.9498 -0.3516  1.7637
  213MPD1    N1 3245   0.322   0.184  16.108  0.7063 -0.8593  0.2846
  213MPD1    H6 3246   0.366   0.110  16.162 -0.4784 -1.6948  0.0951
  213MPD1    H7 3247   0.399   0.221  16.053 -0.2612  1.7856  0.6920
  214MPD1     C 3248   4.054   0.412  15.072 -0.0594 -0.0765 -0.0899
  214MPD1    C1 3249   4.080   0.538  15.118  0.1165  0.3649 -0.0285
  214MPD1    C2 3250   4.206   0.555  15.175 -0.9805  0.2002  0.2049
  214MPD1    C3 3251   4.295   0.447  15.182 -0.4423  0.7141  0.0302
  214MPD1    C4 3252   4.256   0.322  15.143  0.9527  0.3734 -0.2165
  214MPD1    C5 3253   4.140   0.306  15.087  0.0612  0.6550  0.2464
  214MPD1     H 3254   4.237   0.656  15.200 -0.9261 -0.2767  2.0160
  214MPD1    H1 3255   4.320   0.236  15.163 -0.0446 -0.2429  0.2862
  214MPD1    H2 3256   3.954   0.394  15.034 -0.2002 -0.4353  0.4473
  214MPD1    H3 3257   4.106   0.206  15.061  1.1599  0.4580 -0.4402
  214MPD1     N 3258   4.418   0.462  15.259  0.3286 -0.1245 -0.0772
  214MPD1    H5 3259   4.468   0.376  15.281 -2.1672 -1.6567 -0.4237
  214MPD1    N1 3260   4.002   0.647  15.082  0.0354 -0.6003  0.4854
  214MPD1    H6 3261   3.910   0.606  15.068 -0.9915  1.7886  0.2130
  214MPD1    H7 3262   3.998   0.718  15.155  2.4733  2.4635 -2.3597
  215MPD1     C 3263   0.677   0.762  10.738 -0.3005  0.5377 -0.1650
  215MPD1    C1 3264   0.573   0.833  10.689  0.2916  0.1430 -0.1214
  215MPD1    C2 3265   0.555   0.956  10.755  0.4588  0.4369  0.8321
  215MPD1    C3 3266   0.630   1.003  10.864 -0.0671 -0.3578 -0.5697
  215MPD1    C4 3267   0.733   0.922  10.916 -0.3368  0.3884  0.1792
  215MPD1    C5 3268   0.758   0.801  10.844 -0.2069  0.1715 -0.3861
  215MPD1     H 3269   0.480   1.027  10.722 -2.0462 -2.1734  0.9344
  215MPD1    H1 3270   0.803   0.948  10.994 -1.0745  2.2602  0.2181
  215MPD1    H2 3271   0.705   0.667  10.695  0.7918  1.0861 -0.6647
  215MPD1    H3 3272   0.844   0.741  10.870 -0.2903  1.0995  2.1114
  215MPD1     N 3273   0.613   1.139  10.905 -0.2151 -0.5278  0.0509
  215MPD1    H5 3274   0.530   1.187  10.872 -0.4797 -0.6956  0.4656
  215MPD1    N1 3275   0.501   0.804  10.568 -0.3656 -0.7146 -0.0821
  215MPD1    H6 3276   0.405   0.837  10.560  0.1221  0.1746 -2.2170
  215MPD1    H7 3277   0.507   0.705  10.545 -1.0463 -1.0572  1.1913
  216MPD1     C 3278   2.704   2.481  16.247 -0.0789 -0.2271  0.4904
  216MPD1    C1 3279   2.647   2.400  16.343  0.6402 -0.1746  0.5451
  216MPD1    C2 3280   2.578   2.472  16.438 -0.2574 -0.0610  0.2332
  216MPD1    C3 3281   2.563   2.612  16.435  0.1522  0.2740 -0.1685
  216MPD1    C4 3282   2.615   2.688  16.331  0.3324  0.9682  0.5651
  216MPD1    C5 3283   2.683   2.617  16.236 -0.0091 -1.1312  0.0551
  216MPD1     H 3284   2.534   2.421  16.523  1.9545 -1.0236  0.7937
  216MPD1    H1 3285   2.587   2.792  16.319 -1.3475  0.5950  1.3106
  216MPD1    H2 3286   2.756   2.420  16.174 -0.5475  0.0093 -0.0464
  216MPD1    H3 3287   2.701   2.663  16.139 -1.4539  0.7365  0.6755
  216MPD1     N 3288   2.489   2.674  16.537 -0.3066 -0.0256 -0.3406
  216MPD1    H5 3289   2.438   2.612  16.599  0.9012 -0.0543  0.6250
  216MPD1    N1 3290   2.679   2.268  16.362  0.4258 -0.4458  0.4488
  216MPD1    H6 3291   2.719   2.222  16.280  0.4536  1.1629 -0.4278
  216MPD1    H7 3292   2.616   2.206  16.413 -0.0053  1.0217  1.6990
  217MPD1     C 3293   3.028   3.948   9.043 -0.3346 -0.1537  0.1904
  217MPD1    C1 3294   3.089   3.929   9.160  1.1041 -0.0219 -0.8062
  217MPD1    C2 3295   3.086   4.031   9.251  0.1723 -0.1052  0.6065
  217MPD1    C3 3296   3.002   4.136   9.235  0.2957  1.1185  0.2563
  217MPD1    C4 3297   2.953   4.154   9.109 -0.6220  0.4255 -0.3153
  217MPD1    C5 3298   2.959   4.056   9.012  0.8546 -0.7638 -0.5324
  217MPD1     H 3299   3.130   4.012   9.348 -0.6684  2.4030  1.4836
  217MPD1    H1 3300   2.889   4.241   9.102 -1.0759  0.2631  1.7229
  217MPD1    H2 3301   3.040   3.877   8.962 -1.3113 -0.0723 -0.0159
  217MPD1    H3 3302   2.925   4.065   8.910 -0.1800 -2.7772 -0.3685
  217MPD1     N 3303   2.979   4.248   9.327  0.2853 -0.1329  0.1901
  217MPD1    H5 3304   2.935   4.329   9.284  0.2735 -1.8380 -3.0632
  217MPD1    N1 3305   3.173   3.823   9.175  0.5496  0.1221 -0.2937
  217MPD1    H6 3306   3.124   3.737   9.151  2.9536 -0.6419 -2.5060
  217MPD1    H7 3307   3.220   3.821   9.265 -2.7810  1.1572  1.4831
  218MPD1     C 3308   3.960   2.282  13.624  1.1677 -0.2097  0.1712
  218MPD1    C1 3309   4.083   2.241  13.671  0.0072 -0.4107  0.3001
  218MPD1    C2 3310   4.173   2.180  13.580  0.2638  0.5592  0.5974
  218MPD1    C3 3311   4.136   2.167  13.445  0.3330 -0.4196 -0.1298
  218MPD1    C4 3312   4.015   2.206  13.395  0.4209 -0.9543 -0.0568
  218MPD1    C5 3313   3.928   2.264  13.488  1.1917  0.0208  0.3851
  218MPD1     H 3314   4.272   2.143  13.604  0.0705  0.2187  0.8614
  218MPD1    H1 3315   3.984   2.205  13.291  0.5126  0.2358 -0.0936
  218MPD1    H2 3316   3.895   2.343  13.687 -0.6880 -0.1268 -1.8163
  218MPD1    H3 3317   3.832   2.305  13.458  0.7557 -2.0407 -1.0002
  218MPD1     N 3318   4.234   2.112  13.368 -0.2478  0.0411 -0.5297
  218MPD1    H5 3319   4.317   2.095  13.424 -1.6065 -0.6075  1.2905
  218MPD1    N1 3320   4.114   2.281  13.804 -0.4776 -0.3710  0.3821
  218MPD1    H6 3321   4.044   2.288  13.877 -1.9637  1.0164 -1.1704
  218MPD1    H7 3322   4.189   2.223  13.841  1.8022  2.0507 -0.4471
  219MPD1     C 3323   0.470   2.192  13.024 -0.2006 -0.1244  0.6400
  219MPD1    C1 3324   0.418   2.157  13.149 -0.0279 -0.4598  0.3731
  219MPD1    C2 3325   0.283   2.132  13.166  0.4354  0.4767  0.2390
  219MPD1    C3 3326   0.201   2.156  13.063  0.1709  0.0511  0.2924
  219MPD1    C4 3327   0.254   2.182  12.937  0.2061  0.6124  0.0501
  219MPD1    C5 3328   0.388   2.207  12.922 -0.1317  0.2584  0.1852
  219MPD1     H 3329   0.242   2.103  13.263 -1.1145 -0.8977 -0.8294
  219MPD1    H1 3330   0.187   2.200  12.854  2.0558  2.9423 -0.9276
  219MPD1    H2 3331   0.575   2.178  12.999 -0.9851 -1.4206 -1.8582
  219MPD1    H3 3332   0.419   2.223  12.819  1.1929  0.3781  0.6060
  219MPD1     N 3333   0.066   2.138  13.062 -0.0951  0.4112  0.1496
  219MPD1    H5 3334   0.015   2.137  12.975 -1.3417  1.7705  0.8624
  219MPD1    N1 3335   0.507   2.129  13.258  0.4170 -0.8180  0.0393
  219MPD1    H6 3336   0.601   2.165  13.245 -0.5072  1.2704 -0.8371
  219MPD1    H7 3337   0.480   2.167  13.349  0.0056 -1.9515  0.3945
  220MPD1     C 3338   0.390   0.629  10.076  0.3462 -0.6746  0.0655
  220MPD1    C1 3339   0.326   0.680   9.968 -0.4671  0.0073  0.0894
  220MPD1    C2 3340   0.253   0.795   9.993  0.0241  0.0319 -0.2380
  220MPD1    C3 3341   0.224   0.842  10.117 -0.3543  0.3532 -0.0524
  220MPD1    C4 3342   0.264   0.763  10.226  1.1815  0.0149  0.0701
  220MPD1    C5 3343   0.352   0.662  10.207  0.8378  0.4637 -0.0508
  220MPD1     H 3344   0.228   0.857   9.907  1.2442  1.7257  0.6371
  220MPD1    H1 3345   0.223   0.781  10.324 -0.1698  0.2416 -0.5390
  220MPD1    H2 3346   0.447   0.537  10.066 -1.6069 -1.6470 -2.2088
  220MPD1    H3 3347   0.373   0.601  10.294 -1.4441  0.6918  0.6699
  220MPD1     N 3348   0.135   0.949  10.119 -0.0137 -0.3944  0.7348
  220MPD1    H5 3349   0.111   1.000  10.034  0.2620 -0.8406  0.3855
  220MPD1    N1 3350   0.361   0.660   9.838  0.2701 -0.3739  0.0764
  220MPD1    H6 3351   0.285   0.683   9.776 -1.6435  1.3109  3.0238
  220MPD1    H7 3352   0.385   0.561   9.839 -3.1700 -1.1949 -1.7194
  221MPD1     C 3353   2.822   4.521  15.797 -0.0573  0.5036 -0.3420
  221MPD1    C1 3354   2.877   4.634  15.841  0.9428  0.0457 -0.3830
  221MPD1    C2 3355   2.803   0.022  15.811  0.3521 -0.3729 -0.4250
  221MPD1    C3 3356   2.678   0.029  15.754 -0.0490  0.1958  0.8391
  221MPD1    C4 3357   2.618   4.632  15.737  0.1390  0.7878  0.4010
  221MPD1    C5 3358   2.691   4.516  15.743  0.2910 -0.1494  0.0920
  221MPD1     H 3359   2.850   0.116  15.838  1.6624 -1.4840  1.1524
  221MPD1    H1 3360   2.515   4.617  15.707 -0.0809 -0.3073  1.7025
  221MPD1    H2 3361   2.872   4.428  15.819 -0.8157  0.2606  0.3690
  221MPD1    H3 3362   2.647   4.420  15.719 -0.5173  0.0320  0.8156
  221MPD1     N 3363   2.602   0.145  15.736  0.3355 -0.0738 -0.0751
  221MPD1    H5 3364   2.505   0.133  15.709  0.1409 -0.3694  0.7573
  221MPD1    N1 3365   3.013   4.632  15.888 -0.2112  0.0312 -0.5811
  221MPD1    H6 3366   3.041   4.703  15.956  0.5827 -0.2636 -0.6032
  221MPD1    H7 3367   3.042   4.538  15.915 -1.2123 -0.4960 -1.3292
  222MPD1     C 3368   2.572   4.244  16.314 -0.1040  0.0627 -0.7720
  222MPD1    C1 3369   2.469   4.303  16.249 -0.2782  0.2479  0.5543
  222MPD1    C2 3370   2.409   4.415  16.311 -0.3749  0.3328  0.2972
  222MPD1    C3 3371   2.450   4.458  16.436  0.2510 -0.8540  0.7598
  222MPD1    C4 3372   2.543   4.392  16.504 -0.0780 -0.2049 -0.9978
  222MPD1    C5 3373   2.610   4.290  16.437 -0.0926 -0.1203 -0.6619
  222MPD1     H 3374   2.330   4.466  16.257 -1.1439  0.3760  1.4625
  222MPD1    H1 3375   2.581   4.424  16.600  0.7991 -0.0415 -1.3989
  222MPD1    H2 3376   2.640   4.176  16.264  0.0868 -0.9289  0.8434
  222MPD1    H3 3377   2.696   4.248  16.485 -0.1812  1.8823  1.2291
  222MPD1     N 3378   2.394   4.577  16.498 -0.1662  0.3530 -0.3605
  222MPD1    H5 3379   2.408   4.587  16.598 -0.0981  0.2842 -0.3634
  222MPD1    N1 3380   2.457   4.284  16.109  0.0289  0.3192 -0.0477
  222MPD1    H6 3381   2.475   4.190  16.074 -1.6630 -0.9558  2.4375
  222MPD1    H7 3382   2.358   4.304  16.091  0.7383  2.4885 -1.5258
  223MPD1     C 3383   1.787   0.550  16.112  0.4372  0.3920 -1.1235
  223MPD1    C1 3384   1.750   0.421  16.125 -0.1578  0.2608  0.5194
  223MPD1    C2 3385   1.808   0.351  16.233 -1.0538  0.7657  0.8597
  223MPD1    C3 3386   1.914   0.407  16.305  0.1983 -0.4242 -0.2856
  223MPD1    C4 3387   1.954   0.537  16.279  0.5714 -0.1787  0.7689
  223MPD1    C5 3388   1.887   0.608  16.186  0.0884 -0.2538 -0.6192
  223MPD1     H 3389   1.798   0.245  16.252 -1.8530  0.7863  0.5469
  223MPD1    H1 3390   2.046   0.581  16.317  0.0689 -0.6353  2.5217
  223MPD1    H2 3391   1.730   0.614  16.045  3.1901  2.1016 -1.8364
  223MPD1    H3 3392   1.927   0.704  16.158 -1.6817  0.6890  0.0961
  223MPD1     N 3393   1.992   0.320  16.383  0.2583  0.5487  0.6390
  223MPD1    H5 3394   1.975   0.220  16.385 -1.1727  0.7882  0.0681
  223MPD1    N1 3395   1.642   0.367  16.062  0.1175  0.5794 -0.0315
  223MPD1    H6 3396   1.651   0.398  15.966 -1.2653  0.9871 -0.0196
  223MPD1    H7 3397   1.628   0.266  16.061  1.3516  0.4290 -2.0640
  224MPD1     C 3398   2.691   0.140   9.089 -0.3314 -0.2596  0.4093
  224MPD1    C1 3399   2.625   0.257   9.050 -0.3956 -0.2506 -0.1412
  224MPD1    C2 3400   2.682   0.379   9.078  0.2963 -0.5142 -0.3736
  224MPD1    C3 3401   2.788   0.383   9.170 -0.7549  0.1855 -0.4248
  224MPD1    C4 3402   2.839   0.268   9.218  0.9195  0.6683 -0.6442
  224MPD1    C5 3403   2.798   0.152   9.170 -0.8923  0.1250  0.3262
  224MPD1     H 3404   2.633   0.465   9.035 -1.3992 -0.0700  2.4979
  224MPD1    H1 3405   2.923   0.268   9.286  0.0696 -1.1487  0.3879
  224MPD1    H2 3406   2.662   0.042   9.052  1.4509  0.3211 -2.5519
  224MPD1    H3 3407   2.845   0.061   9.205  2.6475  1.7092 -0.3293
  224MPD1     N 3408   2.849   0.500   9.214 -0.8568  0.2857  0.0721
  224MPD1    H5 3409   2.937   0.494   9.265 -0.8723 -1.9454 -0.1808
  224MPD1    N1 3410   2.523   0.247   8.954  0.2311 -0.2115 -0.0131
  224MPD1    H6 3411   2.444   0.309   8.945  0.5566  0.1303 -0.4907
  224MPD1    H7 3412   2.489   0.151   8.946  2.3021 -0.9687  0.2119
  225MPD1     C 3413   3.379   2.979  12.613  0.1517  0.1233 -0.2362
  225MPD1    C1 3414   3.417   2.851  12.657  0.1311  0.4060  0.9590
  225MPD1    C2 3415   3.437   2.750  12.567 -0.2603  0.2208  0.1385
  225MPD1    C3 3416   3.405   2.773  12.438 -0.0702  0.6489  0.9412
  225MPD1    C4 3417   3.369   2.900  12.394  0.1928 -0.6741 -0.5964
  225MPD1    C5 3418   3.360   3.000  12.482 -0.0798 -0.4345  0.5061
  225MPD1     H 3419   3.488   2.660  12.600  0.4962  0.9907  1.1018
  225MPD1    H1 3420   3.343   2.918  12.290 -1.5712  1.5524  0.2195
  225MPD1    H2 3421   3.353   3.061  12.680  1.0728  0.6630 -0.5379
  225MPD1    H3 3422   3.330   3.099  12.452  1.0263 -0.1459  0.3629
  225MPD1     N 3423   3.411   2.679  12.341 -1.1246 -0.1137 -0.4003
  225MPD1    H5 3424   3.405   2.715  12.246 -1.6609 -0.9551 -0.6892
  225MPD1    N1 3425   3.468   2.850  12.790  0.1019  0.1822 -0.0221
  225MPD1    H6 3426   3.424   2.921  12.849  1.6737 -0.0636  1.4417
  225MPD1    H7 3427   3.457   2.754  12.821 -1.1630 -0.5060 -2.6304
  226MPD1     C 3428   2.073   2.214   9.307 -0.4982 -0.2685 -0.3709
  226MPD1    C1 3429   2.070   2.081   9.271 -0.2774  1.2921 -1.0559
  226MPD1    C2 3430   2.191   2.021   9.246  0.2497  0.3796 -0.2845
  226MPD1    C3 3431   2.310   2.080   9.269  0.9258  0.5921 -0.6054
  226MPD1    C4 3432   2.308   2.215   9.307 -0.1226  0.1260  0.8397
  226MPD1    C5 3433   2.189   2.277   9.326  0.0420  0.2062  0.1232
  226MPD1     H 3434   2.194   1.917   9.215  0.6102  0.3247 -0.0705
  226MPD1    H1 3435   2.397   2.275   9.322 -1.6728  2.6271 -0.0156
  226MPD1    H2 3436   1.989   2.272   9.342  0.9452  2.3371 -1.2354
  226MPD1    H3 3437   2.196   2.379   9.363 -1.1322 -0.2118  1.4856
  226MPD1     N 3438   2.424   2.004   9.242 -0.2917  0.4450  0.2890
  226MPD1    H5 3439   2.407   1.912   9.202  0.4769  0.6590 -0.5441
  226MPD1    N1 3440   1.947   2.030   9.227 -0.5518  0.5555  0.2619
  226MPD1    H6 3441   1.868   2.073   9.275  0.5976  1.7394  1.1421
  226MPD1    H7 3442   1.940   1.933   9.256  1.0731 -0.1312 -1.6507
  227MPD1     C 3443   3.492   1.790   9.331  0.3240  0.4800 -1.2731
  227MPD1    C1 3444   3.457   1.707   9.228 -0.6799 -0.1802 -0.6267
  227MPD1    C2 3445   3.319   1.704   9.196  0.5546  0.3017  0.4675
  227MPD1    C3 3446   3.227   1.789   9.247 -0.5581  0.1772  0.0746
  227MPD1    C4 3447   3.259   1.868   9.354  0.1083 -0.3441  0.5665
  227MPD1    C5 3448   3.393   1.862   9.398 -0.1444 -0.0652  0.5592
  227MPD1     H 3449   3.292   1.628   9.123  0.1031 -0.0715  1.0249
  227MPD1    H1 3450   3.186   1.926   9.408  0.7303  0.0976  0.9377
  227MPD1    H2 3451   3.591   1.789   9.374  0.1887  0.4084 -0.9663
  227MPD1    H3 3452   3.425   1.915   9.487  1.6149  1.6983 -1.1468
  227MPD1     N 3453   3.095   1.787   9.195  0.0620 -0.5092  0.0311
  227MPD1    H5 3454   3.061   1.716   9.130  0.1699 -1.4606  1.0280
  227MPD1    N1 3455   3.554   1.617   9.184  0.4648 -0.0371 -0.2427
  227MPD1    H6 3456   3.638   1.667   9.154  0.4827 -0.3389 -0.6989
  227MPD1    H7 3457   3.532   1.564   9.100  1.5785  1.7967 -1.6923
  228MPD1     C 3458   0.165   4.491  11.825 -0.2545 -0.5048  0.1809
  228MPD1    C1 3459   0.080   4.468  11.930  0.2561  0.4791 -0.2528
  228MPD1    C2 3460   0.097   4.544  12.050 -0.6419 -0.5855 -0.6075
  228MPD1    C3 3461   0.194   4.641  12.057  0.3240 -0.3038 -0.4653
  228MPD1    C4 3462   0.287   4.648  11.955  0.2235 -0.6016  0.4847
  228MPD1    C5 3463   0.273   4.572  11.846 -0.6691 -0.7101 -0.4905
  228MPD1     H 3464   0.028   4.522  12.130  0.0544  0.5604  0.3125
  228MPD1    H1 3465   0.380   4.703  11.956  1.2514 -2.3332 -0.1853
  228MPD1    H2 3466   0.149   4.442  11.730 -1.4389  0.1987  0.0257
  228MPD1    H3 3467   0.354   4.576  11.775 -0.1539 -0.1084  0.1366
  228MPD1     N 3468   0.206   4.708  12.180  0.4589 -0.4956 -0.4018
  228MPD1    H5 3469   0.135   4.689  12.250  2.0291 -1.9692  0.7717
  228MPD1    N1 3470   4.694   4.387  11.907 -0.4892  0.5335  1.0268
  228MPD1    H6 3471   4.654   4.363  11.998 -0.1185 -2.4256  0.3928
  228MPD1    H7 3472   4.720   4.305  11.853 -0.0504  0.8985  0.6881
  229MPD1     C 3473   1.196   4.268  14.678 -0.4108 -0.0328  0.1378
  229MPD1    C1 3474   1.080   4.204  14.718  1.3560 -0.0598 -0.0183
  229MPD1    C2 3475   1.103   4.070  14.766 -0.1438 -0.2987 -1.4308
  229MPD1    C3 3476   1.222   4.003  14.754 -0.1736  0.4537  0.4776
  229MPD1    C4 3477   1.327   4.077  14.713 -0.1253 -0.3054 -0.4386
  229MPD1    C5 3478   1.314   4.202  14.671  0.2429  0.3886  0.1466
  229MPD1     H 3479   1.021   4.009  14.802 -0.2150  1.2140  0.9714
  229MPD1    H1 3480   1.425   4.033  14.699  0.6700  0.2643  3.2968
  229MPD1    H2 3481   1.188   4.373  14.651 -1.5718  0.1109  1.0248
  229MPD1    H3 3482   1.385   4.260  14.614 -0.7398  1.0650 -0.3777
  229MPD1     N 3483   1.243   3.864  14.784 -0.0205  0.0305 -0.1735
  229MPD1    H5 3484   1.334   3.831  14.756  0.8739  2.3012  0.0916
  229MPD1    N1 3485   0.949   4.255  14.731 -0.2645 -0.3177 -0.3727
  229MPD1    H6 3486   0.928   4.336  14.673 -0.2951 -2.1378 -2.8961
  229MPD1    H7 3487   0.882   4.180  14.720  1.0092 -1.3772 -0.9313
  230MPD1     C 3488   0.836   3.358  15.543  0.5234  0.2824  0.4394
  230MPD1    C1 3489   0.805   3.464  15.464  0.4310 -0.2051  0.2683
  230MPD1    C2 3490   0.869   3.478  15.343 -0.1079  0.7083 -0.3057
  230MPD1    C3 3491   0.977   3.404  15.302 -0.3381 -0.0557  0.0464
  230MPD1    C4 3492   1.002   3.293  15.379  0.1825  0.4317  0.4653
  230MPD1    C5 3493   0.929   3.272  15.493  0.6495  0.4304  0.1868
  230MPD1     H 3494   0.827   3.552  15.275 -2.1818  0.0610  0.2713
  230MPD1    H1 3495   1.084   3.225  15.359 -1.4269 -0.9906 -1.2602
  230MPD1    H2 3496   0.771   3.327  15.625  1.3550 -0.4132  0.8276
  230MPD1    H3 3497   0.946   3.189  15.560 -0.7139  0.7424  0.9201
  230MPD1     N 3498   1.050   3.447  15.192 -0.1559 -0.3392 -0.2706
  230MPD1    H5 3499   1.013   3.529  15.145  0.1671 -0.1130 -0.1335
  230MPD1    N1 3500   0.686   3.533  15.501  0.0153 -0.0541 -0.2969
  230MPD1    H6 3501   0.676   3.619  15.446  0.2067 -0.7140 -1.3643
  230MPD1    H7 3502   0.688   3.561  15.599 -0.1970  1.1385 -0.6246
  231MPD1     C 3503   3.717   0.784  15.626 -0.0150 -0.1044 -0.2456
  231MPD1    C1 3504   3.854   0.801  15.665 -0.2567 -0.3045  0.8061
  231MPD1    C2 3505   3.938   0.858  15.573 -0.6089  0.5864  0.1666
  231MPD1    C3 3506   3.894   0.905  15.449  0.3616  0.0309  0.6652
  231MPD1    C4 3507   3.754   0.913  15.426  0.0604  0.4541  0.4773
  231MPD1    C5 3508   3.671   0.852  15.518 -0.0488 -0.4581 -0.2626
  231MPD1     H 3509   4.044   0.859  15.595 -0.3177  1.1872 -1.2264
  231MPD1    H1 3510   3.711   0.958  15.338  1.0321  1.4451  0.5035
  231MPD1    H2 3511   3.652   0.731  15.695 -0.5031  2.1651  1.0281
  231MPD1    H3 3512   3.569   0.836  15.485 -0.6656 -0.1661  1.5047
  231MPD1     N 3513   3.990   0.940  15.353  0.1027  0.7105  0.7008
  231MPD1    H5 3514   4.086   0.929  15.385  1.0072  3.5861 -1.0548
  231MPD1    N1 3515   3.903   0.765  15.787  0.5665  1.0336  0.2271
  231MPD1    H6 3516   3.952   0.849  15.818  0.9226  0.3710  1.4582
  231MPD1    H7 3517   3.828   0.738  15.850 -0.9208  2.7222 -0.8096
  232MPD1     C 3518   1.727   2.722   1.072  0.3341  0.3224  0.3189
  232MPD1    C1 3519   1.632   2.807   1.013  0.2356  0.1841  0.1154
  232MPD1    C2 3520   1.581   2.774   0.888  0.6601 -0.9134 -0.4709
  232MPD1    C3 3521   1.602   2.652   0.828  0.0989 -0.1346 -0.2735
  232MPD1    C4 3522   1.684   2.562   0.890  0.6354 -0.0298 -0.5450
  232MPD1    C5 3523   1.748   2.602   1.008 -0.7461  0.1863  0.1217
  232MPD1     H 3524   1.510   2.837   0.835  0.4527 -1.7539 -1.1929
  232MPD1    H1 3525   1.701   2.465   0.844  3.1711 -0.2574  0.8705
  232MPD1    H2 3526   1.763   2.727   1.174 -0.7364  1.6598  0.6263
  232MPD1    H3 3527   1.813   2.529   1.055  0.8188  2.0974  0.9358
  232MPD1     N 3528   1.529   2.627   0.705 -0.3598 -0.3344  0.4111
  232MPD1    H5 3529   1.470   2.701   0.666  0.3537  0.0118 -0.0062
  232MPD1    N1 3530   1.607   2.939   1.061  0.5379  0.1600 -0.4749
  232MPD1    H6 3531   1.526   2.996   1.039  0.3581 -0.0575 -0.3857
  232MPD1    H7 3532   1.629   2.944   1.160  0.2792  0.2229 -0.4195
  233MPD1     C 3533   0.576   1.512   0.573  1.2784  0.2950 -0.8178
  233MPD1    C1 3534   0.586   1.374   0.575 -0.7455  0.2114 -0.6323
  233MPD1    C2 3535   0.691   1.321   0.651 -0.0279 -0.0973 -0.0808
  233MPD1    C3 3536   0.784   1.398   0.722 -0.0680  0.0698  0.3949
  233MPD1    C4 3537   0.750   1.530   0.736 -0.1238 -0.0613  0.7317
  233MPD1    C5 3538   0.644   1.585   0.665 -0.2158  0.0977  1.2609
  233MPD1     H 3539   0.698   1.213   0.647 -2.7578 -0.2770 -0.4277
  233MPD1    H1 3540   0.823   1.586   0.793 -0.2824  0.6558  0.2313
  233MPD1    H2 3541   0.510   1.571   0.510 -0.1213 -1.8830 -1.4153
  233MPD1    H3 3542   0.632   1.693   0.667 -0.8073  0.0640 -0.6535
  233MPD1     N 3543   0.885   1.342   0.794  0.2122 -0.0642  0.7180
  233MPD1    H5 3544   0.940   1.397   0.860  0.8653 -0.2711  0.3421
  233MPD1    N1 3545   0.509   1.295   0.489 -1.3280  0.4199  0.3269
  233MPD1    H6 3546   0.418   1.333   0.462 -0.5611  0.7150 -1.8297
  233MPD1    H7 3547   0.516   1.200   0.525 -1.1523  1.6633  3.5988
  234MPD1     C 3548   4.065   0.802  10.454  0.5004  0.1354  0.3969
  234MPD1    C1 3549   3.956   0.860  10.386 -0.1949 -0.6443  0.1499
  234MPD1    C2 3550   3.898   0.785  10.283 -0.0897  0.3887 -0.8348
  234MPD1    C3 3551   3.932   0.657  10.269  0.5430 -0.3682 -0.3129
  234MPD1    C4 3552   4.018   0.595  10.351 -0.1962  0.1436 -0.3560
  234MPD1    C5 3553   4.081   0.666  10.447  0.0121  0.1324  0.7468
  234MPD1     H 3554   3.837   0.833  10.207  1.2297  2.3103 -0.6946
  234MPD1    H1 3555   4.050   0.491  10.347 -1.7131 -0.3816  1.1523
  234MPD1    H2 3556   4.128   0.863  10.517  0.0043  3.3243 -2.1550
  234MPD1    H3 3557   4.158   0.631  10.515  0.6608  0.4448  0.1833
  234MPD1     N 3558   3.886   0.591  10.151 -0.6485  0.2657 -0.4859
  234MPD1    H5 3559   3.830   0.645  10.086  0.9274  2.0170 -0.4031
  234MPD1    N1 3560   3.931   0.999  10.386 -0.0263  0.0343  0.4038
  234MPD1    H6 3561   3.962   1.043  10.472  1.4533  1.5758 -0.9361
  234MPD1    H7 3562   3.839   1.033  10.358 -0.8857 -2.0592  0.6503
  235MPD1     C 3563   4.123   2.267  10.963 -0.0653 -0.5347  1.0585
  235MPD1    C1 3564   4.226   2.190  10.921 -0.2455 -0.0770 -0.3856
  235MPD1    C2 3565   4.307   2.237  10.828  0.2643  0.1848 -0.9300
  235MPD1    C3 3566   4.272   2.353  10.747  0.0265 -0.0228  0.1047
  235MPD1    C4 3567   4.154   2.422  10.781 -0.8275  0.1528 -1.2294
  235MPD1    C5 3568   4.098   2.390  10.897 -0.4193 -0.6087  0.1701
  235MPD1     H 3569   4.400   2.188  10.800  0.8305 -0.4758  2.1129
  235MPD1    H1 3570   4.127   2.516  10.734  0.1817  0.9715 -0.1450
  235MPD1    H2 3571   4.057   2.229  11.040 -2.7533  1.0252 -0.5038
  235MPD1    H3 3572   4.020   2.455  10.935  0.2221 -0.9490  2.0605
  235MPD1     N 3573   4.362   2.405  10.646  0.2707  0.4191 -0.2307
  235MPD1    H5 3574   4.456   2.369  10.633  0.6836  0.2109  3.4257
  235MPD1    N1 3575   4.266   2.084  11.005 -0.3929 -0.3324  0.3949
  235MPD1    H6 3576   4.186   2.030  11.037 -1.6697  0.3269 -1.7039
  235MPD1    H7 3577   4.310   2.016  10.944  0.1669  1.9741 -1.7707
  236MPD1     C 3578   3.627   3.562   9.697  0.8478 -0.0899 -0.0679
  236MPD1    C1 3579   3.671   3.689   9.666  0.2852 -0.2830  0.1783
  236MPD1    C2 3580   3.803   3.722   9.679  0.6074  0.8354  0.1222
  236MPD1    C3 3581   3.893   3.628   9.711  0.1297 -0.4143 -0.1726
  236MPD1    C4 3582   3.848   3.502   9.737 -0.4030 -0.0473  0.0070
  236MPD1    C5 3583   3.719   3.469   9.739 -0.0955  0.3236 -0.3644
  236MPD1     H 3584   3.838   3.823   9.667 -0.6311  1.5091  2.0486
  236MPD1    H1 3585   3.913   3.418   9.759 -2.3824 -1.2857  1.1464
  236MPD1    H2 3586   3.520   3.543   9.694  0.5416  1.6962 -0.5957
  236MPD1    H3 3587   3.683   3.369   9.760  2.6809 -0.1618  2.0573
  236MPD1     N 3588   4.032   3.655   9.710  0.2704  0.6480 -0.1118
  236MPD1    H5 3589   4.095   3.583   9.745 -2.1192 -1.2259  0.3459
  236MPD1    N1 3590   3.573   3.785   9.633 -0.4088  0.6586 -0.4458
  236MPD1    H6 3591   3.600   3.839   9.550 -1.6638  1.2222 -0.4989
  236MPD1    H7 3592   3.486   3.740   9.605  0.1729  0.2972 -1.6747
  237MPD1     C 3593   4.413   1.703  15.490 -0.4095 -0.1319  0.8187
  237MPD1    C1 3594   4.333   1.681  15.596  0.5853 -0.2875 -0.0775
  237MPD1    C2 3595   4.202   1.671  15.571 -0.2100 -0.0649  0.6804
  237MPD1    C3 3596   4.141   1.704  15.449 -0.7786 -0.1379 -0.1875
  237MPD1    C4 3597   4.229   1.738  15.344 -0.0307 -0.9443 -0.4930
  237MPD1    C5 3598   4.362   1.730  15.367  1.0306  0.6151  0.5504
  237MPD1     H 3599   4.145   1.635  15.657 -1.3221  1.7863  0.7225
  237MPD1    H1 3600   4.196   1.785  15.252 -2.4316 -1.9052 -0.1255
  237MPD1    H2 3601   4.520   1.715  15.503 -0.5725  1.4145  0.8051
  237MPD1    H3 3602   4.435   1.746  15.289  0.5803 -0.0760 -0.0070
  237MPD1     N 3603   4.003   1.702  15.413 -0.6421  0.7678  0.0377
  237MPD1    H5 3604   3.984   1.736  15.320  2.1899 -0.6425 -1.0424
  237MPD1    N1 3605   4.389   1.648  15.722  0.3379  0.7333  0.0759
  237MPD1    H6 3606   4.476   1.697  15.741  1.2250 -0.4661 -0.8825
  237MPD1    H7 3607   4.328   1.653  15.803  1.0582 -0.3001  0.6793
  238MPD1     C 3608   1.621   0.687  15.019  0.2244 -0.5677  0.5931
  238MPD1    C1 3609   1.570   0.784  14.944 -0.3520  0.4476 -0.6934
  238MPD1    C2 3610   1.445   0.764  14.889  0.1026  0.4180 -0.8791
  238MPD1    C3 3611   1.359   0.662  14.936  0.2410 -0.6924 -0.3666
  238MPD1    C4 3612   1.406   0.573  15.027 -0.4662  0.2623  0.0013
  238MPD1    C5 3613   1.538   0.584  15.059  0.1339  0.7035 -0.1757
  238MPD1     H 3614   1.406   0.841  14.824  0.7689  2.2668  0.9319
  238MPD1    H1 3615   1.348   0.490  15.066 -1.5284  0.6271 -0.7830
  238MPD1    H2 3616   1.721   0.684  15.060  0.1136 -1.5397  0.7957
  238MPD1    H3 3617   1.584   0.510  15.123  0.4003 -0.9240 -2.2558
  238MPD1     N 3618   1.228   0.639  14.894 -0.0792 -0.2650 -0.5088
  238MPD1    H5 3619   1.182   0.564  14.946 -0.5754  1.1399  1.0582
  238MPD1    N1 3620   1.663   0.887  14.906  0.6060  0.0880 -0.2576
  238MPD1    H6 3621   1.728   0.911  14.981 -2.3819  0.0229  2.3478
  238MPD1    H7 3622   1.616   0.975  14.886  1.7347 -0.0352 -3.4566
  239MPD1     C 3623   1.020   1.054  14.596 -0.7006 -0.1000  0.3856
  239MPD1    C1 3624   1.135   1.109  14.549  0.3695  0.1812 -0.2856
  239MPD1    C2 3625   1.128   1.237  14.503  0.3385  0.3516  0.0397
  239MPD1    C3 3626   1.015   1.316  14.521 -1.4280  0.5767 -0.2081
  239MPD1    C4 3627   0.905   1.257  14.586 -0.2286  0.0332 -0.6887
  239MPD1    C5 3628   0.910   1.128  14.613 -0.1451 -0.8632  0.1514
  239MPD1     H 3629   1.218   1.281  14.462  0.6110  0.5407  0.8373
  239MPD1    H1 3630   0.812   1.308  14.608 -0.3350  0.3528 -1.8543
  239MPD1    H2 3631   1.014   0.960  14.649 -0.7681 -0.4456 -0.2470
  239MPD1    H3 3632   0.819   1.082  14.649 -0.5522 -0.8921 -0.9089
  239MPD1     N 3633   1.007   1.449  14.471 -0.1471 -0.5802 -0.4785
  239MPD1    H5 3634   0.920   1.497  14.494  0.2674 -0.3561  0.6508
  239MPD1    N1 3635   1.247   1.019  14.544  0.0631  0.0494  0.1234
  239MPD1    H6 3636   1.334   1.063  14.572 -0.3916 -0.0393  1.6920
  239MPD1    H7 3637   1.242   0.941  14.609  1.7120  0.9215  1.2975
  240MPD1     C 3638   1.238   1.061  14.993 -0.1209  0.6034 -0.6142
  240MPD1    C1 3639   1.256   0.974  15.105  0.2668 -0.4784  0.0591
  240MPD1    C2 3640   1.148   0.896  15.141  0.3922 -0.2767 -0.0768
  240MPD1    C3 3641   1.027   0.895  15.069 -0.6698 -0.2853 -0.0894
  240MPD1    C4 3642   1.020   0.980  14.953  0.1899  0.2540  0.7662
  240MPD1    C5 3643   1.126   1.053  14.916 -0.2232  0.0772 -1.2544
  240MPD1     H 3644   1.147   0.837  15.232  0.3810 -0.2737 -0.0750
  240MPD1    H1 3645   0.928   0.997  14.897 -0.8939  2.5741  3.2802
  240MPD1    H2 3646   1.318   1.129  14.965  0.5958 -0.0880 -0.2518
  240MPD1    H3 3647   1.115   1.115  14.828  1.5981 -0.3079 -1.7710
  240MPD1     N 3648   0.916   0.826  15.123  0.3890  0.1817 -0.2467
  240MPD1    H5 3649   0.935   0.766  15.203 -1.4852 -0.8743 -0.6080
  240MPD1    N1 3650   1.370   0.977  15.192  0.2233  0.1128  0.0996
  240MPD1    H6 3651   1.405   0.884  15.214 -0.0445 -0.0184 -0.0265
  240MPD1    H7 3652   1.448   1.022  15.145 -0.3238 -0.0413 -0.9689
  241MPD1     C 3653   0.936   0.363  15.780  0.4607 -0.3687 -0.1886
  241MPD1    C1 3654   0.818   0.313  15.736  0.1067 -0.2783 -0.1300
  241MPD1    C2 3655   0.748   0.391  15.646  0.7669 -0.7645  0.0052
  241MPD1    C3 3656   0.794   0.514  15.618 -0.1677 -0.6845 -0.3948
  241MPD1    C4 3657   0.911   0.566  15.665 -0.1284 -0.3683  0.1957
  241MPD1    C5 3658   0.984   0.480  15.743 -0.1869  0.2258  0.0013
  241MPD1     H 3659   0.655   0.345  15.616  0.0384  0.1886  0.8179
  241MPD1    H1 3660   0.936   0.668  15.638 -0.7581  0.1750  1.6225
  241MPD1    H2 3661   0.989   0.301  15.852 -0.1262 -1.3755 -0.6172
  241MPD1    H3 3662   1.079   0.511  15.785 -0.6147  0.2471  0.9506
  241MPD1     N 3663   0.729   0.594  15.520  0.2572 -0.0185  0.1757
  241MPD1    H5 3664   0.777   0.676  15.484  0.7543 -0.0689  0.7183
  241MPD1    N1 3665   0.785   0.180  15.755 -0.1925  0.4912  0.1792
  241MPD1    H6 3666   0.828   0.134  15.836 -2.2403  0.6442  1.3570
  241MPD1    H7 3667   0.686   0.160  15.739 -0.2454  0.9530 -0.0861
  242MPD1     C 3668   4.358   3.986  15.887  0.4790  0.7224 -0.5829
  242MPD1    C1 3669   4.345   4.094  15.801  0.0878  0.6658 -0.4115
  242MPD1    C2 3670   4.436   4.100  15.701 -0.2605  0.0839  0.0199
  242MPD1    C3 3671   4.537   4.000  15.681  0.6699 -0.0547 -0.6288
  242MPD1    C4 3672   4.547   3.894  15.766  0.3000 -0.2402  0.5416
  242MPD1    C5 3673   4.453   3.889  15.869  0.4486  0.4170 -0.2177
  242MPD1     H 3674   4.429   4.184  15.632  0.1393  1.4042  1.6045
  242MPD1    H1 3675   4.627   3.823  15.753  1.3542  0.9003  0.8843
  242MPD1    H2 3676   4.292   3.974  15.972  0.0192 -0.6356 -1.1441
  242MPD1    H3 3677   4.469   3.809  15.939  1.2520  0.5614 -0.2315
  242MPD1     N 3678   4.636   4.024  15.584 -0.3921  0.1878 -0.2852
  242MPD1    H5 3679   4.712   3.958  15.573  0.7820  1.2652  1.3492
  242MPD1    N1 3680   4.242   4.196  15.831  0.5451  0.1377 -0.8638
  242MPD1    H6 3681   4.193   4.216  15.744 -1.7324  0.3814  0.4846
  242MPD1    H7 3682   4.182   4.176  15.911  1.6105 -1.1802 -0.3945
  243MPD1     C 3683   1.461   2.454  17.638 -0.3344  0.0167 -0.1732
  243MPD1    C1 3684   1.591   2.511  17.624 -0.2507  0.0450 -0.3991
  243MPD1    C2 3685   1.685   2.441  17.560 -0.4608  0.6351  0.1237
  243MPD1    C3 3686   1.667   2.312  17.520  0.7170 -0.1938  0.2086
  243MPD1    C4 3687   1.543   2.252  17.539 -0.1837 -0.1090  0.0372
  243MPD1    C5 3688   1.444   2.326  17.599 -0.1301 -0.0641 -0.6280
  243MPD1     H 3689   1.784   2.481  17.540 -0.3631 -0.4040 -1.4639
  243MPD1    H1 3690   1.540   2.145  17.520 -1.9345  0.6697 -4.0530
  243MPD1    H2 3691   1.375   2.497  17.688  0.5151  1.8747 -0.3005
  243MPD1    H3 3692   1.348   2.281  17.622  1.3082 -2.0159  1.5576
  243MPD1     N 3693   1.780   2.241  17.475  0.9691 -0.2833 -0.3518
  243MPD1    H5 3694   1.867   2.290  17.459  1.3681 -0.8145  0.2111
  243MPD1    N1 3695   1.614   2.638  17.681 -0.7474  0.2296 -0.1486
  243MPD1    H6 3696   1.669   2.701  17.622  0.0786  0.8782  1.3082
  243MPD1    H7 3697   1.526   2.682   0.004 -1.6752 -0.5287 -1.9620
  244MPD1     C 3698   1.821   1.262  17.530 -0.5827  0.2814 -0.4081
  244MPD1    C1 3699   1.733   1.359  17.551  0.4179 -0.2150 -0.3728
  244MPD1    C2 3700   1.753   1.480  17.489 -0.0259  0.3070  0.0103
  244MPD1    C3 3701   1.886   1.513  17.465  0.2310 -0.0073 -0.0024
  244MPD1    C4 3702   1.979   1.412  17.450 -0.0951 -0.0119 -0.0924
  244MPD1    C5 3703   1.949   1.282  17.485 -0.1616 -0.0518 -0.5362
  244MPD1     H 3704   1.683   1.562  17.493  1.3200  1.4466  0.6110
  244MPD1    H1 3705   2.081   1.443  17.433  0.4702 -0.9923  1.4431
  244MPD1    H2 3706   1.790   1.161  17.556  1.3334 -0.1741  0.1284
  244MPD1    H3 3707   2.016   1.198  17.470  0.3274  0.0874  0.8437
  244MPD1     N 3708   1.911   1.644  17.426 -0.1338  0.1781 -0.1643
  244MPD1    H5 3709   1.832   1.708  17.424  0.8328  1.4335  2.4897
  244MPD1    N1 3710   1.607   1.319  17.608 -0.0192 -0.7834  0.1319
  244MPD1    H6 3711   1.627   1.257  17.686  2.5747 -0.1363 -0.0165
  244MPD1    H7 3712   1.551   1.397  17.642 -0.3086 -0.2137 -1.6072
  245MPD1     C 3713   3.682   3.745  13.074  0.0599 -0.5163 -0.4208
  245MPD1    C1 3714   3.691   3.880  13.039 -0.8389 -0.4551  0.9308
  245MPD1    C2 3715   3.820   3.937  13.031  1.2488 -0.0720  0.1210
  245MPD1    C3 3716   3.932   3.855  13.046 -0.0440 -0.8878  0.9905
  245MPD1    C4 3717   3.918   3.723  13.079  0.2111 -0.4550  0.4769
  245MPD1    C5 3718   3.792   3.667  13.086  0.0402 -0.1396  0.2972
  245MPD1     H 3719   3.839   4.038  12.996  2.1813  0.3701  1.8956
  245MPD1    H1 3720   4.000   3.655  13.099  0.8274  0.3230  0.6452
  245MPD1    H2 3721   3.584   3.700  13.081  0.7574 -2.2272 -1.8384
  245MPD1    H3 3722   3.785   3.562  13.111  1.1056 -1.0018 -2.9790
  245MPD1     N 3723   4.054   3.922  13.033  0.7546  0.1085  0.3216
  245MPD1    H5 3724   4.043   4.021  13.012  0.6864  0.5401  2.4215
  245MPD1    N1 3725   3.577   3.964  13.046  0.1289  0.0447  0.1737
  245MPD1    H6 3726   3.567   4.034  12.974  0.3128 -0.1710 -0.0609
  245MPD1    H7 3727   3.494   3.913  13.016 -0.0878  1.1584 -1.0786
  246MPD1     C 3728   3.106   1.199   8.595  0.1543 -0.5391 -0.5301
  246MPD1    C1 3729   3.204   1.275   8.663  0.2190  0.2611  0.5199
  246MPD1    C2 3730   3.334   1.227   8.691 -0.3148  0.5670  0.6804
  246MPD1    C3 3731   3.363   1.094   8.658 -0.3089  0.1591 -0.7606
  246MPD1    C4 3732   3.256   1.015   8.615  1.1043  0.1815 -0.5717
  246MPD1    C5 3733   3.140   1.071   8.561 -0.2656 -0.0091  0.5362
  246MPD1     H 3734   3.407   1.290   8.740 -0.7036 -0.9466  3.1632
  246MPD1    H1 3735   3.278   0.912   8.588 -2.1010 -1.0061  1.2729
  246MPD1    H2 3736   3.019   1.240   8.546  0.6642  0.3184 -0.7133
  246MPD1    H3 3737   3.065   1.007   8.516 -0.0808  0.4787 -0.4481
  246MPD1     N 3738   3.487   1.034   8.696  0.7810 -0.3829 -1.0994
  246MPD1    H5 3739   3.550   1.093   8.749  0.3871 -1.4071  0.5068
  246MPD1    N1 3740   3.181   1.407   8.681  0.1103 -0.2854  0.5227
  246MPD1    H6 3741   3.234   1.469   8.742  1.2739 -1.3204  0.5443
  246MPD1    H7 3742   3.082   1.433   8.682  0.2644  0.3260  0.2602
  247MPD1     C 3743   2.763   3.026  15.124  0.9404 -0.6674  0.1876
  247MPD1    C1 3744   2.786   2.970  15.249 -0.3284 -0.6915  0.0223
  247MPD1    C2 3745   2.911   2.915  15.272 -0.2858  0.0354  1.0477
  247MPD1    C3 3746   3.013   2.934  15.184  0.9682  0.0189 -0.4114
  247MPD1    C4 3747   2.989   2.991  15.064  0.3047 -0.1411 -0.6974
  247MPD1    C5 3748   2.865   3.038  15.032 -0.4297  0.3135  0.2271
  247MPD1     H 3749   2.919   2.879  15.374 -0.7163 -0.4761  0.9024
  247MPD1    H1 3750   3.071   3.006  14.995  2.0194  0.8313  1.5446
  247MPD1    H2 3751   2.670   3.076  15.100  1.2062 -0.1894  0.1589
  247MPD1    H3 3752   2.846   3.111  14.953  1.4230  0.3160 -0.2086
  247MPD1     N 3753   3.140   2.887  15.211  0.1343  0.4235 -0.3856
  247MPD1    H5 3754   3.207   2.896  15.135 -0.2467  1.4538 -0.6033
  247MPD1    N1 3755   2.681   2.962  15.347 -0.0447  0.0662 -0.0363
  247MPD1    H6 3756   2.614   3.038  15.335 -0.2494  0.0767  1.1514
  247MPD1    H7 3757   2.711   2.956  15.444 -0.0924 -1.9771 -0.1491
  248MPD1     C 3758   4.231   3.465  17.685  0.2320 -0.1196  0.1691
  248MPD1    C1 3759   4.107   3.470   0.054 -0.2426 -0.1605 -0.3730
  248MPD1    C2 3760   4.107   3.565   0.160 -0.2181 -0.5180 -0.3881
  248MPD1    C3 3761   4.221   3.638   0.195  0.4357  0.2091  0.4361
  248MPD1    C4 3762   4.337   3.623   0.125  0.3135  0.1806  0.0507
  248MPD1    C5 3763   4.343   3.532   0.019 -0.4154 -0.5848 -0.7125
  248MPD1     H 3764   4.013   3.586   0.210 -0.5013 -1.5949 -0.4713
  248MPD1    H1 3765   4.423   3.684   0.150 -0.5289  1.5076 -0.2981
  248MPD1    H2 3766   4.232   3.396  17.601 -0.6526 -0.8937  0.7875
  248MPD1    H3 3767   4.437   3.522  17.669  0.0888 -0.3248  0.1335
  248MPD1     N 3768   4.209   3.724   0.310 -0.2485 -0.5968  0.0231
  248MPD1    H5 3769   4.120   3.722   0.358 -0.2376  2.6618  0.1680
  248MPD1    N1 3770   3.985   3.408   0.011 -1.0411 -0.3534  0.9189
  248MPD1    H6 3771   3.931   3.389   0.095  0.7039 -3.4372  1.3392
  248MPD1    H7 3772   4.017   3.319  17.676 -0.7682  0.8709 -1.8249
  249MPD1     C 3773   0.750   2.320  10.023  0.1445  0.6849 -0.1113
  249MPD1    C1 3774   0.828   2.397   9.938  0.1499 -0.1133  0.0956
  249MPD1    C2 3775   0.961   2.386   9.956 -0.2931  0.2393 -0.4563
  249MPD1    C3 3776   1.019   2.311  10.055  0.0075  0.2108 -0.1780
  249MPD1    C4 3777   0.941   2.246  10.148 -0.3894  0.0351  0.0459
  249MPD1    C5 3778   0.805   2.257  10.136  0.1269 -0.2713 -0.0761
  249MPD1     H 3779   1.028   2.428   9.882  1.1671 -0.3960  0.5074
  249MPD1    H1 3780   0.978   2.186  10.230 -1.0555 -2.2048 -1.2902
  249MPD1    H2 3781   0.643   2.323  10.012 -0.0082  0.2195  1.2345
  249MPD1    H3 3782   0.742   2.202  10.204 -0.0002 -0.1477 -0.0950
  249MPD1     N 3783   1.157   2.292  10.050 -0.4117 -0.5436  0.0128
  249MPD1    H5 3784   1.211   2.345   9.981  0.2591 -2.3865 -0.8796
  249MPD1    N1 3785   0.774   2.446   9.822 -0.3874 -0.3236 -0.1592
  249MPD1    H6 3786   0.835   2.515   9.779  0.1800 -0.4357  0.4691
  249MPD1    H7 3787   0.681   2.487   9.826 -1.2745 -2.3262 -0.2660
  250MPD2     C 3788   2.553   1.598  12.689  0.4451  0.1866  0.8751
  250MPD2    C1 3789   2.460   1.658  12.608 -0.7949  0.5962 -0.1002
  250MPD2    C2 3790   2.397   1.595  12.504  0.7584 -0.0222 -0.2575
  250MPD2    C3 3791   2.416   1.462  12.483  0.4030 -0.2129 -0.4016
  250MPD2    C4 3792   2.510   1.405  12.571  0.0329  0.2792  0.3719
  250MPD2    C5 3793   2.578   1.469  12.674  0.3723 -0.9571  0.3869
  250MPD2     H 3794   2.320   1.648  12.450  2.2119  2.8848  0.5134
  250MPD2    H1 3795   2.526   1.298  12.572  2.1645  0.5945  1.4187
  250MPD2    H2 3796   2.597   1.649  12.774  2.6272  1.3508 -0.9635
  250MPD2    H3 3797   2.644   1.415  12.742 -0.3158  0.8400  2.5020
  250MPD2     N 3798   2.368   1.384  12.384 -0.0068 -0.3991 -0.3293
  250MPD2    H5 3799   2.402   1.289  12.378 -0.3848 -0.4574 -1.5054
  250MPD2    N1 3800   2.441   1.802  12.626 -0.4073 -0.0687  0.5754
  250MPD2    H7 3801   2.509   1.843  12.689  0.4918  1.1759 -1.2113
  251TMC3    C1 3802   2.352   2.012  12.608 -0.6864 -0.2138  0.3727
  251TMC3    C2 3803   2.237   2.093  12.625  0.2242  0.3365  0.2246
  251TMC3    C3 3804   2.256   2.216  12.681  0.1058  0.4790  0.0895
  251TMC3    C4 3805   2.480   2.067  12.640  0.5308 -0.0306  0.7688
  251TMC3    C5 3806   2.491   2.199  12.677 -0.3045  0.5503 -0.4836
  251TMC3    C6 3807   2.377   2.275  12.701  0.1105  0.4031 -0.1487
  251TMC3     C 3808   2.330   1.875  12.581  0.4836  0.5124  0.0585
  251TMC3     O 3809   2.230   1.846  12.518 -0.1006  0.1855  0.4732
  251TMC3     H 3810   2.140   2.047  12.624  0.1654  0.5090 -1.5417
  251TMC3    H1 3811   2.571   2.015  12.614  0.4917 -1.0732  2.6915
  251TMC3    H2 3812   2.386   2.376  12.741  3.2320 -0.6253  1.8066
  251TMC3    C7 3813   2.617   2.250  12.733 -0.3514 -0.4218  0.6882
  251TMC3    C8 3814   2.147   2.277  12.758 -0.2823  0.4419  0.8470
  251TMC3    O1 3815   2.713   2.179  12.758  0.0167  0.1089 -0.3004
  251TMC3    O2 3816   2.188   2.365  12.833 -0.0087 -0.4564  0.8188
  252TMC3    C1 3817   2.378   3.079   8.944  0.0027 -0.8385  0.3215
  252TMC3    C2 3818   2.510   3.101   8.959 -0.3092 -0.7442 -0.1202
  252TMC3    C3 3819   2.574   3.035   9.064  0.5670  0.3502 -0.8035
  252TMC3    C4 3820   2.307   2.990   9.023  0.2619 -0.1020  1.3300
  252TMC3    C5 3821   2.378   2.915   9.112 -0.1814 -0.2545 -0.0637
  252TMC3    C6 3822   2.508   2.937   9.134  0.4263  0.1177 -0.4645
  252TMC3     C 3823   2.302   3.140   8.836  0.1516 -0.5376 -0.2260
  252TMC3     O 3824   2.194   3.189   8.866  0.2047 -0.2168  0.0306
  252TMC3     H 3825   2.566   3.168   8.895  1.3488 -1.0370  1.0336
  252TMC3    H1 3826   2.199   2.990   9.019  0.2237 -1.3400  2.4169
  252TMC3    H2 3827   2.566   2.880   9.206  0.0613 -0.2512 -0.4670
  252TMC3    C7 3828   2.305   2.829   9.211 -0.0855 -0.0994  0.6455
  252TMC3    C8 3829   2.713   3.057   9.069  0.5317 -0.1076 -0.3594
  252TMC3    O1 3830   2.183   2.839   9.204 -0.7145  0.0078 -0.5179
  252TMC3    O2 3831   2.773   3.093   8.967 -0.0654  0.2431  0.0557
  253MPD2     C 3832   3.299   1.997  14.947  0.2647 -0.2363 -0.2972
  253MPD2    C1 3833   3.170   1.950  14.967  0.0162  0.3059  0.6532
  253MPD2    C2 3834   3.116   1.948  15.090 -0.4880 -0.1843  0.6295
  253MPD2    C3 3835   3.186   1.983  15.207  0.1248 -0.5855  0.5380
  253MPD2    C4 3836   3.318   2.030  15.190  0.3169  0.8005 -0.5204
  253MPD2    C5 3837   3.362   2.043  15.057 -0.3968 -0.5624  0.6964
  253MPD2     H 3838   3.015   1.909  15.094 -0.4402 -0.4723 -1.0437
  253MPD2    H1 3839   3.387   2.058  15.270  1.2151 -1.5019 -0.4749
  253MPD2    H2 3840   3.341   1.998  14.847 -0.0940 -1.6103 -0.4660
  253MPD2    H3 3841   3.464   2.079  15.050 -0.1420 -1.4275 -0.1520
  253MPD2     N 3842   3.123   1.978  15.334  0.1453 -0.4303 -0.1706
  253MPD2    H5 3843   3.188   1.992  15.411 -0.1693  1.8149 -0.3306
  253MPD2    N1 3844   3.082   1.899  14.872  0.0374 -0.4256 -0.0440
  253MPD2    H7 3845   2.987   1.880  14.900  1.0354 -2.7290  1.7420
  254TMC3    C1 3846   2.958   1.944  15.499  0.5238 -0.2691  0.0807
  254TMC3    C2 3847   2.835   1.975  15.551 -0.2208 -0.5613 -0.3808
  254TMC3    C3 3848   2.812   1.947  15.682 -0.5373  0.5315  0.1026
  254TMC3    C4 3849   3.053   1.878  15.577  0.1263  0.0727  0.1252
  254TMC3    C5 3850   3.019   1.848  15.708 -0.1263 -0.5045 -0.5266
  254TMC3    C6 3851   2.901   1.873  15.761  0.4596 -0.1171 -0.0563
  254TMC3     C 3852   2.993   1.966  15.358  0.6782  0.0779 -0.1351
  254TMC3     O 3853   2.901   1.984  15.281 -0.2259  0.3203 -0.0863
  254TMC3     H 3854   2.763   2.027  15.488  1.3377  0.3222 -1.4331
  254TMC3    H1 3855   3.146   1.840  15.538  1.4069 -0.1549  3.3719
  254TMC3    H2 3856   2.889   1.858  15.868  3.3661  0.6146  0.3892
  254TMC3    C7 3857   3.123   1.807  15.800 -0.0574  0.5373  0.5846
  254TMC3    C8 3858   2.747   2.049  15.758 -0.5769  1.0767  0.1454
  254TMC3    O1 3859   3.087   1.759  15.904  0.1289  0.0735 -0.3618
  254TMC3    O2 3860   2.754   2.035  15.880  0.1547  0.2928 -0.3134
  255MPD2     C 3861   1.131   4.546  10.426 -0.1790 -1.8959 -0.1930
  255MPD2    C1 3862   1.212   4.590  10.324  0.1026 -0.7285 -0.1974
  255MPD2    C2 3863   1.346   4.583  10.341 -0.3329  0.1195  0.5594
  255MPD2    C3 3864   1.403   4.531  10.452  0.3070 -0.0787  0.1898
  255MPD2    C4 3865   1.322   4.479  10.551 -0.5348  0.3776  0.8387
  255MPD2    C5 3866   1.192   4.496  10.538 -1.1632  0.1943 -0.2918
  255MPD2     H 3867   1.403   4.627  10.261 -1.6801  0.5791 -0.1441
  255MPD2    H1 3868   1.362   4.446  10.646 -0.9416 -1.7134  0.2849
  255MPD2    H2 3869   1.024   4.560  10.428 -0.1529 -1.1542 -3.3159
  255MPD2    H3 3870   1.126   4.475  10.622  0.7699  3.0855  1.9471
  255MPD2     N 3871   1.542   4.517  10.452 -0.8166  0.3217  0.2875
  255MPD2    H5 3872   1.598   4.583  10.400 -0.4710 -0.2774 -0.1046
  255MPD2    N1 3873   1.158   4.654  10.212 -0.2410  0.6030 -0.2542
  255MPD2    H7 3874   1.056   4.648  10.210 -0.2535  0.7738 -0.1120
  256TMC3    C1 3875   1.122   0.033  10.012 -0.4741 -0.4048 -0.2006
  256TMC3    C2 3876   1.143   0.146   9.936 -0.3375  0.7232 -0.4405
  256TMC3    C3 3877   1.047   0.184   9.847  0.0868 -0.7610  0.4184
  256TMC3    C4 3878   1.017   4.679   9.984 -0.3670 -0.2631 -0.5691
  256TMC3    C5 3879   0.913   0.010   9.911 -0.7356  1.1879 -0.4925
  256TMC3    C6 3880   0.926   0.127   9.835  0.3286  0.2889  0.0074
  256TMC3     C 3881   1.224   4.722  10.102 -0.2796 -0.0993  0.1323
  256TMC3     O 3882   1.343   0.018  10.078 -0.3197  0.6694  0.4309
  256TMC3     H 3883   1.221   0.218   9.961  0.1441  0.8870 -2.4478
  256TMC3    H1 3884   1.008   4.578  10.023 -1.1201  0.1635  0.3679
  256TMC3    H2 3885   0.870   0.147   9.744 -1.3844  0.7784  1.1685
  256TMC3    C7 3886   0.817   4.642   9.858  0.7900  0.0606  0.1759
  256TMC3    C8 3887   1.084   0.291   9.756 -0.3721  0.5526  0.3848
  256TMC3    O1 3888   0.853   4.524   9.860 -0.2780 -0.4233  0.0991
  256TMC3    O2 3889   0.991   0.343   9.698  0.1787 -0.4761  0.1506
  257MPD2     C 3890   0.879   2.434  13.036  0.3728 -0.1878 -0.3613
  257MPD2    C1 3891   0.844   2.328  12.960  0.5425 -0.1856 -0.5191
  257MPD2    C2 3892   0.808   2.207  13.027  0.5844  0.2043  0.2742
  257MPD2    C3 3893   0.828   2.192  13.162  0.2189  0.1497  0.6439
  257MPD2    C4 3894   0.854   2.301  13.233 -0.6792 -0.9419  0.5289
  257MPD2    C5 3895   0.870   2.421  13.175  0.1554 -0.0609  0.0109
  257MPD2     H 3896   0.780   2.120  12.968 -3.2434  1.6852 -0.1090
  257MPD2    H1 3897   0.867   2.295  13.341  0.1554  2.7372  0.6366
  257MPD2    H2 3898   0.901   2.530  12.992 -3.2557  0.1957 -1.3453
  257MPD2    H3 3899   0.890   2.511  13.231 -0.7704  0.4679 -0.5172
  257MPD2     N 3900   0.832   2.063  13.215  0.1472  0.5923  0.1170
  257MPD2    H5 3901   0.819   1.996  13.140  2.2089 -0.3931  0.6628
  257MPD2    N1 3902   0.842   2.335  12.820  0.2345 -0.9616 -0.5850
  257MPD2    H7 3903   0.789   2.265  12.769 -2.0800 -2.0125  3.2369
  258TMC3    C1 3904   0.881   1.884  13.365  0.5328 -0.1865  0.2562
  258TMC3    C2 3905   0.986   1.836  13.287  0.1480  0.6230  0.2904
  258TMC3    C3 3906   1.053   1.727  13.337  0.4144  0.4323  0.8818
  258TMC3    C4 3907   0.863   1.835  13.493  0.5199  0.6602  0.7809
  258TMC3    C5 3908   0.920   1.716  13.524  0.1269  0.1793 -0.4533
  258TMC3    C6 3909   1.024   1.661  13.451  0.5071 -0.9202  0.3118
  258TMC3     C 3910   0.853   2.023  13.347  0.5625 -0.3849  0.0152
  258TMC3     O 3911   0.848   2.094  13.447 -0.0151 -0.1898 -0.2684
  258TMC3     H 3912   1.004   1.891  13.196 -1.3197 -1.3585 -1.2089
  258TMC3    H1 3913   0.786   1.882  13.552  0.3380 -0.1070  1.1473
  258TMC3    H2 3914   1.078   1.569  13.468  0.8648 -0.6799  0.4702
  258TMC3    C7 3915   0.894   1.660  13.654  0.2332 -0.0678 -0.9168
  258TMC3    C8 3916   1.169   1.683  13.260 -0.6997  0.2111  0.2485
  258TMC3    O1 3917   0.794   1.698  13.711  0.1089  0.1743  0.3240
  258TMC3    O2 3918   1.250   1.617  13.318 -0.3186  0.0551 -0.4173
  259MPD2     C 3919   0.147   3.644   0.625 -0.3888  0.1041 -0.0844
  259MPD2    C1 3920   0.115   3.510   0.630  0.1159 -0.0091  0.8614
  259MPD2    C2 3921   0.195   3.412   0.562  0.6594  0.0992  0.6097
  259MPD2    C3 3922   0.303   3.459   0.489  1.4761  0.0172  0.2036
  259MPD2    C4 3923   0.327   3.594   0.480 -0.2472 -0.6161 -0.1180
  259MPD2    C5 3924   0.251   3.691   0.550 -0.0292 -0.6977 -1.0804
  259MPD2     H 3925   0.168   3.309   0.544  0.1422  0.3686 -0.1243
  259MPD2    H1 3926   0.413   3.639   0.431  0.4479 -0.7318  1.0108
  259MPD2    H2 3927   0.079   3.717   0.667 -0.1906  1.2120 -1.6362
  259MPD2    H3 3928   0.285   3.793   0.536  1.3573 -0.9327  0.5976
  259MPD2     N 3929   0.387   3.369   0.409  0.0380 -0.2167  0.7979
  259MPD2    H5 3930   0.347   3.276   0.403  1.3465 -0.7557  0.5347
  259MPD2    N1 3931   4.716   3.476   0.686 -0.7627 -0.1935 -0.0055
  259MPD2    H7 3932   4.660   3.548   0.731  0.1319  0.7283 -0.3543
  260TMC3    C1 3933   0.570   3.297   0.281 -0.4825  0.1164  0.3864
  260TMC3    C2 3934   0.704   3.322   0.269 -0.7837 -0.4285 -0.8600
  260TMC3    C3 3935   0.777   3.226   0.212  0.1554 -0.2476 -0.3057
  260TMC3    C4 3936   0.500   3.201   0.216 -0.7103 -0.4155 -0.4315
  260TMC3    C5 3937   0.584   3.100   0.166  0.3727 -0.5719 -1.1404
  260TMC3    C6 3938   0.722   3.112   0.163 -0.2734  0.2291 -0.2977
  260TMC3     C 3939   0.506   3.398   0.366  0.1380  0.3809  0.7371
  260TMC3     O 3940   0.582   3.481   0.419 -0.0795  0.2162  0.3281
  260TMC3     H 3941   0.757   3.406   0.312 -1.3740  0.2016 -1.3668
  260TMC3    H1 3942   0.392   3.199   0.225 -0.8089 -0.2959 -1.5806
  260TMC3    H2 3943   0.785   3.038   0.116 -1.1158  0.0614 -1.1745
  260TMC3    C7 3944   0.516   2.984   0.098  0.3767  0.5639 -0.2925
  260TMC3    C8 3945   0.926   3.240   0.214 -0.0843  0.2746  0.0432
  260TMC3    O1 3946   0.595   2.908   0.038  0.0776  0.0128 -0.2752
  260TMC3    O2 3947   0.966   3.352   0.241 -0.3464 -0.0377  0.0454
  261MPD2     C 3948   2.375   1.436  11.619  0.7760  0.3203 -0.7295
  261MPD2    C1 3949   2.256   1.460  11.687  0.2573 -0.3847  0.7048
  261MPD2    C2 3950   2.180   1.573  11.653  0.2399  0.2893 -0.1303
  261MPD2    C3 3951   2.220   1.650  11.549 -0.0548  0.5323  0.2906
  261MPD2    C4 3952   2.326   1.619  11.474 -0.0137 -0.2634  0.7340
  261MPD2    C5 3953   2.405   1.505  11.502 -0.3521  0.1388  0.1855
  261MPD2     H 3954   2.093   1.588  11.715  0.9829 -0.1353  1.0188
  261MPD2    H1 3955   2.352   1.674  11.384 -0.1799  0.1580  0.9438
  261MPD2    H2 3956   2.438   1.351  11.639  2.4793  1.3687 -1.6134
  261MPD2    H3 3957   2.493   1.479  11.444 -0.3003  1.5362 -0.3526
  261MPD2     N 3958   2.148   1.772  11.514  0.5987  0.3516 -0.2318
  261MPD2    H5 3959   2.183   1.824  11.434  2.9757 -1.9148 -0.6600
  261MPD2    N1 3960   2.212   1.394  11.802  0.4564 -0.1677  0.3848
  261MPD2    H7 3961   2.129   1.428  11.847  1.2997  0.7854  1.2141
  262TMC3    C1 3962   2.040   1.964  11.586 -1.2934 -0.3067 -0.1315
  262TMC3    C2 3963   1.936   2.028  11.636 -0.2916 -0.0160  0.2314
  262TMC3    C3 3964   1.931   2.166  11.645  0.1353  1.1159  0.1277
  262TMC3    C4 3965   2.152   2.033  11.551  0.4925 -0.4550 -0.9419
  262TMC3    C5 3966   2.143   2.171  11.553  0.7098  0.6362 -0.3169
  262TMC3    C6 3967   2.036   2.241  11.598  0.4942  0.5158  0.1153
  262TMC3     C 3968   2.050   1.818  11.596  0.2107 -0.5009  0.0041
  262TMC3     O 3969   1.960   1.756  11.651 -0.8669 -0.3254 -0.4522
  262TMC3     H 3970   1.855   1.967  11.674 -1.4878  0.6759 -1.1786
  262TMC3    H1 3971   2.242   1.984  11.515  2.0605  2.0608 -0.4021
  262TMC3    H2 3972   2.032   2.349  11.595  0.6732  0.5071 -0.3527
  262TMC3    C7 3973   2.234   2.241  11.461  0.3600 -0.7090 -0.1920
  262TMC3    C8 3974   1.812   2.240  11.675  1.0904  0.2031  0.0855
  262TMC3    O1 3975   2.343   2.190  11.428  0.7594 -0.2781  0.1900
  262TMC3    O2 3976   1.836   2.359  11.687  0.1068  0.3827  0.0657
  263MPD2     C 3977   2.799   1.208  10.772 -0.2728  0.1684 -0.2018
  263MPD2    C1 3978   2.887   1.262  10.860  0.8099 -0.8328 -0.6828
  263MPD2    C2 3979   2.961   1.366  10.820 -0.3108  0.0741 -0.5844
  263MPD2    C3 3980   2.961   1.414  10.689 -0.5333  0.1907 -0.6562
  263MPD2    C4 3981   2.864   1.358  10.602  0.0718 -0.8782 -0.5572
  263MPD2    C5 3982   2.787   1.253  10.642  0.0963 -0.1938  0.1302
  263MPD2     H 3983   3.046   1.404  10.877 -0.3293 -1.4048  0.4264
  263MPD2    H1 3984   2.854   1.395  10.500  1.8959  2.6208  0.5054
  263MPD2    H2 3985   2.738   1.121  10.794  0.3682 -0.2670 -0.1512
  263MPD2    H3 3986   2.713   1.210  10.575 -3.1726  1.4947  2.6663
  263MPD2     N 3987   3.064   1.516  10.657  0.2704 -0.0247  0.6672
  263MPD2    H5 3988   3.130   1.541  10.730 -0.4486 -0.0241  1.3132
  263MPD2    N1 3989   2.903   1.208  10.986 -0.4375  0.5962  0.3530
  263MPD2    H7 3990   2.881   1.112  11.012 -1.0668  0.3544 -1.0422
  264TMC3    C1 3991   3.206   1.649  10.535  0.4111 -0.3322  0.0955
  264TMC3    C2 3992   3.225   1.722  10.650  0.3998 -0.6515 -0.6195
  264TMC3    C3 3993   3.354   1.763  10.684 -0.2089 -0.0987  0.3503
  264TMC3    C4 3994   3.306   1.615  10.452  0.1718 -0.2084 -0.0919
  264TMC3    C5 3995   3.429   1.664  10.482 -0.0310  0.4904 -0.0266
  264TMC3    C6 3996   3.453   1.745  10.592 -0.1224  0.1440 -0.2034
  264TMC3     C 3997   3.101   1.545  10.530 -0.1057 -0.5990 -0.2004
  264TMC3     O 3998   3.085   1.477  10.432  0.2223  0.2875  0.1182
  264TMC3     H 3999   3.135   1.737  10.709  0.9383  0.4890 -0.0851
  264TMC3    H1 4000   3.291   1.558  10.360  0.1975  1.0926 -0.8979
  264TMC3    H2 4001   3.554   1.771  10.624  0.3587 -1.8009 -0.1443
  264TMC3    C7 4002   3.511   1.684  10.367 -0.5153  0.7360 -0.0761
  264TMC3    C8 4003   3.378   1.852  10.801 -0.0887 -0.1018 -0.6347
  264TMC3    O1 4004   3.498   1.604  10.278 -0.1963 -0.5497  0.3832
  264TMC3    O2 4005   3.485   1.913  10.798  0.0699  0.3890 -0.1458
  265MPD2     C 4006   0.068   1.798  15.750 -0.3092 -0.1559 -0.1170
  265MPD2    C1 4007   0.003   1.841  15.635  0.5107  1.5187  0.1929
  265MPD2    C2 4008   0.044   1.811  15.504 -0.7563  0.4294  0.3961
  265MPD2    C3 4009   0.151   1.723  15.490 -0.0594 -0.2564 -0.3437
  265MPD2    C4 4010   0.205   1.667  15.602 -0.1344 -0.4197  1.0409
  265MPD2    C5 4011   0.168   1.705  15.729  0.3183  0.0913 -0.2219
  265MPD2     H 4012   4.714   1.846  15.418 -0.0165  0.0118 -0.2503
  265MPD2    H1 4013   0.291   1.602  15.585 -0.0108 -0.3895  1.5263
  265MPD2    H2 4014   0.033   1.819  15.851  0.1741 -0.7978  0.1854
  265MPD2    H3 4015   0.217   1.670  15.819  0.0770 -0.2110 -0.2086
  265MPD2     N 4016   0.208   1.673  15.365 -0.3829 -0.1728 -0.1598
  265MPD2    H5 4017   0.282   1.605  15.382 -0.5382 -0.2052  0.3980
  265MPD2    N1 4018   4.630   1.941  15.649 -0.0781  0.8434 -0.7974
  265MPD2    H7 4019   4.603   1.997  15.568 -2.4698  1.0718  0.1327
  266TMC3    C1 4020   4.472   2.077  15.763 -0.0494 -0.2229  0.0759
  266TMC3    C2 4021   4.369   2.087  15.856  0.2366 -0.2105  0.3911
  266TMC3    C3 4022   4.308   2.209  15.867 -0.2851  0.6436 -0.1535
  266TMC3    C4 4023   4.514   2.187  15.698  0.5325  0.1542  0.3548
  266TMC3    C5 4024   4.443   2.309  15.711 -1.2729  0.2318  0.2894
  266TMC3    C6 4025   4.342   2.323  15.794 -0.0872 -0.2398  0.5974
  266TMC3     C 4026   4.553   1.957  15.761 -0.4100  0.4879  0.9268
  266TMC3     O 4027   4.539   1.883  15.859 -0.0515  0.0480  0.0511
  266TMC3     H 4028   4.348   2.000  15.918 -0.5285  0.7746  1.5124
  266TMC3    H1 4029   4.600   2.179  15.633  0.6716  0.4254  0.5054
  266TMC3    H2 4030   4.267   2.401  15.788 -0.6606 -0.8540 -0.3864
  266TMC3    C7 4031   4.506   2.424  15.662 -0.1952 -0.1962  0.0312
  266TMC3    C8 4032   4.204   2.215  15.969  0.5826 -0.1502 -0.5429
  266TMC3    O1 4033   4.629   2.437  15.671  0.4986  0.1230 -0.0220
  266TMC3    O2 4034   4.163   2.108  16.016  0.6228  0.7123 -0.8304
  267MPD2     C 4035   2.639   3.474  17.137 -1.2208  0.3937  0.0496
  267MPD2    C1 4036   2.574   3.379  17.214 -0.4121 -0.1876  0.2576
  267MPD2    C2 4037   2.528   3.263  17.158 -1.2004  0.5517 -0.3229
  267MPD2    C3 4038   2.542   3.246  17.022  0.5570 -0.2485 -0.3176
  267MPD2    C4 4039   2.596   3.344  16.946  0.6034 -0.0438  0.7506
  267MPD2    C5 4040   2.658   3.450  17.008  0.0321  0.7273 -0.4071
  267MPD2     H 4041   2.482   3.183  17.216 -0.6025  0.4857  0.0553
  267MPD2    H1 4042   2.597   3.332  16.839  1.4868  1.1141  0.6366
  267MPD2    H2 4043   2.673   3.566  17.185  0.2039 -0.2630  0.2890
  267MPD2    H3 4044   2.713   3.525  16.952  1.1602  0.4930  0.4000
  267MPD2     N 4045   2.489   3.133  16.956 -0.0718  0.2331 -0.1248
  267MPD2    H5 4046   2.504   3.128  16.856 -0.3580  2.5732 -0.2790
  267MPD2    N1 4047   2.548   3.409  17.352  0.4879  0.1310  1.0038
  267MPD2    H7 4048   2.602   3.477  17.404  2.6472 -2.4189  2.0847
  268TMC3    C1 4049   2.420   3.406  17.555  0.4599  0.2017  1.0767
  268TMC3    C2 4050   2.371   3.537  17.545 -0.2389  0.2412  0.3423
  268TMC3    C3 4051   2.273   3.579  17.634 -0.4221  0.4321 -0.3417
  268TMC3    C4 4052   2.372   3.328  17.656  0.2090  0.6933  0.0599
  268TMC3    C5 4053   2.271   3.370   0.029 -0.4442  0.1944 -0.3361
  268TMC3    C6 4054   2.216   3.494   0.026  0.3377 -0.4526 -0.4035
  268TMC3     C 4055   2.455   3.341  17.433  1.0652 -0.3434  0.0519
  268TMC3     O 4056   2.415   3.228  17.429  0.0009 -0.4625 -0.0826
  268TMC3     H 4057   2.426   3.601  17.477 -1.8941  1.4234  0.1228
  268TMC3    H1 4058   2.399   3.224  17.669 -0.6307  0.8205  2.8546
  268TMC3    H2 4059   2.139   3.530   0.094  0.7056 -0.2334 -0.0985
  268TMC3    C7 4060   2.185   3.272   0.081  0.4198 -0.1159 -0.6934
  268TMC3    C8 4061   2.221   3.714  17.621 -0.6047 -0.0062 -0.0154
  268TMC3    O1 4062   2.236   3.173   0.131  0.4640 -0.2504 -0.3171
  268TMC3    O2 4063   2.184   3.760   0.026 -0.0300 -0.2785 -0.2450
  269MPD2     C 4064   2.466   2.120  15.485  0.1373  0.4133  0.6608
  269MPD2    C1 4065   2.402   2.181  15.583  0.3521 -0.1049  0.4532
  269MPD2    C2 4066   2.376   2.318  15.561 -0.0084 -0.5952 -0.3186
  269MPD2    C3 4067   2.420   2.383  15.449  0.3359 -0.2571  1.0386
  269MPD2    C4 4068   2.492   2.318  15.352  0.4104  0.5105  0.0268
  269MPD2    C5 4069   2.506   2.180  15.370  0.4682 -0.1083  0.2908
  269MPD2     H 4070   2.321   2.375  15.636 -0.6353 -1.7043  0.0680
  269MPD2    H1 4071   2.527   2.372  15.265 -2.4193 -0.4559 -1.6936
  269MPD2    H2 4072   2.473   2.013  15.497  0.1725  0.2870 -0.4653
  269MPD2    H3 4073   2.555   2.119  15.295 -1.6929 -1.1099 -0.3081
  269MPD2     N 4074   2.381   2.519  15.440 -0.0900 -0.2228  0.2208
  269MPD2    H5 4075   2.336   2.561  15.521  0.9662 -1.3231  1.3838
  269MPD2    N1 4076   2.344   2.108  15.692  0.9340 -0.1142 -0.2832
  269MPD2    H7 4077   2.359   2.008  15.694 -0.4206 -0.3161 -0.4036
  270TMC3    C1 4078   2.202   2.068  15.872 -1.0181 -0.5886  0.2706
  270TMC3    C2 4079   2.071   2.091  15.899 -0.4712 -0.2357 -0.2392
  270TMC3    C3 4080   1.999   1.990  15.949  0.4703  0.9170 -0.4103
  270TMC3    C4 4081   2.261   1.955  15.899 -0.5128  0.6260  0.5060
  270TMC3    C5 4082   2.183   1.854  15.937 -0.8064  0.6114  0.5817
  270TMC3    C6 4083   2.049   1.871  15.971  0.0570  0.2146 -0.1795
  270TMC3     C 4084   2.277   2.165  15.797 -0.1733  0.3699  0.5556
  270TMC3     O 4085   2.265   2.285  15.830 -0.3835  0.2866  0.1086
  270TMC3     H 4086   2.021   2.179  15.862  0.0898  0.0426 -0.3329
  270TMC3    H1 4087   2.365   1.935  15.876 -0.1817  0.8931  1.7702
  270TMC3    H2 4088   1.985   1.789  16.000  1.6190 -1.3317 -1.1377
  270TMC3    C7 4089   2.220   1.721  15.895 -0.0577 -0.0088 -0.6689
  270TMC3    C8 4090   1.878   1.967  15.873  0.5577 -0.4661  0.5661
  270TMC3    O1 4091   2.336   1.711  15.858 -0.0923  0.5153  0.3205
  270TMC3    O2 4092   1.768   2.007  15.914 -0.2649  0.5242  0.3408
  271MPD2     C 4093   1.591   2.002  13.714  0.9453  0.0333  0.0456
  271MPD2    C1 4094   1.552   2.061  13.834  0.5120 -0.1067 -0.2280
  271MPD2    C2 4095   1.497   2.188  13.832  0.3012  0.2790 -0.1694
  271MPD2    C3 4096   1.489   2.258  13.711  0.1163 -0.3459  0.0291
  271MPD2    C4 4097   1.526   2.188  13.596  0.0692 -0.3714 -0.7684
  271MPD2    C5 4098   1.580   2.064  13.595 -0.5305 -0.3293 -0.0166
  271MPD2     H 4099   1.462   2.231  13.925 -0.5769 -2.7022  0.8632
  271MPD2    H1 4100   1.527   2.231  13.496  2.3503 -1.2176 -1.1013
  271MPD2    H2 4101   1.618   1.897  13.713 -1.6641 -0.6491  1.1289
  271MPD2    H3 4102   1.609   2.014  13.502  2.4308  1.8057 -0.2251
  271MPD2     N 4103   1.441   2.389  13.703 -0.1420  0.0793 -0.0300
  271MPD2    H5 4104   1.444   2.423  13.607 -0.4644  3.2003  1.0555
  271MPD2    N1 4105   1.558   1.999  13.962 -0.1281 -0.0383  0.7776
  271MPD2    H7 4106   1.516   2.047  14.040 -1.3584 -0.2576  0.2485
  272TMC3    C1 4107   1.684   1.862  14.119  0.0225  0.5418 -0.0362
  272TMC3    C2 4108   1.793   1.795  14.151 -0.0613 -0.0093  0.2221
  272TMC3    C3 4109   1.821   1.773  14.283 -0.3823  0.2665  0.3338
  272TMC3    C4 4110   1.590   1.900  14.216 -0.2897  0.1565 -0.7582
  272TMC3    C5 4111   1.629   1.890  14.348 -0.4012 -0.5368 -0.7814
  272TMC3    C6 4112   1.748   1.830  14.384 -0.3852 -0.0155 -0.2012
  272TMC3     C 4113   1.655   1.896  13.982 -0.6454 -0.6631  0.3573
  272TMC3     O 4114   1.737   1.851  13.907 -0.0565  0.0882 -0.3172
  272TMC3     H 4115   1.862   1.762  14.074 -0.7632  1.1482 -0.9001
  272TMC3    H1 4116   1.491   1.938  14.195 -0.9769 -0.3267  1.5942
  272TMC3    H2 4117   1.765   1.804  14.488 -0.5010 -1.3306 -0.5204
  272TMC3    C7 4118   1.543   1.949  14.450  0.9735 -0.5774  0.1918
  272TMC3    C8 4119   1.934   1.678  14.309 -0.0647 -0.0048 -0.0222
  272TMC3    O1 4120   1.428   1.963  14.417  0.4221 -0.1104 -0.5440
  272TMC3    O2 4121   2.017   1.660  14.217 -0.6281 -0.4451 -0.3545
  273MPD2     C 4122   3.145   0.038  11.599  0.1444  0.0847 -0.1570
  273MPD2    C1 4123   3.258   0.117  11.593 -0.1936  0.1034 -0.2568
  273MPD2    C2 4124   3.317   0.149  11.476  0.8100  0.0139  0.1530
  273MPD2    C3 4125   3.263   0.100  11.353  0.0069 -0.1272 -0.6160
  273MPD2    C4 4126   3.156   0.017  11.356  0.0307 -0.1973  0.1162
  273MPD2    C5 4127   3.099   4.721  11.478 -0.0138 -0.0499  0.1865
  273MPD2     H 4128   3.403   0.215  11.474 -0.2049  1.3308 -0.3248
  273MPD2    H1 4129   3.108   4.702  11.268 -3.6658 -0.6893  2.3902
  273MPD2    H2 4130   3.090   0.003  11.686  1.6551 -0.0292  0.7560
  273MPD2    H3 4131   3.008   4.665  11.458 -0.1783  0.1889  0.2659
  273MPD2     N 4132   3.311   0.136  11.224 -0.0009 -0.0093  0.3133
  273MPD2    H5 4133   3.246   0.114  11.149 -1.1831  1.2892  0.9698
  273MPD2    N1 4134   3.317   0.149  11.721  0.3948  0.1439  0.5049
  273MPD2    H7 4135   3.271   0.104  11.800  2.6086  0.3070  1.8756
  274TMC3    C1 4136   3.435   0.246  11.055 -0.1016 -0.2140  0.1887
  274TMC3    C2 4137   3.353   0.201  10.956 -0.0944  0.1023  0.8241
  274TMC3    C3 4138   3.359   0.268  10.841  0.4057  0.7315  0.4486
  274TMC3    C4 4139   3.526   0.347  11.033 -0.0015 -0.1717 -0.1134
  274TMC3    C5 4140   3.533   0.409  10.912  0.1965  0.0664  0.2341
  274TMC3    C6 4141   3.456   0.365  10.811  0.1322 -0.8083  0.1793
  274TMC3     C 4142   3.423   0.211  11.203  0.0335 -0.0929  0.7341
  274TMC3     O 4143   3.495   0.262  11.287 -0.1315  0.2326  0.5464
  274TMC3     H 4144   3.274   0.130  10.973  1.1335 -1.3515  0.5142
  274TMC3    H1 4145   3.588   0.384  11.114  2.6117 -4.1158 -0.3153
  274TMC3    H2 4146   3.434   0.434  10.731  2.7501 -0.6420 -0.3801
  274TMC3    C7 4147   3.531   0.551  10.928 -0.6678 -0.0595  0.2746
  274TMC3    C8 4148   3.240   0.252  10.746  0.3177 -0.5000  0.1235
  274TMC3    O1 4149   3.450   0.616  10.863 -0.4052  0.1869  0.3175
  274TMC3    O2 4150   3.143   0.192  10.784  0.0186 -0.0160  0.0523
  275MPD2     C 4151   2.760   3.235  14.326  0.7591  0.0711 -0.8372
  275MPD2    C1 4152   2.771   3.110  14.384 -0.0119  0.4968 -0.0014
  275MPD2    C2 4153   2.662   3.030  14.389  0.6711  0.5252 -0.7538
  275MPD2    C3 4154   2.540   3.071  14.340 -0.2548 -0.1053  0.1533
  275MPD2    C4 4155   2.534   3.188  14.269 -0.5459  0.3924  0.4602
  275MPD2    C5 4156   2.640   3.276  14.273 -0.7204 -0.6762  0.3925
  275MPD2     H 4157   2.671   2.930  14.430 -0.7075  0.0138 -1.7131
  275MPD2    H1 4158   2.440   3.212  14.221 -0.1688  0.1025 -0.4143
  275MPD2    H2 4159   2.844   3.302  14.334  0.5670  0.1452  0.6585
  275MPD2    H3 4160   2.620   3.374  14.232 -4.2555 -0.9452  1.4951
  275MPD2     N 4161   2.426   2.987  14.349 -0.2822  0.1273 -0.4641
  275MPD2    H5 4162   2.333   3.024  14.335 -1.5603 -2.8272  0.1297
  275MPD2    N1 4163   2.888   3.064  14.452 -0.0075  0.8233  0.0823
  275MPD2    H7 4164   2.882   2.977  14.504 -0.4123  1.7275  1.5515
  276TMC3    C1 4165   3.116   3.068  14.515 -0.2261  0.0947  0.1476
  276TMC3    C2 4166   3.096   2.967  14.602  0.1628  0.0702  0.6384
  276TMC3    C3 4167   3.199   2.945  14.697 -0.2219  0.2571  0.5996
  276TMC3    C4 4168   3.228   3.146  14.510  0.1494 -0.5140 -0.0497
  276TMC3    C5 4169   3.327   3.120  14.601  0.5809  0.3294 -0.2022
  276TMC3    C6 4170   3.309   3.028  14.699 -0.2638 -0.3279  0.1185
  276TMC3     C 4171   3.005   3.128  14.435  0.1103  0.2256  0.6978
  276TMC3     O 4172   3.040   3.218  14.363 -0.1440 -0.1508 -0.0039
  276TMC3     H 4173   3.001   2.915  14.609 -0.0371  0.8585  3.5058
  276TMC3    H1 4174   3.232   3.229  14.441  1.0641 -0.6118 -0.1089
  276TMC3    H2 4175   3.381   3.021  14.780  1.5411 -1.8176 -1.6080
  276TMC3    C7 4176   3.452   3.192  14.602  0.8076  0.1327  0.8212
  276TMC3    C8 4177   3.182   2.839  14.796  0.4508  0.0384  0.4917
  276TMC3    O1 4178   3.501   3.231  14.705  0.3159 -0.1804 -0.6273
  276TMC3    O2 4179   3.247   2.857  14.901 -0.1206  0.7269  0.0098
  277MPD2     C 4180   0.542   2.212  13.554 -0.3468 -0.3617 -0.2351
  277MPD2    C1 4181   0.401   2.222  13.553 -0.1457  0.2267 -0.0765
  277MPD2    C2 4182   0.325   2.135  13.624 -0.3750  0.8109  0.7994
  277MPD2    C3 4183   0.377   2.023  13.685  0.9356 -0.1976  0.0057
  277MPD2    C4 4184   0.513   2.013  13.695  0.7245  0.3234  0.9634
  277MPD2    C5 4185   0.594   2.111  13.629  0.1946 -0.2704 -0.3107
  277MPD2     H 4186   0.217   2.143  13.618 -0.4744  0.4415  2.1711
  277MPD2    H1 4187   0.566   1.936  13.751 -0.1366 -0.1349  1.1461
  277MPD2    H2 4188   0.616   2.284  13.519  0.0369 -0.2799  0.7311
  277MPD2    H3 4189   0.701   2.100  13.638  0.2745  1.8975  1.3513
  277MPD2     N 4190   0.289   1.939  13.752  0.2714 -0.9670 -0.2849
  277MPD2    H5 4191   0.189   1.947  13.733 -0.1875 -3.0788  1.1393
  277MPD2    N1 4192   0.331   2.313  13.480  0.2570 -0.1038 -0.4782
  277MPD2    H7 4193   0.232   2.307  13.500  0.6758  0.4497  1.8296
  278TMC3    C1 4194   0.189   1.765  13.867  0.5087  0.0311 -0.0887
  278TMC3    C2 4195   0.193   1.632  13.882 -0.5375 -0.0131 -0.1521
  278TMC3    C3 4196   0.069   1.569  13.865  0.1039  0.2275 -0.1929
  278TMC3    C4 4197   0.072   1.844  13.865 -0.2139  0.1066  0.6088
  278TMC3    C5 4198   4.680   1.773  13.864  0.1397  0.1114 -0.1490
  278TMC3    C6 4199   4.675   1.637  13.865 -0.3153 -0.0305 -0.0001
  278TMC3     C 4200   0.317   1.820  13.814 -0.4706 -0.6736  0.6056
  278TMC3     O 4201   0.426   1.762  13.820 -0.6820  0.3625  0.7748
  278TMC3     H 4202   0.283   1.575  13.864  0.7600  2.7926 -2.5420
  278TMC3    H1 4203   0.080   1.951  13.855 -2.0046  0.2055  0.2766
  278TMC3    H2 4204   4.581   1.582  13.873  0.4148 -1.4254 -0.9391
  278TMC3    C7 4205   4.563   1.860  13.877  0.3540  0.2441 -0.6679
  278TMC3    C8 4206   0.077   1.430  13.837  0.0979  0.9084  0.7192
  278TMC3    O1 4207   4.564   1.968  13.819 -0.0709  0.8794 -0.3573
  278TMC3    O2 4208   0.151   1.361  13.903 -0.0053  0.0907  0.5136
  279MPD2     C 4209   3.794   2.208   0.106 -0.0724 -0.1886 -0.1093
  279MPD2    C1 4210   3.735   2.126   0.013  0.3552  0.3896 -0.0616
  279MPD2    C2 4211   3.788   2.118  17.593 -0.2003  0.3620  0.1132
  279MPD2    C3 4212   3.901   2.181  17.554 -0.6267  0.5420 -0.0899
  279MPD2    C4 4213   3.961   2.264  17.651 -0.8491  0.1701  0.5573
  279MPD2    C5 4214   3.905   2.275   0.070  0.3545  0.0070 -0.1515
  279MPD2     H 4215   3.753   2.040  17.526  0.5093 -1.3016  1.6914
  279MPD2    H1 4216   4.048   2.328  17.656  0.2083 -1.1604 -0.8574
  279MPD2    H2 4217   3.754   2.220   0.206  0.5659 -2.2818  0.4171
  279MPD2    H3 4218   3.936   2.352   0.139  2.7759 -0.8053 -0.3499
  279MPD2     N 4219   3.962   2.162  17.428  0.2587  0.0391 -0.4172
  279MPD2    H5 4220   4.037   2.225  17.402  1.1925 -0.7728  0.3046
  279MPD2    N1 4221   3.614   2.066   0.055  0.1271 -0.4348 -0.7558
  279MPD2    H7 4222   3.596   2.073   0.154  1.7722  0.8061 -0.5439
  280TMC3    C1 4223   3.401   1.989   0.027 -0.0333  0.1976 -0.0978
  280TMC3    C2 4224   3.416   1.893   0.128 -0.4123 -0.0741 -0.1409
  280TMC3    C3 4225   3.331   1.893   0.232 -0.3533 -0.1846  0.5714
  280TMC3    C4 4226   3.309   2.087   0.038 -0.4819  0.3899 -0.2434
  280TMC3    C5 4227   3.236   2.093   0.157  0.4925 -0.2455 -0.5878
  280TMC3    C6 4228   3.238   1.990   0.246 -0.2428 -0.0522 -1.0448
  280TMC3     C 4229   3.522   2.024  17.662 -0.7552  0.6920 -0.4227
  280TMC3     O 4230   3.512   2.046  17.543 -0.0927 -0.4211  0.1249
  280TMC3     H 4231   3.502   1.828   0.126  0.3424  0.9427 -0.7959
  280TMC3    H1 4232   3.309   2.169  17.670  2.8996  0.0492 -0.6459
  280TMC3    H2 4233   3.196   1.997   0.346  0.0447 -0.1944 -0.9103
  280TMC3    C7 4234   3.159   2.216   0.192  0.4419  0.7420 -0.3902
  280TMC3    C8 4235   3.364   1.807   0.341  0.3435 -0.0858  0.3156
  280TMC3    O1 4236   3.137   2.222   0.315  0.0342 -0.1139  0.2061
  280TMC3    O2 4237   3.345   1.850   0.453 -0.6716 -0.0050  0.0919
  281TMC3    C1 4238   2.995   2.245  13.483  0.4536 -0.4209 -0.3729
  281TMC3    C2 4239   2.992   2.326  13.372  0.0333 -0.6071  0.3317
  281TMC3    C3 4240   3.040   2.274  13.255  0.0558  0.2901  0.0911
  281TMC3    C4 4241   3.044   2.117  13.470 -0.6240  0.0756  0.3711
  281TMC3    C5 4242   3.108   2.071  13.354  0.3041 -0.4002  0.0621
  281TMC3    C6 4243   3.108   2.149  13.242 -0.4296 -0.5107 -1.1253
  281TMC3     C 4244   2.881   2.237  13.570 -0.6183  0.9343 -0.4130
  281TMC3     O 4245   2.854   2.141  13.639  0.1655  0.2846  0.5520
  281TMC3     H 4246   2.965   2.430  13.384  0.3056 -0.5910  0.7714
  281TMC3    H1 4247   3.045   2.051  13.556 -0.1547  0.1149  0.3955
  281TMC3    H2 4248   3.151   2.101  13.155 -0.2402  0.0969 -1.3675
  281TMC3    C7 4249   3.073   1.935  13.328  0.6363 -0.2866  0.0543
  281TMC3    C8 4250   2.967   2.305  13.136 -0.1555 -0.3807  0.1671
  281TMC3    O1 4251   3.145   1.877  13.251  0.2627 -0.5093  1.1049
  281TMC3    O2 4252   2.960   2.220  13.050 -0.4861  0.1141  0.2133
  282MPD2     C 4253   0.004   3.872  15.153  0.5018  0.2954  0.0783
  282MPD2    C1 4254   4.605   3.916  15.107  0.2567 -0.0416 -0.4319
  282MPD2    C2 4255   4.594   3.971  14.979  0.7117  0.0822 -0.2341
  282MPD2    C3 4256   4.697   3.956  14.896 -0.4553 -0.2776 -0.5583
  282MPD2    C4 4257   0.096   3.907  14.938  0.2198 -0.2699  0.7027
  282MPD2    C5 4258   0.113   3.868  15.069  0.2309 -0.8825 -0.5741
  282MPD2     H 4259   4.500   4.014  14.948  0.6687 -0.0142 -0.2396
  282MPD2    H1 4260   0.176   3.890  14.866 -0.5462 -0.4997 -0.0971
  282MPD2    H2 4261   0.011   3.836  15.255 -3.1966 -1.3931 -0.2798
  282MPD2    H3 4262   0.211   3.835  15.102  1.0119  1.3083 -0.7400
  282MPD2     N 4263   4.665   3.973  14.762  0.6975 -0.1222  0.9312
  282MPD2    H5 4264   4.572   4.004  14.737  1.3979  2.0090  1.0048
  282MPD2    N1 4265   4.490   3.924  15.185  0.9619  0.2970  0.1820
  282MPD2    H7 4266   4.404   3.959  15.145  0.2540 -0.3657  1.1126
  283TMC3    C1 4267   4.351   3.909  15.382 -0.3553  0.4730 -0.6759
  283TMC3    C2 4268   4.315   4.044  15.373  0.3706 -0.6538  0.6564
  283TMC3    C3 4269   4.222   4.082  15.468 -1.2293  0.1322 -0.4457
  283TMC3    C4 4270   4.295   3.817  15.466 -0.2769  0.9183 -0.6218
  283TMC3    C5 4271   4.209   3.863  15.558  0.3380  1.0802  0.0528
  283TMC3    C6 4272   4.168   3.992  15.558 -0.0181 -0.3503 -0.8328
  283TMC3     C 4273   4.474   3.868  15.308 -0.5343  0.4677 -0.3760
  283TMC3     O 4274   4.549   3.805  15.380  0.3899 -0.4366 -0.5786
  283TMC3     H 4275   4.350   4.104  15.290 -0.9317  0.3818  0.8598
  283TMC3    H1 4276   4.356   3.728  15.475  0.0172  1.2331  0.5208
  283TMC3    H2 4277   4.093   4.022  15.630 -0.2699 -0.7803 -0.9206
  283TMC3    C7 4278   4.163   3.762  15.660 -0.2194 -0.2166  0.1918
  283TMC3    C8 4279   4.190   4.222  15.475  0.0030 -0.0461 -0.3665
  283TMC3    O1 4280   4.108   3.804  15.759  0.0396 -0.5465 -0.3126
  283TMC3    O2 4281   4.102   4.246  15.555  0.3329  0.3984 -0.0919
  284MPD2     C 4282   2.725   2.831  11.824 -0.1678 -0.1122 -0.7145
  284MPD2    C1 4283   2.799   2.793  11.710 -1.1745  0.7281  0.6003
  284MPD2    C2 4284   2.838   2.656  11.711  0.0299  0.1558 -0.3805
  284MPD2    C3 4285   2.805   2.572  11.814  1.0705 -0.3234  0.2727
  284MPD2    C4 4286   2.735   2.619  11.927  0.3548 -0.3306  0.2108
  284MPD2    C5 4287   2.688   2.744  11.916 -0.6031 -0.0708  0.0466
  284MPD2     H 4288   2.887   2.611  11.625  1.3320  0.7074  0.0748
  284MPD2    H1 4289   2.730   2.565  12.021  2.3777  2.1018  1.6976
  284MPD2    H2 4290   2.705   2.936  11.841 -2.3927 -0.7716  0.6614
  284MPD2    H3 4291   2.623   2.792  11.989  0.9335  1.2161  0.5587
  284MPD2     N 4292   2.846   2.434  11.819 -0.6575 -0.1711  0.0782
  284MPD2    H5 4293   2.826   2.383  11.905  1.8275 -0.0571  0.7335
  284MPD2    N1 4294   2.846   2.877  11.604 -0.1984 -0.4249  0.2673
  284MPD2    H7 4295   2.908   2.834  11.537  0.1860  2.0726 -0.9855
  285TMC3    C1 4296   2.911   3.087  11.531 -0.2879  0.3114  0.1705
  285TMC3    C2 4297   2.999   3.032  11.442  0.2517 -0.5569 -0.6145
  285TMC3    C3 4298   3.124   3.090  11.416 -0.5148  0.3801 -0.0316
  285TMC3    C4 4299   2.934   3.208  11.586  0.5094 -0.3048  0.3443
  285TMC3    C5 4300   3.061   3.262  11.566 -0.2823  0.3448  0.7255
  285TMC3    C6 4301   3.160   3.206  11.481 -0.4469  0.0520 -0.0359
  285TMC3     C 4302   2.803   3.006  11.583  0.1022  0.4704  0.7842
  285TMC3     O 4303   2.711   3.065  11.643 -0.2971  0.0248  0.2731
  285TMC3     H 4304   2.969   2.939  11.396  1.4848 -0.3166 -1.9053
  285TMC3    H1 4305   2.871   3.257  11.659 -1.0609 -0.4448 -0.9306
  285TMC3    H2 4306   3.260   3.245  11.467 -0.8932  1.1143 -0.2283
  285TMC3    C7 4307   3.089   3.395  11.622  0.1820  0.0485  0.9544
  285TMC3    C8 4308   3.208   3.022  11.317  0.1207 -0.4879  0.4513
  285TMC3    O1 4309   3.002   3.481  11.610 -0.2937 -0.0762 -0.0447
  285TMC3    O2 4310   3.171   2.912  11.286  0.2603 -0.0793  0.6816
  286MPD2     C 4311   2.978   1.815   1.577 -0.0515 -0.2709  0.2681
  286MPD2    C1 4312   2.861   1.751   1.547 -0.8783 -0.0356 -0.3676
  286MPD2    C2 4313   2.864   1.614   1.523 -0.0178 -0.4633 -1.1036
  286MPD2    C3 4314   2.984   1.542   1.544  0.1124 -0.2178  0.0216
  286MPD2    C4 4315   3.101   1.613   1.578 -0.0609  0.4239 -0.2284
  286MPD2    C5 4316   3.094   1.750   1.586  0.6495  0.2682 -0.7606
  286MPD2     H 4317   2.773   1.561   1.497  0.0030 -0.4612 -1.1809
  286MPD2    H1 4318   3.196   1.564   1.596 -1.0827 -1.6153 -0.3492
  286MPD2    H2 4319   2.981   1.918   1.608 -1.5138 -0.7025  1.8247
  286MPD2    H3 4320   3.181   1.810   1.609  0.9693 -0.2165 -0.6985
  286MPD2     N 4321   3.002   1.399   1.540  0.4992 -0.0476  0.6182
  286MPD2    H5 4322   3.100   1.370   1.540  0.8297  1.1397  4.1726
  286MPD2    N1 4323   2.731   1.814   1.550  0.2744  0.0434 -0.1765
  286MPD2    H7 4324   2.649   1.761   1.521  1.8408 -2.4040 -0.1282
  287TMC3    C1 4325   2.954   1.170   1.519 -0.1853 -0.3714 -0.8156
  287TMC3    C2 4326   2.920   1.110   1.403 -0.7956  0.7529  0.6105
  287TMC3    C3 4327   3.011   1.024   1.351 -0.5064 -0.5221 -0.0226
  287TMC3    C4 4328   3.076   1.162   1.578 -0.1748  0.8436  0.1315
  287TMC3    C5 4329   3.168   1.076   1.525 -0.3895  0.0309 -1.0931
  287TMC3    C6 4330   3.140   1.012   1.405 -0.1153 -0.6277  0.1646
  287TMC3     C 4331   2.904   1.308   1.526  0.2672 -0.7353 -0.1730
  287TMC3     O 4332   2.787   1.332   1.494  0.0129  0.1872  0.1470
  287TMC3     H 4333   2.828   1.131   1.350 -1.1475 -1.2320  0.4246
  287TMC3    H1 4334   3.109   1.218   1.664  1.5913  0.0319 -0.0197
  287TMC3    H2 4335   3.219   0.948   1.366  0.4149 -0.3816  0.8207
  287TMC3    C7 4336   3.304   1.115   1.546  0.2848  0.2827  0.4193
  287TMC3    C8 4337   2.981   0.963   1.221 -0.9413  0.3210  0.0237
  287TMC3    O1 4338   3.334   1.230   1.584  0.2772 -0.0176  0.0557
  287TMC3    O2 4339   2.858   0.965   1.195 -0.5721 -0.1130 -0.5887
  288TMC3    C1 4340   0.246   1.412  14.459 -0.1575 -1.2625  0.1231
  288TMC3    C2 4341   0.175   1.440  14.573 -0.1781  0.1633 -0.3784
  288TMC3    C3 4342   0.152   1.570  14.596 -0.4401 -0.2538  0.1109
  288TMC3    C4 4343   0.286   1.503  14.365 -0.4260  0.1730 -0.1996
  288TMC3    C5 4344   0.244   1.632  14.387  0.0461  0.5513 -0.1175
  288TMC3    C6 4345   0.188   1.670  14.508 -0.0983 -0.7240 -0.5322
  288TMC3     C 4346   0.228   1.283  14.410 -0.3833 -0.0018 -0.0692
  288TMC3     O 4347   0.220   1.274  14.288  0.1673 -0.3738 -0.1725
  288TMC3     H 4348   0.152   1.364  14.647 -0.3845 -2.1258 -2.7942
  288TMC3    H1 4349   0.334   1.464  14.275  0.5244  2.5349 -0.7159
  288TMC3    H2 4350   0.161   1.773  14.530  1.9565 -0.3139  0.0341
  288TMC3    C7 4351   0.254   1.726  14.272  0.5996 -0.6360  0.4400
  288TMC3    C8 4352   0.082   1.604  14.715  0.7066  0.0795 -0.3023
  288TMC3    O1 4353   0.330   1.698  14.181 -0.3585  0.3531 -0.0986
  288TMC3    O2 4354   0.109   1.711  14.760 -0.8752 -0.2605  0.1245
  289MPD2     C 4355   0.045   0.457  15.087  0.5889  0.2542 -0.0568
  289MPD2    C1 4356   0.124   0.558  15.045  0.3049  0.4913  0.3369
  289MPD2    C2 4357   0.077   0.642  14.938  0.2999 -0.1320  0.4476
  289MPD2    C3 4358   4.685   0.612  14.864 -0.2705  0.2455 -0.0817
  289MPD2    C4 4359   4.620   0.496  14.902 -0.1071  0.8993  0.5770
  289MPD2    C5 4360   4.660   0.425  15.010  0.0751  0.0878 -0.0982
  289MPD2     H 4361   0.140   0.720  14.899  0.6304 -0.6702 -0.0955
  289MPD2    H1 4362   4.527   0.471  14.853  0.2794 -0.8315  0.7207
  289MPD2    H2 4363   0.070   0.403  15.178  0.5398 -0.9030 -0.7248
  289MPD2    H3 4364   4.602   0.337  15.037 -0.5946  0.7537  0.6500
  289MPD2     N 4365   4.627   0.694  14.764 -0.4982 -0.0955 -0.6189
  289MPD2    H5 4366   4.548   0.653  14.714 -1.0744  0.1069  0.1156
  289MPD2    N1 4367   0.248   0.577  15.106 -0.8047 -0.2967  0.2704
  289MPD2    H7 4368   0.259   0.539  15.200 -0.0931 -1.1782 -0.1799
  290TMC3    C1 4369   4.596   0.900  14.635  0.0223 -0.6205 -0.0040
  290TMC3    C2 4370   4.625   1.033  14.629  0.7285  0.4536  0.0690
  290TMC3    C3 4371   4.608   1.100  14.507 -0.1484 -0.0688 -0.4910
  290TMC3    C4 4372   4.528   0.840  14.531  0.5705 -0.3125  0.4542
  290TMC3    C5 4373   4.519   0.907  14.412  0.2268 -0.4727 -0.1326
  290TMC3    C6 4374   4.553   1.041  14.399 -0.5601 -0.5974  0.1639
  290TMC3     C 4375   4.656   0.830  14.750  0.1252  0.4370  0.0571
  290TMC3     O 4376   4.709   0.901  14.834 -0.5066  0.6005 -0.2290
  290TMC3     H 4377   4.681   1.085  14.706  0.4931  0.3753  0.2913
  290TMC3    H1 4378   4.479   0.744  14.539  0.5176 -0.2423  0.9623
  290TMC3    H2 4379   4.553   1.077  14.296  2.4049 -0.6726  0.1291
  290TMC3    C7 4380   4.448   0.843  14.305  0.1003  0.4944 -0.3551
  290TMC3    C8 4381   4.607   1.250  14.527 -0.3769 -0.3499 -0.1473
  290TMC3    O1 4382   4.416   0.914  14.209  0.4521  0.2434 -0.4551
  290TMC3    O2 4383   4.627   1.296  14.637  0.3132 -0.0185 -0.5320
  291MPD2     C 4384   4.449   0.542   0.722  0.4079  0.2531  0.2778
  291MPD2    C1 4385   4.393   0.431   0.651 -0.0943 -0.1306  0.7517
  291MPD2    C2 4386   4.485   0.344   0.592  0.4524  0.3434 -0.1092
  291MPD2    C3 4387   4.622   0.374   0.594 -0.2072  0.0274  0.4691
  291MPD2    C4 4388   4.671   0.491   0.651  0.6561 -0.1843  0.6709
  291MPD2    C5 4389   4.581   0.575   0.715 -0.0473 -0.3423 -0.2253
  291MPD2     H 4390   4.441   0.256   0.549 -0.6116  1.0271 -0.4003
  291MPD2    H1 4391   0.050   0.519   0.641  0.8208 -1.2789 -0.6992
  291MPD2    H2 4392   4.383   0.613   0.770 -1.4473 -0.2625 -1.4811
  291MPD2    H3 4393   4.620   0.665   0.759  0.4238 -0.5905 -0.1441
  291MPD2     N 4394   4.712   0.280   0.545  0.6700 -0.5052 -0.1101
  291MPD2    H5 4395   0.085   0.303   0.530  0.4617 -0.4671 -1.4944
  291MPD2    N1 4396   4.256   0.404   0.649  0.1480 -0.3511 -0.6179
  291MPD2    H7 4397   4.223   0.329   0.590 -0.8944 -1.4552  1.3396
  292TMC3    C1 4398   4.021   0.446   0.670 -0.0052 -0.0225 -0.0593
  292TMC3    C2 4399   3.910   0.478   0.754 -1.1143 -0.1155  0.0983
  292TMC3    C3 4400   3.800   0.396   0.750  0.0611 -0.6618 -0.1485
  292TMC3    C4 4401   3.993   0.343   0.582 -0.1265 -0.6714 -0.0242
  292TMC3    C5 4402   3.871   0.286   0.577  0.6624 -0.3632 -0.0290
  292TMC3    C6 4403   3.767   0.302   0.661  0.0321  0.8611 -0.2666
  292TMC3     C 4404   4.157   0.480   0.706 -0.4111 -0.0116 -0.5282
  292TMC3     O 4405   4.165   0.580   0.779 -0.6049 -0.6889  1.0371
  292TMC3     H 4406   3.922   0.565   0.818  0.1802  0.4705 -0.9231
  292TMC3    H1 4407   4.062   0.313   0.505  0.2323  1.5957 -0.6051
  292TMC3    H2 4408   3.671   0.256   0.643  0.5402  0.1449 -1.1822
  292TMC3    C7 4409   3.870   0.162   0.496 -0.0680 -0.2845 -0.2095
  292TMC3    C8 4410   3.722   0.403   0.875 -0.0419 -0.3673 -0.1143
  292TMC3    O1 4411   3.975   0.104   0.467  0.7425 -0.4247  0.0589
  292TMC3    O2 4412   3.734   0.497   0.951  0.1695 -0.5428  0.2731
  293MPD2     C 4413   1.275   2.102  12.506  0.2565 -0.4423 -0.4381
  293MPD2    C1 4414   1.142   2.103  12.554 -0.0606 -0.5196 -0.4850
  293MPD2    C2 4415   1.111   2.131  12.686 -0.5674  0.7584 -0.6821
  293MPD2    C3 4416   1.215   2.164  12.774  0.3946 -0.1639 -0.2891
  293MPD2    C4 4417   1.341   2.173  12.733 -0.2682 -0.4321 -0.0662
  293MPD2    C5 4418   1.371   2.139  12.604  0.3991  0.2686  0.2452
  293MPD2     H 4419   1.006   2.138  12.712 -1.2395 -0.1494 -3.1202
  293MPD2    H1 4420   1.427   2.180  12.799 -0.4054  0.3855  0.0332
  293MPD2    H2 4421   1.305   2.070  12.407  1.7144  1.6419 -0.6761
  293MPD2    H3 4422   1.471   2.141  12.562  0.9474 -0.5361  1.4893
  293MPD2     N 4423   1.185   2.198  12.908 -0.7062 -0.2194  0.2367
  293MPD2    H5 4424   1.089   2.186  12.938 -0.0280  0.6479  2.7612
  293MPD2    N1 4425   1.050   2.073  12.446  0.5038  0.2831 -0.2395
  293MPD2    H7 4426   1.092   2.021  12.369 -2.0409  0.5974 -1.8482
  294TMC3    C1 4427   0.854   2.014  12.337  0.2118  0.7071 -0.4122
  294TMC3    C2 4428   0.720   1.977  12.345 -0.6965 -0.4998 -0.1315
  294TMC3    C3 4429   0.677   1.895  12.247  0.5303  0.9800 -0.1224
  294TMC3    C4 4430   0.925   2.004  12.224 -0.5115 -0.0805  0.9251
  294TMC3    C5 4431   0.865   1.936  12.123 -0.3606 -0.1600  0.4844
  294TMC3    C6 4432   0.745   1.874  12.132  0.2096  0.0281 -0.3710
  294TMC3     C 4433   0.918   2.073  12.454 -0.1846  0.0560  0.2322
  294TMC3     O 4434   0.844   2.083  12.552  0.6446 -0.1562  0.2708
  294TMC3     H 4435   0.682   1.971  12.446  2.4485 -1.1278  1.0390
  294TMC3    H1 4436   1.019   2.055  12.205  0.3008 -1.7266  0.5147
  294TMC3    H2 4437   0.710   1.813  12.050  0.9796  1.3032 -1.6322
  294TMC3    C7 4438   0.950   1.901  12.007 -0.4110 -0.0173 -0.6212
  294TMC3    C8 4439   0.588   1.789  12.302 -0.2182  0.3385  0.5400
  294TMC3    O1 4440   0.888   1.871  11.907 -0.7263  0.2209 -0.3602
  294TMC3    O2 4441   0.525   1.822  12.402  0.3851 -0.4046  0.1598
  295MPD2     C 4442   2.677   0.245   0.354 -0.1281  0.2650 -0.1131
  295MPD2    C1 4443   2.547   0.259   0.308 -0.6597  0.4167 -0.2380
  295MPD2    C2 4444   2.440   0.237   0.392  0.1130  0.1308 -0.2077
  295MPD2    C3 4445   2.462   0.201   0.524  0.0658 -0.3900 -0.1267
  295MPD2    C4 4446   2.593   0.191   0.570  0.2129 -0.7269  0.5323
  295MPD2    C5 4447   2.698   0.214   0.485 -0.1052 -0.3812 -0.3657
  295MPD2     H 4448   2.344   0.253   0.345 -0.0689  0.9344  0.4318
  295MPD2    H1 4449   2.610   0.162   0.673  0.1559  1.7702  1.2605
  295MPD2    H2 4450   2.759   0.255   0.283 -0.5743  2.1985 -0.3540
  295MPD2    H3 4451   2.798   0.209   0.528  0.8054  2.1510 -2.1452
  295MPD2     N 4452   2.358   0.174   0.613 -0.2268  0.3796 -0.3740
  295MPD2    H5 4453   2.388   0.172   0.710 -1.3105 -0.7239 -0.0658
  295MPD2    N1 4454   2.519   0.294   0.177  0.6927 -0.2557 -0.1387
  295MPD2    H7 4455   2.425   0.315   0.144  0.8512  1.3879  0.4991
  296TMC3    C1 4456   2.142   0.124   0.693  0.6123 -0.1782  1.0216
  296TMC3    C2 4457   2.178   0.154   0.823 -0.0192  0.1249 -0.7635
  296TMC3    C3 4458   2.093   0.133   0.926 -0.2545 -1.6301  0.4051
  296TMC3    C4 4459   2.020   0.064   0.675 -0.0649 -0.1088  0.6153
  296TMC3    C5 4460   1.941   0.032   0.784  0.7521 -0.5242 -0.1272
  296TMC3    C6 4461   1.977   0.071   0.910 -0.0961  0.2533 -0.6153
  296TMC3     C 4462   2.229   0.144   0.578  0.2623  0.0315 -0.4095
  296TMC3     O 4463   2.172   0.143   0.471 -0.4358 -0.5075  0.2211
  296TMC3     H 4464   2.266   0.209   0.852 -1.3156  1.6671  0.1913
  296TMC3    H1 4465   1.993   0.018   0.581  2.5367 -1.2866  0.4357
  296TMC3    H2 4466   1.921   0.044   1.000 -1.4739  0.4143 -1.4162
  296TMC3    C7 4467   1.856   4.644   0.773 -0.1868 -0.0606  0.1296
  296TMC3    C8 4468   2.107   0.215   1.048  0.0108 -0.3904 -0.4345
  296TMC3    O1 4469   1.860   4.573   0.674  0.4621 -0.4821 -0.0443
  296TMC3    O2 4470   2.227   0.237   1.075 -0.1679 -0.1475  0.7656
  297MPD2     C 4471   3.602   2.489  16.156  0.5203 -0.3759 -0.4929
  297MPD2    C1 4472   3.599   2.599  16.069 -0.0466  0.7748  0.2388
  297MPD2    C2 4473   3.687   2.705  16.094 -0.0528 -0.0393  0.0209
  297MPD2    C3 4474   3.757   2.710  16.212 -0.2039  0.5699  0.6091
  297MPD2    C4 4475   3.752   2.603  16.295 -0.4347 -0.7096 -0.6631
  297MPD2    C5 4476   3.681   2.491  16.267  0.6956 -0.1261  0.0385
  297MPD2     H 4477   3.680   2.789  16.026  0.7824  0.2502  0.2856
  297MPD2    H1 4478   3.812   2.602  16.386  0.8109  1.3547 -1.4630
  297MPD2    H2 4479   3.559   2.391  16.140  0.5204 -0.2088 -1.5173
  297MPD2    H3 4480   3.677   2.401  16.328 -0.2375  1.0896  1.7630
  297MPD2     N 4481   3.828   2.830  16.245 -0.3543 -0.0016  0.0546
  297MPD2    H5 4482   3.834   2.899  16.170 -1.4830  0.5101  0.4350
  297MPD2    N1 4483   3.520   2.607  15.953  0.2834 -0.1746 -0.1445
  297MPD2    H7 4484   3.517   2.690  15.893  0.8845  1.4131  2.0100
  298TMC3    C1 4485   3.353   2.557  15.808 -0.0757  0.2061  0.4953
  298TMC3    C2 4486   3.321   2.475  15.705  0.0263 -0.2869  0.7605
  298TMC3    C3 4487   3.213   2.515  15.630 -0.3836  0.0186 -0.5447
  298TMC3    C4 4488   3.292   2.669  15.841 -0.2812  0.4333  0.6414
  298TMC3    C5 4489   3.184   2.702  15.767 -0.4385  1.0944 -0.5117
  298TMC3    C6 4490   3.147   2.629  15.660 -0.3117 -0.0718  0.2006
  298TMC3     C 4491   3.447   2.504  15.906 -0.2847 -0.3274  0.2123
  298TMC3     O 4492   3.418   2.391  15.942  0.3187  0.0950  0.3646
  298TMC3     H 4493   3.368   2.377  15.695 -0.8177 -0.5808 -0.3643
  298TMC3    H1 4494   3.320   2.724  15.930  0.1861  0.2922  0.5827
  298TMC3    H2 4495   3.055   2.650  15.606 -0.3588  1.7618  1.0179
  298TMC3    C7 4496   3.099   2.803  15.831 -1.1526 -0.5990  0.4630
  298TMC3    C8 4497   3.221   2.497  15.486  0.8159  0.4728 -0.0370
  298TMC3    O1 4498   3.099   2.796  15.954 -0.2621 -0.6738  0.6548
  298TMC3    O2 4499   3.158   2.572  15.413  0.2048 -0.6365 -0.3548
  299MPD2     C 4500   0.303   2.390  10.586 -0.3118  0.1102 -0.0017
  299MPD2    C1 4501   0.217   2.342  10.677  0.4171 -0.6392  0.9186
  299MPD2    C2 4502   0.098   2.289  10.630  0.0415  0.2818 -0.8347
  299MPD2    C3 4503   0.070   2.287  10.486 -1.0247  0.2360  0.1487
  299MPD2    C4 4504   0.165   2.345  10.400 -0.1356  0.3108 -0.2888
  299MPD2    C5 4505   0.274   2.400  10.457 -0.6481 -0.0869 -0.1303
  299MPD2     H 4506   0.028   2.243  10.700 -1.8328  0.9660 -2.2591
  299MPD2    H1 4507   0.153   2.352  10.292  0.3629  1.9169 -0.2441
  299MPD2    H2 4508   0.395   2.440  10.612 -0.7467  0.2307  1.3182
  299MPD2    H3 4509   0.347   2.447  10.393 -0.3693 -0.7185 -0.2772
  299MPD2     N 4510   4.673   2.244  10.427 -0.1409  0.3423  0.2896
  299MPD2    H5 4511   4.668   2.272  10.330 -2.0371 -1.0950 -0.0116
  299MPD2    N1 4512   0.230   2.382  10.811 -0.2344  0.3360 -0.7709
  299MPD2    H7 4513   0.312   2.438  10.832  0.5281 -0.6916 -0.9955
  300TMC3    C1 4514   4.467   2.134  10.402  0.6015  0.3455 -0.4325
  300TMC3    C2 4515   4.418   2.224  10.311 -0.8721  0.3945  0.0024
  300TMC3    C3 4516   4.290   2.194  10.265 -0.2783 -0.3781 -0.4144
  300TMC3    C4 4517   4.403   2.019  10.447 -0.7112 -0.1521 -0.2751
  300TMC3    C5 4518   4.277   1.997  10.404 -0.1714 -0.3781  0.0035
  300TMC3    C6 4519   4.221   2.088  10.318  0.1664 -0.1100 -0.6832
  300TMC3     C 4520   4.570   2.174  10.495  0.3662 -0.1222  0.0233
  300TMC3     O 4521   4.570   2.126  10.608 -0.3818 -0.2433 -0.1763
  300TMC3     H 4522   4.467   2.320  10.298  4.0406 -1.9636  1.4375
  300TMC3    H1 4523   4.444   1.964  10.532  2.9905 -0.6836 -2.3987
  300TMC3    H2 4524   4.127   2.068  10.269  0.3022 -1.1682 -0.5114
  300TMC3    C7 4525   4.192   1.945  10.496 -0.1012 -0.9341 -0.6578
  300TMC3    C8 4526   4.224   2.303  10.200  0.1131  0.2431  0.0227
  300TMC3    O1 4527   4.221   1.846  10.559 -0.2345  0.4410 -0.2661
  300TMC3    O2 4528   4.255   2.420  10.207 -0.0259 -0.4003 -0.2740
  301MPD2     C 4529   1.269   3.252   1.627  0.2107  0.3994  0.2215
  301MPD2    C1 4530   1.184   3.206   1.529 -0.8086  0.2194  0.3293
  301MPD2    C2 4531   1.218   3.099   1.446  0.7999  0.0242  0.0002
  301MPD2    C3 4532   1.332   3.018   1.469  0.2958  0.2843  0.1769
  301MPD2    C4 4533   1.414   3.061   1.574 -0.1364  0.1665 -0.3477
  301MPD2    C5 4534   1.385   3.179   1.641 -0.1550  0.9262 -0.7300
  301MPD2     H 4535   1.156   3.089   1.358  2.0424  1.7285 -1.0714
  301MPD2    H1 4536   1.511   3.019   1.599 -0.1191  0.6975  0.4822
  301MPD2    H2 4537   1.244   3.336   1.691  1.2882  0.0245  1.1490
  301MPD2    H3 4538   1.466   3.210   1.706 -0.4324  1.2349 -0.5297
  301MPD2     N 4539   1.370   2.908   1.387 -0.4846 -0.1663  0.1365
  301MPD2    H5 4540   1.463   2.871   1.406 -0.8401 -0.4963  1.2666
  301MPD2    N1 4541   1.066   3.278   1.495  0.5143  0.0205 -0.4035
  301MPD2    H7 4542   1.007   3.244   1.420 -1.7963 -0.0085  1.4269
  302TMC3    C1 4543   1.347   2.741   1.226 -0.4461  0.5225 -0.6085
  302TMC3    C2 4544   1.409   2.648   1.311  0.6954  0.6605  0.0802
  302TMC3    C3 4545   1.419   2.520   1.265  0.7427 -0.5648 -0.5086
  302TMC3    C4 4546   1.278   2.699   1.113 -0.1651  0.8246 -0.0209
  302TMC3    C5 4547   1.293   2.566   1.071  0.2696  0.6573 -0.0982
  302TMC3    C6 4548   1.367   2.472   1.146 -1.1299 -0.0016  0.5804
  302TMC3     C 4549   1.294   2.861   1.284 -0.4017  0.1387  0.4368
  302TMC3     O 4550   1.189   2.906   1.238  0.0498 -0.0956 -0.0557
  302TMC3     H 4551   1.442   2.675   1.410  0.6520  0.3858  0.1678
  302TMC3    H1 4552   1.221   2.771   1.057  0.5157  0.4266 -1.2385
  302TMC3    H2 4553   1.390   2.372   1.113  0.0535  0.5813 -0.3614
  302TMC3    C7 4554   1.254   2.526   0.937 -0.1095 -0.6081  0.1501
  302TMC3    C8 4555   1.521   2.431   1.332  0.9242  0.2439 -0.4112
  302TMC3    O1 4556   1.253   2.407   0.914 -0.1316  0.1637 -0.2159
  302TMC3    O2 4557   1.504   2.314   1.302  0.3469 -0.5198 -0.1590
  303MPD2     C 4558   1.970   1.406  10.412 -0.1915  0.5343 -0.1795
  303MPD2    C1 4559   1.852   1.410  10.345  0.1595 -0.7362 -0.2407
  303MPD2    C2 4560   1.816   1.513  10.257 -0.3334 -0.7633  0.4744
  303MPD2    C3 4561   1.912   1.601  10.216  0.1666  0.5529  0.1603
  303MPD2    C4 4562   2.038   1.590  10.269 -0.4922 -0.3655  0.1365
  303MPD2    C5 4563   2.062   1.503  10.373  0.3082  0.8305  0.2714
  303MPD2     H 4564   1.717   1.525  10.214 -0.0899  1.0605  0.3964
  303MPD2    H1 4565   2.122   1.651  10.238  0.2371 -2.6320 -2.3289
  303MPD2    H2 4566   1.989   1.338  10.494 -0.7206  0.2939 -0.2585
  303MPD2    H3 4567   2.156   1.510  10.427 -0.7576 -1.4035  2.4119
  303MPD2     N 4568   1.889   1.699  10.109 -0.0329 -0.1642 -0.7951
  303MPD2    H5 4569   1.967   1.751  10.068  0.1906  0.4834  0.4728
  303MPD2    N1 4570   1.756   1.312  10.385  0.1990  0.0286 -0.1337
  303MPD2    H7 4571   1.782   1.259  10.467  0.8275 -1.8006 -1.5106
  304TMC3    C1 4572   1.545   1.246  10.439 -0.6183 -0.3190  0.4177
  304TMC3    C2 4573   1.539   1.318  10.558  0.0071 -0.0294 -0.1077
  304TMC3    C3 4574   1.427   1.303  10.634 -0.2176 -0.2252 -0.0960
  304TMC3    C4 4575   1.437   1.166  10.397  0.1415 -0.2436 -0.3956
  304TMC3    C5 4576   1.325   1.157  10.478  0.1206  0.7052 -0.4939
  304TMC3    C6 4577   1.328   1.216  10.607  0.3642 -0.4369 -0.2425
  304TMC3     C 4578   1.630   1.290  10.333  0.5032  0.1164  0.3255
  304TMC3     O 4579   1.584   1.322  10.224  0.3455  0.6632  0.8274
  304TMC3     H 4580   1.614   1.391  10.589 -1.0720 -0.5372  3.6543
  304TMC3    H1 4581   1.446   1.118  10.301  0.3186  0.0371 -0.5185
  304TMC3    H2 4582   1.232   1.211  10.657  0.8420  1.3586  0.8420
  304TMC3    C7 4583   1.201   1.197  10.403  0.0527  0.5377  0.3231
  304TMC3    C8 4584   1.384   1.431  10.679  0.3421 -0.5179  0.7519
  304TMC3    O1 4585   1.132   1.281  10.462 -0.5615 -0.1505  0.0358
  304TMC3    O2 4586   1.451   1.488  10.765  0.0190  0.0256  0.0901
  305MPD2     C 4587   0.138   4.391  13.804  1.0126 -0.2916  0.3415
  305MPD2    C1 4588   0.142   4.261  13.855  0.0217  0.0723 -0.6663
  305MPD2    C2 4589   0.133   4.156  13.770  0.9442  0.0156 -0.1826
  305MPD2    C3 4590   0.095   4.173  13.638 -0.5123  0.0803 -0.6831
  305MPD2    C4 4591   0.084   4.298  13.589  0.3463 -0.3384  0.0446
  305MPD2    C5 4592   0.094   4.407  13.670 -0.1043 -0.0164  0.8708
  305MPD2     H 4593   0.147   4.053  13.802  0.5118  0.2544  0.7813
  305MPD2    H1 4594   0.054   4.315  13.486  0.4597 -1.3224 -0.1504
  305MPD2    H2 4595   0.161   4.480  13.862  0.6849  0.2010 -0.2772
  305MPD2    H3 4596   0.094   4.504  13.622  1.5219 -0.8255 -0.7772
  305MPD2     N 4597   0.091   4.072  13.545  0.9285 -0.8325  0.4745
  305MPD2    H5 4598   0.071   4.096  13.448  0.5210  0.2449  0.8221
  305MPD2    N1 4599   0.181   4.258  13.994  0.6280  0.0548 -0.1044
  305MPD2    H7 4600   0.179   4.346  14.046 -0.5279  0.4459 -0.8007
  306TMC3    C1 4601   0.251   4.166  14.198 -0.1669  0.3936  0.0838
  306TMC3    C2 4602   0.330   4.080  14.273 -0.2685  0.4591  0.0039
  306TMC3    C3 4603   0.301   4.070  14.410 -0.8974  0.2169 -0.2312
  306TMC3    C4 4604   0.159   4.258  14.260 -0.4681  0.0440  0.9198
  306TMC3    C5 4605   0.134   4.238  14.394 -0.1650 -0.4980 -0.1201
  306TMC3    C6 4606   0.206   4.148  14.467  0.2766 -0.3685  0.6904
  306TMC3     C 4607   0.223   4.142  14.059 -0.7179 -0.1929 -0.1113
  306TMC3     O 4608   0.243   4.025  14.024 -0.2105 -0.0363  0.5030
  306TMC3     H 4609   0.408   4.018  14.230  0.2763  0.7817  0.5436
  306TMC3    H1 4610   0.082   4.320  14.216 -1.3838 -1.5487  0.2810
  306TMC3    H2 4611   0.166   4.112  14.561 -1.1117  0.2644  0.3551
  306TMC3    C7 4612   0.031   4.319  14.459  0.3918 -1.0125 -0.2332
  306TMC3    C8 4613   0.394   3.993  14.491  0.2131 -0.0420  0.1371
  306TMC3    O1 4614   4.662   4.376  14.401  0.2717  0.0337  0.2506
  306TMC3    O2 4615   0.470   3.920  14.438  0.6041 -0.1372 -0.1564
  307MPD2     C 4616   2.344   1.370   0.739 -0.0298 -0.8708  0.3855
  307MPD2    C1 4617   2.232   1.369   0.666 -0.7757 -0.0417 -0.2621
  307MPD2    C2 4618   2.115   1.360   0.741 -0.3659 -0.2497  0.5427
  307MPD2    C3 4619   2.104   1.351   0.878 -0.0939 -0.1626 -0.0390
  307MPD2    C4 4620   2.222   1.352   0.949  0.7079  0.5280 -0.1205
  307MPD2    C5 4621   2.338   1.359   0.874 -0.3371  0.7639 -0.2628
  307MPD2     H 4622   2.023   1.372   0.685  0.5025  3.0763 -0.1579
  307MPD2    H1 4623   2.222   1.351   1.057  1.5256  1.3481 -0.1200
  307MPD2    H2 4624   2.441   1.373   0.691 -0.7057 -2.5312 -1.0664
  307MPD2    H3 4625   2.429   1.364   0.932  0.4002  0.7207 -1.4216
  307MPD2     N 4626   1.976   1.367   0.927  0.2876  0.2260 -0.3613
  307MPD2    H5 4627   1.900   1.379   0.860  0.4659 -0.5639 -0.7060
  307MPD2    N1 4628   2.230   1.363   0.523  0.7122 -0.2927 -0.4527
  307MPD2    H7 4629   2.139   1.347   0.481  0.2662  1.6509 -0.2571
  308TMC3    C1 4630   1.604   1.395   0.941  0.1214  0.6652  0.4437
  308TMC3    C2 4631   1.568   1.517   0.994  0.3819  0.6758 -0.3785
  308TMC3    C3 4632   1.626   1.560   1.105  1.3404 -0.3022  0.0300
  308TMC3    C4 4633   1.731   1.340   0.969  0.3139  0.0900 -0.1293
  308TMC3    C5 4634   1.801   1.400   1.067 -0.2023  0.4083 -0.5129
  308TMC3    C6 4635   1.752   1.511   1.138 -0.2820 -0.1244 -0.5461
  308TMC3     C 4636   1.534   1.336   0.831 -0.9852  1.0574 -0.8144
  308TMC3     O 4637   1.586   1.234   0.795 -0.2312  0.2847 -0.0832
  308TMC3     H 4638   1.473   1.565   0.977 -0.9978 -0.9377  2.8054
  308TMC3    H1 4639   1.757   1.244   0.927 -0.0200 -0.6582  1.3683
  308TMC3    H2 4640   1.813   1.558   1.214 -1.8176  1.0882 -0.0625
  308TMC3    C7 4641   1.946   1.386   1.056 -0.5476 -0.2702  0.2972
  308TMC3    C8 4642   1.632   1.699   1.123  0.1040 -0.4326  0.5201
  308TMC3    O1 4643   2.017   1.399   1.155  0.1350  0.2273  0.0880
  308TMC3    O2 4644   1.672   1.744   1.229 -0.3161 -0.2700  0.0567
  309MPD2     C 4645   1.619   2.190  17.073 -0.3056  0.4885  0.4173
  309MPD2    C1 4646   1.562   2.190  16.946 -0.0128  0.1996  0.4810
  309MPD2    C2 4647   1.424   2.202  16.943 -0.3453  0.2810 -0.7559
  309MPD2    C3 4648   1.349   2.221  17.059  0.8261  0.0407  0.7432
  309MPD2    C4 4649   1.413   2.221  17.181  0.1445 -0.0598  0.2052
  309MPD2    C5 4650   1.548   2.207  17.186  0.0271  0.4906  0.3490
  309MPD2     H 4651   1.388   2.201  16.841 -1.1449 -0.7922 -0.4566
  309MPD2    H1 4652   1.357   2.257  17.267  1.3077  0.3351  0.8045
  309MPD2    H2 4653   1.726   2.186  17.085 -0.0155  1.8508 -1.6074
  309MPD2    H3 4654   1.598   2.220  17.281 -1.0612 -0.5538  1.0473
  309MPD2     N 4655   1.208   2.227  17.054 -0.6058 -0.2891 -0.1261
  309MPD2    H5 4656   1.164   2.227  17.145  0.3826  3.5672  0.3310
  309MPD2    N1 4657   1.631   2.188  16.829  0.0072  0.1760  0.4007
  309MPD2    H7 4658   1.577   2.216  16.747  1.1785  0.3738 -0.3037
  310TMC3    C1 4659   1.823   2.158  16.685 -0.0603 -0.4349  0.8276
  310TMC3    C2 4660   1.753   2.198  16.572 -0.1205  0.0370  0.1318
  310TMC3    C3 4661   1.825   2.201  16.450 -0.2353  0.8366  0.5364
  310TMC3    C4 4662   1.950   2.107  16.678 -0.1240  0.3310 -0.3582
  310TMC3    C5 4663   2.015   2.110  16.557 -0.2300 -0.6134 -0.2365
  310TMC3    C6 4664   1.955   2.165  16.441  0.2562  0.1276 -0.3346
  310TMC3     C 4665   1.766   2.149  16.820 -0.3222 -0.3964 -0.0265
  310TMC3     O 4666   1.829   2.078  16.892 -0.0766  0.2736  0.0752
  310TMC3     H 4667   1.647   2.220  16.573 -0.0829  0.1666  1.0496
  310TMC3    H1 4668   2.009   2.084  16.766  2.3756  2.7453 -1.4065
  310TMC3    H2 4669   2.005   2.145  16.347  1.8403  1.7756  0.1669
  310TMC3    C7 4670   2.123   2.015  16.537  0.0916  0.1392  0.2943
  310TMC3    C8 4671   1.759   2.248  16.335  1.0294 -0.1247 -0.0557
  310TMC3    O1 4672   2.131   1.920  16.616 -0.2953 -0.3974 -0.3112
  310TMC3    O2 4673   1.642   2.213  16.327 -0.1576 -0.1641 -0.1990
  311MPD2     C 4674   3.916   3.290  12.826  0.6095  0.1260  0.5044
  311MPD2    C1 4675   3.881   3.421  12.813 -0.2130  0.4465 -0.5662
  311MPD2    C2 4676   3.752   3.450  12.861 -0.0400  0.3231  0.3554
  311MPD2    C3 4677   3.661   3.345  12.897 -0.0731  0.2246  0.2962
  311MPD2    C4 4678   3.702   3.212  12.893  0.1121  0.6175  0.3376
  311MPD2    C5 4679   3.832   3.191  12.857  0.0375 -0.4074 -0.2844
  311MPD2     H 4680   3.716   3.552  12.850 -4.7400 -1.1335  2.2053
  311MPD2    H1 4681   3.644   3.126  12.924 -0.5689  1.7624  2.2060
  311MPD2    H2 4682   4.013   3.253  12.794 -0.4109 -1.8283 -0.3088
  311MPD2    H3 4683   3.862   3.087  12.867  1.5886  0.1143  0.4782
  311MPD2     N 4684   3.533   3.377  12.950  0.3538  0.2421 -0.2067
  311MPD2    H5 4685   3.481   3.301  12.992 -1.5974  1.4851 -0.3646
  311MPD2    N1 4686   3.977   3.516  12.776 -0.7239  0.5387  0.0346
  311MPD2    H7 4687   3.940   3.610  12.778 -0.7018  0.6184 -2.6631
  312TMC3    C1 4688   3.333   3.490  12.997  0.2439 -1.2613  0.4548
  312TMC3    C2 4689   3.229   3.546  12.931 -0.1041  0.4158  0.7814
  312TMC3    C3 4690   3.102   3.516  12.977  0.8154  0.6677  0.1809
  312TMC3    C4 4691   3.311   3.419  13.114 -0.0784 -0.5786  0.4414
  312TMC3    C5 4692   3.181   3.403  13.162 -0.3885 -0.2589 -0.3446
  312TMC3    C6 4693   3.071   3.439  13.087  0.6113 -0.5869 -0.3068
  312TMC3     C 4694   3.470   3.498  12.933  0.1046  0.0764 -0.1368
  312TMC3     O 4695   3.491   3.610  12.881  0.2612 -0.1531  0.2162
  312TMC3     H 4696   3.240   3.603  12.840  0.5466 -1.5117 -0.3472
  312TMC3    H1 4697   3.395   3.379  13.170  0.5077 -2.2873 -1.6563
  312TMC3    H2 4698   2.968   3.433  13.119  0.0887  0.9104 -1.7199
  312TMC3    C7 4699   3.151   3.333  13.284 -0.0969 -0.5971  0.0242
  312TMC3    C8 4700   2.994   3.544  12.881  0.1411 -0.0370  0.8953
  312TMC3    O1 4701   3.044   3.281  13.285 -0.2940 -0.0490  0.0444
  312TMC3    O2 4702   3.028   3.563  12.763  0.0618 -0.7454  0.1060
  313MPD2     C 4703   3.462   2.674  10.539  0.5226  0.5804 -0.5234
  313MPD2    C1 4704   3.366   2.582  10.573 -0.1174 -0.3662  0.5901
  313MPD2    C2 4705   3.358   2.472  10.500 -0.9454 -0.0400 -0.1143
  313MPD2    C3 4706   3.448   2.447  10.399 -0.8499 -0.3867  0.5549
  313MPD2    C4 4707   3.559   2.528  10.374  0.4593  0.1046 -0.4577
  313MPD2    C5 4708   3.561   2.645  10.447 -0.7382  0.3650  0.2530
  313MPD2     H 4709   3.270   2.412  10.520 -0.1998 -1.2116 -0.2804
  313MPD2    H1 4710   3.627   2.511  10.292  0.7635  1.6458 -0.5339
  313MPD2    H2 4711   3.482   2.762  10.599 -1.2227 -0.5539  1.7489
  313MPD2    H3 4712   3.646   2.712  10.433 -1.1458  1.3890  2.7372
  313MPD2     N 4713   3.418   2.330  10.328  0.7248 -0.1601  0.0975
  313MPD2    H5 4714   3.336   2.279  10.360 -0.3971  1.1974 -0.6170
  313MPD2    N1 4715   3.262   2.600  10.668  0.0914 -0.0931 -0.1742
  313MPD2    H7 4716   3.184   2.535  10.671 -0.0357  0.0788  0.2778
  314TMC3    C1 4717   3.127   2.731  10.825 -0.2526 -0.4358 -0.0557
  314TMC3    C2 4718   3.123   2.834  10.910 -0.5260  0.1584 -0.0216
  314TMC3    C3 4719   2.999   2.903  10.928 -0.0245 -0.4940 -1.0691
  314TMC3    C4 4720   3.017   2.689  10.756 -0.9357 -0.6350  1.0890
  314TMC3    C5 4721   2.900   2.754  10.781  0.0357 -0.4490  0.5966
  314TMC3    C6 4722   2.886   2.862  10.867  0.3429  0.4862  0.0988
  314TMC3     C 4723   3.254   2.715  10.750 -0.1648  0.4188  0.0086
  314TMC3     O 4724   3.331   2.805  10.756 -0.0677  0.2285 -0.0582
  314TMC3     H 4725   3.212   2.873  10.958 -0.3265  0.4922 -0.6606
  314TMC3    H1 4726   3.012   2.607  10.685  1.7215  0.9917 -0.9740
  314TMC3    H2 4727   2.786   2.901  10.885  1.2811  2.2378  1.5644
  314TMC3    C7 4728   2.817   2.766  10.665 -0.0494 -0.3729  0.7834
  314TMC3    C8 4729   2.999   3.040  10.976  0.1394  0.7761 -0.0118
  314TMC3    O1 4730   2.695   2.764  10.684  0.5808 -0.6540 -0.1211
  314TMC3    O2 4731   3.098   3.105  10.951 -0.4014 -0.4680 -0.3346
  315MPD2     C 4732   2.970   2.221  16.927  0.6535 -0.7239  0.1282
  315MPD2    C1 4733   2.913   2.230  17.048 -0.1654  0.4702 -0.4094
  315MPD2    C2 4734   2.900   2.349  17.124 -0.7485  0.1242 -0.1784
  315MPD2    C3 4735   2.938   2.466  17.057  0.8398  0.3647 -0.1088
  315MPD2    C4 4736   2.994   2.463  16.928  0.0890 -0.4874 -0.3873
  315MPD2    C5 4737   3.012   2.342  16.875  0.2165  0.0194 -0.3364
  315MPD2     H 4738   2.862   2.355  17.225  3.0368  1.2578  1.1568
  315MPD2    H1 4739   3.019   2.547  16.865  1.4486  0.2002  1.0592
  315MPD2    H2 4740   2.999   2.130  16.876 -1.6837 -0.2072 -2.0819
  315MPD2    H3 4741   3.058   2.344  16.776  1.9559 -1.3492  0.4343
  315MPD2     N 4742   2.919   2.587  17.122  0.0899 -0.1487  0.2465
  315MPD2    H5 4743   2.874   2.569  17.211 -0.9386 -1.0890 -0.4651
  315MPD2    N1 4744   2.882   2.113  17.124 -0.4899 -0.5273 -0.3520
  315MPD2    H7 4745   2.859   2.126  17.222 -4.0496 -1.1950 -1.1104
  316TMC3    C1 4746   2.957   2.808  17.187  0.0910  0.3304 -0.1693
  316TMC3    C2 4747   2.978   2.770  17.315 -0.0356 -0.3715 -0.0201
  316TMC3    C3 4748   2.976   2.868  17.412 -0.9491  0.3625 -0.3626
  316TMC3    C4 4749   2.939   2.938  17.147 -0.3267 -0.2969  0.1767
  316TMC3    C5 4750   2.937   3.037  17.247  0.2110  0.1612 -0.6081
  316TMC3    C6 4751   2.959   3.003  17.378  0.8341 -0.6740  0.1500
  316TMC3     C 4752   2.965   2.710  17.082  0.0781  0.5405  0.2948
  316TMC3     O 4753   3.016   2.750  16.978  0.3947 -0.3900 -0.3968
  316TMC3     H 4754   2.984   2.664  17.339 -0.7020  0.4164  3.6465
  316TMC3    H1 4755   2.905   2.962  17.047  1.9717  2.9968  0.1925
  316TMC3    H2 4756   2.954   3.085  17.449 -1.2305  1.0956 -2.0112
  316TMC3    C7 4757   2.980   3.175  17.213  0.0121 -0.0234 -0.3224
  316TMC3    C8 4758   2.988   2.839  17.561 -0.3636 -0.6415  0.0472
  316TMC3    O1 4759   2.979   3.256  17.306 -0.6200 -0.7659 -0.1471
  316TMC3    O2 4760   2.947   2.920  17.645 -0.6620 -0.0314  0.3440
  317MPD2     C 4761   4.562   0.882  13.159 -0.8668 -0.1476  0.0301
  317MPD2    C1 4762   4.560   0.769  13.077 -0.6419  0.0994  0.0797
  317MPD2    C2 4763   4.660   0.676  13.104  0.1235 -0.0115 -0.1987
  317MPD2    C3 4764   0.029   0.687  13.208 -0.6157 -0.2128 -0.0927
  317MPD2    C4 4765   0.028   0.799  13.289  0.4828 -0.0334  0.0076
  317MPD2    C5 4766   4.657   0.892  13.261  0.1739 -0.5702  0.4084
  317MPD2     H 4767   4.662   0.579  13.056 -2.8990  0.4208 -1.2163
  317MPD2    H1 4768   0.090   0.823  13.374  2.4463  0.0991 -1.4667
  317MPD2    H2 4769   4.506   0.972  13.139 -0.9630 -0.5755 -1.6124
  317MPD2    H3 4770   4.670   0.984  13.318 -0.0941  0.0313 -0.4938
  317MPD2     N 4771   0.134   0.585  13.212 -0.6658  0.2466 -0.3915
  317MPD2    H5 4772   0.121   0.521  13.134 -0.2056 -0.8724  0.4538
  317MPD2    N1 4773   4.468   0.738  12.972 -0.5601 -0.1387  0.2693
  317MPD2    H7 4774   4.458   0.643  12.937 -1.9139 -0.4987  1.6370
  318TMC3    C1 4775   0.337   0.471  13.269 -0.3052  0.0139 -0.1722
  318TMC3    C2 4776   0.296   0.360  13.203  0.0125 -0.1552  0.5000
  318TMC3    C3 4777   0.387   0.264  13.202  0.4470 -0.0886 -0.2732
  318TMC3    C4 4778   0.454   0.478  13.338  0.1121 -0.4357  0.6610
  318TMC3    C5 4779   0.537   0.371  13.342 -0.4475 -0.7025 -1.2418
  318TMC3    C6 4780   0.502   0.258  13.275 -0.3081  0.4305  0.6842
  318TMC3     C 4781   0.243   0.581  13.304  0.1465 -0.1121  0.5492
  318TMC3     O 4782   0.257   0.652  13.404  0.1559  0.1475  0.0891
  318TMC3     H 4783   0.199   0.345  13.156  0.2839  0.3225 -0.2104
  318TMC3    H1 4784   0.475   0.571  13.390  1.8913 -1.6015  1.9896
  318TMC3    H2 4785   0.564   0.170  13.288 -1.0832 -0.2909 -0.5816
  318TMC3    C7 4786   0.657   0.373  13.417 -0.2391 -0.6588 -0.2743
  318TMC3    C8 4787   0.372   0.151  13.109  0.5659 -0.0739  0.2086
  318TMC3    O1 4788   0.669   0.483  13.469  0.3983  0.0324  0.0543
  318TMC3    O2 4789   0.459   0.065  13.111 -0.4059  0.1357 -0.3146
  319MPD2     C 4790   1.392   1.976  16.468 -0.5221 -0.2840 -0.1104
  319MPD2    C1 4791   1.303   1.968  16.572 -0.0364 -0.6381 -0.7045
  319MPD2    C2 4792   1.170   1.981  16.538 -0.1894 -0.4271 -0.3221
  319MPD2    C3 4793   1.125   2.010  16.414  0.0220 -0.3318  0.3287
  319MPD2    C4 4794   1.220   2.041  16.311 -0.0903  0.3331 -0.0722
  319MPD2    C5 4795   1.350   2.007  16.337 -0.8993 -1.1080 -0.1000
  319MPD2     H 4796   1.097   1.966  16.618  0.0146 -1.3585 -0.3230
  319MPD2    H1 4797   1.187   2.069  16.212 -0.0822  0.4175 -0.0511
  319MPD2    H2 4798   1.498   1.961  16.484 -0.5988  0.5490  1.1715
  319MPD2    H3 4799   1.419   2.012  16.253  1.2580  1.7391  1.8245
  319MPD2     N 4800   0.989   2.010  16.375 -0.2909 -0.3460 -0.2138
  319MPD2    H5 4801   0.974   2.055  16.285 -0.3789 -0.8220 -0.4349
  319MPD2    N1 4802   1.334   1.941  16.705  0.3016  0.1848  0.0879
  319MPD2    H7 4803   1.267   1.973  16.774  1.1921  1.3236  0.4376
  320TMC3    C1 4804   0.756   2.012  16.388 -0.1808  0.2446  0.5838
  320TMC3    C2 4805   0.751   2.102  16.289  0.6448 -0.8796 -0.3175
  320TMC3    C3 4806   0.637   2.157  16.250  0.0461 -0.0853 -0.5530
  320TMC3    C4 4807   0.644   1.972  16.453  1.0407  0.3416 -0.1305
  320TMC3    C5 4808   0.529   2.026  16.407  0.3503 -0.4993  0.0775
  320TMC3    C6 4809   0.524   2.117  16.306  0.4025  0.4418 -0.0449
  320TMC3     C 4810   0.884   1.982  16.457  0.3995  0.3930  0.0574
  320TMC3     O 4811   0.874   1.927  16.566 -0.0488  0.6165 -0.3357
  320TMC3     H 4812   0.829   2.122  16.216  0.6537 -0.6085 -0.2337
  320TMC3    H1 4813   0.659   1.909  16.540  1.0040 -0.2932 -0.5877
  320TMC3    H2 4814   0.430   2.165  16.283  0.6414  0.9620  0.0751
  320TMC3    C7 4815   0.405   1.960  16.443  0.6502 -0.6101  0.0649
  320TMC3    C8 4816   0.614   2.189  16.112  0.3060  1.2053  0.3815
  320TMC3    O1 4817   0.297   1.998  16.398  0.4849  0.5500  0.3529
  320TMC3    O2 4818   0.688   2.146  16.026 -0.1726  0.2935 -0.1925
  321TMC3    C1 4819   1.465   1.878  16.896  0.1936 -0.4969 -0.6465
  321TMC3    C2 4820   1.586   1.862  16.957 -0.1444 -0.2505 -0.3860
  321TMC3    C3 4821   1.592   1.846  17.094  0.7682  0.5800  0.3722
  321TMC3    C4 4822   1.351   1.879  16.969 -0.4699  0.3155  0.0613
  321TMC3    C5 4823   1.363   1.850  17.106 -0.5642  0.4780  0.4540
  321TMC3    C6 4824   1.482   1.850  17.174  0.6953 -0.3159 -0.5017
  321TMC3     C 4825   1.457   1.888  16.747  0.4862 -0.1424 -0.2894
  321TMC3     O 4826   1.563   1.864  16.683 -0.0981 -0.1602  0.0537
  321TMC3     H 4827   1.683   1.854  16.908  0.1787 -0.7863  0.3384
  321TMC3    H1 4828   1.251   1.881  16.927 -0.6005 -0.2021  0.3478
  321TMC3    H2 4829   1.497   1.842  17.281 -1.5113  1.9164 -0.0411
  321TMC3    C7 4830   1.258   1.760  17.154  0.2683 -0.2330 -0.4088
  321TMC3    C8 4831   1.674   1.734  17.139 -0.0975 -0.3409  0.0804
  321TMC3    O1 4832   1.167   1.731  17.078  0.1331 -0.6757 -0.3243
  321TMC3    O2 4833   1.638   1.689  17.245 -0.8541  0.5240 -0.5318
  322MPD2     C 4834   4.649   3.523  13.715  1.0397  0.8631  0.1601
  322MPD2    C1 4835   0.002   3.461  13.805  0.3275 -0.0674 -0.8901
  322MPD2    C2 4836   0.051   3.330  13.791 -0.3174 -0.1543  0.8691
  322MPD2    C3 4837   0.024   3.264  13.676  0.1314 -0.2840 -1.2958
  322MPD2    C4 4838   4.667   3.327  13.577 -0.0453  0.2144 -0.1897
  322MPD2    C5 4839   4.613   3.450  13.600 -0.3915 -0.3688 -0.0894
  322MPD2     H 4840   0.111   3.274  13.861 -0.1106  1.2071  1.7806
  322MPD2    H1 4841   4.625   3.283  13.488  2.0525  0.4092 -1.2585
  322MPD2    H2 4842   4.605   3.622  13.728  0.8361  0.9293 -1.0049
  322MPD2    H3 4843   4.554   3.482  13.514 -2.0338 -1.8069  0.5107
  322MPD2     N 4844   0.063   3.130  13.670 -0.2697 -0.1631 -0.0401
  322MPD2    H5 4845   0.114   3.091  13.748  0.8349  1.0010 -0.1801
  322MPD2    N1 4846   0.026   3.533  13.927  0.2829 -0.4498  0.6672
  322MPD2    H7 4847   0.013   3.634  13.929  0.1451 -0.4638  0.4809
  323TMC3    C1 4848   0.085   3.596  14.139 -0.6832  1.0027 -0.5707
  323TMC3    C2 4849   0.195   3.669  14.110 -0.3428  0.4923 -0.2594
  323TMC3    C3 4850   0.275   3.711  14.218 -0.0754 -0.2030  0.5220
  323TMC3    C4 4851   0.052   3.567  14.262  0.2765  0.0457 -0.2673
  323TMC3    C5 4852   0.121   3.615  14.370  0.2492  0.4685  0.1982
  323TMC3    C6 4853   0.232   3.687  14.345 -0.4717  0.6014  0.2506
  323TMC3     C 4854   0.057   3.485  14.047  0.1031  0.5239  0.4641
  323TMC3     O 4855   0.052   3.371  14.095  0.1423 -0.2729  0.3731
  323TMC3     H 4856   0.229   3.677  14.008 -0.2775  0.4880 -0.2383
  323TMC3    H1 4857   4.696   3.498  14.280 -0.0911 -0.1677 -2.6933
  323TMC3    H2 4858   0.302   3.714  14.423  0.7956 -0.0647 -0.6516
  323TMC3    C7 4859   0.141   3.508  14.462 -0.1694  1.0794 -0.5695
  323TMC3    C8 4860   0.414   3.679  14.189 -0.1028  1.0196 -0.0744
  323TMC3    O1 4861   0.137   3.392  14.422  0.2071  0.4121  0.0340
  323TMC3    O2 4862   0.471   3.611  14.275  0.2425 -0.4704  0.1036
  324MPD2     C 4863   2.339   0.118  14.029  0.3969 -0.8465  0.4235
  324MPD2    C1 4864   2.307   0.041  14.143  0.5353 -0.2143  0.1092
  324MPD2    C2 4865   2.182   4.722  14.171  0.4127  0.3226 -0.0812
  324MPD2    C3 4866   2.075   0.046  14.096  0.1625 -0.9754  0.8584
  324MPD2    C4 4867   2.105   0.119  13.987  0.4924 -0.1549 -0.6203
  324MPD2    C5 4868   2.230   0.147  13.954 -0.0590  0.5794  0.2735
  324MPD2     H 4869   2.162   4.666  14.261  0.1507  0.6294  0.0490
  324MPD2    H1 4870   2.025   0.139  13.917 -1.0632  0.1258  1.2498
  324MPD2    H2 4871   2.436   0.163  14.010 -1.1851  1.5656 -1.8860
  324MPD2    H3 4872   2.245   0.211  13.868 -1.3966  0.3321 -0.1557
  324MPD2     N 4873   1.940   0.009  14.124 -0.5801  0.8204  0.2076
  324MPD2    H5 4874   1.868   0.060  14.074  0.6506  1.9092 -0.4556
  324MPD2    N1 4875   2.409   0.016  14.237 -0.0334 -0.0346 -0.4721
  324MPD2    H7 4876   2.387   4.668  14.305 -1.1106  0.9048  0.1994
  325TMC3    C1 4877   1.764   4.618  14.237  0.0055 -0.2089 -0.5175
  325TMC3    C2 4878   1.713   4.496  14.268  1.1768  0.4369 -0.2991
  325TMC3    C3 4879   1.575   4.488  14.278 -0.3279 -1.1030  0.6370
  325TMC3    C4 4880   1.686   0.009  14.247  0.9838 -0.3924  0.6009
  325TMC3    C5 4881   1.551   4.722  14.261 -0.5150  0.3669 -0.2433
  325TMC3    C6 4882   1.487   4.598  14.268 -0.2169 -0.2630 -0.3221
  325TMC3     C 4883   1.906   4.631  14.205 -1.0041 -0.1403 -0.0798
  325TMC3     O 4884   1.977   4.540  14.246 -0.3091  0.0249 -1.0080
  325TMC3     H 4885   1.781   4.412  14.272  1.6844  0.7874 -1.4424
  325TMC3    H1 4886   1.730   0.108  14.236  1.7770 -0.4579  3.2887
  325TMC3    H2 4887   1.381   4.587  14.247  0.2660 -2.4380 -1.6884
  325TMC3    C7 4888   1.475   0.115  14.222 -0.9302  0.2764  0.3175
  325TMC3    C8 4889   1.520   4.357  14.296  0.1941  1.4526 -0.4895
  325TMC3    O1 4890   1.532   0.183  14.139 -0.5782 -0.1201  0.2679
  325TMC3    O2 4891   1.606   4.268  14.308 -0.3750 -0.5842 -0.1685
  326MPD2     C 4892   2.779   0.683  10.873 -0.5113  0.0538 -0.2717
  326MPD2    C1 4893   2.742   0.718  10.744  0.6210 -0.3510  0.4969
  326MPD2    C2 4894   2.809   0.815  10.677  0.7661  0.5149 -0.5633
  326MPD2    C3 4895   2.927   0.867  10.724  0.5708  0.3835  0.7451
  326MPD2    C4 4896   2.960   0.850  10.855  0.1394  0.1296  0.0620
  326MPD2    C5 4897   2.887   0.752  10.926  0.1130  0.5306  0.4419
  326MPD2     H 4898   2.769   0.837  10.579  0.3135 -0.1089 -0.5158
  326MPD2    H1 4899   3.050   0.898  10.890 -0.5044  0.2191  1.6142
  326MPD2    H2 4900   2.720   0.613  10.930  0.5944 -1.8199 -1.4124
  326MPD2    H3 4901   2.921   0.740  11.029  0.5477 -3.1603 -0.1692
  326MPD2     N 4902   3.011   0.955  10.648 -0.0836 -0.1325  0.9874
  326MPD2    H5 4903   3.101   0.980  10.689 -0.2245  1.0261  0.5956
  326MPD2    N1 4904   2.632   0.657  10.675  0.7740 -0.5391  0.2119
  326MPD2    H7 4905   2.588   0.704  10.597  0.9823  2.1267  1.7204
  327TMC3    C1 4906   2.525   0.461  10.583  0.6511 -0.1803 -0.0649
  327TMC3    C2 4907   2.445   0.538  10.516 -0.0014 -0.0376 -0.1967
  327TMC3    C3 4908   2.433   0.512  10.377 -0.1314 -0.6893  0.6280
  327TMC3    C4 4909   2.575   0.346  10.530 -0.2573 -0.4551 -0.1126
  327TMC3    C5 4910   2.585   0.335  10.392  0.4641 -0.4052 -0.1540
  327TMC3    C6 4911   2.492   0.402  10.320 -0.8230  0.5033  0.5619
  327TMC3     C 4912   2.598   0.519  10.698  0.6388  0.1965 -0.0541
  327TMC3     O 4913   2.656   0.437  10.771 -0.1358  0.6103 -0.3461
  327TMC3     H 4914   2.420   0.637  10.552 -1.2501 -0.1005 -0.8803
  327TMC3    H1 4915   2.652   0.293  10.585 -0.7141 -1.4285 -0.4131
  327TMC3    H2 4916   2.491   0.396  10.212  1.9247 -0.3647  0.5824
  327TMC3    C7 4917   2.720   0.332  10.333 -0.4790 -0.4083 -0.0037
  327TMC3    C8 4918   2.399   0.626  10.287 -0.2061  0.0173 -0.2626
  327TMC3    O1 4919   2.727   0.378  10.219 -0.0228  0.2828  0.3380
  327TMC3    O2 4920   2.474   0.640  10.193  0.2096 -0.4369  0.1414
  328MPD2     C 4921   0.270   4.587  17.125 -0.1587  0.7569  0.1637
  328MPD2    C1 4922   0.224   4.499  17.222 -0.2597  0.1197 -0.0642
  328MPD2    C2 4923   0.101   4.533  17.289 -0.0331  0.2292 -0.3657
  328MPD2    C3 4924   0.037   4.653  17.262 -0.0911 -0.0303 -0.5094
  328MPD2    C4 4925   0.096   0.016  17.178  0.3936  0.5599 -0.1947
  328MPD2    C5 4926   0.206   4.699  17.103 -0.7195  1.3108 -0.1397
  328MPD2     H 4927   0.067   4.470  17.371  3.4032  0.1467  1.0111
  328MPD2    H1 4928   0.048   0.109  17.148 -1.8140  0.1234  1.9527
  328MPD2    H2 4929   0.363   4.567  17.073  1.2797 -0.6918  3.2792
  328MPD2    H3 4930   0.256   0.040  17.034 -1.2565  0.9369 -0.8861
  328MPD2     N 4931   4.641   4.688  17.322 -0.5140  0.2714  0.2956
  328MPD2    H5 4932   4.617   0.057  17.295  1.5934 -0.0279 -2.6532
  328MPD2    N1 4933   0.294   4.386  17.267  0.4574  0.0550 -0.0852
  328MPD2    H7 4934   0.272   4.368  17.365 -1.1870 -1.9014 -0.8132
  329TMC3    C1 4935   0.438   4.201  17.258  0.2916  0.0590  0.3598
  329TMC3    C2 4936   0.433   4.186  17.393 -0.1341  0.3153 -0.4999
  329TMC3    C3 4937   0.450   4.060  17.443  0.0847 -0.0857 -0.4497
  329TMC3    C4 4938   0.476   4.103  17.178  0.0525 -0.5184  0.2776
  329TMC3    C5 4939   0.501   3.979  17.232 -0.3374  0.3896 -0.6272
  329TMC3    C6 4940   0.485   3.959  17.365 -0.6188 -0.3330  0.5155
  329TMC3     C 4941   0.399   4.326  17.200 -0.1422  0.5383 -1.0017
  329TMC3     O 4942   0.435   4.349  17.085 -0.3828 -0.1143 -0.2355
  329TMC3     H 4943   0.418   4.276  17.452  0.6648 -0.3415  0.7159
  329TMC3    H1 4944   0.494   4.117  17.072 -2.2817 -3.9492 -0.5628
  329TMC3    H2 4945   0.498   3.861  17.410 -0.0293  0.6196  2.4279
  329TMC3    C7 4946   0.550   3.875  17.150 -0.0597  0.1570 -0.0992
  329TMC3    C8 4947   0.443   4.036  17.590 -0.0305 -0.0622 -0.8255
  329TMC3    O1 4948   0.530   3.898  17.033 -0.2634 -0.1105  0.4062
  329TMC3    O2 4949   0.468   3.926  17.638  0.0719 -0.0999  0.0138
  330TMC3    C1 4950   2.132   4.489   9.839  0.3808 -0.5954  0.2821
  330TMC3    C2 4951   2.139   4.467   9.704  0.0208 -0.8984  0.2255
  330TMC3    C3 4952   2.261   4.453   9.637  0.2811  0.1524 -0.4947
  330TMC3    C4 4953   2.252   4.493   9.908 -0.6842  0.2223  0.0950
  330TMC3    C5 4954   2.370   4.499   9.838 -0.2074 -0.4450  0.6716
  330TMC3    C6 4955   2.382   4.466   9.708  0.8055  0.2507 -0.1991
  330TMC3     C 4956   2.006   4.480   9.914 -0.2241  0.5751 -0.4162
  330TMC3     O 4957   2.017   4.435  10.024  0.2483 -0.6479  0.2904
  330TMC3     H 4958   2.048   4.439   9.652  0.8402  0.9944 -2.1941
  330TMC3    H1 4959   2.254   4.503  10.016  0.4477 -1.7746  0.2562
  330TMC3    H2 4960   2.478   4.480   9.661  1.4741 -0.2334  1.0309
  330TMC3    C7 4961   2.487   4.512   9.924  0.7701 -0.4787 -0.1112
  330TMC3    C8 4962   2.265   4.415   9.501  0.5051  0.0459  0.2789
  330TMC3    O1 4963   2.477   4.579  10.024  0.4451 -0.6423  0.3323
  330TMC3    O2 4964   2.168   4.437   9.430  0.2176 -0.0603  0.3958
  331MPD2     C 4965   0.712   3.648  12.538 -0.0131  0.0030  0.1610
  331MPD2    C1 4966   0.805   3.702  12.458 -0.6490 -0.1740  0.8067
  331MPD2    C2 4967   0.915   3.627  12.420 -1.1216  0.0334 -0.5086
  331MPD2    C3 4968   0.914   3.492  12.442 -0.3665 -0.1758  0.4479
  331MPD2    C4 4969   0.811   3.434  12.517 -0.2596  0.3017 -0.0012
  331MPD2    C5 4970   0.710   3.515  12.563  0.2781  0.3150  0.5008
  331MPD2     H 4971   1.005   3.672  12.379 -0.8780 -0.5797 -0.6433
  331MPD2    H1 4972   0.817   3.332  12.554  0.2613 -0.0726 -1.1225
  331MPD2    H2 4973   0.625   3.707  12.563  0.8814  0.4871  2.1625
  331MPD2    H3 4974   0.639   3.465  12.628 -0.6186  3.1337  1.6924
  331MPD2     N 4975   1.024   3.425  12.379 -0.1954  0.1881 -0.4313
  331MPD2    H5 4976   1.090   3.475  12.321  0.5808 -0.2723  0.0577
  331MPD2    N1 4977   0.810   3.835  12.420  0.4671  0.4222  0.3752
  331MPD2    H7 4978   0.893   3.862  12.367 -0.5024  0.8971 -0.8845
  332TMC3    C1 4979   1.133   3.254  12.284 -0.1191 -0.3756 -0.1617
  332TMC3    C2 4980   1.183   3.356  12.206  0.8579  0.2903  0.2283
  332TMC3    C3 4981   1.305   3.343  12.162  1.1753 -0.0535 -0.3060
  332TMC3    C4 4982   1.202   3.145  12.324  0.0136 -1.0951  0.2749
  332TMC3    C5 4983   1.333   3.139  12.277  0.5368 -0.1616  0.5831
  332TMC3    C6 4984   1.388   3.238  12.204  0.1691  0.2420  0.8719
  332TMC3     C 4985   1.021   3.288  12.365  0.1756  0.0712 -0.0557
  332TMC3     O 4986   0.948   3.200  12.406  0.2153 -0.4542 -0.6226
  332TMC3     H 4987   1.111   3.423  12.162 -0.1025 -1.0981 -0.3365
  332TMC3    H1 4988   1.157   3.074  12.393 -1.1515 -2.1122 -1.5307
  332TMC3    H2 4989   1.489   3.227  12.165 -0.1543  2.4209 -0.6265
  332TMC3    C7 4990   1.413   3.035  12.332 -0.4770  0.2793 -0.4080
  332TMC3    C8 4991   1.356   3.450  12.074 -0.4692 -0.9446  0.8025
  332TMC3    O1 4992   1.352   2.934  12.346  0.1979  1.2715  0.4415
  332TMC3    O2 4993   1.304   3.562  12.094 -0.0100 -0.0050 -0.3692
  333MPD2     C 4994   1.235   3.485  10.915  0.4229  0.3101  0.1111
  333MPD2    C1 4995   1.255   3.404  10.812 -0.0757  0.6674 -0.0992
  333MPD2    C2 4996   1.232   3.261  10.829 -0.1579 -0.8332  0.0706
  333MPD2    C3 4997   1.195   3.211  10.950  0.5433 -0.2084  0.4025
  333MPD2    C4 4998   1.157   3.301  11.045 -0.0586  0.3743 -1.1867
  333MPD2    C5 4999   1.180   3.432  11.026 -0.5219 -0.4612 -0.0327
  333MPD2     H 5000   1.243   3.192  10.746  1.0997 -1.9442  1.1691
  333MPD2    H1 5001   1.117   3.270  11.141  1.9898 -0.5252 -0.6214
  333MPD2    H2 5002   1.251   3.592  10.907 -0.8523  0.4015 -1.0621
  333MPD2    H3 5003   1.151   3.505  11.100 -0.2092  0.8251 -1.1787
  333MPD2     N 5004   1.173   3.073  10.946 -0.2911  0.1798  0.2284
  333MPD2    H5 5005   1.190   3.018  10.863 -0.7892  1.0836 -0.4730
  333MPD2    N1 5006   1.309   3.468  10.705 -0.0374  0.0842  0.2913
  333MPD2    H7 5007   1.341   3.562  10.726 -2.1713  0.9946 -0.4922
  334TMC3    C1 5008   1.369   3.511  10.473  0.4656  0.2747  0.2789
  334TMC3    C2 5009   1.455   3.472  10.377  0.1208  0.3118  0.2577
  334TMC3    C3 5010   1.523   3.565  10.300  0.7863 -0.2793  0.1902
  334TMC3    C4 5011   1.334   3.640  10.492 -0.3560 -0.4695  0.1046
  334TMC3    C5 5012   1.401   3.731  10.414 -0.4555  0.0137 -0.2810
  334TMC3    C6 5013   1.501   3.697  10.337 -1.0196  0.0649 -0.7275
  334TMC3     C 5014   1.333   3.415  10.579  0.6294  0.2990  0.2688
  334TMC3     O 5015   1.320   3.298  10.543 -0.0422  0.0315  0.2139
  334TMC3     H 5016   1.484   3.368  10.371  1.4738  0.7292 -0.6020
  334TMC3    H1 5017   1.249   3.667  10.554 -1.2940  0.9836 -1.8307
  334TMC3    H2 5018   1.549   3.774  10.278 -0.4680 -0.3948 -0.8719
  334TMC3    C7 5019   1.408   3.864  10.459 -0.0226  0.3132  0.2296
  334TMC3    C8 5020   1.657   3.529  10.254 -0.7108 -0.4942 -0.4702
  334TMC3    O1 5021   1.518   3.911  10.482  0.3298 -0.3445 -0.1002
  334TMC3    O2 5022   1.671   3.429  10.179 -1.1548 -0.2153  0.2578
  335TMC3    C1 5023   0.928   0.389  16.656 -0.2532 -0.3817  0.1084
  335TMC3    C2 5024   0.856   0.273  16.628 -0.1469  0.7808  0.2529
  335TMC3    C3 5025   0.920   0.153  16.644  0.6517 -0.6555  0.1948
  335TMC3    C4 5026   1.053   0.385  16.712  0.4844 -0.0401  0.1448
  335TMC3    C5 5027   1.109   0.263  16.729 -0.2641  0.1826 -0.0914
  335TMC3    C6 5028   1.046   0.146  16.695 -0.7950  0.5826  0.6829
  335TMC3     C 5029   0.846   0.500  16.711  0.2533 -0.0490  0.6703
  335TMC3     O 5030   0.885   0.615  16.698 -0.0540 -0.1252 -0.5090
  335TMC3     H 5031   0.757   0.280  16.584 -1.0614 -0.0036  2.1906
  335TMC3    H1 5032   1.104   0.477  16.738  0.7975 -0.2707  0.3458
  335TMC3    H2 5033   1.091   0.053  16.725  0.3553  0.7209 -0.6135
  335TMC3    C7 5034   1.223   0.252  16.824  0.3451  0.5957 -0.2681
  335TMC3    C8 5035   0.830   0.041  16.621  0.3945  0.4721  0.0810
  335TMC3    O1 5036   1.233   0.155  16.896 -0.1350 -0.3902 -0.3420
  335TMC3    O2 5037   0.732   0.050  16.546  0.0802 -0.4028  0.2640
  336MPD2     C 5038   0.804   3.158  15.861 -0.5812 -0.0357  0.3058
  336MPD2    C1 5039   0.710   3.129  15.964  0.9550  0.4724  0.2780
  336MPD2    C2 5040   0.704   3.001  16.019 -0.0456  0.4506  0.0408
  336MPD2    C3 5041   0.790   2.906  15.968  0.1917 -0.0843 -0.6415
  336MPD2    C4 5042   0.876   2.935  15.864 -0.1937  0.2076  1.3512
  336MPD2    C5 5043   0.882   3.059  15.810 -0.3248  0.5369 -0.4114
  336MPD2     H 5044   0.637   2.976  16.100  1.0695 -0.3094  0.7394
  336MPD2    H1 5045   0.938   2.854  15.827 -0.3452  0.7549 -0.1089
  336MPD2    H2 5046   0.813   3.255  15.815  0.8691 -0.0641  0.5396
  336MPD2    H3 5047   0.953   3.072  15.730  1.0154  1.3738  0.9277
  336MPD2     N 5048   0.786   2.769  16.009 -0.5664  0.1838  0.1039
  336MPD2    H5 5049   0.861   2.708  15.979 -0.4668  1.4572 -2.2538
  336MPD2    N1 5050   0.609   3.226  16.002 -0.1509  0.2899  0.9004
  336MPD2    H7 5051   0.541   3.192  16.069 -1.4487  1.9667  0.4325
  337TMC3    C1 5052   0.441   3.389  15.979 -0.5985  0.3506  1.0420
  337TMC3    C2 5053   0.366   3.454  15.886  0.1725  0.6024 -0.4574
  337TMC3    C3 5054   0.234   3.496  15.921  0.4928 -0.1073  0.9492
  337TMC3    C4 5055   0.401   3.371  16.108 -0.4679  0.1251 -0.6275
  337TMC3    C5 5056   0.273   3.416  16.140 -0.1260  0.8135  0.0232
  337TMC3    C6 5057   0.187   3.470  16.047  0.4824 -0.0021 -0.6405
  337TMC3     C 5058   0.566   3.330  15.928 -0.0322 -0.8491 -0.7760
  337TMC3     O 5059   0.596   3.366  15.818 -1.0220 -0.5388  0.7989
  337TMC3     H 5060   0.401   3.467  15.785  0.1261  1.9985 -0.2887
  337TMC3    H1 5061   0.463   3.327  16.186  0.8231  0.4983 -1.4416
  337TMC3    H2 5062   0.095   3.515  16.081 -0.0445 -1.2465 -0.4099
  337TMC3    C7 5063   0.235   3.406  16.279  0.3247  0.7414 -0.0618
  337TMC3    C8 5064   0.145   3.518  15.812  0.2144 -0.8365  0.8193
  337TMC3    O1 5065   0.310   3.346  16.351 -0.1041 -0.0325  0.4048
  337TMC3    O2 5066   0.195   3.575  15.717 -0.6374 -0.4004  0.2248
  338MPD2     C 5067   0.630   2.144   0.693  0.1163  0.0479  0.2394
  338MPD2    C1 5068   0.694   2.169   0.575 -0.0951  0.1726  0.4201
  338MPD2    C2 5069   0.667   2.284   0.513 -0.1721 -0.1480  0.1356
  338MPD2    C3 5070   0.567   2.367   0.556 -0.1237  0.2340 -0.1134
  338MPD2    C4 5071   0.510   2.348   0.678  0.7085  0.3913  0.9810
  338MPD2    C5 5072   0.545   2.232   0.749  0.1477  0.5679  0.0249
  338MPD2     H 5073   0.723   2.300   0.421 -0.1495 -0.0823  0.1608
  338MPD2    H1 5074   0.431   2.411   0.717 -0.0634  0.7520 -1.1920
  338MPD2    H2 5075   0.641   2.058   0.757  0.7974  0.9272  1.3060
  338MPD2    H3 5076   0.491   2.209   0.841 -0.6273 -2.2511 -1.1585
  338MPD2     N 5077   0.528   2.473   0.477 -0.5581  0.7602 -0.7908
  338MPD2    H5 5078   0.561   2.479   0.381  0.1512  0.2032 -0.5786
  338MPD2    N1 5079   0.779   2.072   0.518  0.2926 -0.3282 -0.3401
  338MPD2    H7 5080   0.817   2.096   0.427 -1.6793 -0.9631 -1.3095
  339TMC3    C1 5081   0.384   2.620   0.383  0.0777 -0.1849 -0.8591
  339TMC3    C2 5082   0.302   2.525   0.333 -0.2309  0.7839 -0.2711
  339TMC3    C3 5083   0.315   2.457   0.209 -0.3690 -0.4428 -0.6079
  339TMC3    C4 5084   0.486   2.652   0.303  0.2020 -0.7367 -0.5276
  339TMC3    C5 5085   0.506   2.594   0.184 -0.2048  0.5416 -0.1489
  339TMC3    C6 5086   0.418   2.500   0.137 -0.3155  0.2336 -0.0676
  339TMC3     C 5087   0.437   2.572   0.509  0.1690 -1.0634 -0.1715
  339TMC3     O 5088   0.356   2.586   0.602  0.0078  0.5656  0.2029
  339TMC3     H 5089   0.222   2.491   0.397  2.3864 -1.6612  1.7071
  339TMC3    H1 5090   0.548   2.732   0.342 -0.5968 -0.4053  0.0500
  339TMC3    H2 5091   0.440   2.452   0.042  0.5830 -0.8371  0.6837
  339TMC3    C7 5092   0.644   2.565   0.163 -0.7350  0.0934  0.2631
  339TMC3    C8 5093   0.315   2.315   0.212  0.2243  0.0581  0.2820
  339TMC3    O1 5094   0.722   2.643   0.209 -0.0058 -0.9790  0.4631
  339TMC3    O2 5095   0.374   2.261   0.115 -0.1361 -0.4838  0.5551
  340MPD2     C 5096   0.411   4.485   9.598 -0.3925 -0.4222  0.1280
  340MPD2    C1 5097   0.544   4.449   9.588  0.7575 -0.4280  0.6712
  340MPD2    C2 5098   0.632   4.521   9.665 -0.4253  0.3678 -0.0070
  340MPD2    C3 5099   0.592   4.625   9.745 -0.3210 -0.1433  0.7132
  340MPD2    C4 5100   0.461   4.673   9.727 -0.4673 -0.0641  0.1584
  340MPD2    C5 5101   0.377   4.599   9.660  1.0397 -0.5135 -0.5636
  340MPD2     H 5102   0.735   4.489   9.668 -0.6508 -0.3301  0.2537
  340MPD2    H1 5103   0.421   0.034   9.779  0.5534 -0.3680  1.4577
  340MPD2    H2 5104   0.338   4.423   9.548  0.2671 -0.5068 -0.7405
  340MPD2    H3 5105   0.276   4.636   9.649  2.0053  1.7454 -1.8060
  340MPD2     N 5106   0.688   4.694   9.827  0.2514  0.4502 -0.0001
  340MPD2    H5 5107   0.682   0.066   9.855  2.0057  0.3449  0.7001
  340MPD2    N1 5108   0.576   4.327   9.523 -0.3076  0.1988  0.1542
  340MPD2    H7 5109   0.499   4.271   9.488  0.8465  1.3574 -4.2858
  341TMC3    C1 5110   0.712   4.141   9.459  0.5083  0.4925 -0.0284
  341TMC3    C2 5111   0.628   4.041   9.496  0.2169  0.3000 -0.2820
  341TMC3    C3 5112   0.671   3.912   9.473  0.8019 -0.6719 -0.8255
  341TMC3    C4 5113   0.843   4.111   9.412  0.6841 -0.3131  0.0429
  341TMC3    C5 5114   0.880   3.983   9.394  0.4725  0.2365  0.3776
  341TMC3    C6 5115   0.794   3.878   9.419  0.4325  0.3468 -0.6614
  341TMC3     C 5116   0.704   4.273   9.518 -0.6945  0.1159 -0.2917
  341TMC3     O 5117   0.807   4.337   9.531  0.6590 -0.0418 -0.1135
  341TMC3     H 5118   0.530   4.066   9.534  0.5511 -1.6997  1.8895
  341TMC3    H1 5119   0.912   4.184   9.372  2.0538 -1.0826  0.9940
  341TMC3    H2 5120   0.814   3.771   9.420 -0.0034  0.2827  0.7904
  341TMC3    C7 5121   1.027   3.960   9.358 -0.0291  0.5527  0.2037
  341TMC3    C8 5122   0.569   3.809   9.500  0.3102 -0.2121 -0.2598
  341TMC3    O1 5123   1.098   4.060   9.362  0.3557  0.1345 -0.6535
  341TMC3    O2 5124   0.494   3.826   9.593 -0.5078 -0.5414  0.2575
  342MPD2     C 5125   3.476   3.482   0.016 -0.3233  0.0332 -0.2266
  342MPD2    C1 5126   3.615   3.482  17.703 -0.3063  1.0655 -0.3720
  342MPD2    C2 5127   3.693   3.592   0.023 -0.3574 -0.1214  0.1906
  342MPD2    C3 5128   3.631   3.703   0.071 -0.1657 -0.8246  1.2733
  342MPD2    C4 5129   3.494   3.704   0.085  0.5349  0.3566 -0.0292
  342MPD2    C5 5130   3.418   3.595   0.059  0.4930  0.6297 -0.2749
  342MPD2     H 5131   3.799   3.574   0.007 -0.1703 -0.5161  1.8807
  342MPD2    H1 5132   3.431   3.786   0.116  1.9514  0.9825  1.1919
  342MPD2    H2 5133   3.419   3.392  17.696 -1.8190  1.3514 -1.7063
  342MPD2    H3 5134   3.311   3.601   0.075  0.8539 -2.3823  3.3804
  342MPD2     N 5135   3.698   3.821   0.100 -0.0055  0.4228  0.5127
  342MPD2    H5 5136   3.645   3.899   0.138 -1.1522  0.3546 -0.9285
  342MPD2    N1 5137   3.685   3.374  17.655  0.2261  0.2379 -0.0210
  342MPD2    H7 5138   3.784   3.380  17.633  0.2104  1.1852  0.1727
  343TMC3    C1 5139   3.710   3.160  17.561 -0.7360 -0.1719  0.3935
  343TMC3    C2 5140   3.814   3.214  17.493  0.4017 -0.1383  0.0348
  343TMC3    C3 5141   3.895   3.128  17.420 -0.2618  0.0984 -0.2948
  343TMC3    C4 5142   3.661   3.034  17.541  0.3198  1.1252  0.0218
  343TMC3    C5 5143   3.743   2.955  17.464 -0.2758 -0.5672  0.4413
  343TMC3    C6 5144   3.849   3.001  17.394  0.5467 -0.1359 -0.4061
  343TMC3     C 5145   3.622   3.252  17.632  0.3199 -0.7102 -0.0775
  343TMC3     O 5146   3.534   3.196  17.690 -0.2818  0.2780 -0.5700
  343TMC3     H 5147   3.854   3.313  17.510 -0.6190  0.7121 -2.6485
  343TMC3    H1 5148   3.572   2.991  17.585 -0.1770  1.2691 -0.8463
  343TMC3    H2 5149   3.914   2.932  17.341  1.5019  0.4635  0.0125
  343TMC3    C7 5150   3.704   2.814  17.446 -0.1182  0.7857  0.5612
  343TMC3    C8 5151   4.040   3.152  17.419 -0.2747  0.5481 -0.5431
  343TMC3    O1 5152   3.738   2.770  17.333  0.1918 -0.3066  0.5875
  343TMC3    O2 5153   4.080   3.229  17.506 -0.2634 -0.0852  0.1182
  344MPD2     C 5154   0.532   2.902  10.995 -0.4311 -1.0300 -0.5490
  344MPD2    C1 5155   0.403   2.894  10.956 -0.4018 -0.5488  0.3698
  344MPD2    C2 5156   0.354   2.979  10.857 -0.5411  0.1732 -0.3425
  344MPD2    C3 5157   0.433   3.071  10.794 -0.0060 -0.2739  0.5943
  344MPD2    C4 5158   0.567   3.068  10.830  0.6208 -0.8988  0.3905
  344MPD2    C5 5159   0.614   2.995  10.934  0.0230 -0.4896 -0.2204
  344MPD2     H 5160   0.248   2.976  10.832 -1.1800  3.3575  2.0052
  344MPD2    H1 5161   0.640   3.117  10.766 -1.3574  0.1119 -1.0811
  344MPD2    H2 5162   0.573   2.833  11.068  1.0559  0.7349  0.2649
  344MPD2    H3 5163   0.715   2.986  10.973  1.1051  0.3069 -2.8729
  344MPD2     N 5164   0.392   3.149  10.686  0.4136 -0.5744 -0.3626
  344MPD2    H5 5165   0.457   3.220  10.654  0.1873 -0.7944 -1.2973
  344MPD2    N1 5166   0.317   2.800  11.015 -0.0082 -0.2471 -0.0117
  344MPD2    H7 5167   0.235   2.763  10.968  0.3732  1.1224 -1.7692
  345TMC3    C1 5168   0.267   3.268  10.545 -0.5488 -1.0272  0.4301
  345TMC3    C2 5169   0.323   3.384  10.600 -0.3532 -1.2490 -0.4808
  345TMC3    C3 5170   0.377   3.474  10.509 -0.3521  0.0967 -0.1910
  345TMC3    C4 5171   0.263   3.244  10.408  0.0822 -0.8471  0.0277
  345TMC3    C5 5172   0.333   3.333  10.328 -0.0911  0.0157 -0.2435
  345TMC3    C6 5173   0.370   3.451  10.380 -0.3868 -0.2379  0.7470
  345TMC3     C 5174   0.276   3.147  10.623  0.6847  0.5484 -0.8043
  345TMC3     O 5175   0.184   3.063  10.620  0.0905 -0.2184 -0.3170
  345TMC3     H 5176   0.324   3.391  10.708  0.3319  3.3124 -0.7953
  345TMC3    H1 5177   0.218   3.149  10.378  1.1948 -1.2884 -0.2466
  345TMC3    H2 5178   0.418   3.519  10.311 -0.6840  0.9262  1.6734
  345TMC3    C7 5179   0.298   3.351  10.194 -1.0943 -0.8796 -0.7438
  345TMC3    C8 5180   0.364   3.619  10.534  0.5709  0.1615  0.0508
  345TMC3    O1 5181   0.293   3.466  10.148 -0.5858 -0.6905 -0.0619
  345TMC3    O2 5182   0.361   3.696  10.440  0.0330 -0.1172  0.0244
  346MPD2     C 5183   0.562   4.157  13.829  0.0254 -0.0027 -0.1084
  346MPD2    C1 5184   0.533   4.275  13.762  0.6552  0.2919  0.0445
  346MPD2    C2 5185   0.524   4.394  13.829 -1.0942 -0.0136  0.1730
  346MPD2    C3 5186   0.536   4.391  13.964  0.7021 -0.2114 -0.4476
  346MPD2    C4 5187   0.552   4.270  14.033 -0.0884  0.2605  0.0246
  346MPD2    C5 5188   0.576   4.151  13.963  0.0605 -0.0055 -0.1197
  346MPD2     H 5189   0.505   4.489  13.779 -1.3846  0.3935  1.0538
  346MPD2    H1 5190   0.548   4.268  14.142 -0.0434  0.3099  0.0268
  346MPD2    H2 5191   0.575   4.065  13.773 -1.3376  0.3678 -1.0147
  346MPD2    H3 5192   0.592   4.058  14.017 -4.7628 -0.8304 -0.0896
  346MPD2     N 5193   0.520   4.517  14.028 -0.0435 -0.2159 -0.2381
  346MPD2    H5 5194   0.499   4.594  13.966 -0.4182  0.9299  1.3296
  346MPD2    N1 5195   0.519   4.292  13.623  0.0403 -0.1375 -0.3649
  346MPD2    H7 5196   0.496   4.388  13.597 -0.7441 -0.3776 -0.5543
  347TMC3    C1 5197   0.553   4.671  14.196  0.4792  0.0772 -0.0777
  347TMC3    C2 5198   0.647   4.712  14.281 -0.1157  1.0972  0.3192
  347TMC3    C3 5199   0.668   0.118  14.304  0.2904  0.4238 -0.2185
  347TMC3    C4 5200   0.467   0.030  14.131  0.1030  0.6909  0.3733
  347TMC3    C5 5201   0.478   0.162  14.167  0.5549  0.1847 -0.9745
  347TMC3    C6 5202   0.580   0.205  14.251 -0.1935  0.2786 -0.0347
  347TMC3     C 5203   0.556   4.536  14.162 -0.2140  0.1237 -0.6102
  347TMC3     O 5204   0.617   4.462  14.236  0.0142 -0.2208 -0.0416
  347TMC3     H 5205   0.701   4.637  14.337  1.9639  2.4124  0.0696
  347TMC3    H1 5206   0.379   4.714  14.083  1.7524  0.0500 -2.0844
  347TMC3    H2 5207   0.581   0.309  14.280  1.8325  0.7253 -1.6449
  347TMC3    C7 5208   0.374   0.252  14.116 -0.0984 -0.6061 -0.0968
  347TMC3    C8 5209   0.804   0.154  14.323  1.0490 -1.0658  0.8692
  347TMC3    O1 5210   0.344   0.352  14.182  0.1381  0.6293  0.0735
  347TMC3    O2 5211   0.860   0.087  14.408  0.4694 -0.2520  0.0318
  348MPD2     C 5212   3.491   3.940  12.197  0.6956 -0.5236 -0.5217
  348MPD2    C1 5213   3.593   4.013  12.147  0.7031  0.3057  0.4074
  348MPD2    C2 5214   3.576   4.102  12.040 -0.2790 -0.3828 -0.1515
  348MPD2    C3 5215   3.445   4.124  11.989 -0.1910  0.0673  0.1146
  348MPD2    C4 5216   3.342   4.056  12.049  0.4584  0.8389 -0.3870
  348MPD2    C5 5217   3.363   3.969  12.150 -0.8653  0.0226  0.7341
  348MPD2     H 5218   3.655   4.154  11.987  0.3395 -2.1048 -0.9092
  348MPD2    H1 5219   3.240   4.076  12.020 -0.9075 -1.7255  2.7044
  348MPD2    H2 5220   3.514   3.868  12.274  1.5984 -0.0920 -0.3902
  348MPD2    H3 5221   3.271   3.922  12.181 -2.0319  1.7548 -0.0923
  348MPD2     N 5222   3.423   4.223  11.892  0.4560 -0.2994  0.3701
  348MPD2    H5 5223   3.501   4.282  11.865  0.8744 -1.1381 -0.2618
  348MPD2    N1 5224   3.722   4.009  12.202  0.3729 -0.7955 -0.0844
  348MPD2    H7 5225   3.784   4.079  12.162 -0.3434 -1.0124 -1.5623
  349TMC3    C1 5226   3.916   3.933  12.321 -0.8717  0.1007 -0.6660
  349TMC3    C2 5227   3.960   3.809  12.348 -0.4375  0.5057  0.1212
  349TMC3    C3 5228   4.057   3.743  12.274  0.8983  0.1767 -0.0713
  349TMC3    C4 5229   3.971   3.992  12.210  0.2343 -0.0187 -1.0371
  349TMC3    C5 5230   4.060   3.924  12.132 -0.7701 -0.4126 -1.3179
  349TMC3    C6 5231   4.107   3.798  12.163  0.6826 -0.5849  0.0099
  349TMC3     C 5232   3.768   3.933  12.310  0.2050  0.8990  0.3965
  349TMC3     O 5233   3.703   3.871  12.392  0.5577  0.1435 -0.6464
  349TMC3     H 5234   3.918   3.760  12.435  0.7284  0.7851  0.8364
  349TMC3    H1 5235   3.942   4.095  12.188 -0.4628  0.2501  1.1496
  349TMC3    H2 5236   4.168   3.752  12.086  4.0457  2.4214  0.8515
  349TMC3    C7 5237   4.029   3.944  11.996  0.2864  0.3659  0.4898
  349TMC3    C8 5238   4.083   3.608  12.312 -0.5644 -0.1944  0.1771
  349TMC3    O1 5239   3.953   3.858  11.954  0.1633  0.3710  0.1374
  349TMC3    O2 5240   4.023   3.558  12.406 -0.6221  0.3144 -0.2394
  350MPD2     C 5241   2.650   2.041   9.923  0.3957  0.8827  0.2978
  350MPD2    C1 5242   2.710   1.919   9.942  0.5216  0.6933  0.2394
  350MPD2    C2 5243   2.845   1.906   9.966 -0.7294 -0.3409  0.1462
  350MPD2    C3 5244   2.928   2.023   9.974 -0.1978  0.1178  0.7857
  350MPD2    C4 5245   2.869   2.145   9.954  0.1060  0.1869  0.0751
  350MPD2    C5 5246   2.736   2.157   9.925 -0.0442 -0.4245 -0.2533
  350MPD2     H 5247   2.882   1.805   9.975  2.7912  1.0218  0.9322
  350MPD2    H1 5248   2.910   2.244   9.970  1.4596 -0.3610 -0.0248
  350MPD2    H2 5249   2.542   2.047   9.919  0.2281 -1.7321  1.1968
  350MPD2    H3 5250   2.693   2.256   9.918  0.7429 -0.0678 -0.0010
  350MPD2     N 5251   3.062   1.997   9.997  0.5168  0.1970 -0.3566
  350MPD2    H5 5252   3.089   1.902  10.021  1.1987  0.2724 -0.8553
  350MPD2    N1 5253   2.646   1.797   9.913 -0.5190 -0.1468  0.4205
  350MPD2    H7 5254   2.713   1.720   9.919 -1.5951 -1.0907  0.2148
  351TMC3    C1 5255   2.477   1.638   9.870  0.2160  0.1914  0.6540
  351TMC3    C2 5256   2.549   1.585   9.770  0.1246 -0.7980 -0.1921
  351TMC3    C3 5257   2.491   1.519   9.664 -0.4967 -0.0653 -0.6210
  351TMC3    C4 5258   2.347   1.612   9.874  0.0476 -0.0378  0.0354
  351TMC3    C5 5259   2.290   1.532   9.777 -0.7869  0.1699  0.2705
  351TMC3    C6 5260   2.363   1.479   9.670 -0.2560  0.1187 -0.0939
  351TMC3     C 5261   2.516   1.771   9.914  0.4146 -0.5737 -0.6356
  351TMC3     O 5262   2.430   1.851   9.938 -0.3028 -0.4171 -0.1622
  351TMC3     H 5263   2.657   1.582   9.775  0.3041 -0.1383 -3.3032
  351TMC3    H1 5264   2.285   1.658   9.951  0.3172  1.2847 -0.5587
  351TMC3    H2 5265   2.314   1.420   9.594  0.2718 -1.2196  0.6186
  351TMC3    C7 5266   2.145   1.500   9.800 -0.5270  0.2709  0.0038
  351TMC3    C8 5267   2.583   1.459   9.573 -0.2203  0.0074 -0.2424
  351TMC3    O1 5268   2.107   1.516   9.917  0.1050 -0.1217 -0.3491
  351TMC3    O2 5269   2.556   1.353   9.529  0.4656  0.1679  0.3887
  352MPD2     C 5270   0.442   4.181   1.314 -0.5228  1.2484  0.6692
  352MPD2    C1 5271   0.583   4.165   1.310 -0.4855 -0.0622  0.1015
  352MPD2    C2 5272   0.641   4.042   1.337 -0.6759  0.5245  0.7322
  352MPD2    C3 5273   0.556   3.934   1.368 -0.3989 -0.3087  0.1249
  352MPD2    C4 5274   0.421   3.948   1.358  0.1693 -0.0301  0.3404
  352MPD2    C5 5275   0.360   4.067   1.327  0.1405 -0.3569  0.1043
  352MPD2     H 5276   0.747   4.032   1.356 -1.0912  1.0424  3.2936
  352MPD2    H1 5277   0.349   3.870   1.381  0.3254 -0.6170 -1.1764
  352MPD2    H2 5278   0.400   4.280   1.302  0.0058  1.4003  0.0813
  352MPD2    H3 5279   0.252   4.073   1.335  0.2030 -2.0841  2.1438
  352MPD2     N 5280   0.603   3.801   1.395  0.0588  0.6740 -0.3002
  352MPD2    H5 5281   0.533   3.729   1.412  1.4785 -0.5887  0.2409
  352MPD2    N1 5282   0.660   4.287   1.284 -0.1564  0.2785  0.0685
  352MPD2    H7 5283   0.609   4.374   1.285 -3.3249 -1.5591 -2.2052
  353TMC3    C1 5284   0.747   3.618   1.441 -0.0317 -0.7746  0.3004
  353TMC3    C2 5285   0.863   3.579   1.500 -0.0716  0.1118  0.6657
  353TMC3    C3 5286   0.884   3.442   1.509 -0.4441 -0.8868 -1.2106
  353TMC3    C4 5287   0.652   3.523   1.400 -0.4568 -0.2230 -0.2223
  353TMC3    C5 5288   0.675   3.386   1.420  0.2193 -0.0895 -0.1769
  353TMC3    C6 5289   0.796   3.345   1.475 -0.1250 -0.3872 -0.2934
  353TMC3     C 5290   0.733   3.757   1.412 -0.4103 -0.4645  0.2045
  353TMC3     O 5291   0.838   3.823   1.405  0.0244 -0.7897  0.5143
  353TMC3     H 5292   0.948   3.640   1.528 -0.7203  0.1122  2.6960
  353TMC3    H1 5293   0.563   3.556   1.347 -1.2297 -1.9433  0.0061
  353TMC3    H2 5294   0.811   3.238   1.485  0.4192  0.0403  3.6342
  353TMC3    C7 5295   0.611   3.294   1.326 -0.8179  0.4373  0.1286
  353TMC3    C8 5296   1.019   3.399   1.555 -0.2641 -0.1385  0.9318
  353TMC3    O1 5297   0.677   3.204   1.273  0.2359  0.2348  0.3493
  353TMC3    O2 5298   1.076   3.478   1.628  0.6522  1.0832 -0.0040
  354TMC3    C1 5299   2.917   0.930  13.382  0.2639  0.3941 -0.0822
  354TMC3    C2 5300   2.884   1.052  13.325 -0.8160 -0.0355  0.1364
  354TMC3    C3 5301   2.941   1.089  13.206 -0.0489 -0.1263  0.1968
  354TMC3    C4 5302   3.014   0.856  13.325  0.2283 -0.1990  0.6293
  354TMC3    C5 5303   3.059   0.891  13.204 -0.5342 -0.0866 -0.2764
  354TMC3    C6 5304   3.025   1.005  13.140 -0.1564 -0.4869  0.3713
  354TMC3     C 5305   2.830   0.884  13.488 -0.4483 -0.2059 -0.9568
  354TMC3     O 5306   2.715   0.923  13.479 -0.4481  0.0034 -0.2604
  354TMC3     H 5307   2.820   1.124  13.375 -1.9691 -1.7146  1.0934
  354TMC3    H1 5308   3.038   0.760  13.367  1.0448 -0.6007 -0.7473
  354TMC3    H2 5309   3.070   1.038  13.047 -1.4117 -0.3001 -0.1778
  354TMC3    C7 5310   3.182   0.832  13.166  0.0127  0.1027  0.9169
  354TMC3    C8 5311   2.890   1.217  13.150 -0.1412 -0.1259  0.0200
  354TMC3    O1 5312   3.215   0.715  13.192 -0.1218  0.1348  0.3870
  354TMC3    O2 5313   2.819   1.288  13.220  0.3572 -0.0994  0.3237
  355MPD2     C 5314   3.157   1.605  11.588 -0.0786  0.1618 -0.2494
  355MPD2    C1 5315   3.260   1.585  11.490 -0.4095 -0.5039  0.6220
  355MPD2    C2 5316   3.367   1.506  11.529  0.1547 -0.1889 -0.4728
  355MPD2    C3 5317   3.391   1.478  11.665  0.2017 -0.2098 -0.0241
  355MPD2    C4 5318   3.291   1.493  11.755  0.5090  0.6813 -0.9065
  355MPD2    C5 5319   3.180   1.557  11.715  0.0132 -0.0897  0.5091
  355MPD2     H 5320   3.436   1.472  11.452  0.7278  0.3554 -0.2042
  355MPD2    H1 5321   3.306   1.466  11.858  0.4970 -0.6747 -1.2592
  355MPD2    H2 5322   3.068   1.661  11.558 -0.1326  2.2360  3.8070
  355MPD2    H3 5323   3.113   1.584  11.795  0.8991  0.6317  1.0007
  355MPD2     N 5324   3.504   1.424  11.717 -0.3744 -0.2022 -0.2163
  355MPD2    H5 5325   3.512   1.421  11.818 -1.4520 -2.9895 -0.1873
  355MPD2    N1 5326   3.246   1.648  11.368  0.4910 -0.5841  0.1440
  355MPD2    H7 5327   3.154   1.690  11.357  0.8781  0.3683  0.5184
  356TMC3    C1 5328   3.734   1.427  11.693  0.2439 -0.0870 -0.4514
  356TMC3    C2 5329   3.849   1.412  11.612  0.0616 -0.0856 -0.2144
  356TMC3    C3 5330   3.959   1.486  11.648  0.5436  0.3508 -0.2096
  356TMC3    C4 5331   3.740   1.505  11.805 -0.0040  0.2532 -0.1059
  356TMC3    C5 5332   3.861   1.555  11.842  0.9477  0.3444 -0.3456
  356TMC3    C6 5333   3.973   1.557  11.763 -0.4747 -0.0493  0.3107
  356TMC3     C 5334   3.608   1.384  11.634 -0.7056 -0.1570 -0.2984
  356TMC3     O 5335   3.608   1.347  11.519 -0.3208  0.5736  0.1758
  356TMC3     H 5336   3.852   1.361  11.516 -1.9667 -1.4973  0.4754
  356TMC3    H1 5337   3.654   1.516  11.870 -0.7226 -0.8849 -0.8543
  356TMC3    H2 5338   4.067   1.598  11.798 -1.0921  1.5418  0.1162
  356TMC3    C7 5339   3.880   1.619  11.971 -0.0575  0.3379  1.0848
  356TMC3    C8 5340   4.018   1.536  11.526 -0.6692  0.8261  0.3103
  356TMC3    O1 5341   3.983   1.590  12.034 -0.4668  0.0847  0.1196
  356TMC3    O2 5342   4.026   1.462  11.429  0.8186  0.3449 -0.1319
  357MPD2     C 5343   1.657   0.816   0.487 -0.7678 -0.0152 -0.5282
  357MPD2    C1 5344   1.678   0.854   0.620  0.1303 -0.4051  0.3916
  357MPD2    C2 5345   1.565   0.872   0.703  0.2069  1.0873 -0.2111
  357MPD2    C3 5346   1.435   0.853   0.662  0.1137  0.5569 -0.1692
  357MPD2    C4 5347   1.420   0.819   0.530 -0.2766 -0.1107 -0.3482
  357MPD2    C5 5348   1.532   0.807   0.444 -0.3203 -0.3886  0.1990
  357MPD2     H 5349   1.579   0.907   0.805  0.2267 -1.0467  0.5273
  357MPD2    H1 5350   1.319   0.813   0.490 -1.4446 -1.4725  2.7896
  357MPD2    H2 5351   1.730   0.796   0.409 -0.0780 -1.4603  0.4991
  357MPD2    H3 5352   1.518   0.799   0.337  3.2171 -3.0541 -0.0680
  357MPD2     N 5353   1.316   0.889   0.733 -1.0698  0.3025  0.0505
  357MPD2    H5 5354   1.224   0.880   0.692 -1.1746  0.3819  0.2652
  357MPD2    N1 5355   1.808   0.876   0.655  0.5324 -0.6160  0.2466
  357MPD2    H7 5356   1.876   0.860   0.581 -1.4553 -1.0567 -1.4607
  358TMC3    C1 5357   1.993   0.922   0.804 -0.1710  0.9254 -0.5251
  358TMC3    C2 5358   2.084   0.892   0.709  0.0349 -0.5862 -0.2911
  358TMC3    C3 5359   2.217   0.920   0.742 -0.1006  0.5904 -0.1338
  358TMC3    C4 5360   2.037   0.973   0.926 -0.3377 -0.3813 -0.4828
  358TMC3    C5 5361   2.166   0.991   0.955 -0.0048  0.2267 -0.5002
  358TMC3    C6 5362   2.262   0.954   0.871  0.6938 -0.0097 -1.1086
  358TMC3     C 5363   1.852   0.893   0.787 -0.2161 -0.4579 -0.0781
  358TMC3     O 5364   1.791   0.882   0.894 -0.1521 -0.1690  0.0846
  358TMC3     H 5365   2.049   0.848   0.616  0.8551 -2.1469  0.1423
  358TMC3    H1 5366   1.973   0.991   1.012  1.0990 -1.3507  0.7857
  358TMC3    H2 5367   2.351   1.015   0.882  0.4879  0.0879  0.0028
  358TMC3    C7 5368   2.204   1.048   1.078 -0.5489  0.2154  0.1110
  358TMC3    C8 5369   2.313   0.950   0.636  0.7788 -0.1032 -0.7812
  358TMC3    O1 5370   2.130   1.130   1.128 -0.4840  0.2682  1.2271
  358TMC3    O2 5371   2.431   0.964   0.671 -0.3785 -0.5754 -0.0101
  359MPD2     C 5372   3.478   4.395  12.244  0.4423  0.2847  0.9091
  359MPD2    C1 5373   3.393   4.486  12.183  0.8196 -0.7404 -0.0870
  359MPD2    C2 5374   3.258   4.455  12.182 -0.2891  0.0913 -0.1802
  359MPD2    C3 5375   3.211   4.334  12.246  0.0065 -0.0358  0.1596
  359MPD2    C4 5376   3.303   4.256  12.318  0.4821 -0.0528 -0.0022
  359MPD2    C5 5377   3.434   4.294  12.320  0.3893  0.8607 -0.0871
  359MPD2     H 5378   3.193   4.530  12.139  0.8343  0.7053 -0.7925
  359MPD2    H1 5379   3.270   4.164  12.364  0.0896 -1.0566 -2.3521
  359MPD2    H2 5380   3.586   4.401  12.233  0.5394 -1.1694  1.0305
  359MPD2    H3 5381   3.499   4.227  12.376 -0.3029  1.9945  2.0981
  359MPD2     N 5382   3.075   4.295  12.256  0.2162 -0.0106  0.1419
  359MPD2    H5 5383   3.058   4.207  12.304  0.8491  0.3819  1.0746
  359MPD2    N1 5384   3.441   4.604  12.114  0.0253  0.5446 -0.3201
  359MPD2    H7 5385   3.371   4.653  12.059 -0.7447  0.4773  0.5783
  360TMC3    C1 5386   3.566   0.049  12.033 -0.6806 -0.5031  0.7173
  360TMC3    C2 5387   3.671   0.134  12.058  0.1026  0.4830  1.0607
  360TMC3    C3 5388   3.667   0.257  12.007  0.4888  0.3090  0.7708
  360TMC3    C4 5389   3.481   0.065  11.923 -1.2157  0.4905 -0.0491
  360TMC3    C5 5390   3.495   0.193  11.864  0.0623 -1.5531  0.2865
  360TMC3    C6 5391   3.575   0.293  11.912 -0.0662 -0.0254  0.3576
  360TMC3     C 5392   3.565   4.654  12.117  0.2847 -0.6234 -0.2746
  360TMC3     O 5393   3.670   4.618  12.172  0.2933 -0.0096 -0.3971
  360TMC3     H 5394   3.727   0.114  12.148 -0.0181  1.6616  1.3907
  360TMC3    H1 5395   3.452   4.705  11.863 -1.6827  1.4508 -1.2004
  360TMC3    H2 5396   3.557   0.393  11.873 -2.3144 -1.6040 -2.6143
  360TMC3    C7 5397   3.435   0.214  11.734 -0.2044 -0.0987  0.8982
  360TMC3    C8 5398   3.789   0.337  12.002 -0.3949 -0.7709 -0.3630
  360TMC3    O1 5399   3.490   0.302  11.668  0.4993  0.2697 -0.7741
  360TMC3    O2 5400   3.771   0.458  11.994  0.2390  0.0077  0.1285
  361MPD2     C 5401   0.191   3.701  16.925 -0.2850 -0.1415  0.2038
  361MPD2    C1 5402   0.213   3.744  17.054  0.2029  0.4013  0.1377
  361MPD2    C2 5403   0.278   3.661  17.143  0.3837  1.3272 -0.3579
  361MPD2    C3 5404   0.338   3.545  17.102  0.6717 -0.5516 -0.4578
  361MPD2    C4 5405   0.332   3.510  16.968  0.6945  1.0981  0.0719
  361MPD2    C5 5406   0.257   3.586  16.882  0.4913 -0.4162  0.0464
  361MPD2     H 5407   0.290   3.688  17.247  0.9801  0.6485 -0.2520
  361MPD2    H1 5408   0.366   3.411  16.939 -0.1321  0.3729  1.5275
  361MPD2    H2 5409   0.121   3.749  16.858 -0.9553  0.4377  1.3243
  361MPD2    H3 5410   0.233   3.546  16.785  1.3068  0.6267 -0.5981
  361MPD2     N 5411   0.399   3.462  17.196 -0.0177  0.2206  0.6493
  361MPD2    H5 5412   0.427   3.375  17.153 -1.6166  0.8195 -1.5936
  361MPD2    N1 5413   0.156   3.866  17.086 -0.3377  0.4076 -0.0050
  361MPD2    H7 5414   0.121   3.918  17.006  0.4797  2.5988  1.0635
  362TMC3    C1 5415   0.091   4.052  17.221  0.0668  0.2998 -0.0193
  362TMC3    C2 5416   0.023   4.070  17.341  0.2028 -0.1073  0.9616
  362TMC3    C3 5417   4.659   4.170  17.346 -0.5393 -0.1746 -0.4963
  362TMC3    C4 5418   0.089   4.141  17.118  0.1457 -0.2483 -0.2880
  362TMC3    C5 5419   4.723   4.246  17.131  0.2800 -0.2250  0.2202
  362TMC3    C6 5420   4.645   4.255  17.241 -0.2157 -0.2642 -0.0326
  362TMC3     C 5421   0.155   3.921  17.207  0.4992  0.6814  0.1661
  362TMC3     O 5422   0.183   3.870  17.316 -0.0432  0.2013 -0.2277
  362TMC3     H 5423   0.017   3.988  17.411 -0.5769 -0.2258  0.7555
  362TMC3    H1 5424   0.143   4.127  17.025  0.9235 -2.8982  0.5495
  362TMC3    H2 5425   4.572   4.334  17.250  0.3145  0.2829 -0.5000
  362TMC3    C7 5426   4.662   4.305  17.009  0.4672  0.4753  0.4772
  362TMC3    C8 5427   4.535   4.110  17.369  0.0352  0.0514 -0.2717
  362TMC3    O1 5428   4.551   4.355  17.023  0.6403 -0.0147 -0.0684
  362TMC3    O2 5429   4.517   4.003  17.317  0.3706 -0.7391 -0.6188
  363TMC3    C1 5430   3.191   0.732   8.885 -0.8235  0.3063 -0.2476
  363TMC3    C2 5431   3.311   0.724   8.944  1.0391  1.0758 -0.1375
  363TMC3    C3 5432   3.359   0.842   8.997  0.1213  0.0883  0.3820
  363TMC3    C4 5433   3.117   0.843   8.880  0.6345  0.0058 -0.4945
  363TMC3    C5 5434   3.166   0.957   8.946  0.0132 -0.0803 -0.4154
  363TMC3    C6 5435   3.290   0.961   9.001  0.2598 -0.4656 -0.2804
  363TMC3     C 5436   3.115   0.606   8.869  0.4616  0.1458  1.0150
  363TMC3     O 5437   3.000   0.603   8.915  0.3240  0.0773 -0.4371
  363TMC3     H 5438   3.377   0.638   8.931 -0.7935 -0.2652 -0.6293
  363TMC3    H1 5439   3.018   0.837   8.836  1.0540  0.6290 -1.5094
  363TMC3    H2 5440   3.319   1.055   9.046  1.0182 -0.0564 -1.6162
  363TMC3    C7 5441   3.075   1.071   8.984 -0.2773  0.4866  0.0274
  363TMC3    C8 5442   3.492   0.837   9.050  0.1972 -0.0431 -0.3938
  363TMC3    O1 5443   3.098   1.158   9.070  0.1539  0.1511  0.1045
  363TMC3    O2 5444   3.546   0.946   9.049  0.2530  0.5541 -0.5854
  364MPD2     C 5445   2.202   1.097  10.248  0.1086  0.3722  0.0665
  364MPD2    C1 5446   2.298   1.032  10.175 -0.1866 -0.0993 -0.3291
  364MPD2    C2 5447   2.324   0.902  10.195  0.2116  0.6960 -0.4799
  364MPD2    C3 5448   2.254   0.827  10.282  0.5352 -0.2591  0.1290
  364MPD2    C4 5449   2.156   0.892  10.352 -0.1858 -0.3662  0.2178
  364MPD2    C5 5450   2.125   1.022  10.335 -0.8244  0.7707 -0.2993
  364MPD2     H 5451   2.404   0.850  10.144  0.3469  0.5570 -0.1223
  364MPD2    H1 5452   2.109   0.830  10.426 -1.8626 -0.7111 -1.1336
  364MPD2    H2 5453   2.180   1.203  10.236  1.7137  0.8005  0.8832
  364MPD2    H3 5454   2.046   1.069  10.393  0.9642  0.2787  2.5243
  364MPD2     N 5455   2.290   0.699  10.330 -0.8935 -0.2192  0.3832
  364MPD2    H5 5456   2.231   0.675  10.409 -1.4397  0.0490  0.0592
  364MPD2    N1 5457   2.376   1.114  10.083  0.0351  0.1999  0.0329
  364MPD2    H7 5458   2.355   1.214  10.089 -0.8435 -0.0443  1.0916
  365TMC3    C1 5459   2.541   1.185   9.933  0.7412 -0.2644 -0.5398
  365TMC3    C2 5460   2.625   1.149   9.836  0.4582 -1.0989  1.0071
  365TMC3    C3 5461   2.733   1.222   9.795  0.0150  0.3051 -0.3615
  365TMC3    C4 5462   2.575   1.292  10.021  0.3340 -0.3690 -0.1451
  365TMC3    C5 5463   2.686   1.360   9.978  0.0291  0.4611  0.5518
  365TMC3    C6 5464   2.758   1.333   9.866  0.3858  0.4000 -0.4648
  365TMC3     C 5465   2.469   1.071   9.991 -0.0071 -0.2513 -0.0483
  365TMC3     O 5466   2.496   0.956   9.956 -0.3001 -0.2550 -0.2451
  365TMC3     H 5467   2.586   1.066   9.779 -0.8827  0.4600 -0.3255
  365TMC3    H1 5468   2.507   1.323  10.099 -1.1918  1.6939 -2.2783
  365TMC3    H2 5469   2.841   1.399   9.845 -1.0130  2.4033  0.3850
  365TMC3    C7 5470   2.728   1.468  10.056 -0.4585  0.4994 -0.4075
  365TMC3    C8 5471   2.849   1.148   9.739  0.5524  0.4106  0.0727
  365TMC3    O1 5472   2.804   1.550  10.000  0.3425 -0.3269 -0.1314
  365TMC3    O2 5473   2.955   1.211   9.744  0.3083 -0.1925 -0.1013
  366MPD2     C 5474   0.551   2.257  14.921  0.1359 -0.2913  0.2134
  366MPD2    C1 5475   0.584   2.284  15.052 -0.0002  0.3381 -0.3180
  366MPD2    C2 5476   0.695   2.223  15.107  0.6293  0.7677 -0.3715
  366MPD2    C3 5477   0.788   2.169  15.025  0.1392 -0.1480  0.0834
  366MPD2    C4 5478   0.768   2.155  14.889 -0.2951  0.1531  0.0965
  366MPD2    C5 5479   0.645   2.199  14.837 -0.0080 -0.0740 -0.3300
  366MPD2     H 5480   0.701   2.227  15.215  0.0618 -1.7437 -0.2561
  366MPD2    H1 5481   0.841   2.122  14.816  0.8346 -0.1724  1.3700
  366MPD2    H2 5482   0.466   2.309  14.879  1.0286 -0.3836 -1.7067
  366MPD2    H3 5483   0.617   2.189  14.733 -3.4875  0.5494  0.5222
  366MPD2     N 5484   0.904   2.126  15.097  0.2279 -0.3500 -0.1689
  366MPD2    H5 5485   0.902   2.151  15.195  1.5301  2.9460 -0.9646
  366MPD2    N1 5486   0.505   2.352  15.145  0.8280 -0.3089 -0.3841
  366MPD2    H7 5487   0.544   2.377  15.235  2.2916  1.7567 -1.5674
  367TMC3    C1 5488   0.355   2.502  15.232  0.0898  0.2999 -0.4906
  367TMC3    C2 5489   0.437   2.507  15.345  0.0030  0.3081 -0.3268
  367TMC3    C3 5490   0.446   2.618  15.418  0.4822  0.6147 -0.0979
  367TMC3    C4 5491   0.269   2.603  15.215  0.2269 -0.0245  0.2706
  367TMC3    C5 5492   0.276   2.717  15.293  0.2123 -0.3943  0.3336
  367TMC3    C6 5493   0.374   2.729  15.391 -0.4368 -0.3174  0.1953
  367TMC3     C 5494   0.392   2.425  15.121 -0.9381  0.1958 -0.3050
  367TMC3     O 5495   0.344   2.457  15.016 -0.1516 -0.4540 -0.2415
  367TMC3     H 5496   0.504   2.425  15.371  1.2514  0.8934 -1.6798
  367TMC3    H1 5497   0.208   2.601  15.125  0.4298 -4.2913  0.2127
  367TMC3    H2 5498   0.370   2.819  15.450  0.9042  0.3625 -0.7500
  367TMC3    C7 5499   0.196   2.829  15.249 -0.1479 -0.3239 -0.2820
  367TMC3    C8 5500   0.577   2.643  15.481  0.3042 -0.1086  0.0807
  367TMC3    O1 5501   0.236   2.944  15.266 -0.2878  0.5172  0.1273
  367TMC3    O2 5502   0.629   2.554  15.552 -0.0229 -0.1761  0.0113
  368MPD2     C 5503   2.060   3.881  13.443  0.4144  0.2856  0.2334
  368MPD2    C1 5504   2.058   3.987  13.349  0.3291 -0.4646  1.4347
  368MPD2    C2 5505   2.157   4.081  13.358 -0.0796 -0.2927 -0.7119
  368MPD2    C3 5506   2.261   4.071  13.452  0.5192  0.1411 -0.5431
  368MPD2    C4 5507   2.264   3.964  13.538  0.3675 -0.6641  0.6493
  368MPD2    C5 5508   2.161   3.879  13.538  0.7378  0.3994 -0.2046
  368MPD2     H 5509   2.159   4.167  13.292 -1.6138  0.9887  0.9056
  368MPD2    H1 5510   2.343   3.954  13.611 -0.9328  1.7963  2.4115
  368MPD2    H2 5511   1.981   3.807  13.444  0.4574  0.2286 -0.8147
  368MPD2    H3 5512   2.158   3.794  13.605 -1.0364  0.8175  0.2454
  368MPD2     N 5513   2.375   4.155  13.454  0.3429 -0.1823 -0.2557
  368MPD2    H5 5514   2.447   4.145  13.524 -1.0748  0.0135  1.2248
  368MPD2    N1 5515   1.972   3.969  13.242 -0.2524  0.1822 -0.0239
  368MPD2    H7 5516   1.895   3.903  13.248  0.2112 -0.2586  0.9360
  369TMC3    C1 5517   1.863   4.011  13.043 -0.3962 -0.4026 -0.1190
  369TMC3    C2 5518   1.822   4.114  12.967 -0.3459 -0.4263  1.0818
  369TMC3    C3 5519   1.689   4.124  12.938  0.0819 -0.0713 -0.2013
  369TMC3    C4 5520   1.775   3.916  13.097  0.2432  0.1072 -0.0288
  369TMC3    C5 5521   1.638   3.944  13.079 -0.7812  0.5936  0.3273
  369TMC3    C6 5522   1.594   4.042  13.000  0.6619 -0.2015 -0.3150
  369TMC3     C 5523   1.964   4.050  13.131 -0.2764  0.4059 -0.3843
  369TMC3     O 5524   2.040   4.143  13.096 -0.4439  0.0531  0.1010
  369TMC3     H 5525   1.893   4.185  12.927 -0.8502 -0.6038 -0.1497
  369TMC3    H1 5526   1.807   3.820  13.137  1.7111  0.4191 -0.4384
  369TMC3    H2 5527   1.492   4.053  12.965  1.7956  2.1935 -2.9170
  369TMC3    C7 5528   1.549   3.852  13.147 -0.0236 -0.5901  0.2251
  369TMC3    C8 5529   1.656   4.240  12.864 -1.0294  0.1868  0.6103
  369TMC3    O1 5530   1.607   3.768  13.216 -0.0233  0.0420 -0.6641
  369TMC3    O2 5531   1.736   4.304  12.800  0.4715  0.6147  0.7327
  370TMC3    C1 5532   1.013   4.219  16.402  0.2611  0.1805 -0.9948
  370TMC3    C2 5533   1.010   4.144  16.515 -0.4637  0.0057 -0.1774
  370TMC3    C3 5534   1.071   4.023  16.514 -0.1137 -0.5674  0.1378
  370TMC3    C4 5535   1.046   4.171  16.283  0.6415 -0.5312  0.2474
  370TMC3    C5 5536   1.083   4.038  16.279 -0.0967 -0.1987 -0.7071
  370TMC3    C6 5537   1.101   3.959  16.396 -0.1803  0.4230 -0.6269
  370TMC3     C 5538   1.060   4.361  16.440 -0.1820 -0.4058 -0.0930
  370TMC3     O 5539   1.120   4.367  16.550 -0.5157 -0.1430 -0.3212
  370TMC3     H 5540   0.974   4.189  16.607 -1.4398  0.3036 -0.7066
  370TMC3    H1 5541   1.031   4.235  16.197  1.8098 -1.4661 -0.6561
  370TMC3    H2 5542   1.144   3.861  16.385 -1.4149 -0.2002  0.0413
  370TMC3    C7 5543   1.138   4.005  16.146 -0.3082 -0.1686  0.0346
  370TMC3    C8 5544   1.114   3.968  16.644 -0.0781 -0.0835 -0.3245
  370TMC3    O1 5545   1.128   4.088  16.053  0.4985 -0.1099  0.7456
  370TMC3    O2 5546   1.149   3.854  16.640 -0.0085  0.0255 -0.3587
  371TMC3    C1 5547   2.370   2.742  15.365  0.0403  0.5636  0.0013
  371TMC3    C2 5548   2.387   2.804  15.490  0.1772  0.3526  0.2528
  371TMC3    C3 5549   2.357   2.936  15.517  0.6361  0.5751  0.8246
  371TMC3    C4 5550   2.351   2.822  15.253 -0.0904 -0.0697  0.2125
  371TMC3    C5 5551   2.338   2.956  15.280 -0.0876 -0.0108  0.2344
  371TMC3    C6 5552   2.331   3.010  15.401  0.4516  0.0151 -0.3017
  371TMC3     C 5553   2.407   2.601  15.334  0.0926 -0.0506  0.4216
  371TMC3     O 5554   2.461   2.585  15.229 -0.5435  0.0316  0.3362
  371TMC3     H 5555   2.406   2.747  15.580 -0.7570 -1.0033 -0.4064
  371TMC3    H1 5556   2.330   2.780  15.155 -1.4316 -0.1409  0.5252
  371TMC3    H2 5557   2.330   3.116  15.422 -1.2997 -0.1475  0.4089
  371TMC3    C7 5558   2.330   3.046  15.171 -0.4967  0.1087 -0.7551
  371TMC3    C8 5559   2.419   2.997  15.632  0.0720  0.7040  0.2033
  371TMC3    O1 5560   2.269   3.151  15.185 -0.1568  0.1807 -0.0601
  371TMC3    O2 5561   2.491   2.930  15.700  0.9984 -0.2841 -0.5893
  372MPD2     C 5562   1.699   4.239  13.366 -0.6971 -0.2164 -0.2177
  372MPD2    C1 5563   1.815   4.276  13.419 -0.5995 -0.2000 -0.1564
  372MPD2    C2 5564   1.860   4.195  13.521  0.1923  0.1544  0.8566
  372MPD2    C3 5565   1.792   4.083  13.564  0.1485 -0.2202 -0.0224
  372MPD2    C4 5566   1.667   4.059  13.517  0.0067 -0.8692  0.1442
  372MPD2    C5 5567   1.623   4.132  13.413  0.2814  0.1920 -0.7420
  372MPD2     H 5568   1.955   4.224  13.564 -0.0232  0.7888  0.8971
  372MPD2    H1 5569   1.610   3.972  13.549 -0.6001 -0.3999  0.3431
  372MPD2    H2 5570   1.659   4.284  13.276  0.0454  0.9011  0.0182
  372MPD2    H3 5571   1.532   4.116  13.356  1.3935  1.7571 -2.9996
  372MPD2     N 5572   1.855   4.000  13.663  0.1283  0.2881  0.0323
  372MPD2    H5 5573   1.947   4.032  13.690 -0.0080  3.6344 -3.5354
  372MPD2    N1 5574   1.892   4.387  13.379  0.9383 -0.0004  0.2214
  372MPD2    H7 5575   1.969   4.418  13.438  1.8426 -1.6862 -0.0627
  373TMC3    C1 5576   1.908   3.826  13.811 -0.8382  0.6682 -0.4639
  373TMC3    C2 5577   1.944   3.920  13.902 -0.9593  0.6997  0.0948
  373TMC3    C3 5578   2.013   3.891  14.020  0.0025 -0.4599 -0.4181
  373TMC3    C4 5579   1.921   3.694  13.847 -0.4550  0.7515 -0.6556
  373TMC3    C5 5580   1.999   3.665  13.958  0.2397 -0.3004  0.3416
  373TMC3    C6 5581   2.045   3.758  14.051 -0.7734 -0.1150 -0.1622
  373TMC3     C 5582   1.824   3.870  13.695 -0.1969  0.1833  0.2857
  373TMC3     O 5583   1.744   3.794  13.649  0.3090 -0.3970 -0.6702
  373TMC3     H 5584   1.925   4.026  13.889  0.2432  1.0260  0.9697
  373TMC3    H1 5585   1.883   3.618  13.780  1.0555 -3.3805  3.1735
  373TMC3    H2 5586   2.094   3.728  14.142 -1.7577 -0.4279  0.2630
  373TMC3    C7 5587   2.076   3.548  13.936  0.3512 -0.1919 -0.6713
  373TMC3    C8 5588   2.048   4.000  14.110 -0.1240  0.3917 -0.4437
  373TMC3    O1 5589   2.030   3.453  13.879  0.4093  0.1354  0.0532
  373TMC3    O2 5590   2.074   4.109  14.062  0.0929  0.5582  0.3501
  374TMC3    C1 5591   2.550   3.711   9.594 -0.1180  0.1660  0.6862
  374TMC3    C2 5592   2.562   3.821   9.673 -0.5314  0.2667 -0.0719
  374TMC3    C3 5593   2.474   3.926   9.653 -0.2259  0.3949 -0.8981
  374TMC3    C4 5594   2.459   3.701   9.495  0.0487 -0.7381 -0.5023
  374TMC3    C5 5595   2.386   3.814   9.468 -0.2345  0.2000 -0.1742
  374TMC3    C6 5596   2.400   3.933   9.540  0.3311 -0.5439 -0.2904
  374TMC3     C 5597   2.616   3.583   9.634  0.6489  0.7055  0.0588
  374TMC3     O 5598   2.594   3.484   9.565 -0.5327  0.2449 -0.5378
  374TMC3     H 5599   2.627   3.823   9.760 -2.1901  0.1099  1.1728
  374TMC3    H1 5600   2.449   3.613   9.433 -1.4207 -1.1548  0.3178
  374TMC3    H2 5601   2.325   4.012   9.533 -0.2669 -0.8727  2.3863
  374TMC3    C7 5602   2.275   3.810   9.367 -0.0692  0.8827  0.2390
  374TMC3    C8 5603   2.453   4.028   9.753 -1.1064  1.2192  0.1137
  374TMC3    O1 5604   2.245   3.695   9.337  0.6040  0.6789 -0.1784
  374TMC3    O2 5605   2.381   4.123   9.726  0.5996 -0.2485  0.0142
  375MPD2     C 5606   2.558   0.597  16.682  0.2194 -0.2867  0.1958
  375MPD2    C1 5607   2.458   0.579  16.587  0.4072  0.0219 -0.1389
  375MPD2    C2 5608   2.471   0.478  16.485 -0.0443  0.5901 -0.9722
  375MPD2    C3 5609   2.584   0.394  16.478  0.2903 -0.3325 -0.8000
  375MPD2    C4 5610   2.682   0.409  16.578 -0.5323 -0.4404  0.1907
  375MPD2    C5 5611   2.668   0.511  16.668  0.0267  1.0746 -0.7043
  375MPD2     H 5612   2.383   0.452  16.428  0.9496 -2.2241 -1.2204
  375MPD2    H1 5613   2.767   0.343  16.587 -0.3679  0.2422  3.4803
  375MPD2    H2 5614   2.550   0.670  16.761  0.3596  1.2173 -1.1600
  375MPD2    H3 5615   2.753   0.524  16.735 -2.1343  1.0890  2.0441
  375MPD2     N 5616   2.590   0.275  16.395 -0.3185 -0.1862 -0.0236
  375MPD2    H5 5617   2.659   0.202  16.407 -0.2368 -0.6639 -3.3822
  375MPD2    N1 5618   2.343   0.657  16.591  0.3722  0.1535 -0.1962
  375MPD2    H7 5619   2.291   0.653  16.504  1.2914 -2.6726 -0.6083
  376TMC3    C1 5620   2.516   0.129  16.227 -0.4305 -0.2145  1.0042
  376TMC3    C2 5621   2.595   0.028  16.277  0.0938 -0.4750  0.2301
  376TMC3    C3 5622   2.613   4.645  16.196 -0.6797  0.6816 -1.0306
  376TMC3    C4 5623   2.434   0.109  16.122  0.8176  0.6806  0.3239
  376TMC3    C5 5624   2.447   0.000  16.047 -0.9493 -0.1421  0.2993
  376TMC3    C6 5625   2.536   4.629  16.087 -0.0214 -0.4126 -0.8249
  376TMC3     C 5626   2.513   0.266  16.283 -0.2741 -0.2057 -0.2508
  376TMC3     O 5627   2.449   0.352  16.229  0.0275 -0.1561  0.7463
  376TMC3     H 5628   2.666   0.033  16.359 -0.3817 -1.4231  0.7067
  376TMC3    H1 5629   2.363   0.179  16.079  1.6450  0.7368 -0.9433
  376TMC3    H2 5630   2.548   4.547  16.017  0.6001  0.5525 -1.8477
  376TMC3    C7 5631   2.334   4.675  15.985 -0.0127 -0.3169  1.1064
  376TMC3    C8 5632   2.733   4.563  16.213 -0.5283 -0.3698 -0.3175
  376TMC3    O1 5633   2.337   4.598  15.889  0.8515  0.1849 -0.0284
  376TMC3    O2 5634   2.802   4.595  16.311 -0.2128  0.7622  0.1972
  377MPD2     C 5635   0.646   4.284  11.818  0.0085 -0.5440 -0.1740
  377MPD2    C1 5636   0.712   4.335  11.933  0.2836 -0.5126  0.2930
  377MPD2    C2 5637   0.643   4.352  12.048  0.6960  0.4168  0.3110
  377MPD2    C3 5638   0.510   4.311  12.053 -0.2580 -0.0176  0.1113
  377MPD2    C4 5639   0.443   4.257  11.951  0.0603 -0.1147  0.2369
  377MPD2    C5 5640   0.511   4.246  11.828 -0.8113 -0.3373 -0.2356
  377MPD2     H 5641   0.690   4.407  12.128  0.3324  2.0735 -0.6106
  377MPD2    H1 5642   0.340   4.225  11.961  0.3414 -1.0611  0.0427
  377MPD2    H2 5643   0.709   4.263  11.733  1.1505 -0.6901  0.7114
  377MPD2    H3 5644   0.460   4.205  11.741 -0.2475 -3.3241  0.8637
  377MPD2     N 5645   0.430   4.319  12.175 -0.3433  0.2756  0.7268
  377MPD2    H5 5646   0.333   4.291  12.173  0.2937 -1.8378 -0.9939
  377MPD2    N1 5647   0.853   4.364  11.911  0.5496 -0.1721 -0.2058
  377MPD2    H7 5648   0.883   4.339  11.817  2.8470 -0.4575  0.6170
  378TMC3    C1 5649   1.106   4.571  11.688 -0.0511  0.5373 -0.7326
  378TMC3    C2 5650   0.997   4.547  11.769 -0.5206  0.0022  0.2593
  378TMC3    C3 5651   1.023   4.512  11.899 -0.3179 -0.4500  0.3553
  378TMC3    C4 5652   1.229   4.577  11.735  0.1408  0.3621  0.7294
  378TMC3    C5 5653   1.254   4.559  11.866  0.6219  0.3436 -1.1256
  378TMC3    C6 5654   1.149   4.529  11.952  0.1122 -0.1089  0.1133
  378TMC3     C 5655   1.071   4.621  11.559  0.3526  0.4664 -0.0249
  378TMC3     O 5656   0.976   4.577  11.494 -0.8117  0.0867  0.2956
  378TMC3     H 5657   0.896   4.551  11.730 -0.3701 -1.0170 -0.2468
  378TMC3    H1 5658   1.310   4.611  11.672  1.3416 -2.6890  0.6209
  378TMC3    H2 5659   1.166   4.510  12.057  0.8391 -2.6738 -0.4709
  378TMC3    C7 5660   1.389   4.564  11.912 -0.3767  0.8439  0.2899
  378TMC3    C8 5661   0.936   4.442  11.989 -0.2813  0.2079  0.2665
  378TMC3    O1 5662   1.412   4.603  12.028 -0.1219 -0.0874 -0.2991
  378TMC3    O2 5663   0.934   4.479  12.109 -0.4751 -0.1545 -0.6044
  379MPD2     C 5664   1.744   2.524  15.908 -0.4017  0.6312 -0.6333
  379MPD2    C1 5665   1.642   2.459  15.973 -0.1568  0.0413 -0.2263
  379MPD2    C2 5666   1.674   2.378  16.083  0.8154 -0.2752 -0.2669
  379MPD2    C3 5667   1.809   2.365  16.122  0.3752 -0.2110 -0.2846
  379MPD2    C4 5668   1.905   2.440  16.066  0.3587 -0.8025  0.4874
  379MPD2    C5 5669   1.879   2.507  15.946  0.8248 -0.1452 -0.8344
  379MPD2     H 5670   1.596   2.321  16.131 -1.4388  2.8347 -0.2527
  379MPD2    H1 5671   2.007   2.420  16.097  0.9869 -0.8677 -1.5955
  379MPD2    H2 5672   1.720   2.592  15.827 -2.4256  0.2327 -0.3646
  379MPD2    H3 5673   1.961   2.554  15.893  1.3758  0.6146  0.6598
  379MPD2     N 5674   1.847   2.306  16.242  0.2727 -0.1657  0.6412
  379MPD2    H5 5675   1.940   2.331  16.273 -0.5632 -0.2641  3.3116
  379MPD2    N1 5676   1.510   2.481  15.931 -0.1645 -0.2004  0.8040
  379MPD2    H7 5677   1.493   2.541  15.851  1.1024 -0.9749 -0.0645
  380TMC3    C1 5678   1.303   2.406  15.877  0.4553 -0.2735 -0.8862
  380TMC3    C2 5679   1.384   2.370  15.772 -0.0728  0.2202  0.7034
  380TMC3    C3 5680   1.360   2.410  15.643 -0.0795  0.2854  0.1835
  380TMC3    C4 5681   1.214   2.509  15.857  0.4428 -0.9337  0.3644
  380TMC3    C5 5682   1.192   2.553  15.729  0.0869  0.3365  0.1590
  380TMC3    C6 5683   1.265   2.507  15.622  0.2249 -0.0257 -0.0837
  380TMC3     C 5684   1.396   2.428  15.984 -0.6227  0.8370 -0.4185
  380TMC3     O 5685   1.369   2.400  16.104  0.7402 -0.3656  0.4361
  380TMC3     H 5686   1.468   2.305  15.794 -0.5011 -0.7398 -0.5444
  380TMC3    H1 5687   1.150   2.546  15.936  1.7151 -0.3788  1.1296
  380TMC3    H2 5688   1.263   2.564  15.530  1.8499 -1.1575 -0.8098
  380TMC3    C7 5689   1.071   2.629  15.712  0.3985  0.2526  0.4788
  380TMC3    C8 5690   1.479   2.431  15.551  0.2519  0.3844 -0.0164
  380TMC3    O1 5691   0.974   2.589  15.776  0.5346  0.1540 -0.0148
  380TMC3    O2 5692   1.488   2.541  15.499 -0.1711  0.0387 -0.1020
  381TMC3    C1 5693   1.499   3.290  16.469 -0.0675  0.4667  0.5374
  381TMC3    C2 5694   1.526   3.412  16.417  0.2163  0.0976  0.0606
  381TMC3    C3 5695   1.506   3.520  16.502 -0.4025  0.2858 -0.3824
  381TMC3    C4 5696   1.477   3.264  16.599 -0.1331  0.0657  0.9615
  381TMC3    C5 5697   1.464   3.369  16.686  0.0621 -0.7731 -0.3207
  381TMC3    C6 5698   1.474   3.499  16.637  0.1768  0.4445  0.5750
  381TMC3     C 5699   1.481   3.173  16.386  0.5761  0.3663  0.1120
  381TMC3     O 5700   1.469   3.061  16.436 -0.0643  0.1444  0.4918
  381TMC3     H 5701   1.556   3.434  16.315 -2.1662 -0.2817 -0.7346
  381TMC3    H1 5702   1.449   3.166  16.636 -1.6968  0.1927  0.1206
  381TMC3    H2 5703   1.478   3.576  16.714 -0.8617  1.1388 -0.0676
  381TMC3    C7 5704   1.406   3.341  16.814 -0.4419 -0.1217  0.3129
  381TMC3    C8 5705   1.535   3.646  16.449  0.0989  0.5876  0.4722
  381TMC3    O1 5706   1.429   3.232  16.866  0.3939 -0.0710  0.2821
  381TMC3    O2 5707   1.588   3.660  16.342  0.8628 -0.1012  0.0757
  382MPD2     C 5708   0.307   0.809  16.996 -0.3444 -0.4870 -0.0250
  382MPD2    C1 5709   0.296   0.888  17.109  0.3956  0.5311 -0.3732
  382MPD2    C2 5710   0.211   0.840  17.207 -0.3970  0.6116  0.5154
  382MPD2    C3 5711   0.155   0.718  17.210 -0.1659  0.3363  0.9231
  382MPD2    C4 5712   0.190   0.635  17.106  0.1196 -0.0605 -0.0796
  382MPD2    C5 5713   0.256   0.682  17.001 -0.3174  0.2563  0.1974
  382MPD2     H 5714   0.203   0.895  17.300 -0.3745 -0.9476  1.4387
  382MPD2    H1 5715   0.158   0.532  17.107 -1.1175  0.3303 -0.3619
  382MPD2    H2 5716   0.364   0.846  16.911  0.6138  1.3555  1.4356
  382MPD2    H3 5717   0.287   0.607  16.929  0.2601  0.3221  0.3807
  382MPD2     N 5718   0.077   0.666  17.315 -0.2413  0.2602  0.1313
  382MPD2    H5 5719   0.042   0.572  17.299  0.5564  0.2185 -1.3568
  382MPD2    N1 5720   0.346   1.019  17.129 -0.2088  0.1958 -0.3032
  382MPD2    H7 5721   0.322   1.049  17.223 -0.9743 -0.0379 -0.4186
  383TMC3    C1 5722   4.656   0.681  17.501  0.0240  0.3663 -0.9603
  383TMC3    C2 5723   4.563   0.768  17.548  0.0522  0.1692 -0.4894
  383TMC3    C3 5724   4.492   0.735  17.666 -0.0998  0.2527 -0.0336
  383TMC3    C4 5725   4.663   0.553  17.555 -0.0489 -0.1889 -0.2338
  383TMC3    C5 5726   4.583   0.518  17.663  0.8479 -0.1875  0.4454
  383TMC3    C6 5727   4.497   0.609   0.018 -0.1469 -0.5921 -0.4620
  383TMC3     C 5728   0.028   0.748  17.414 -0.3366  0.4392  0.1029
  383TMC3     O 5729   0.044   0.868  17.432 -0.2938 -0.1808 -0.0077
  383TMC3     H 5730   4.558   0.872  17.519  3.6035  0.5339  0.2376
  383TMC3    H1 5731   0.023   0.494  17.523  0.6482  0.3866  0.5374
  383TMC3    H2 5732   4.448   0.598   0.114  3.6965 -0.6042  1.4815
  383TMC3    C7 5733   4.612   0.390   0.019 -0.5554 -0.2626 -0.3815
  383TMC3    C8 5734   4.375   0.811  17.675 -0.1830  0.2170  0.2742
  383TMC3    O1 5735   4.696   0.326  17.660 -0.3355  0.0925 -0.0131
  383TMC3    O2 5736   4.305   0.807   0.074  0.2024  0.1268  0.3348
  384MPD2     C 5737   1.920   2.769  11.512  0.2914  0.5573 -0.0783
  384MPD2    C1 5738   1.975   2.713  11.624  0.5911 -0.0917 -0.4023
  384MPD2    C2 5739   2.111   2.684  11.631  0.3194 -0.6042 -0.5949
  384MPD2    C3 5740   2.197   2.724  11.528  0.3676  0.5360 -0.6916
  384MPD2    C4 5741   2.132   2.757  11.409 -0.0250 -0.2391  0.5163
  384MPD2    C5 5742   1.999   2.778  11.402  0.2693  0.6292  0.1379
  384MPD2     H 5743   2.146   2.617  11.709 -1.8339 -0.4989  0.4482
  384MPD2    H1 5744   2.182   2.761  11.313 -2.1874  1.2026 -0.5576
  384MPD2    H2 5745   1.817   2.800  11.508  0.1504  0.0493 -0.4532
  384MPD2    H3 5746   1.945   2.803  11.311  1.3470 -0.9424 -0.9404
  384MPD2     N 5747   2.339   2.698  11.533  0.2205 -0.4953 -0.8651
  384MPD2    H5 5748   2.391   2.677  11.448  0.3151 -4.9594  0.3025
  384MPD2    N1 5749   1.895   2.664  11.733 -0.0933 -0.3680  0.4883
  384MPD2    H7 5750   1.943   2.615  11.808  0.3805 -2.6705 -1.3307
  385TMC3    C1 5751   2.518   2.599  11.650 -0.3627 -0.8291  0.1420
  385TMC3    C2 5752   2.544   2.544  11.527  0.4612 -0.3572 -0.0024
  385TMC3    C3 5753   2.564   2.410  11.512 -0.6985  0.0344 -0.0200
  385TMC3    C4 5754   2.508   2.514  11.755 -0.1067 -0.0903 -0.1300
  385TMC3    C5 5755   2.518   2.376  11.736  0.1607  0.8532 -0.1293
  385TMC3    C6 5756   2.547   2.318  11.614  0.2564 -0.7311  0.2711
  385TMC3     C 5757   2.407   2.687  11.655  0.3158  0.0011  0.4995
  385TMC3     O 5758   2.366   2.723  11.769 -0.0341  0.0802  0.7753
  385TMC3     H 5759   2.558   2.604  11.438 -0.1027 -0.2767 -0.0329
  385TMC3    H1 5760   2.484   2.551  11.854  0.2871 -2.1228  0.7217
  385TMC3    H2 5761   2.564   2.211  11.609  1.7590 -0.4491 -0.5730
  385TMC3    C7 5762   2.450   2.301  11.832  0.6398 -0.7258  0.3275
  385TMC3    C8 5763   2.654   2.371  11.401  0.3067  0.4552  0.2539
  385TMC3    O1 5764   2.427   2.355  11.938 -0.3335  0.5118  0.0010
  385TMC3    O2 5765   2.713   2.465  11.344  0.6310 -0.7490  0.1024
  386TMC3    C1 5766   2.525   4.541  11.742 -0.1582  0.2088  0.4011
  386TMC3    C2 5767   2.475   4.501  11.622  0.4686  0.5678 -0.1249
  386TMC3    C3 5768   2.376   4.576  11.566  0.4090  0.3093 -0.1770
  386TMC3    C4 5769   2.470   4.644  11.818 -0.1818 -0.6251  0.2400
  386TMC3    C5 5770   2.381   4.719  11.755  0.3437  0.3703 -0.6004
  386TMC3    C6 5771   2.332   4.689  11.631  0.2109  0.7661 -0.0091
  386TMC3     C 5772   2.640   4.476  11.801  0.7893 -0.0346 -0.2456
  386TMC3     O 5773   2.696   4.535  11.894  0.2334 -0.4932 -0.2761
  386TMC3     H 5774   2.512   4.413  11.570  0.3906 -0.3809  1.4371
  386TMC3    H1 5775   2.507   4.652  11.920 -0.1569 -2.3213  0.3683
  386TMC3    H2 5776   2.257   0.024  11.581 -0.7062  1.4763  2.2284
  386TMC3    C7 5777   2.314   0.081  11.842  0.2085  0.0896  0.0083
  386TMC3    C8 5778   2.273   4.514  11.480 -0.3947  0.1395 -0.1188
  386TMC3    O1 5779   2.309   0.051  11.961 -0.3280  0.1981  0.2759
  386TMC3    O2 5780   2.172   4.583  11.469 -0.0935  0.0739  0.6726
  387MPD2     C 5781   4.271   4.184   9.447  0.5835  0.2337  0.2077
  387MPD2    C1 5782   4.397   4.225   9.460  0.5766 -0.2368 -0.0775
  387MPD2    C2 5783   4.490   4.131   9.434  0.4874  0.8212 -0.3809
  387MPD2    C3 5784   4.464   4.002   9.392  0.5302  1.0896 -0.6532
  387MPD2    C4 5785   4.332   3.959   9.378  1.1067  0.1321  0.2882
  387MPD2    C5 5786   4.241   4.055   9.394  0.1229 -0.1663  0.1246
  387MPD2     H 5787   4.592   4.160   9.456 -0.0465  0.9159  1.9973
  387MPD2    H1 5788   4.308   3.862   9.337  0.9148  0.4542 -0.3559
  387MPD2    H2 5789   4.184   4.243   9.475  1.4517  0.9008  1.5155
  387MPD2    H3 5790   4.138   4.023   9.388 -0.2449  1.3334 -1.4906
  387MPD2     N 5791   4.564   3.909   9.367  0.3413 -0.0295  0.2922
  387MPD2    H5 5792   4.659   3.944   9.379  0.7312 -1.2448  0.6609
  387MPD2    N1 5793   4.425   4.344   9.528  0.2370 -0.0823 -0.5736
  387MPD2    H7 5794   4.523   4.368   9.526 -0.6376  3.6862  1.2552
  388TMC3    C1 5795   4.437   4.529   9.662  0.2309  0.0562 -0.2846
  388TMC3    C2 5796   4.397   4.658   9.688  0.1728 -0.3025  0.5636
  388TMC3    C3 5797   4.477   0.000   9.777 -0.2074  0.6511  0.1508
  388TMC3    C4 5798   4.546   4.469   9.726 -0.5950 -0.0238 -0.3122
  388TMC3    C5 5799   4.630   4.548   9.805  0.2470  0.2599 -0.1205
  388TMC3    C6 5800   4.594   4.675   9.832  0.3003 -0.4421  0.5761
  388TMC3     C 5801   4.349   4.442   9.590 -0.3473  0.1443 -0.1636
  388TMC3     O 5802   4.224   4.463   9.594 -0.4420  0.0622  0.0002
  388TMC3     H 5803   4.310   4.705   9.644  0.9315  0.3922 -0.1835
  388TMC3    H1 5804   4.551   4.361   9.731 -1.3086 -0.0103  0.8417
  388TMC3    H2 5805   4.655   0.002   9.905  0.4516  1.6858 -1.0525
  388TMC3    C7 5806   0.031   4.500   9.836  0.4679  0.0482  0.3041
  388TMC3    C8 5807   4.429   0.127   9.821  0.1877 -0.5479 -0.4951
  388TMC3    O1 5808   0.103   4.568   9.903 -0.1604 -0.2419 -0.1573
  388TMC3    O2 5809   4.342   0.171   9.747 -0.0063 -0.4421 -0.5792
  389MPD2     C 5810   4.344   2.886  10.697 -0.1970  0.2220 -0.3279
  389MPD2    C1 5811   4.206   2.882  10.679  0.0776 -0.5460  0.1032
  389MPD2    C2 5812   4.129   2.853  10.786  0.4077 -0.1235 -0.7784
  389MPD2    C3 5813   4.189   2.807  10.903  0.6430 -0.6829  0.1069
  389MPD2    C4 5814   4.324   2.830  10.927  0.5069  0.1974 -0.2448
  389MPD2    C5 5815   4.400   2.857  10.817  0.9176  0.5714  0.7684
  389MPD2     H 5816   4.024   2.833  10.768  0.0347  0.1651  1.0738
  389MPD2    H1 5817   4.378   2.808  11.019  0.4939 -0.9212 -0.5151
  389MPD2    H2 5818   4.414   2.919  10.621 -0.5318 -0.4743 -0.9367
  389MPD2    H3 5819   4.508   2.867  10.822  0.9118  1.5152 -0.7925
  389MPD2     N 5820   4.126   2.739  11.007 -0.1225  0.0022  0.1081
  389MPD2    H5 5821   4.182   2.733  11.092  1.5537 -0.0727 -1.0072
  389MPD2    N1 5822   4.160   2.916  10.549  0.2601  0.2501  0.3986
  389MPD2    H7 5823   4.236   2.938  10.485  0.6792 -2.3593  0.0009
  390TMC3    C1 5824   3.956   2.658  11.153  0.2990 -0.1659 -0.7837
  390TMC3    C2 5825   4.041   2.564  11.212 -0.1312 -0.7491 -0.5565
  390TMC3    C3 5826   4.009   2.527  11.343  0.4771 -0.1683  0.0960
  390TMC3    C4 5827   3.842   2.705  11.207  0.4080 -0.1690 -0.6922
  390TMC3    C5 5828   3.812   2.659  11.332  0.2206 -0.5035  0.9658
  390TMC3    C6 5829   3.895   2.577  11.406  0.4474 -0.1924  0.8977
  390TMC3     C 5830   3.990   2.723  11.029 -0.1692  0.7715 -0.2300
  390TMC3     O 5831   3.899   2.752  10.954 -0.3633 -0.3679  0.1963
  390TMC3     H 5832   4.128   2.521  11.165  0.1381  0.8099 -1.4892
  390TMC3    H1 5833   3.773   2.776  11.162  0.0361 -0.0279  0.1105
  390TMC3    H2 5834   3.866   2.543  11.505  1.0194 -0.4358  0.9773
  390TMC3    C7 5835   3.681   2.697  11.385  0.1132 -0.5765 -0.1834
  390TMC3    C8 5836   4.015   2.384  11.356  0.2411  0.4811 -0.2834
  390TMC3    O1 5837   3.651   2.813  11.363  0.0037  0.2124  0.1454
  390TMC3    O2 5838   4.036   2.326  11.251  0.4855 -0.2445  0.0216
  391MPD2     C 5839   2.804   4.206  11.421 -0.1159 -0.3461 -0.1272
  391MPD2    C1 5840   2.914   4.263  11.362  0.3684 -0.1536  0.0240
  391MPD2    C2 5841   2.908   4.282  11.221 -0.3084 -0.4807  0.7707
  391MPD2    C3 5842   2.804   4.234  11.143 -0.0514  0.1683  0.0928
  391MPD2    C4 5843   2.690   4.174  11.205  0.5386 -0.8311  0.2653
  391MPD2    C5 5844   2.694   4.163  11.345  0.3690 -0.3750  0.3473
  391MPD2     H 5845   2.992   4.327  11.169  0.4143 -1.3420  1.1914
  391MPD2    H1 5846   2.605   4.139  11.148  0.9124  2.4034 -2.2832
  391MPD2    H2 5847   2.800   4.204  11.530 -0.7166  0.1282 -0.1485
  391MPD2    H3 5848   2.608   4.123  11.397  0.1693 -1.1565 -0.5908
  391MPD2     N 5849   2.811   4.262  11.003 -0.0951  0.1473  0.7669
  391MPD2    H5 5850   2.885   4.316  10.959 -1.9324  0.9010 -1.3882
  391MPD2    N1 5851   3.018   4.315  11.443  0.0194 -0.0338 -0.0282
  391MPD2    H7 5852   3.018   4.302  11.544  0.1640 -4.1801 -0.5548
  392TMC3    C1 5853   2.756   4.258  10.768 -0.0164  0.3194  0.3596
  392TMC3    C2 5854   2.684   4.210  10.661 -0.2439 -0.1622  0.2105
  392TMC3    C3 5855   2.734   4.209  10.532 -0.1546  0.1194 -0.4470
  392TMC3    C4 5856   2.878   4.309  10.738 -0.5891 -0.0251  0.7289
  392TMC3    C5 5857   2.922   4.311  10.603  0.2169  0.0488 -0.3866
  392TMC3    C6 5858   2.855   4.268  10.496 -1.4504 -0.2025 -0.1437
  392TMC3     C 5859   2.723   4.215  10.908  1.7424  0.5004 -0.4370
  392TMC3     O 5860   2.620   4.158  10.930  0.8813  0.5749 -0.2704
  392TMC3     H 5861   2.589   4.165  10.687 -1.3665  2.5674  0.7964
  392TMC3    H1 5862   2.941   4.349  10.817 -1.3393 -1.2935  1.9679
  392TMC3    H2 5863   2.893   4.270  10.394 -0.1740  0.2777  0.3418
  392TMC3    C7 5864   3.048   4.370  10.588 -0.0363 -0.0970  0.3187
  392TMC3    C8 5865   2.637   4.242  10.436  0.0494 -0.0063 -0.4410
  392TMC3    O1 5866   3.091   4.458  10.661 -0.1087  1.0926  0.1362
  392TMC3    O2 5867   2.557   4.323  10.480 -0.1196 -0.0012  1.0379
  393TMC3    C1 5868   2.573   2.415  10.517  1.1671  0.1985  0.1044
  393TMC3    C2 5869   2.458   2.423  10.589  0.2196 -0.0754  0.0107
  393TMC3    C3 5870   2.465   2.414  10.721  0.0101  0.3167 -0.1547
  393TMC3    C4 5871   2.699   2.411  10.571  0.8424  0.1173  0.1148
  393TMC3    C5 5872   2.705   2.395  10.708  0.0815 -0.5375 -0.5283
  393TMC3    C6 5873   2.591   2.401  10.781 -0.3466  0.2527  0.7980
  393TMC3     C 5874   2.562   2.442  10.375 -0.3149  0.1370  0.7172
  393TMC3     O 5875   2.449   2.462  10.332  0.2609  0.9053 -0.1186
  393TMC3     H 5876   2.360   2.416  10.543  0.3488 -1.6160 -0.0178
  393TMC3    H1 5877   2.791   2.412  10.514 -0.5480 -0.0123 -2.1547
  393TMC3    H2 5878   2.597   2.401  10.889  1.0048  2.9092  0.7422
  393TMC3    C7 5879   2.834   2.372  10.773  0.1804 -0.2345  0.7425
  393TMC3    C8 5880   2.353   2.350  10.794 -0.7160  0.2572 -0.2746
  393TMC3    O1 5881   2.856   2.419  10.882  0.3974 -0.1682  0.4514
  393TMC3    O2 5882   2.391   2.250  10.854 -0.0842 -0.2885  0.2418
  394TMC3    C1 5883   4.004   2.925  10.359  0.5999 -0.2552 -0.3195
  394TMC3    C2 5884   3.892   2.867  10.303 -0.2867  0.5740 -0.3827
  394TMC3    C3 5885   3.875   2.879  10.167  0.2974 -0.0490 -0.2965
  394TMC3    C4 5886   4.106   2.973  10.283 -0.1632 -0.1905  0.3937
  394TMC3    C5 5887   4.081   2.993  10.151 -0.2910  0.4323  0.5894
  394TMC3    C6 5888   3.965   2.946  10.095  0.3449 -0.1388 -0.2083
  394TMC3     C 5889   4.025   2.911  10.509 -0.6109 -0.7065  0.1601
  394TMC3     O 5890   3.926   2.905  10.579 -0.4709 -0.3719  0.1639
  394TMC3     H 5891   3.818   2.805  10.352 -1.3656  2.5854  0.5436
  394TMC3    H1 5892   4.186   3.033  10.326 -1.2191  1.8016 -0.4234
  394TMC3    H2 5893   3.951   2.967   9.990 -1.6452 -0.1349  0.0476
  394TMC3    C7 5894   4.164   3.086  10.082  0.5979 -0.2691  1.3211
  394TMC3    C8 5895   3.821   2.767  10.105 -0.3788 -0.2888  0.4599
  394TMC3    O1 5896   4.110   3.150   9.994  0.2503  0.2756  0.2602
  394TMC3    O2 5897   3.771   2.774   9.996  0.7105  0.4017  0.1447
  395TMC3    C1 5898   3.751   0.111  14.455 -0.5300 -0.7580  0.1255
  395TMC3    C2 5899   3.622   0.114  14.475 -0.3972  0.3892  0.8155
  395TMC3    C3 5900   3.572   0.219  14.550 -0.0134 -0.1691 -0.4396
  395TMC3    C4 5901   3.843   0.202  14.502 -0.0875 -0.1204 -1.1755
  395TMC3    C5 5902   3.795   0.299  14.576  0.1834 -0.4765  0.0928
  395TMC3    C6 5903   3.657   0.310  14.604 -0.1278  0.1516 -0.4711
  395TMC3     C 5904   3.795   4.704  14.446 -0.3402 -0.4999  0.2920
  395TMC3     O 5905   3.857   4.671  14.344 -0.1692  0.5182 -0.3577
  395TMC3     H 5906   3.566   0.036  14.424  0.4613 -0.6543  1.4812
  395TMC3    H1 5907   3.949   0.184  14.492  0.0483 -0.6819  1.1820
  395TMC3    H2 5908   3.617   0.379  14.677 -0.5081  1.0166 -1.5117
  395TMC3    C7 5909   3.882   0.393  14.644 -0.6764 -0.0787  0.1383
  395TMC3    C8 5910   3.440   0.195  14.609 -0.4643 -0.1589  0.2572
  395TMC3    O1 5911   3.838   0.453  14.739  0.0588 -0.7117  0.0273
  395TMC3    O2 5912   3.416   0.243  14.720  0.5508  0.3778  0.3380
  396MPD2     C 5913   3.051   1.122  16.942 -0.4292 -0.2453 -0.0199
  396MPD2    C1 5914   3.185   1.115  16.977  0.1031  0.1191 -0.0108
  396MPD2    C2 5915   3.280   1.173  16.889  0.1018 -0.1215  0.3466
  396MPD2    C3 5916   3.231   1.239  16.773 -0.4193  0.5693 -0.4486
  396MPD2    C4 5917   3.096   1.240  16.742 -0.3057 -0.2424  0.2307
  396MPD2    C5 5918   3.014   1.176  16.825  0.3510 -0.5784  0.1654
  396MPD2     H 5919   3.385   1.169  16.916  0.0888 -0.7164  0.3139
  396MPD2    H1 5920   3.056   1.287  16.653  1.4065 -2.1029 -1.5405
  396MPD2    H2 5921   2.969   1.081  16.999 -0.6391  0.6172  0.2860
  396MPD2    H3 5922   2.909   1.171  16.797 -0.0713  1.4322  1.4681
  396MPD2     N 5923   3.324   1.312  16.692 -0.3597 -0.1336 -0.1637
  396MPD2    H5 5924   3.418   1.328  16.728  0.0425  0.8202 -1.6085
  396MPD2    N1 5925   3.225   1.043  17.094 -0.7310  0.0400 -0.3417
  396MPD2    H7 5926   3.152   1.000  17.150 -0.6322  0.5117  0.1460
  397TMC3    C1 5927   3.332   0.939  17.262 -0.4499 -0.7647  0.2987
  397TMC3    C2 5928   3.399   0.820  17.248 -0.0605  0.1358 -0.4074
  397TMC3    C3 5929   3.334   0.702  17.262 -0.0983 -0.6415 -0.4914
  397TMC3    C4 5930   3.207   0.932  17.312  0.1233 -0.0277 -0.1944
  397TMC3    C5 5931   3.148   0.816  17.353 -0.1018  0.7146 -0.4314
  397TMC3    C6 5932   3.215   0.700  17.335 -0.6090  0.5196 -0.0176
  397TMC3     C 5933   3.348   1.018  17.144 -0.4553  0.0933  0.3161
  397TMC3     O 5934   3.460   1.039  17.098 -0.1868 -0.7135  0.4055
  397TMC3     H 5935   3.491   0.823  17.192 -1.2394  1.3592 -2.2659
  397TMC3    H1 5936   3.153   1.024  17.329 -0.1718 -0.3305  0.4968
  397TMC3    H2 5937   3.168   0.605  17.359  0.5284 -0.6307 -2.4245
  397TMC3    C7 5938   3.007   0.825  17.386  0.0884 -0.1222 -0.3756
  397TMC3    C8 5939   3.338   0.641  17.126  0.3458  0.3197  0.5690
  397TMC3    O1 5940   2.936   0.871  17.295  0.3724  0.5004  0.6388
  397TMC3    O2 5941   3.413   0.672  17.038  0.0023  0.0806  0.3355
  398MPD2     C 5942   1.019   1.636  17.681 -0.4296  0.8609 -0.3283
  398MPD2    C1 5943   1.092   1.581   0.083  0.4401  0.0172  0.1627
  398MPD2    C2 5944   1.177   1.663   0.142 -0.5649 -0.4673 -0.5259
  398MPD2    C3 5945   1.207   1.791   0.098 -0.1761  0.2299  0.1024
  398MPD2    C4 5946   1.131   1.840  17.694  0.2979  0.2582  0.1086
  398MPD2    C5 5947   1.040   1.765  17.631  0.9145 -0.5149 -0.0515
  398MPD2     H 5948   1.230   1.632   0.232 -0.3169 -0.0906 -0.5384
  398MPD2    H1 5949   1.148   1.939  17.652 -2.0388 -0.5835 -2.8908
  398MPD2    H2 5950   0.958   1.568  17.622 -0.2377  0.9442 -0.6260
  398MPD2    H3 5951   1.002   1.811  17.540 -0.2965 -2.9252 -0.7604
  398MPD2     N 5952   1.289   1.871   0.177 -0.1079 -0.0218 -0.2581
  398MPD2    H5 5953   1.325   1.838   0.266 -0.5691  0.7229  0.2114
  398MPD2    N1 5954   1.091   1.444   0.112  0.2206  0.3972  0.0716
  398MPD2    H7 5955   1.167   1.411   0.171  2.1267  2.1115 -1.4099
  399TMC3    C1 5956   1.049   1.221   0.104  0.2358 -0.0422 -0.2908
  399TMC3    C2 5957   1.179   1.196   0.116  0.3929  0.2353  0.6755
  399TMC3    C3 5958   1.207   1.072   0.171 -0.9955  0.2046 -0.2187
  399TMC3    C4 5959   0.942   1.137   0.131  0.3316 -0.4051 -0.5005
  399TMC3    C5 5960   0.978   1.011   0.177 -0.0390 -0.3651  0.1567
  399TMC3    C6 5961   1.111   0.977   0.200  0.3508  0.7876 -0.7362
  399TMC3     C 5962   1.008   1.351   0.057 -0.5417  0.4956  0.2692
  399TMC3     O 5963   0.893   1.363   0.020  0.1797  0.0527  0.2472
  399TMC3     H 5964   1.248   1.262   0.063 -1.9970  1.0092 -1.4711
  399TMC3    H1 5965   0.841   1.160   0.099  0.4401 -1.1904 -1.3948
  399TMC3    H2 5966   1.131   0.879   0.241 -1.7596  0.4319 -0.5839
  399TMC3    C7 5967   0.878   0.907   0.186 -0.2936 -0.2717  0.3726
  399TMC3    C8 5968   1.342   1.013   0.179 -0.0030  0.0818  0.3839
  399TMC3    O1 5969   0.918   0.796   0.196 -0.2648 -0.4179 -0.3279
  399TMC3    O2 5970   1.350   0.895   0.151  0.3559 -0.2179  0.1461
  400TMC3    C1 5971   4.458   4.717  17.454  0.6221  0.3619 -0.3678
  400TMC3    C2 5972   4.333   4.688  17.418  0.0176 -0.8426 -0.1279
  400TMC3    C3 5973   4.259   0.073  17.384  0.7642 -0.1057 -0.2056
  400TMC3    C4 5974   4.500   0.120  17.468  0.6339  0.1154  0.0937
  400TMC3    C5 5975   4.426   0.226  17.432  0.4024  0.3766  0.1810
  400TMC3    C6 5976   4.296   0.205  17.393  0.0173 -0.7112  0.2822
  400TMC3     C 5977   4.550   4.621  17.402  0.0328 -0.2838  0.3023
  400TMC3     O 5978   4.527   4.501  17.420  0.4428  0.1576 -0.4851
  400TMC3     H 5979   4.299   4.587  17.398  0.4713 -1.0912  0.3579
  400TMC3    H1 5980   4.605   0.129  17.491  0.6758  0.5965 -0.2757
  400TMC3    H2 5981   4.236   0.292  17.364 -0.4992 -0.3256  2.5052
  400TMC3    C7 5982   4.498   0.289  17.325  0.3040  0.3100  1.0194
  400TMC3    C8 5983   4.132   0.051  17.316 -0.1990 -0.4532  0.5348
  400TMC3    O1 5984   4.606   0.245  17.296  0.1628 -0.9204  0.3232
  400TMC3    O2 5985   4.049   0.145  17.312  0.2965 -0.5731 -0.1250
  401MPD2     C 5986   2.738   4.561   0.481  0.2668  0.4829  0.2547
  401MPD2    C1 5987   2.866   4.549   0.527 -0.0340 -0.1852 -0.1632
  401MPD2    C2 5988   2.961   4.500   0.441 -0.0297  0.7965 -0.5532
  401MPD2    C3 5989   2.929   4.447   0.325 -0.1348 -0.1473  0.2746
  401MPD2    C4 5990   2.801   4.451   0.280 -0.0896 -0.0868 -0.1233
  401MPD2    C5 5991   2.708   4.517   0.355  0.0214 -0.9361  0.3111
  401MPD2     H 5992   3.064   4.491   0.474 -0.1667  1.7514  0.1256
  401MPD2    H1 5993   2.772   4.412   0.183 -0.4412  0.1475 -0.1122
  401MPD2    H2 5994   2.670   4.628   0.532 -2.1348 -1.8892  0.2141
  401MPD2    H3 5995   2.610   4.519   0.308 -0.4873  0.7405  1.4244
  401MPD2     N 5996   3.027   4.371   0.262  0.0335  0.0642  0.3952
  401MPD2    H5 5997   3.121   4.379   0.299  0.2132  0.7442 -0.2112
  401MPD2    N1 5998   2.907   4.591   0.655  0.2137 -0.0511  0.1203
  401MPD2    H7 5999   3.006   4.604   0.671 -0.2406  1.9128  1.2458
  402TMC3    C1 6000   3.133   4.224   0.113 -0.8483 -0.0941 -0.7929
  402TMC3    C2 6001   3.121   4.085   0.115 -0.4308 -0.1999  0.1273
  402TMC3    C3 6002   3.225   4.013   0.171  0.0640 -0.0725  0.1643
  402TMC3    C4 6003   3.239   4.290   0.163 -1.5347 -0.4606 -0.4798
  402TMC3    C5 6004   3.335   4.224   0.230  0.5518  0.6266  0.0348
  402TMC3    C6 6005   3.325   4.084   0.236 -0.1550 -0.8490  0.3773
  402TMC3     C 6006   3.013   4.282   0.154  0.0862 -0.7886  0.2522
  402TMC3     O 6007   2.908   4.236   0.115 -0.0330 -0.2113  0.2159
  402TMC3     H 6008   3.026   4.051   0.074 -1.1198  0.5589  1.1009
  402TMC3    H1 6009   3.244   4.398   0.156 -0.8677 -0.4460  0.1872
  402TMC3    H2 6010   3.401   4.019   0.277  1.1672  1.3273  1.3955
  402TMC3    C7 6011   3.381   4.301   0.341  0.5410  0.3400 -0.7815
  402TMC3    C8 6012   3.206   3.881   0.227  0.0071  0.5830 -0.8924
  402TMC3    O1 6013   3.312   4.398   0.379  0.3996 -0.3440  0.1263
  402TMC3    O2 6014   3.273   3.853   0.326  0.2516  0.3500  0.3228
  403MPD2     C 6015   1.730   2.267  13.163  0.2753 -0.1395 -0.5612
  403MPD2    C1 6016   1.664   2.335  13.262 -0.1756  0.1506 -0.1653
  403MPD2    C2 6017   1.732   2.359  13.378  0.1819 -0.4668 -0.1863
  403MPD2    C3 6018   1.861   2.315  13.398 -0.3141  0.5838  1.1621
  403MPD2    C4 6019   1.928   2.245  13.293  0.6535  0.2022  0.1131
  403MPD2    C5 6020   1.860   2.232  13.175 -0.1702 -0.4346 -0.5902
  403MPD2     H 6021   1.684   2.400  13.466  1.3954 -0.5534  0.5174
  403MPD2    H1 6022   2.032   2.214  13.302  0.9638  0.9221 -1.0252
  403MPD2    H2 6023   1.691   2.249  13.064  0.2268 -0.8432 -0.4182
  403MPD2    H3 6024   1.921   2.200  13.092  2.6552 -0.3701  1.4530
  403MPD2     N 6025   1.920   2.342  13.524  0.0205  0.1810  0.0404
  403MPD2    H5 6026   1.866   2.398  13.588 -1.1608 -0.8680 -0.0541
  403MPD2    N1 6027   1.527   2.368  13.246 -0.3393 -0.0311 -0.3805
  403MPD2    H7 6028   1.485   2.334  13.160  1.3963  0.6417 -1.4857
  404TMC3    C1 6029   1.309   2.412  13.299 -0.2414  0.3961  0.0178
  404TMC3    C2 6030   1.271   2.303  13.373  0.1145  0.6249 -0.5563
  404TMC3    C3 6031   1.193   2.206  13.323  0.2598  0.0062 -0.7175
  404TMC3    C4 6032   1.279   2.410  13.165  0.3503  0.1421 -0.8133
  404TMC3    C5 6033   1.211   2.301  13.121  0.0591  0.0167 -0.3497
  404TMC3    C6 6034   1.159   2.205  13.196  0.6246  0.4949  0.3542
  404TMC3     C 6035   1.446   2.442  13.331  0.6002  0.2696  0.3384
  404TMC3     O 6036   1.467   2.496  13.439 -0.7167 -0.6153  0.8842
  404TMC3     H 6037   1.314   2.298  13.472  0.8915  2.3035 -0.8011
  404TMC3    H1 6038   1.320   2.493  13.110 -1.5944  0.1012 -2.3248
  404TMC3    H2 6039   1.136   2.109  13.152 -0.7594  0.1042  1.9317
  404TMC3    C7 6040   1.271   2.265  12.996 -0.1379 -0.0017  0.0903
  404TMC3    C8 6041   1.225   2.076  13.381 -0.2462  0.2840 -0.0941
  404TMC3    O1 6042   1.389   2.302  12.990  0.2079  0.2650 -0.2097
  404TMC3    O2 6043   1.257   1.981  13.305  0.0973 -0.6934  0.3471
  405MPD2     C 6044   1.532   2.535  14.917 -0.0571  0.5494 -0.1097
  405MPD2    C1 6045   1.603   2.551  14.798  0.5633  0.0754  0.5752
  405MPD2    C2 6046   1.625   2.679  14.747 -0.4880  0.2158  0.9287
  405MPD2    C3 6047   1.593   2.797  14.824 -0.4235 -0.3309 -0.6123
  405MPD2    C4 6048   1.530   2.772  14.946 -0.1486  0.3306 -0.2743
  405MPD2    C5 6049   1.493   2.649  14.986 -0.1189  0.0825  0.3054
  405MPD2     H 6050   1.670   2.697  14.651 -0.9863  0.3677  0.7270
  405MPD2    H1 6051   1.502   2.857  15.006  3.3379  0.2357  1.4619
  405MPD2    H2 6052   1.516   2.432  14.947  0.3689  0.9789  1.5917
  405MPD2    H3 6053   1.445   2.635  15.082 -0.4881 -1.3480 -0.0877
  405MPD2     N 6054   1.632   2.923  14.779 -0.0922  0.6059 -0.2399
  405MPD2    H5 6055   1.656   2.929  14.681 -2.2120  1.4190 -0.7095
  405MPD2    N1 6056   1.634   2.441  14.726  0.7632 -1.1357 -0.6099
  405MPD2    H7 6057   1.586   2.354  14.745  1.6549 -1.4845  0.0586
  406TMC3    C1 6058   1.625   3.323  14.609  0.3366 -0.0243  0.2014
  406TMC3    C2 6059   1.732   3.305  14.535  0.0635 -0.1368 -0.5821
  406TMC3    C3 6060   1.807   3.191  14.548  0.2152 -0.1136 -0.1286
  406TMC3    C4 6061   1.583   3.252  14.718  0.0704 -0.3952 -0.2445
  406TMC3    C5 6062   1.660   3.137  14.734  0.5583 -0.1062  0.7977
  406TMC3    C6 6063   1.762   3.099  14.645  0.0590 -0.0269  0.3180
  406TMC3     C 6064   1.530   3.422  14.557 -0.1962 -0.3572  0.1032
  406TMC3     O 6065   1.566   3.530  14.511  0.7915 -0.3726  0.2543
  406TMC3     H 6066   1.760   3.368  14.450  0.7047 -1.5141 -1.3904
  406TMC3    H1 6067   1.506   3.273  14.792 -0.3477  1.1285 -1.1270
  406TMC3    H2 6068   1.834   3.021  14.666  1.6287  1.1249 -0.7473
  406TMC3    C7 6069   1.612   3.040  14.834  0.2594 -0.5749  0.0618
  406TMC3    C8 6070   1.874   3.131  14.432  0.4783  0.0457 -0.1482
  406TMC3    O1 6071   1.569   3.078  14.942  0.3984  0.2286  0.6639
  406TMC3    O2 6072   1.892   3.206  14.333 -0.0919 -0.3937 -0.9399
  407MPD2     C 6073   3.797   4.246   9.409  0.1105 -0.0625 -0.1835
  407MPD2    C1 6074   3.907   4.299   9.485  0.7094 -0.3159  0.3863
  407MPD2    C2 6075   3.942   4.244   9.608  0.5720 -0.0227 -0.0668
  407MPD2    C3 6076   3.856   4.151   9.667 -0.2084  1.1826 -1.0447
  407MPD2    C4 6077   3.745   4.114   9.595  0.4430  0.0365  0.2790
  407MPD2    C5 6078   3.719   4.152   9.469 -0.0415 -0.1548 -0.4174
  407MPD2     H 6079   4.022   4.295   9.661  1.7493 -0.7599 -1.1356
  407MPD2    H1 6080   3.683   4.035   9.637  0.1410  0.7948  1.2773
  407MPD2    H2 6081   3.787   4.267   9.303  0.1207  1.1862  0.0606
  407MPD2    H3 6082   3.636   4.108   9.415  1.0129 -0.1167 -2.0585
  407MPD2     N 6083   3.882   4.095   9.797 -0.1887  0.5052  0.4454
  407MPD2    H5 6084   3.803   4.048   9.841  0.9405 -0.9334  0.9362
  407MPD2    N1 6085   3.993   4.403   9.437  0.0415  0.3011  0.4788
  407MPD2    H7 6086   4.059   4.448   9.500  0.2594  1.9476 -0.8911
  408TMC3    C1 6087   4.070   4.576   9.287  0.4911  0.5320 -0.1640
  408TMC3    C2 6088   4.199   4.569   9.314 -0.6073  0.3808 -0.7079
  408TMC3    C3 6089   4.260   4.688   9.288  0.3634  0.3896  0.9121
  408TMC3    C4 6090   4.008   4.682   9.221 -0.0927  0.0670 -0.9344
  408TMC3    C5 6091   4.081   0.060   9.181 -0.3991 -0.9006  0.7642
  408TMC3    C6 6092   4.214   0.067   9.213 -0.2850  0.5982  0.1031
  408TMC3     C 6093   3.985   4.457   9.310  0.6864 -0.7034 -0.0894
  408TMC3     O 6094   3.917   4.426   9.215  0.5812  0.5297  0.8521
  408TMC3     H 6095   4.242   4.480   9.358 -0.4722  0.2273 -1.1459
  408TMC3    H1 6096   3.901   4.673   9.207 -0.1839  0.5773 -0.5881
  408TMC3    H2 6097   4.276   0.137   9.158 -0.2575  0.4216 -0.0886
  408TMC3    C7 6098   4.025   0.156   9.097 -0.6603  0.9830 -0.2320
  408TMC3    C8 6099   4.399   4.676   9.316 -0.0424  0.7037 -0.3020
  408TMC3    O1 6100   4.067   0.273   9.103 -0.6756  0.3868  0.1645
  408TMC3    O2 6101   4.449   4.566   9.308 -0.0579 -0.6032  0.8538
  409MPD2     C 6102   3.508   0.104  17.339  0.2990  0.1165  0.0875
  409MPD2    C1 6103   3.613   0.181  17.387  1.1526  0.5238 -1.0509
  409MPD2    C2 6104   3.646   0.305  17.327  0.2340 -0.2218 -0.4240
  409MPD2    C3 6105   3.590   0.336  17.206  1.0253 -0.2818 -0.0786
  409MPD2    C4 6106   3.488   0.255  17.160  0.2995  0.2405 -0.0417
  409MPD2    C5 6107   3.450   0.143  17.226  0.1097 -0.1751  0.1007
  409MPD2     H 6108   3.729   0.353  17.378 -1.3857  0.6750  1.3587
  409MPD2    H1 6109   3.432   0.280  17.071  1.3064 -0.0349 -0.7492
  409MPD2    H2 6110   3.475   0.012  17.385  0.2190  0.2534  0.3028
  409MPD2    H3 6111   3.367   0.088  17.184 -0.0690 -0.5179  0.9094
  409MPD2     N 6112   3.628   0.451  17.130  0.6226 -0.7902  0.2761
  409MPD2    H5 6113   3.589   0.469  17.038  1.6237  0.3513  0.0790
  409MPD2    N1 6114   3.676   0.143  17.504 -0.6804  0.5106 -0.5773
  409MPD2    H7 6115   3.753   0.202  17.533 -3.1479  2.5156  1.9960
  410TMC3    C1 6116   3.736   0.654  17.088 -0.3608 -0.0820  0.4414
  410TMC3    C2 6117   3.766   0.776  17.141  0.2365  0.3978  0.4707
  410TMC3    C3 6118   3.862   0.851  17.074 -0.2025  0.3544 -0.7239
  410TMC3    C4 6119   3.794   0.602  16.970  0.4437 -0.0155  0.0182
  410TMC3    C5 6120   3.874   0.682  16.905 -0.0618 -0.7399 -0.0949
  410TMC3    C6 6121   3.908   0.803  16.953  0.0605 -0.2656  0.1929
  410TMC3     C 6122   3.686   0.561  17.185 -0.1140 -1.4385 -0.4830
  410TMC3     O 6123   3.669   0.599  17.298  0.0008 -0.0484  0.0125
  410TMC3     H 6124   3.727   0.804  17.238 -1.3756 -1.1694  0.2736
  410TMC3    H1 6125   3.779   0.499  16.942 -0.1653 -0.8165  3.4157
  410TMC3    H2 6126   3.995   0.849  16.907  0.5778 -1.6942 -0.2836
  410TMC3    C7 6127   3.863   0.666  16.759  0.0636 -0.0157  1.0197
  410TMC3    C8 6128   3.965   0.861  17.174  0.3679 -0.4229  0.6517
  410TMC3    O1 6129   3.785   0.580  16.728  0.3930 -0.0854 -0.1954
  410TMC3    O2 6130   4.058   0.781  17.172 -0.7739 -0.0613  0.1860
  411MPD2     C 6131   4.264   1.320  14.641  0.2313  0.1521 -0.1956
  411MPD2    C1 6132   4.187   1.325  14.753  0.1821  0.0953 -0.0969
  411MPD2    C2 6133   4.082   1.230  14.762 -0.2246  0.6004  0.3055
  411MPD2    C3 6134   4.059   1.131  14.664  0.1508  0.0187  0.1699
  411MPD2    C4 6135   4.142   1.129  14.558  0.8472 -0.0247  0.1109
  411MPD2    C5 6136   4.239   1.227  14.546  0.1056 -0.5319  0.1281
  411MPD2     H 6137   4.017   1.224  14.849 -0.8222 -0.1818 -0.2040
  411MPD2    H1 6138   4.109   1.075  14.470 -0.0006 -2.2589  1.7833
  411MPD2    H2 6139   4.328   1.403  14.613 -0.5069  0.0154 -2.2930
  411MPD2    H3 6140   4.301   1.230  14.458 -0.3337 -0.8312 -0.1906
  411MPD2     N 6141   3.947   1.047  14.660  0.4367  0.0510  0.2950
  411MPD2    H5 6142   3.936   0.991  14.576  2.3978 -0.8804  0.6582
  411MPD2    N1 6143   4.218   1.437  14.839 -0.2087 -1.0959 -0.8526
  411MPD2    H7 6144   4.300   1.494  14.824  0.5556 -2.1633 -0.6889
  412TMC3    C1 6145   3.733   0.957  14.703 -0.4282  0.6149  0.3334
  412TMC3    C2 6146   3.609   0.980  14.756 -0.1358 -0.2493 -0.1287
  412TMC3    C3 6147   3.513   0.881  14.736 -0.1449 -0.0819  0.4299
  412TMC3    C4 6148   3.766   0.849  14.626  0.1001 -0.6032  0.1802
  412TMC3    C5 6149   3.662   0.763  14.601  0.9506  0.0016  0.0959
  412TMC3    C6 6150   3.537   0.776  14.653  0.2661 -0.0490 -0.4770
  412TMC3     C 6151   3.835   1.051  14.744  1.2778 -0.1526 -0.0193
  412TMC3     O 6152   3.827   1.103  14.854  0.1549 -0.0223 -0.1122
  412TMC3     H 6153   3.590   1.069  14.815 -1.7613 -2.1148  2.1580
  412TMC3    H1 6154   3.868   0.827  14.594 -0.1901 -0.7555 -0.6512
  412TMC3    H2 6155   3.451   0.723  14.613 -0.6715  2.6943 -2.1617
  412TMC3    C7 6156   3.664   0.666  14.492 -0.2544  0.0669 -0.2553
  412TMC3    C8 6157   3.374   0.922  14.745 -1.1738 -0.0943  0.7414
  412TMC3    O1 6158   3.577   0.579  14.491 -0.3881  0.1338 -0.6502
  412TMC3    O2 6159   3.354   1.026  14.686 -0.4074 -0.1610 -0.3135
  413MPD2     C 6160   0.460   3.837  15.776 -0.6104  0.0483 -0.1634
  413MPD2    C1 6161   0.492   3.889  15.649  0.3130 -0.0240 -1.1939
  413MPD2    C2 6162   0.628   3.878  15.613  0.3310  0.2260 -0.6826
  413MPD2    C3 6163   0.728   3.817  15.693 -0.9871  0.8100  0.1254
  413MPD2    C4 6164   0.686   3.778  15.816 -0.2200  1.1318 -0.3166
  413MPD2    C5 6165   0.554   3.790  15.858  0.3813  0.1626  0.4839
  413MPD2     H 6166   0.662   3.922  15.520 -0.0716  1.2978 -0.3136
  413MPD2    H1 6167   0.749   3.723  15.885 -1.5958 -1.2072 -0.9107
  413MPD2    H2 6168   0.360   3.840  15.820  0.7160 -0.8000  2.9412
  413MPD2    H3 6169   0.529   3.752  15.957  1.6014 -0.8778  0.3901
  413MPD2     N 6170   0.862   3.792  15.639 -0.4621  0.2316  0.0597
  413MPD2    H5 6171   0.874   3.810  15.540  0.9052 -0.9528  0.0047
  413MPD2    N1 6172   0.389   3.946  15.573 -0.0825  0.4031  0.4315
  413MPD2    H7 6173   0.298   3.937  15.617  0.7101 -0.3934  1.9143
  414TMC3    C1 6174   1.074   3.686  15.625  0.3411  0.1740  0.3403
  414TMC3    C2 6175   1.143   3.581  15.667  0.3592 -0.0466  0.0946
  414TMC3    C3 6176   1.229   3.523  15.580 -0.2495 -0.2857 -0.3446
  414TMC3    C4 6177   1.086   3.737  15.496 -0.8541 -0.8588 -0.3056
  414TMC3    C5 6178   1.174   3.682  15.414 -0.7912  0.3463  0.5189
  414TMC3    C6 6179   1.248   3.570  15.450  0.2148 -0.2716 -0.2741
  414TMC3     C 6180   0.962   3.727  15.710 -0.5957  0.0942 -0.0878
  414TMC3     O 6181   0.972   3.712  15.831 -0.2291  0.7566  0.7597
  414TMC3     H 6182   1.118   3.534  15.761  1.4407  0.9041  0.8644
  414TMC3    H1 6183   1.044   3.830  15.462  0.3048  0.0092  0.6482
  414TMC3    H2 6184   1.330   3.535  15.389  0.4843  0.9805 -0.6331
  414TMC3    C7 6185   1.221   3.761  15.301 -0.1097  0.0010  0.0858
  414TMC3    C8 6186   1.322   3.423  15.620  0.4935 -0.6508  0.2444
  414TMC3    O1 6187   1.154   3.852  15.254  0.5655  0.3273  0.0755
  414TMC3    O2 6188   1.373   3.356  15.531 -0.4375 -0.2206 -0.2540
  415TMC3    C1 6189   1.774   1.835   9.959 -0.1426 -0.1030  0.5496
  415TMC3    C2 6190   1.870   1.816   9.861 -0.3427  0.9048  0.1104
  415TMC3    C3 6191   1.842   1.858   9.736  0.1462 -0.7600 -0.1330
  415TMC3    C4 6192   1.658   1.897   9.930 -0.6019 -0.0484 -0.0559
  415TMC3    C5 6193   1.638   1.933   9.801  0.0318  0.0695 -0.1923
  415TMC3    C6 6194   1.727   1.913   9.698  0.3300 -0.7071  0.2932
  415TMC3     C 6195   1.764   1.737  10.066 -0.2689 -0.1922  0.4590
  415TMC3     O 6196   1.654   1.709  10.113 -0.0290  0.2201  0.5260
  415TMC3     H 6197   1.953   1.747   9.875 -0.3732  0.5509 -1.5345
  415TMC3    H1 6198   1.587   1.913  10.010  0.3817  0.0128  0.8030
  415TMC3    H2 6199   1.714   1.929   9.592 -2.0813 -1.7679  0.4160
  415TMC3    C7 6200   1.505   1.971   9.754 -0.4656  0.1369  0.1284
  415TMC3    C8 6201   1.935   1.833   9.634  0.0676  0.5419 -0.7200
  415TMC3    O1 6202   1.489   2.025   9.645 -0.1894  0.3984 -0.0181
  415TMC3    O2 6203   1.905   1.832   9.516  0.2122 -0.5931 -0.6048
  416MPD2     C 6204   3.624   0.881  11.291 -0.6503 -0.4912 -0.4518
  416MPD2    C1 6205   3.510   0.866  11.217  0.4077 -0.1741  0.1654
  416MPD2    C2 6206   3.518   0.771  11.121  0.5889 -0.6101 -0.2963
  416MPD2    C3 6207   3.630   0.705  11.103 -0.5602 -0.4659 -0.7706
  416MPD2    C4 6208   3.752   0.735  11.155  0.4905  0.1131 -0.5842
  416MPD2    C5 6209   3.741   0.815  11.269 -0.3287  0.1734  1.1576
  416MPD2     H 6210   3.433   0.758  11.055  0.6308 -1.4210 -0.1867
  416MPD2    H1 6211   3.839   0.671  11.150 -0.4866 -1.2153 -0.5631
  416MPD2    H2 6212   3.624   0.955  11.371 -2.3099 -1.5882  0.5497
  416MPD2    H3 6213   3.825   0.836  11.334  2.4933  0.4836 -2.5974
  416MPD2     N 6214   3.633   0.595  11.016 -0.3203 -0.4959  0.2163
  416MPD2    H5 6215   3.716   0.537  11.025  0.1131  0.3871  1.7824
  416MPD2    N1 6216   3.394   0.935  11.249  0.0102 -0.1903  0.7779
  416MPD2    H7 6217   3.398   0.998  11.328 -0.8443  1.6658 -0.6566
  417TMC3    C1 6218   3.174   1.031  11.238  0.6115 -0.0282  0.4334
  417TMC3    C2 6219   3.173   1.060  11.371  0.0376  0.0995  0.0518
  417TMC3    C3 6220   3.106   1.172  11.406  0.4880  0.0135 -0.0714
  417TMC3    C4 6221   3.093   1.093  11.146  0.4369 -0.1470  0.0420
  417TMC3    C5 6222   3.029   1.211  11.190 -0.4855  0.0785 -0.3335
  417TMC3    C6 6223   3.037   1.253  11.317 -0.6056 -0.1394 -0.1560
  417TMC3     C 6224   3.274   0.940  11.177 -0.8163  0.2806  0.0659
  417TMC3     O 6225   3.235   0.882  11.076 -0.1104 -0.6655  0.2409
  417TMC3     H 6226   3.225   0.993  11.438  3.6464  0.2934 -2.5052
  417TMC3    H1 6227   3.102   1.066  11.041  1.4671  1.2486 -0.2306
  417TMC3    H2 6228   2.982   1.336  11.359 -1.5306 -0.0682 -1.5172
  417TMC3    C7 6229   2.951   1.287  11.094 -0.3770  0.2205  0.0190
  417TMC3    C8 6230   3.087   1.199  11.550  0.3260 -0.2694  0.0787
  417TMC3    O1 6231   2.964   1.408  11.101 -0.1686  0.1892  0.0208
  417TMC3    O2 6232   2.976   1.239  11.578 -0.1838  0.1487 -0.5735
  418TMC3    C1 6233   1.639   2.170   0.243  0.4020  0.3897  0.4093
  418TMC3    C2 6234   1.553   2.100   0.161 -0.0160 -1.2517  0.0051
  418TMC3    C3 6235   1.458   2.022   0.218  0.3630 -0.0469  0.3602
  418TMC3    C4 6236   1.630   2.146   0.382  0.6246  0.0702 -0.0823
  418TMC3    C5 6237   1.544   2.050   0.432 -0.4084  0.2800  0.0461
  418TMC3    C6 6238   1.451   1.988   0.352 -0.0921  0.3041 -0.5387
  418TMC3     C 6239   1.772   2.166   0.194  0.8162 -0.3353  0.1939
  418TMC3     O 6240   1.843   2.269   0.192 -0.2225 -0.4365  0.0322
  418TMC3     H 6241   1.553   2.101   0.053  0.8544 -0.2357  0.0108
  418TMC3    H1 6242   1.709   2.197   0.435  0.6641 -0.4775  0.3764
  418TMC3    H2 6243   1.365   1.935   0.391  1.9291 -1.2386  1.8007
  418TMC3    C7 6244   1.559   1.994   0.566 -0.3245 -0.2251 -0.9469
  418TMC3    C8 6245   1.350   1.978   0.128  0.6212 -0.3735  0.2281
  418TMC3    O1 6246   1.503   1.886   0.586  0.0252 -0.4117 -0.4079
  418TMC3    O2 6247   1.341   2.035   0.021  0.0374 -0.0787  0.3485
  419MPD2     C 6248   0.329   0.603  12.352  0.0723  0.3626 -0.3177
  419MPD2    C1 6249   0.405   0.712  12.394 -0.1971  0.3984  0.3966
  419MPD2    C2 6250   0.375   0.770  12.514  0.2157  0.3661 -0.1567
  419MPD2    C3 6251   0.257   0.745  12.579 -0.3225 -0.6259 -0.3233
  419MPD2    C4 6252   0.180   0.639  12.534  0.4720 -0.1631  0.7756
  419MPD2    C5 6253   0.220   0.562  12.426 -0.1127  0.4893  0.2912
  419MPD2     H 6254   0.433   0.853  12.551  1.1938 -0.0041 -0.8422
  419MPD2    H1 6255   0.090   0.612  12.587 -1.6376  2.6704 -1.4108
  419MPD2    H2 6256   0.353   0.548  12.261 -0.2310  0.3331 -0.3803
  419MPD2    H3 6257   0.160   0.475  12.401  0.8051 -0.5723  1.8016
  419MPD2     N 6258   0.219   0.823  12.691 -0.6334  1.0206 -0.0021
  419MPD2    H5 6259   0.297   0.875  12.729  0.3529 -1.6951  1.7113
  419MPD2    N1 6260   0.523   0.767  12.332 -0.6254  0.3324  0.8785
  419MPD2    H7 6261   0.560   0.845  12.386 -0.0805  0.9841 -0.4197
  420TMC3    C1 6262   0.106   0.946  12.854  0.0673  0.1507  1.0385
  420TMC3    C2 6263   0.006   1.040  12.868 -0.2097 -0.0495 -0.4264
  420TMC3    C3 6264   0.011   1.127  12.976  0.1774 -0.1089 -0.4229
  420TMC3    C4 6265   0.214   0.942  12.939  0.8709  0.1823  0.0403
  420TMC3    C5 6266   0.220   1.040  13.031 -0.2096  0.2757 -0.7221
  420TMC3    C6 6267   0.121   1.134  13.057 -0.5158 -0.2669  0.1437
  420TMC3     C 6268   0.093   0.836  12.758 -0.3036 -0.1711  1.0581
  420TMC3     O 6269   4.706   0.797  12.731  0.5893 -0.5013 -0.6777
  420TMC3     H 6270   4.647   1.028  12.801 -1.2032 -1.3223  1.0488
  420TMC3    H1 6271   0.282   0.858  12.929 -1.1103 -1.4853  0.6781
  420TMC3    H2 6272   0.112   1.204  13.139 -1.1956 -1.6487  1.2439
  420TMC3    C7 6273   0.298   1.004  13.147 -0.0845 -0.8066 -0.0661
  420TMC3    C8 6274   4.640   1.238  12.989  0.7688 -0.5163 -0.1802
  420TMC3    O1 6275   0.345   0.890  13.158  0.1375  0.4380  0.2954
  420TMC3    O2 6276   4.683   1.343  13.036  0.1978 -0.5278  0.6954
  421TMC3    C1 6277   2.063   2.331  13.705  0.0774 -0.2467 -0.4006
  421TMC3    C2 6278   2.043   2.462  13.738  0.1232  0.0627 -0.1525
  421TMC3    C3 6279   2.106   2.513  13.852  0.8478 -1.3692 -0.9671
  421TMC3    C4 6280   2.120   2.239  13.797  0.3532 -0.7290 -0.1249
  421TMC3    C5 6281   2.157   2.291  13.913 -0.0208  0.1789 -0.0249
  421TMC3    C6 6282   2.168   2.422  13.933 -0.2794 -0.4615  0.4946
  421TMC3     C 6283   2.033   2.281  13.575 -0.3106 -0.2637 -0.4788
  421TMC3     O 6284   2.106   2.193  13.527  0.2060 -0.4584 -0.0161
  421TMC3     H 6285   2.019   2.539  13.666  1.9263  0.3214 -0.4897
  421TMC3    H1 6286   2.135   2.133  13.780  0.9089 -0.7833  0.7180
  421TMC3    H2 6287   2.224   2.457  14.019 -1.5938 -0.8513  1.5087
  421TMC3    C7 6288   2.259   2.210  13.975  0.3575  0.4832  0.9570
  421TMC3    C8 6289   2.159   2.648  13.857 -0.0970  0.4016 -0.5672
  421TMC3    O1 6290   2.360   2.277  13.998 -0.5390  0.1879  0.4096
  421TMC3    O2 6291   2.082   2.736  13.821  0.4252 -0.1621  0.5687
  422TMC3    C1 6292   4.354   3.718  12.583  0.2091  0.1032  0.2819
  422TMC3    C2 6293   4.278   3.833  12.568 -0.0344  0.1797 -0.2875
  422TMC3    C3 6294   4.153   3.842  12.622  0.2479 -0.2039  0.6439
  422TMC3    C4 6295   4.302   3.611  12.653  0.1104  0.0886  0.0424
  422TMC3    C5 6296   4.176   3.628  12.705  0.1981  0.9759 -0.4428
  422TMC3    C6 6297   4.103   3.745  12.702  0.3275 -0.2842 -0.4874
  422TMC3     C 6298   4.452   3.695  12.475  0.2843 -0.0122 -0.3904
  422TMC3     O 6299   4.455   3.770  12.382 -0.2817  0.1205 -0.3049
  422TMC3     H 6300   4.308   3.910  12.498 -2.6839  1.0989 -0.4256
  422TMC3    H1 6301   4.359   3.521  12.669  0.9419  0.5956 -0.0813
  422TMC3    H2 6302   3.999   3.753  12.733 -0.0933 -2.2263 -1.3720
  422TMC3    C7 6303   4.110   3.501  12.743  0.4093  0.4709 -1.0158
  422TMC3    C8 6304   4.112   3.973  12.650  0.1383  0.7254  0.2919
  422TMC3    O1 6305   4.181   3.407  12.717 -0.0260 -0.6082  0.1857
  422TMC3    O2 6306   4.203   4.055  12.650 -0.2398 -0.1602  0.4151
  423MPD2     C 6307   1.284   4.550   0.768 -0.6113 -0.4069 -0.0806
  423MPD2    C1 6308   1.170   4.467   0.782  0.4148  0.3838 -0.0641
  423MPD2    C2 6309   1.151   4.370   0.691  0.6935 -0.0746 -0.3927
  423MPD2    C3 6310   1.225   4.372   0.571  0.1428 -0.1335  0.4666
  423MPD2    C4 6311   1.335   4.456   0.556 -0.4639 -0.2803  0.7526
  423MPD2    C5 6312   1.366   4.544   0.652 -0.2788 -0.3061  0.5937
  423MPD2     H 6313   1.060   4.315   0.714  0.5712 -0.0319 -0.7839
  423MPD2    H1 6314   1.385   4.457   0.460  1.5179  0.4407  1.7896
  423MPD2    H2 6315   1.321   4.618   0.843 -1.7663  1.4780 -1.1992
  423MPD2    H3 6316   1.442   4.619   0.630 -1.3176 -0.4008 -3.2948
  423MPD2     N 6317   1.184   4.294   0.464 -0.0003  0.3334 -0.3862
  423MPD2    H5 6318   1.230   4.321   0.378  1.7914 -3.1089 -0.5192
  423MPD2    N1 6319   1.087   4.474   0.891  0.4239 -0.4993  0.4233
  423MPD2    H7 6320   1.019   4.401   0.907  0.0122 -0.3090 -0.4415
  424TMC3    C1 6321   0.969   4.559   1.071  0.1717  0.1980  0.5576
  424TMC3    C2 6322   0.921   4.432   1.098 -0.6085 -0.1351 -0.7901
  424TMC3    C3 6323   0.819   4.419   1.193  0.1498  0.1789 -0.1834
  424TMC3    C4 6324   0.907   4.667   1.118  0.4338  0.0544  0.3617
  424TMC3    C5 6325   0.819   4.652   1.223 -0.3576  0.0500 -0.0948
  424TMC3    C6 6326   0.766   4.532   1.260  0.3202 -0.5758 -0.1479
  424TMC3     C 6327   1.075   4.577   0.976 -0.4578 -0.2975 -0.0424
  424TMC3     O 6328   1.112   4.694   0.957  0.2571  1.0373 -0.1709
  424TMC3     H 6329   0.980   4.344   1.075  3.3760  2.5397 -0.8721
  424TMC3    H1 6330   0.940   0.041   1.090  1.0036 -0.5262 -1.0282
  424TMC3    H2 6331   0.736   4.515   1.363 -2.7656 -0.3643 -1.0128
  424TMC3    C7 6332   0.760   0.053   1.279 -0.3338  0.3708 -1.0538
  424TMC3    C8 6333   0.788   4.289   1.246 -1.0082 -0.1669 -0.3992
  424TMC3    O1 6334   0.817   0.159   1.261 -0.6215 -0.2561  0.4025
  424TMC3    O2 6335   0.854   4.190   1.216 -0.1015 -0.6427 -0.2587
  425MPD2     C 6336   4.651   3.949   0.051  0.2542  0.6003 -0.0154
  425MPD2    C1 6337   4.562   3.889  17.668 -0.7887 -0.1703 -0.2427
  425MPD2    C2 6338   4.426   3.922  17.677 -0.3251  0.0232 -0.4653
  425MPD2    C3 6339   4.396   4.033   0.056 -0.0991 -0.1854 -0.5543
  425MPD2    C4 6340   4.490   4.100   0.132 -0.2048  0.2236 -0.1469
  425MPD2    C5 6341   4.614   4.060   0.124 -0.6984  0.2644  0.0619
  425MPD2     H 6342   4.357   3.875  17.608  0.0089 -0.7556 -0.2663
  425MPD2    H1 6343   4.464   4.177   0.204 -0.6327 -0.6077  0.5900
  425MPD2    H2 6344   0.029   3.919   0.039 -0.5348 -1.7646 -0.8454
  425MPD2    H3 6345   4.694   4.110   0.176 -1.5005  1.3620  0.2506
  425MPD2     N 6346   4.261   4.067   0.050 -0.3985 -0.1619  0.0290
  425MPD2    H5 6347   4.210   4.007  17.688 -0.5639  1.6288 -1.5122
  425MPD2    N1 6348   4.618   3.793  17.578 -0.2838 -0.4198 -0.1330
  425MPD2    H7 6349   4.719   3.781  17.582 -0.0557  1.4899 -0.0684
  426TMC3    C1 6350   4.640   3.663  17.391 -0.1361 -0.9486 -0.3523
  426TMC3    C2 6351   4.597   3.653  17.264 -0.3473  0.6080 -0.1021
  426TMC3    C3 6352   4.655   3.558  17.187 -0.0825  0.2094  0.7365
  426TMC3    C4 6353   4.714   3.559  17.446 -0.4003  0.1676 -0.1434
  426TMC3    C5 6354   0.052   3.463  17.368  0.7041 -0.7051 -0.3615
  426TMC3    C6 6355   0.032   3.475  17.229 -0.3211 -0.8503 -0.1454
  426TMC3     C 6356   4.551   3.733  17.477  0.3904 -0.3900 -0.2004
  426TMC3     O 6357   4.430   3.732  17.447 -0.3598 -0.3965  0.1226
  426TMC3     H 6358   4.532   3.728  17.220 -1.5991  0.1744  1.0254
  426TMC3    H1 6359   0.017   3.567  17.551 -1.2297  0.0601  0.0900
  426TMC3    H2 6360   0.066   3.394  17.165 -0.2044  0.5610 -1.8794
  426TMC3    C7 6361   0.055   3.325  17.420  1.0090  0.0473  0.1574
  426TMC3    C8 6362   4.581   3.503  17.073 -0.0998 -0.3897 -0.7099
  426TMC3    O1 6363   0.098   3.236  17.351  0.4045  0.2893  0.1955
  426TMC3    O2 6364   4.626   3.402  17.014  0.3059 -0.1017 -0.7682
  427MPD2     C 6365   2.655   0.755  14.806  0.4163 -0.5117  0.7283
  427MPD2    C1 6366   2.632   0.760  14.944 -0.4974 -0.3623 -0.4092
  427MPD2    C2 6367   2.533   0.843  15.001 -0.6407 -0.4590  0.1365
  427MPD2    C3 6368   2.450   0.919  14.913 -0.1353  0.1125  0.3321
  427MPD2    C4 6369   2.471   0.898  14.778  0.2109  0.2870 -0.4946
  427MPD2    C5 6370   2.573   0.822  14.730 -0.0926 -0.1428  0.2729
  427MPD2     H 6371   2.514   0.838  15.107 -0.1141  1.5995  0.3291
  427MPD2    H1 6372   2.409   0.952  14.707 -0.7214 -0.0984  0.0231
  427MPD2    H2 6373   2.734   0.700  14.756  0.0211 -0.3461 -0.0761
  427MPD2    H3 6374   2.596   0.811  14.624  1.1843 -1.7806  0.7339
  427MPD2     N 6375   2.347   1.008  14.958  0.1024  0.5664  0.1603
  427MPD2    H5 6376   2.295   1.050  14.882 -2.1162  0.1179  1.4461
  427MPD2    N1 6377   2.701   0.672  15.038 -0.2330 -0.2984 -0.7392
  427MPD2    H7 6378   2.680   0.684  15.137  0.6377 -0.0965 -0.5851
  428TMC3    C1 6379   2.865   0.525  15.104 -0.3445 -0.3296 -0.2101
  428TMC3    C2 6380   2.888   0.388  15.103  0.1350  0.2954 -0.1369
  428TMC3    C3 6381   2.982   0.349  15.191  0.7388 -0.2788  0.1631
  428TMC3    C4 6382   2.935   0.618  15.173  0.1446 -0.6304 -0.2551
  428TMC3    C5 6383   3.026   0.569  15.261  0.0486 -0.4179 -0.0313
  428TMC3    C6 6384   3.059   0.435  15.271  0.5288  0.2877 -0.0861
  428TMC3     C 6385   2.776   0.566  14.999 -0.5687  0.2168  0.0519
  428TMC3     O 6386   2.762   0.499  14.897  0.1880 -0.0912  0.2804
  428TMC3     H 6387   2.844   0.315  15.035  2.5684 -1.9974  0.7397
  428TMC3    H1 6388   2.907   0.723  15.172 -2.0695 -1.2366 -1.0320
  428TMC3    H2 6389   3.133   0.398  15.341  1.9019  0.9990 -1.1597
  428TMC3    C7 6390   3.120   0.652  15.338  0.7636 -0.7093 -0.0660
  428TMC3    C8 6391   2.992   0.203  15.207  0.5226  0.1307 -0.3305
  428TMC3    O1 6392   3.203   0.603  15.419  0.1576 -0.0558  0.0430
  428TMC3    O2 6393   2.991   0.136  15.106  0.1843 -0.0483  0.9479
  429MPD2     C 6394   4.294   1.296   0.159 -0.1651 -0.4768  0.1398
  429MPD2    C1 6395   4.393   1.204   0.124  0.2514 -0.7017 -0.2044
  429MPD2    C2 6396   4.459   1.216   0.001 -0.0830  0.6958  0.4270
  429MPD2    C3 6397   4.419   1.305  17.606  0.1226 -0.5793 -0.9091
  429MPD2    C4 6398   4.315   1.393  17.640 -0.5685  0.3685  1.0629
  429MPD2    C5 6399   4.255   1.377   0.059 -0.5881 -0.2344 -0.1312
  429MPD2     H 6400   4.530   1.139  17.678 -0.7897  0.9359 -2.2186
  429MPD2    H1 6401   4.266   1.448  17.560 -0.5329 -0.3911  0.5253
  429MPD2    H2 6402   4.239   1.308   0.252 -1.0747  0.9341 -0.5763
  429MPD2    H3 6403   4.163   1.433   0.077  2.3463  4.0920  1.3124
  429MPD2     N 6404   4.458   1.284  17.472 -0.6475 -0.4574  0.3370
  429MPD2    H5 6405   4.519   1.206  17.446 -0.7714 -0.8773  1.2948
  429MPD2    N1 6406   4.424   1.092   0.205 -0.4268 -0.0093 -0.3635
  429MPD2    H7 6407   4.494   1.026   0.171 -0.0957  0.4036 -0.4872
  430TMC3    C1 6408   4.416   1.265  17.251  0.1802 -0.2699  1.0464
  430TMC3    C2 6409   4.413   1.329  17.130  0.3407 -0.0358  0.0849
  430TMC3    C3 6410   4.427   1.249  17.026  1.0386  0.5738  0.8942
  430TMC3    C4 6411   4.425   1.133  17.269 -0.3228  0.1192 -0.2786
  430TMC3    C5 6412   4.434   1.053  17.159  0.5174  0.3297 -0.6402
  430TMC3    C6 6413   4.434   1.109  17.036 -0.0843  0.5283 -0.0046
  430TMC3     C 6414   4.404   1.350  17.369 -0.0611  0.1533 -0.1905
  430TMC3     O 6415   4.367   1.467  17.357  0.8441  0.5536 -0.8112
  430TMC3     H 6416   4.420   1.438  17.132 -0.2518  0.0156 -1.0791
  430TMC3    H1 6417   4.414   1.090  17.368  0.5100  0.0595 -0.2110
  430TMC3    H2 6418   4.434   1.046  16.949 -0.5088 -3.9868  3.2832
  430TMC3    C7 6419   4.454   0.915  17.188  0.4931  0.1423 -0.6437
  430TMC3    C8 6420   4.440   1.303  16.895  0.7697  0.6297 -0.1701
  430TMC3    O1 6421   4.445   0.885  17.306 -0.5115 -0.3978 -0.2389
  430TMC3    O2 6422   4.416   1.221  16.806  0.1381 -0.3725 -0.2185
  431MPD2     C 6423   0.495   1.534  12.420 -0.3136  0.2339  0.7453
  431MPD2    C1 6424   0.600   1.545  12.329 -0.3445 -0.2877 -0.3890
  431MPD2    C2 6425   0.673   1.434  12.305 -0.2279  0.1466  0.0392
  431MPD2    C3 6426   0.642   1.314  12.364 -0.8733  0.1237  0.2400
  431MPD2    C4 6427   0.543   1.296  12.454 -0.0563 -0.3383 -0.1565
  431MPD2    C5 6428   0.471   1.409  12.483  0.3256  0.3763  0.0780
  431MPD2     H 6429   0.752   1.453  12.233 -1.0865  0.3149 -0.8692
  431MPD2    H1 6430   0.517   1.203  12.503 -0.3977  1.0571  2.2867
  431MPD2    H2 6431   0.432   1.621  12.433  1.7796  1.8333  0.2061
  431MPD2    H3 6432   0.378   1.402  12.540 -0.2726  0.8503 -0.8384
  431MPD2     N 6433   0.702   1.195  12.323 -0.3516  0.7313 -0.3725
  431MPD2    H5 6434   0.668   1.111  12.369  1.1706  0.7663  0.8310
  431MPD2    N1 6435   0.634   1.663  12.266  0.1547  0.5009 -0.7349
  431MPD2    H7 6436   0.714   1.670  12.204  1.4183 -1.1415  0.7274
  432TMC3    C1 6437   0.782   1.036  12.173  0.7730 -0.0957  0.0699
  432TMC3    C2 6438   0.889   0.995  12.109  0.1698 -0.6570 -0.5761
  432TMC3    C3 6439   0.892   0.870  12.057 -0.4836  0.8118  0.1617
  432TMC3    C4 6440   0.685   0.942  12.218  0.6516  0.2043 -0.2772
  432TMC3    C5 6441   0.687   0.817  12.166  0.9156 -0.5530  0.3457
  432TMC3    C6 6442   0.795   0.778  12.092  0.2950 -0.1172  0.2606
  432TMC3     C 6443   0.784   1.179  12.215 -0.5278 -0.0019 -0.3856
  432TMC3     O 6444   0.827   1.257  12.133 -0.4792 -0.1758  0.2068
  432TMC3     H 6445   0.959   1.071  12.074 -2.5958  0.9906 -2.5075
  432TMC3    H1 6446   0.600   0.980  12.274  0.5782  1.0579 -0.9624
  432TMC3    H2 6447   0.808   0.673  12.065  0.4152 -0.2854  0.9694
  432TMC3    C7 6448   0.587   0.728  12.220 -0.6724  0.7919  0.5091
  432TMC3    C8 6449   1.003   0.844  11.964 -0.4173 -0.4920 -0.7140
  432TMC3    O1 6450   0.570   0.622  12.155  0.6854 -0.8781  0.3205
  432TMC3    O2 6451   1.100   0.915  11.963 -0.0487  0.0838  0.2106
  433MPD2     C 6452   4.083   4.518  10.860 -0.6080 -0.7024 -0.1162
  433MPD2    C1 6453   4.059   4.414  10.945 -0.2702 -0.2435  0.0054
  433MPD2    C2 6454   4.114   4.418  11.073  0.6707  0.0774 -0.1164
  433MPD2    C3 6455   4.178   4.535  11.118  0.0329 -0.5695  0.3325
  433MPD2    C4 6456   4.191   4.642  11.040  0.8762 -0.1415  1.0446
  433MPD2    C5 6457   4.147   4.633  10.908 -0.0747 -0.8732 -0.4603
  433MPD2     H 6458   4.117   4.335  11.142  2.5810  0.7330  0.5898
  433MPD2    H1 6459   4.234   0.015  11.057  0.2597  0.8962 -3.4679
  433MPD2    H2 6460   4.053   4.509  10.757 -0.0069 -0.1650 -0.3371
  433MPD2    H3 6461   4.152   0.001  10.853  1.6286 -0.8915 -0.3401
  433MPD2     N 6462   4.216   4.536  11.257  0.1113 -0.3891  0.1093
  433MPD2    H5 6463   4.183   4.453  11.305 -0.4296  0.6378  1.5012
  433MPD2    N1 6464   4.002   4.294  10.902  0.0743 -0.5473 -0.2967
  433MPD2    H7 6465   3.979   4.292  10.803  2.1995  0.7582 -0.8187
  434TMC3    C1 6466   3.938   4.069  10.884  0.0465 -0.1282 -0.3444
  434TMC3    C2 6467   3.950   3.947  10.941 -0.1770 -0.4073  0.1799
  434TMC3    C3 6468   3.988   3.843  10.867 -0.1262  0.2137  0.5675
  434TMC3    C4 6469   3.938   4.077  10.742  0.4273  0.4572  0.3127
  434TMC3    C5 6470   3.992   3.972  10.667  0.3447 -0.6500 -0.2908
  434TMC3    C6 6471   4.018   3.852  10.732  0.2257 -0.7262 -0.3523
  434TMC3     C 6472   3.977   4.180  10.971 -0.3353 -0.8547  0.5355
  434TMC3     O 6473   3.983   4.162  11.094  0.2473  0.3164  0.0927
  434TMC3     H 6474   3.952   3.948  11.049 -1.4140  0.6838  0.1877
  434TMC3    H1 6475   3.910   4.174  10.702 -0.9266 -0.3732 -0.7335
  434TMC3    H2 6476   4.034   3.761  10.675 -2.9519 -1.6031  0.1685
  434TMC3    C7 6477   3.931   3.978  10.530 -0.0992 -0.6796  0.0829
  434TMC3    C8 6478   4.033   3.727  10.938 -0.3056  0.5419 -0.4799
  434TMC3    O1 6479   3.846   4.064  10.517  0.8053  0.7880  0.5362
  434TMC3    O2 6480   3.970   3.705  11.044 -0.3829 -0.1460 -0.0710
  435MPD2     C 6481   0.975   4.122  15.460  0.1478  0.2793  0.4333
  435MPD2    C1 6482   0.966   4.136  15.597  0.3207 -0.4218 -0.0021
  435MPD2    C2 6483   1.081   4.131  15.673  0.3232  0.0688 -0.8354
  435MPD2    C3 6484   1.200   4.117  15.611 -0.9297 -0.1304  0.5899
  435MPD2    C4 6485   1.213   4.105  15.472 -0.3797 -0.0677 -0.4647
  435MPD2    C5 6486   1.097   4.114  15.400  0.4530 -0.4587 -0.2613
  435MPD2     H 6487   1.094   4.152  15.778 -5.0175 -0.1530 -0.1672
  435MPD2    H1 6488   1.307   4.090  15.420 -0.4805 -0.5857 -0.5039
  435MPD2    H2 6489   0.895   4.136  15.389  0.6602 -1.7376 -0.5393
  435MPD2    H3 6490   1.104   4.120  15.292 -1.3952 -1.6840 -0.4470
  435MPD2     N 6491   1.306   4.126  15.700 -0.3902  0.0117  0.3081
  435MPD2    H5 6492   1.283   4.146  15.797 -2.8691  0.1218 -0.3095
  435MPD2    N1 6493   0.843   4.170  15.658  0.1079 -0.3206  0.1704
  435MPD2    H7 6494   0.843   4.164  15.760 -0.4886 -2.0409  0.0757
  436TMC3    C1 6495   0.506   4.209  15.883  0.3093 -0.2984  0.7285
  436TMC3    C2 6496   0.607   4.167  15.800 -0.3863 -0.4611 -0.2869
  436TMC3    C3 6497   0.617   4.234  15.681  0.1232  0.2063  0.9161
  436TMC3    C4 6498   0.401   4.290  15.834 -0.0909  0.2515 -0.3308
  436TMC3    C5 6499   0.403   4.323  15.702 -0.3351  0.4181 -0.5608
  436TMC3    C6 6500   0.513   4.301  15.624  0.3629  0.0480 -0.3224
  436TMC3     C 6501   0.513   4.181  16.026  0.7533 -0.0931  0.3016
  436TMC3     O 6502   0.562   4.078  16.070 -0.2728 -0.2389 -0.1081
  436TMC3     H 6503   0.679   4.093  15.833  0.6773  1.1446  0.9980
  436TMC3    H1 6504   0.319   4.321  15.898 -0.9049  2.2947 -2.3574
  436TMC3    H2 6505   0.509   4.345  15.525 -1.4730  2.4717  0.8274
  436TMC3    C7 6506   0.314   4.434  15.671  0.7357 -0.2115  0.8102
  436TMC3    C8 6507   0.725   4.211  15.595 -0.4776  0.0121 -0.1128
  436TMC3    O1 6508   0.356   4.517  15.594 -0.6920  0.4904  0.0641
  436TMC3    O2 6509   0.714   4.257  15.483  0.1426 -0.4791  0.4460
  437TMC3    C1 6510   4.394   2.446  12.569 -0.4410 -0.7290  0.1519
  437TMC3    C2 6511   4.420   2.545  12.669 -0.2641  0.3738 -0.6502
  437TMC3    C3 6512   4.525   2.629  12.657  0.0274  0.6704  0.1608
  437TMC3    C4 6513   4.472   2.432  12.460  0.3079 -0.3271 -0.4779
  437TMC3    C5 6514   4.575   2.528  12.454 -0.4961 -0.4474 -0.2228
  437TMC3    C6 6515   4.604   2.624  12.550  0.2141 -0.2318  0.2884
  437TMC3     C 6516   4.282   2.360  12.574 -0.1772 -0.4290 -0.0250
  437TMC3     O 6517   4.284   2.261  12.501 -0.4361  0.3040  0.2354
  437TMC3     H 6518   4.349   2.554  12.750  1.7085  0.1388  1.1147
  437TMC3    H1 6519   4.444   2.375  12.372 -1.1841 -0.3920  0.0386
  437TMC3    H2 6520   4.680   2.698  12.530  1.2664 -0.9180  1.7834
  437TMC3    C7 6521   4.658   2.527  12.340  0.1675 -0.2169  0.0958
  437TMC3    C8 6522   4.566   2.712  12.769 -0.0999 -0.0804  0.6042
  437TMC3    O1 6523   4.607   2.482  12.239  0.4418 -0.0734  0.2318
  437TMC3    O2 6524   4.667   2.777  12.751 -0.4922 -0.2843  0.4444
  438MPD2     C 6525   2.920   2.858  16.586 -0.5353  0.5073 -0.4583
  438MPD2    C1 6526   2.922   2.721  16.602 -0.2503 -0.0785 -0.6351
  438MPD2    C2 6527   2.849   2.666  16.707  0.3259 -0.3245 -0.4498
  438MPD2    C3 6528   2.773   2.737  16.793 -0.4257  0.3037 -0.7296
  438MPD2    C4 6529   2.781   2.875  16.786 -0.0228 -0.1286 -0.0188
  438MPD2    C5 6530   2.855   2.930  16.687 -0.0205  0.5257 -0.4666
  438MPD2     H 6531   2.849   2.558  16.722 -0.3482 -0.2202  0.3381
  438MPD2    H1 6532   2.730   2.945  16.852 -0.1609 -1.1653  0.9695
  438MPD2    H2 6533   2.972   2.914  16.509  0.9327 -0.6048 -0.2728
  438MPD2    H3 6534   2.848   3.037  16.669 -0.7196  0.4873 -0.4264
  438MPD2     N 6535   2.697   2.664  16.889  0.3885 -0.0212  0.5416
  438MPD2    H5 6536   2.687   2.565  16.866 -1.7134  0.2639  0.2518
  438MPD2    N1 6537   2.985   2.633  16.509 -0.1446 -0.4293  0.2757
  438MPD2    H7 6538   2.980   2.533  16.529 -1.7150  0.3220  3.5515
  439TMC3    C1 6539   3.100   2.562  16.322  0.4239 -0.3330 -0.7153
  439TMC3    C2 6540   3.097   2.561  16.189 -0.4924  0.2333 -0.2029
  439TMC3    C3 6541   3.159   2.460  16.123  1.2560 -0.1829 -0.0730
  439TMC3    C4 6542   3.166   2.470  16.394  0.2971 -0.3034 -0.3805
  439TMC3    C5 6543   3.239   2.369  16.332 -0.2974 -0.1179  0.9358
  439TMC3    C6 6544   3.235   2.366  16.196 -0.1506  0.4752 -0.5529
  439TMC3     C 6545   3.031   2.671  16.385 -0.5762 -0.4517 -0.2109
  439TMC3     O 6546   3.010   2.772  16.318 -0.2288 -0.1732 -0.1481
  439TMC3     H 6547   3.032   2.636  16.145 -2.3370 -0.2762  1.6608
  439TMC3    H1 6548   3.188   2.502  16.495 -1.7068 -2.2030  0.6500
  439TMC3    H2 6549   3.279   2.285  16.139  0.1513  1.2717 -1.4291
  439TMC3    C7 6550   3.353   2.314  16.407 -1.0589 -0.2447 -0.0390
  439TMC3    C8 6551   3.088   2.400  16.018  0.0904  0.0566 -0.2323
  439TMC3    O1 6552   3.397   2.371  16.505 -0.1376  0.0523  0.7193
  439TMC3    O2 6553   3.112   2.285  15.981  0.2259  0.2469 -0.1906
  440MPD2     C 6554   1.850   3.414  14.909 -0.2240 -0.6768  0.6497
  440MPD2    C1 6555   1.765   3.395  15.016 -0.9157 -0.0453  1.4131
  440MPD2    C2 6556   1.820   3.322  15.125  0.0174  0.1957 -0.1867
  440MPD2    C3 6557   1.948   3.274  15.131 -1.2767  0.5943  0.1545
  440MPD2    C4 6558   2.027   3.305  15.025  0.2444  0.0071 -0.3821
  440MPD2    C5 6559   1.979   3.377  14.920  0.3563  0.2177  0.7118
  440MPD2     H 6560   1.752   3.303  15.207  0.5010 -1.3620 -0.1615
  440MPD2    H1 6561   2.128   3.266  15.026 -0.1664 -1.1259 -3.9267
  440MPD2    H2 6562   1.816   3.463  14.819  0.6100 -0.5794  0.3966
  440MPD2    H3 6563   2.036   3.395  14.829 -0.5134 -0.1631  0.0906
  440MPD2     N 6564   1.994   3.193  15.237  0.3541 -0.3971  0.2588
  440MPD2    H5 6565   2.086   3.154  15.224 -0.4347 -2.0664 -0.3431
  440MPD2    N1 6566   1.638   3.452  15.026 -0.9639  0.6804 -0.1135
  440MPD2    H7 6567   1.593   3.418  15.110  3.2966  0.9174  2.2358
  441TMC3    C1 6568   2.008   3.105  15.434  0.0894 -0.3263 -0.1414
  441TMC3    C2 6569   1.978   3.155  15.562  0.3461 -0.3144  0.0868
  441TMC3    C3 6570   1.983   3.077  15.674 -0.4347  0.0585 -0.0338
  441TMC3    C4 6571   2.007   2.966  15.426  0.6222 -0.4035  0.3291
  441TMC3    C5 6572   1.996   2.886  15.547 -0.3700 -0.2175 -0.1514
  441TMC3    C6 6573   1.992   2.942  15.667 -0.0466 -0.3790  0.7081
  441TMC3     C 6574   1.921   3.160  15.342  1.0342  0.7127  0.6523
  441TMC3     O 6575   1.818   3.191  15.393  0.0904 -0.0399  0.3522
  441TMC3     H 6576   1.963   3.262  15.573 -3.1090 -0.8261  0.2975
  441TMC3    H1 6577   1.988   2.917  15.332 -3.1260  0.4397  0.6734
  441TMC3    H2 6578   1.974   2.882  15.755  0.8913 -1.1772  0.3550
  441TMC3    C7 6579   1.920   2.764  15.533  0.1924 -0.4416  0.3117
  441TMC3    C8 6580   1.900   3.129  15.783 -0.5487  0.3982 -0.2104
  441TMC3    O1 6581   1.814   2.781  15.470  0.1114  0.4507  0.4524
  441TMC3    O2 6582   1.899   3.062  15.887  0.0294 -0.3516 -0.3243
  442MPD2     C 6583   4.147   3.727  16.808 -0.9791 -0.3705  0.4270
  442MPD2    C1 6584   4.036   3.654  16.828  0.1080 -0.1070  0.3198
  442MPD2    C2 6585   4.009   3.545  16.744  0.0834  0.3541 -0.6301
  442MPD2    C3 6586   4.104   3.501  16.653 -0.0915 -0.0258 -0.4178
  442MPD2    C4 6587   4.221   3.573  16.637  0.6106 -0.9187 -0.0706
  442MPD2    C5 6588   4.238   3.692  16.711  0.2966  0.0826  0.0450
  442MPD2     H 6589   3.921   3.486  16.769  0.4217  0.0190 -0.2238
  442MPD2    H1 6590   4.290   3.547  16.558  0.1385  1.2707 -1.2081
  442MPD2    H2 6591   4.177   3.812  16.868 -1.3640 -1.5673  2.2899
  442MPD2    H3 6592   4.330   3.749  16.714  0.5127 -0.1810 -1.4166
  442MPD2     N 6593   4.095   3.394  16.569 -0.2628  0.0217 -0.6876
  442MPD2    H5 6594   4.162   3.385  16.493  1.7410 -1.0282  1.1983
  442MPD2    N1 6595   3.942   3.670  16.930  0.5719 -0.2112 -0.2679
  442MPD2    H7 6596   3.865   3.605  16.928  1.3345 -1.1679  1.2582
  443TMC3    C1 6597   3.826   3.771  17.098  0.1979  0.0441  0.7511
  443TMC3    C2 6598   3.742   3.876  17.077  0.3167  0.0492 -0.1434
  443TMC3    C3 6599   3.609   3.837  17.058 -0.0058  0.0839  0.5160
  443TMC3    C4 6600   3.781   3.645  17.132 -0.2362  0.1847 -0.7333
  443TMC3    C5 6601   3.647   3.631  17.149  0.3314  0.2687 -0.5367
  443TMC3    C6 6602   3.560   3.725  17.111  0.1661  0.1054 -0.5016
  443TMC3     C 6603   3.942   3.780  17.012 -0.2352 -0.0904 -0.4877
  443TMC3     O 6604   4.004   3.886  17.009  0.1983  0.2016 -0.1000
  443TMC3     H 6605   3.782   3.973  17.049  0.7238  0.3726  1.5140
  443TMC3    H1 6606   3.848   3.564  17.158 -2.9446 -1.6140  0.6426
  443TMC3    H2 6607   3.455   3.699  17.101 -0.1813  0.9116  1.0411
  443TMC3    C7 6608   3.614   3.501  17.204  0.0080 -0.2531 -0.1477
  443TMC3    C8 6609   3.575   3.845  16.915  0.0980 -0.4452  0.3546
  443TMC3    O1 6610   3.688   3.407  17.184  0.3572  0.2829  0.0114
  443TMC3    O2 6611   3.518   3.747  16.874  0.2210  0.4300  0.7094
  444MPD2     C 6612   4.318   3.186  17.341 -0.6503  1.2364 -0.7158
  444MPD2    C1 6613   4.236   3.102  17.274 -0.1330 -0.4966 -0.9117
  444MPD2    C2 6614   4.287   3.035  17.161 -0.2665 -0.0979  0.0911
  444MPD2    C3 6615   4.421   3.046  17.125 -0.3506  0.2360 -0.0644
  444MPD2    C4 6616   4.500   3.138  17.191  1.0229 -0.7746 -0.1140
  444MPD2    C5 6617   4.443   3.211  17.295 -0.0105 -0.1358 -0.0160
  444MPD2     H 6618   4.229   2.962  17.106 -0.6361 -0.4868  0.9849
  444MPD2    H1 6619   4.606   3.152  17.178  0.6898  2.6063  0.6298
  444MPD2    H2 6620   4.290   3.232  17.435 -0.7161 -0.2778  0.0067
  444MPD2    H3 6621   4.507   3.275  17.355  1.1066 -2.0266  0.8264
  444MPD2     N 6622   4.472   2.952  17.033 -0.1796  0.4664  0.0456
  444MPD2    H5 6623   4.411   2.876  17.005 -0.1886  1.1477 -1.7633
  444MPD2    N1 6624   4.104   3.088  17.314 -0.2603  0.6409  0.4673
  444MPD2    H7 6625   4.053   3.030  17.250 -0.8471  0.3612  1.1963
  445TMC3    C1 6626   4.610   2.836  16.880  0.0646 -0.2686  0.2804
  445TMC3    C2 6627   4.496   2.753  16.861  0.2617  0.4389  0.7257
  445TMC3    C3 6628   4.520   2.642  16.780  0.2661  0.5906  0.1580
  445TMC3    C4 6629   0.010   2.798  16.838  0.4882 -0.2167 -0.2469
  445TMC3    C5 6630   0.023   2.678  16.773 -0.5883 -0.2356 -0.4360
  445TMC3    C6 6631   4.648   2.601  16.737  0.2446 -0.1761  0.0415
  445TMC3     C 6632   4.599   2.939  16.985 -0.1721 -0.0123  0.4082
  445TMC3     O 6633   4.699   3.011  17.006  0.1278 -0.2831  0.0647
  445TMC3     H 6634   4.392   2.780  16.874  0.0746 -0.1411  0.4366
  445TMC3    H1 6635   0.098   2.842  16.885  0.4412  0.1946 -0.5466
  445TMC3    H2 6636   4.667   2.515  16.674  0.1773 -1.1665  1.3764
  445TMC3    C7 6637   0.157   2.653  16.725 -0.1501  0.0456 -0.7495
  445TMC3    C8 6638   4.409   2.549  16.786 -0.5149 -0.2035 -0.0955
  445TMC3    O1 6639   0.222   2.751  16.693  0.3537  0.6335  0.6084
  445TMC3    O2 6640   4.311   2.586  16.853  0.1980 -0.3596  0.6355
  446MPD2     C 6641   3.800   3.781  11.551 -0.9909 -0.6700 -0.0724
  446MPD2    C1 6642   3.783   3.808  11.411 -0.1286 -0.3558  0.1261
  446MPD2    C2 6643   3.889   3.851  11.341 -0.0339  0.2750  0.5860
  446MPD2    C3 6644   4.015   3.876  11.398  0.3598 -0.3112  0.0079
  446MPD2    C4 6645   4.018   3.880  11.538 -0.0805 -1.0661  0.5380
  446MPD2    C5 6646   3.910   3.827  11.609 -0.2062  0.2535  0.5523
  446MPD2     H 6647   3.879   3.880  11.237 -0.1001 -1.4961  0.1096
  446MPD2    H1 6648   4.106   3.908  11.595  0.5729  0.8112 -1.3620
  446MPD2    H2 6649   3.721   3.731  11.605 -1.8539 -2.0723 -2.5870
  446MPD2    H3 6650   3.925   3.815  11.715  0.1466 -0.9054  0.3791
  446MPD2     N 6651   4.130   3.901  11.318  0.4545  0.1450 -0.1628
  446MPD2    H5 6652   4.117   3.910  11.218 -1.7850 -1.4111 -0.0117
  446MPD2    N1 6653   3.666   3.768  11.342 -0.6274  0.4926 -0.2748
  446MPD2    H7 6654   3.671   3.764  11.240 -1.8438 -0.3251 -0.2987
  447TMC3    C1 6655   4.349   3.906  11.257 -0.5250  0.1733 -0.7866
  447TMC3    C2 6656   4.311   3.957  11.132  0.1839 -0.2486  0.2793
  447TMC3    C3 6657   4.399   3.935  11.034  0.6000 -0.4182 -0.3248
  447TMC3    C4 6658   4.472   3.863  11.280  0.3964 -0.1223  0.6514
  447TMC3    C5 6659   4.556   3.845  11.174  0.1249  0.0854  0.1512
  447TMC3    C6 6660   4.525   3.890  11.055 -0.0072 -0.6717  0.7096
  447TMC3     C 6661   4.256   3.904  11.367 -0.1755 -0.0017  0.3103
  447TMC3     O 6662   4.309   3.864  11.474 -0.0388  0.1545 -0.1052
  447TMC3     H 6663   4.219   4.010  11.110  0.1310 -0.2030  0.6133
  447TMC3    H1 6664   4.507   3.847  11.381  1.2396  2.7570  0.8322
  447TMC3    H2 6665   4.605   3.887  10.983 -2.1142  0.1361 -1.6606
  447TMC3    C7 6666   4.697   3.849  11.196  0.5438  0.4235  0.6374
  447TMC3    C8 6667   4.367   3.975  10.890  0.4392 -0.1319  0.6929
  447TMC3    O1 6668   0.044   3.811  11.104 -0.1820  0.1766  0.0643
  447TMC3    O2 6669   4.258   4.029  10.866  0.7469  0.7537  0.0272
  448TMC3    C1 6670   2.179   4.386  16.762 -0.6182  0.1713 -0.1027
  448TMC3    C2 6671   2.229   4.283  16.690 -0.5561 -0.3484 -0.2109
  448TMC3    C3 6672   2.261   4.162  16.745 -0.0529  0.4842 -0.3221
  448TMC3    C4 6673   2.159   4.375  16.893 -0.1256 -0.4061  0.1613
  448TMC3    C5 6674   2.198   4.248  16.951  0.2166  1.1581 -0.5807
  448TMC3    C6 6675   2.256   4.145  16.875 -0.2593 -0.1916 -0.4649
  448TMC3     C 6676   2.117   4.489  16.684  0.0173 -0.1899  0.4395
  448TMC3     O 6677   2.102   4.464  16.563  0.4334  0.0936 -0.0672
  448TMC3     H 6678   2.256   4.299  16.586 -2.8593  3.0759 -0.2831
  448TMC3    H1 6679   2.093   4.439  16.950 -0.7794 -2.2563  1.4784
  448TMC3    H2 6680   2.265   4.046  16.919  0.4149  0.7163  1.4541
  448TMC3    C7 6681   2.156   4.229  17.098 -0.2418 -0.7993  0.1997
  448TMC3    C8 6682   2.313   4.054  16.663  0.3029  0.2179 -0.3761
  448TMC3    O1 6683   2.117   4.334  17.149  0.7660 -0.3782  0.1801
  448TMC3    O2 6684   2.395   3.973  16.716  0.0950  0.2796 -0.4339
  449MPD2     C 6685   4.138   2.532  14.108 -0.0650  0.0187  0.3556
  449MPD2    C1 6686   4.018   2.531  14.045  0.9449  0.0146  0.5915
  449MPD2    C2 6687   3.910   2.478  14.114 -0.1161  0.0600 -0.3896
  449MPD2    C3 6688   3.917   2.421  14.236 -0.0466  0.4638 -0.2016
  449MPD2    C4 6689   4.038   2.425  14.303  0.6464  0.7458  0.1629
  449MPD2    C5 6690   4.147   2.476  14.233 -0.1746 -0.6397 -0.3221
  449MPD2     H 6691   3.813   2.478  14.066  0.4680  0.2464 -1.5775
  449MPD2    H1 6692   4.050   2.404  14.409  1.5538  1.2557  0.1709
  449MPD2    H2 6693   4.233   2.569  14.072  0.0947 -1.6677 -0.9396
  449MPD2    H3 6694   4.240   2.472  14.289  0.3156  0.9599 -1.0105
  449MPD2     N 6695   3.797   2.367  14.288 -0.2301 -0.6345 -0.5809
  449MPD2    H5 6696   3.715   2.372  14.228 -0.1247  0.6432 -0.6073
  449MPD2    N1 6697   3.996   2.592  13.918 -0.1565  0.0384 -0.3155
  449MPD2    H7 6698   3.900   2.597  13.886 -0.3204 -2.7256 -0.2385
  450TMC3    C1 6699   4.025   2.698  13.728 -0.2440 -0.2991 -0.3295
  450TMC3    C2 6700   4.074   2.633  13.619  0.4275 -0.2818  0.5370
  450TMC3    C3 6701   3.983   2.602  13.517  1.0660 -0.5618 -0.1427
  450TMC3    C4 6702   3.892   2.723  13.749 -0.2523  0.3272  0.3795
  450TMC3    C5 6703   3.803   2.688  13.647  0.6805 -0.1386 -0.0099
  450TMC3    C6 6704   3.850   2.619  13.536 -0.4361 -0.5722  0.0856
  450TMC3     C 6705   4.093   2.659  13.849 -0.1502 -0.4595  0.0566
  450TMC3     O 6706   4.215   2.663  13.866  0.2252  0.1721 -0.4138
  450TMC3     H 6707   4.181   2.613  13.619  0.5992  0.5923  1.4532
  450TMC3    H1 6708   3.872   2.780  13.839 -1.1599 -1.6429  1.4040
  450TMC3    H2 6709   3.785   2.610  13.450 -0.9691  1.1269  0.3011
  450TMC3    C7 6710   3.689   2.635  13.716 -0.5404  0.7206 -0.4546
  450TMC3    C8 6711   4.027   2.548  13.392 -0.4266  0.5811  1.2063
  450TMC3    O1 6712   3.709   2.641  13.838  0.2102 -0.1591 -0.4135
  450TMC3    O2 6713   3.936   2.522  13.312 -0.8545 -0.1525  0.0512
  451MPD2     C 6714   0.034   1.121   0.920 -0.4333 -0.5527 -0.0992
  451MPD2    C1 6715   4.624   1.113   0.956 -0.3511 -0.0757  0.9257
  451MPD2    C2 6716   4.573   0.993   0.995 -0.1508 -0.2137 -0.3067
  451MPD2    C3 6717   4.648   0.877   0.987 -0.2959 -0.0294 -0.5283
  451MPD2    C4 6718   0.054   0.883   0.943  0.7426  0.6198  0.3175
  451MPD2    C5 6719   0.100   1.006   0.915 -0.7121  0.3077  0.1201
  451MPD2     H 6720   4.470   0.990   1.029 -0.1294 -0.9080 -0.3131
  451MPD2    H1 6721   0.122   0.799   0.939 -0.6092 -0.4324 -0.5292
  451MPD2    H2 6722   0.080   1.214   0.887  1.3519 -1.5585 -0.4210
  451MPD2    H3 6723   0.208   1.005   0.902 -0.5268  0.7069  1.6517
  451MPD2     N 6724   4.600   0.744   1.021 -0.0003  0.3974  0.4499
  451MPD2    H5 6725   4.672   0.673   1.027 -0.3240  0.0428  0.1089
  451MPD2    N1 6726   4.562   1.241   0.975 -0.4812 -0.1181  0.2392
  451MPD2    H7 6727   4.613   1.322   0.941  2.3037 -0.1771  4.1453
  452TMC3    C1 6728   4.477   0.570   1.111  0.0186 -0.3103  0.2695
  452TMC3    C2 6729   4.351   0.522   1.108  0.3225 -1.0759 -1.1607
  452TMC3    C3 6730   4.330   0.403   1.047 -0.7161  0.0440 -0.4281
  452TMC3    C4 6731   4.586   0.502   1.062  0.4603  0.5924  0.4729
  452TMC3    C5 6732   4.562   0.380   1.004 -0.7180 -0.0233  0.8305
  452TMC3    C6 6733   4.430   0.328   0.991 -0.6004 -0.0312 -0.0966
  452TMC3     C 6734   4.477   0.709   1.071  0.8804 -0.7645 -0.3432
  452TMC3     O 6735   4.377   0.775   1.073 -0.2615  0.2994 -0.1310
  452TMC3     H 6736   4.269   0.591   1.127 -1.2309 -3.8633  2.1163
  452TMC3    H1 6737   4.690   0.526   1.083 -0.0720  0.7457  2.9596
  452TMC3    H2 6738   4.414   0.223   0.972 -0.9275 -0.2161  1.2675
  452TMC3    C7 6739   4.674   0.317   0.946  0.1031  0.2781 -0.3919
  452TMC3    C8 6740   4.193   0.361   1.043  0.1937  0.4150  0.7396
  452TMC3    O1 6741   0.052   0.382   0.928  0.2868 -0.4355 -0.2337
  452TMC3    O2 6742   4.119   0.426   1.117  0.0331 -0.4832 -0.5736
  453TMC3    C1 6743   1.583   2.967  11.433 -0.1665 -0.0671 -0.2543
  453TMC3    C2 6744   1.495   2.870  11.463  0.1003  0.4423  0.1482
  453TMC3    C3 6745   1.441   2.796  11.362 -0.3429  0.3209  0.0085
  453TMC3    C4 6746   1.612   3.003  11.307 -0.0089  0.4484 -0.6639
  453TMC3    C5 6747   1.549   2.935  11.209 -0.3658 -0.2008 -0.1517
  453TMC3    C6 6748   1.468   2.827  11.235 -0.7788  0.5108  0.9967
  453TMC3     C 6749   1.634   3.044  11.548  0.4170  0.2043 -0.1400
  453TMC3     O 6750   1.681   3.149  11.510 -0.4617  0.3090  0.4145
  453TMC3     H 6751   1.450   2.857  11.561  0.2435  1.9397  0.4190
  453TMC3    H1 6752   1.676   3.087  11.284 -0.6586  1.0423 -0.2761
  453TMC3    H2 6753   1.415   2.780  11.152  1.8274 -1.9593  0.7514
  453TMC3    C7 6754   1.555   2.974  11.069  0.5397 -0.0393 -0.1285
  453TMC3    C8 6755   1.423   2.653  11.382  0.0519  0.3971 -0.1654
  453TMC3    O1 6756   1.452   2.947  11.010  0.0145  0.5681  0.4802
  453TMC3    O2 6757   1.372   2.590  11.289 -0.7023 -0.0262 -0.1996
  454MPD2     C 6758   0.256   3.065  16.405  0.9360  0.6854  0.1450
  454MPD2    C1 6759   0.159   3.050  16.306  0.2135 -0.5465 -0.1667
  454MPD2    C2 6760   0.031   3.025  16.348  0.9929 -0.0760 -0.8934
  454MPD2    C3 6761   4.712   3.042  16.478 -0.9592  0.0441 -0.2749
  454MPD2    C4 6762   0.090   3.051  16.569 -0.5003  0.3966 -0.3182
  454MPD2    C5 6763   0.218   3.064  16.538  0.0300  0.2760  0.2116
  454MPD2     H 6764   4.687   3.008  16.266 -2.5999 -2.1369  2.5944
  454MPD2    H1 6765   0.068   3.070  16.673 -1.2480 -1.8450 -0.0651
  454MPD2    H2 6766   0.359   3.085  16.377  0.1919  1.7789 -1.7845
  454MPD2    H3 6767   0.286   3.087  16.620 -1.0910  0.7008  1.0315
  454MPD2     N 6768   4.587   3.008  16.522 -0.4970 -0.0632 -0.2436
  454MPD2    H5 6769   4.567   3.044  16.615  1.2122 -1.9307  0.8255
  454MPD2    N1 6770   0.186   3.034  16.169 -0.1303  0.4756  0.3134
  454MPD2    H7 6771   0.108   3.012  16.108  1.1874 -3.4835  0.0516
  455TMC3    C1 6772   4.380   2.916  16.524  0.1001  0.1737 -0.0802
  455TMC3    C2 6773   4.340   3.013  16.612 -0.6173  0.1258 -0.0112
  455TMC3    C3 6774   4.230   2.978  16.684 -0.0949  0.0613 -0.8209
  455TMC3    C4 6775   4.318   2.799  16.503  0.0769 -1.0475 -0.0011
  455TMC3    C5 6776   4.216   2.771  16.582 -0.0635 -0.4746 -0.1312
  455TMC3    C6 6777   4.163   2.860  16.664 -0.2207  0.5893 -0.2369
  455TMC3     C 6778   4.503   2.926  16.450 -0.8105  0.3282  0.9909
  455TMC3     O 6779   4.517   2.864  16.346  0.3727  0.4904  0.0297
  455TMC3     H 6780   4.382   3.113  16.615 -0.5845  0.1822 -1.8850
  455TMC3    H1 6781   4.368   2.716  16.456 -0.6599 -0.4716 -1.7853
  455TMC3    H2 6782   4.066   2.837  16.707  0.3862 -1.1592  0.1819
  455TMC3    C7 6783   4.128   2.664  16.532 -0.0510  0.2185 -0.5789
  455TMC3    C8 6784   4.179   3.071  16.772  0.2251 -0.5786  0.2219
  455TMC3    O1 6785   4.039   2.627  16.612 -0.0659 -0.5330  0.1962
  455TMC3    O2 6786   4.071   3.036  16.817  0.6148  0.1110  0.9186
  456MPD2     C 6787   2.955   3.099  15.659  0.0249  0.2504  0.3816
  456MPD2    C1 6788   2.988   3.020  15.769 -0.5281 -0.4838 -0.1786
  456MPD2    C2 6789   2.962   3.066  15.901  1.4852  0.0592  0.1125
  456MPD2    C3 6790   2.910   3.194  15.919 -0.8025 -0.0977 -0.0190
  456MPD2    C4 6791   2.896   3.273  15.809 -0.0498 -0.1485  0.5425
  456MPD2    C5 6792   2.923   3.227  15.678  0.0057 -0.3203  0.1793
  456MPD2     H 6793   2.988   3.012  15.991  0.6223  1.0486  0.9595
  456MPD2    H1 6794   2.876   3.379  15.820  1.3435  0.2428 -0.6685
  456MPD2    H2 6795   2.959   3.082  15.552  0.9077 -0.1366  0.4755
  456MPD2    H3 6796   2.906   3.299  15.598 -0.8809 -1.3914 -0.5846
  456MPD2     N 6797   2.869   3.236  16.048 -0.2263 -0.4657  0.0115
  456MPD2    H5 6798   2.872   3.164  16.119 -2.2586 -1.4594 -0.8983
  456MPD2    N1 6799   3.050   2.895  15.737 -0.1322  0.1022 -0.1858
  456MPD2    H7 6800   3.070   2.872  15.640  1.1991  0.7866 -0.0592
  457TMC3    C1 6801   2.778   3.372  16.229 -0.3411 -0.1123  0.3001
  457TMC3    C2 6802   2.683   3.463  16.256  0.7220 -0.2357 -0.4305
  457TMC3    C3 6803   2.697   3.535  16.372 -0.0776  0.5248 -0.2672
  457TMC3    C4 6804   2.874   3.336  16.316 -0.0752  0.5297  0.4651
  457TMC3    C5 6805   2.879   3.400  16.439  0.0127 -0.0452  0.3559
  457TMC3    C6 6806   2.797   3.506  16.463 -0.8541 -0.1005 -0.0998
  457TMC3     C 6807   2.812   3.359  16.084  0.7639  0.8017 -0.3951
  457TMC3     O 6808   2.750   3.438  16.015  0.8071 -0.3029  0.2664
  457TMC3     H 6809   2.606   3.487  16.184  0.5834 -0.1342 -0.2495
  457TMC3    H1 6810   2.936   3.251  16.289 -1.1370  0.3443 -1.3350
  457TMC3    H2 6811   2.782   3.543  16.564 -0.5347  1.1259 -0.4956
  457TMC3    C7 6812   2.947   3.348  16.554  0.2146  1.2367  0.2513
  457TMC3    C8 6813   2.615   3.647  16.415  0.4977 -0.2964  0.1905
  457TMC3    O1 6814   2.983   3.231  16.562 -0.3966 -0.1964  0.5295
  457TMC3    O2 6815   2.620   3.680  16.535  0.3661  0.0802  0.2742
  458MPD2     C 6816   0.392   2.543  12.122 -0.2665  0.1810 -1.3233
  458MPD2    C1 6817   0.406   2.501  12.253 -0.3685 -0.2127 -0.8408
  458MPD2    C2 6818   0.296   2.492  12.329  0.5543 -0.4112 -0.5198
  458MPD2    C3 6819   0.172   2.518  12.274  0.4542  0.2038 -0.5771
  458MPD2    C4 6820   0.155   2.550  12.140  0.2826 -0.4530  0.3816
  458MPD2    C5 6821   0.269   2.562  12.063  1.0467 -0.2830  0.2366
  458MPD2     H 6822   0.314   2.478  12.435  2.0961  0.8763 -0.6256
  458MPD2    H1 6823   0.062   2.576  12.090  0.4473 -1.8171 -0.6471
  458MPD2    H2 6824   0.482   2.549  12.063  0.3540 -0.9874 -0.5034
  458MPD2    H3 6825   0.270   2.589  11.958 -0.0343 -0.8306  0.0964
  458MPD2     N 6826   0.066   2.539  12.372  0.2705 -0.3715 -0.1135
  458MPD2    H5 6827   0.090   2.553  12.470 -1.2127  1.0875  0.0365
  458MPD2    N1 6828   0.533   2.493  12.304 -0.1011  0.2898  0.5915
  458MPD2    H7 6829   0.609   2.540  12.257  1.9011 -2.3023  1.2452
  459TMC3    C1 6830   0.713   2.435  12.451  0.2955 -0.3083  0.5223
  459TMC3    C2 6831   0.807   2.426  12.348  0.7262  0.8945  0.0168
  459TMC3    C3 6832   0.939   2.414  12.379  0.0328 -0.8963  0.9010
  459TMC3    C4 6833   0.749   2.430  12.582 -0.5923 -0.2522  0.5245
  459TMC3    C5 6834   0.881   2.417  12.611 -0.6173 -0.0728  0.3894
  459TMC3    C6 6835   0.974   2.410  12.512  0.1705  0.7266  0.1878
  459TMC3     C 6836   0.569   2.437  12.425 -0.5516  0.1740  0.5788
  459TMC3     O 6837   0.499   2.376  12.506  0.0754  0.2263  0.2854
  459TMC3     H 6838   0.766   2.428  12.247  0.1453 -1.5477  0.2122
  459TMC3    H1 6839   0.675   2.445  12.659  0.6288  0.1604  1.6184
  459TMC3    H2 6840   1.076   2.390  12.543 -0.1672 -1.5020 -0.1698
  459TMC3    C7 6841   0.915   2.424  12.751 -0.2272 -0.0198 -0.5390
  459TMC3    C8 6842   1.047   2.372  12.284 -0.1478  0.1110  0.4767
  459TMC3    O1 6843   1.010   2.492  12.780 -0.0296  0.0413  0.3987
  459TMC3    O2 6844   1.162   2.382  12.318  0.0036 -0.2589  0.1117
  460MPD2     C 6845   4.605   3.962  10.603  0.3950  0.4859  0.0314
  460MPD2    C1 6846   4.486   3.988  10.664 -0.0030  0.2431  0.3782
  460MPD2    C2 6847   4.385   4.017  10.579 -0.2395 -0.3318  0.0637
  460MPD2    C3 6848   4.392   4.029  10.443 -0.0414  0.4967  0.1217
  460MPD2    C4 6849   4.519   4.011  10.390 -0.4895 -0.1697  0.5239
  460MPD2    C5 6850   4.623   3.976  10.469  0.1232 -0.3480  0.2359
  460MPD2     H 6851   4.286   4.034  10.621 -0.8759 -0.3461 -1.4177
  460MPD2    H1 6852   4.543   4.032  10.287  0.6679 -2.6034  0.2842
  460MPD2    H2 6853   4.691   3.933  10.663  0.0254 -1.8300 -0.5442
  460MPD2    H3 6854   4.719   3.955  10.423  0.9144  1.5046  1.0718
  460MPD2     N 6855   4.284   4.063  10.361 -0.3174 -0.1266 -0.0107
  460MPD2    H5 6856   4.204   4.110  10.403 -0.7649 -1.1910  0.3334
  460MPD2    N1 6857   4.478   3.960  10.803 -0.1500  0.2157 -0.1670
  460MPD2    H7 6858   4.566   3.930  10.845  0.4683  0.9323 -0.9615
  461TMC3    C1 6859   4.165   4.097  10.155 -0.8290 -0.0982 -0.0442
  461TMC3    C2 6860   4.123   4.021  10.050  0.0863  0.2868  0.3680
  461TMC3    C3 6861   4.004   4.056   9.998 -0.2096  0.1170  0.6042
  461TMC3    C4 6862   4.086   4.190  10.225 -0.3107  0.3194 -0.4299
  461TMC3    C5 6863   3.961   4.219  10.164 -0.1821 -0.7124 -0.2357
  461TMC3    C6 6864   3.915   4.132  10.064 -0.5526  0.6464  0.1802
  461TMC3     C 6865   4.266   4.026  10.232  0.2401  0.1016 -0.7412
  461TMC3     O 6866   4.333   3.945  10.169  0.5818 -0.3817 -0.6113
  461TMC3     H 6867   4.198   3.966   9.994 -1.6113 -1.2790 -0.3652
  461TMC3    H1 6868   4.120   4.254  10.305  0.0602 -1.1897  0.6161
  461TMC3    H2 6869   3.818   4.153  10.021 -0.7701 -1.2622 -0.2612
  461TMC3    C7 6870   3.952   4.348  10.106 -0.0853 -0.0388  0.2169
  461TMC3    C8 6871   4.005   4.100   9.860 -0.3595 -0.4803 -0.7814
  461TMC3    O1 6872   3.857   4.362  10.032  0.2925 -0.3780 -0.5281
  461TMC3    O2 6873   4.111   4.138   9.806 -0.0256  0.1373  0.3025
  462TMC3    C1 6874   0.224   0.088   0.280  0.2545  0.1796 -0.3727
  462TMC3    C2 6875   0.270   4.689   0.319  0.5243 -0.3912 -0.1919
  462TMC3    C3 6876   0.192   4.624   0.410  0.7612 -0.2818  0.3010
  462TMC3    C4 6877   0.126   0.156   0.344 -0.6586 -0.1013 -0.6064
  462TMC3    C5 6878   0.054   0.083   0.433  0.0336  0.1266  0.7361
  462TMC3    C6 6879   0.085   4.676   0.470 -0.5280 -0.6130  0.6515
  462TMC3     C 6880   0.285   0.138   0.157 -0.3104  0.2932 -0.1918
  462TMC3     O 6881   0.330   0.069   0.071  0.1839  0.4897 -0.4967
  462TMC3     H 6882   0.352   4.645   0.264 -0.1069 -1.3149 -0.4087
  462TMC3    H1 6883   0.086   0.253   0.316  0.3166  0.4919  0.0654
  462TMC3    H2 6884   0.038   4.633   0.558  0.2644  0.0046  1.3788
  462TMC3    C7 6885   4.679   0.152   0.512 -0.1716  0.6929  0.1579
  462TMC3    C8 6886   0.183   4.480   0.410 -0.5470 -0.0214  0.7222
  462TMC3    O1 6887   4.594   0.085   0.568  0.0945 -0.5907 -0.3713
  462TMC3    O2 6888   0.153   4.425   0.515 -0.1587 -0.2024  0.9672
  463MPD2     C 6889   0.808   3.916   1.741 -0.6573 -0.2895 -0.1238
  463MPD2    C1 6890   0.744   4.025   1.683 -0.1325 -0.4387  0.4505
  463MPD2    C2 6891   0.818   4.135   1.638 -0.4721  0.3976  0.2671
  463MPD2    C3 6892   0.965   4.127   1.651 -0.3102  0.6052 -0.3278
  463MPD2    C4 6893   1.026   4.015   1.701 -0.0402 -0.1865  0.0503
  463MPD2    C5 6894   0.947   3.909   1.743  0.0660 -0.3019 -0.0901
  463MPD2     H 6895   0.767   4.223   1.599  0.1078  1.3539  1.6487
  463MPD2    H1 6896   1.134   4.018   1.709  0.2219 -0.4570 -3.1431
  463MPD2    H2 6897   0.768   3.829   1.792  2.4366 -1.2981  0.5865
  463MPD2    H3 6898   0.990   3.815   1.774 -0.3648 -0.2799  0.5850
  463MPD2     N 6899   1.047   4.238   1.607  0.3380 -0.5946  0.1272
  463MPD2    H5 6900   1.147   4.219   1.611  0.6262  1.1198  1.3734
  463MPD2    N1 6901   0.607   4.035   1.675 -0.7039 -0.3635 -0.4794
  463MPD2    H7 6902   0.576   4.115   1.621 -0.2275  0.1056 -0.0652
  464TMC3    C1 6903   0.377   3.983   1.699 -0.5285  0.1440  0.3765
  464TMC3    C2 6904   0.346   4.113   1.672  0.4123 -0.6577 -0.0962
  464TMC3    C3 6905   0.217   4.148   1.642  0.7965  0.7030  0.4238
  464TMC3    C4 6906   0.281   3.887   1.710  0.1010  0.9572 -0.0984
  464TMC3    C5 6907   0.152   3.929   1.679  0.4129  0.3460 -0.2869
  464TMC3    C6 6908   0.112   4.055   1.638  0.0183  0.2654  0.6784
  464TMC3     C 6909   0.514   3.946   1.728  0.8638 -0.8263  0.1699
  464TMC3     O 6910   0.528   3.850   1.804 -0.0287 -0.2782 -0.4571
  464TMC3     H 6911   0.419   4.193   1.675 -0.5100  0.1789 -0.0205
  464TMC3    H1 6912   0.313   3.784   1.718 -0.1857  0.8653 -0.1567
  464TMC3    H2 6913   0.012   4.076   1.600 -0.7843 -2.3253  1.3668
  464TMC3    C7 6914   0.046   3.825   1.686 -0.0350 -0.4687 -0.0597
  464TMC3    C8 6915   0.197   4.281   1.583  0.1929  1.1796 -0.4896
  464TMC3    O1 6916   0.065   3.743   1.771  0.1285 -0.3197  0.2070
  464TMC3    O2 6917   0.303   4.335   1.557  0.3664  0.2817 -0.0636
  465MPD2     C 6918   2.266   2.229  16.886 -1.0009 -0.0888  0.0175
  465MPD2    C1 6919   2.143   2.266  16.940 -0.2688 -0.6904  0.3488
  465MPD2    C2 6920   2.066   2.365  16.882  1.0094 -0.2215  0.2346
  465MPD2    C3 6921   2.090   2.419  16.763  0.0905  0.8761  0.4730
  465MPD2    C4 6922   2.211   2.384  16.703 -0.8000 -0.4741  0.4372
  465MPD2    C5 6923   2.287   2.283  16.762  0.2493  0.0575  0.6258
  465MPD2     H 6924   1.970   2.366  16.933  0.4317  0.5506 -0.8613
  465MPD2    H1 6925   2.239   2.421  16.604 -0.6911 -2.1637 -0.1648
  465MPD2    H2 6926   2.324   2.146  16.924  1.6633  0.7612 -2.1779
  465MPD2    H3 6927   2.372   2.257  16.700  0.1400 -2.6368  1.6066
  465MPD2     N 6928   1.991   2.490  16.692  0.1307 -0.6011 -0.1136
  465MPD2    H5 6929   1.908   2.512  16.745  1.1621 -1.8675  2.0189
  465MPD2    N1 6930   2.089   2.208  17.058  0.7090 -0.2909 -0.4834
  465MPD2    H7 6931   2.009   2.257  17.097 -0.1869 -2.4391  0.3907
  466TMC3    C1 6932   1.674   2.696  16.582  0.1821  0.0989 -0.3621
  466TMC3    C2 6933   1.703   2.815  16.519  1.1620 -0.5284 -0.0688
  466TMC3    C3 6934   1.826   2.829  16.457  0.0162  0.6209  0.4741
  466TMC3    C4 6935   1.770   2.596  16.585 -0.3944  0.0905 -0.2970
  466TMC3    C5 6936   1.889   2.617  16.519 -0.9574  0.0961 -0.1516
  466TMC3    C6 6937   1.919   2.731  16.453 -0.3499  0.9929 -0.1220
  466TMC3     C 6938   1.544   2.673  16.648 -0.6486  0.4866 -0.6692
  466TMC3     O 6939   1.534   2.585  16.734  0.8519 -0.4463  0.3690
  466TMC3     H 6940   1.625   2.888  16.502  1.8344  0.9040  2.9612
  466TMC3    H1 6941   1.748   2.500  16.631  0.2352 -0.1071 -0.3970
  466TMC3    H2 6942   2.019   2.740  16.413  0.5275 -0.1379  1.7948
  466TMC3    C7 6943   2.003   2.540  16.558 -0.2269  0.2682  0.2653
  466TMC3    C8 6944   1.865   2.961  16.419  0.4158  0.1545  0.4150
  466TMC3    O1 6945   2.103   2.537  16.487 -0.0801  0.0261  0.2720
  466TMC3    O2 6946   1.930   2.979  16.315 -0.0944 -0.1767  0.0671
  467TMC3    C1 6947   2.706   1.652  14.015 -0.4636  0.7705  0.1173
  467TMC3    C2 6948   2.667   1.667  13.882  0.4586  0.5275  0.5082
  467TMC3    C3 6949   2.596   1.555  13.839  0.4976  0.2097  0.1558
  467TMC3    C4 6950   2.661   1.549  14.094 -0.3183  0.3378  0.2119
  467TMC3    C5 6951   2.566   1.464  14.043  0.9698  0.2464  1.0730
  467TMC3    C6 6952   2.536   1.457  13.912  0.0710  0.2189 -0.1709
  467TMC3     C 6953   2.841   1.701  14.046 -0.7119 -0.1275 -0.0477
  467TMC3     O 6954   2.904   1.663  14.140 -0.1301  0.1122 -0.5491
  467TMC3     H 6955   2.729   1.723  13.813  0.7630  0.3929  0.6740
  467TMC3    H1 6956   2.696   1.548  14.196  1.4970 -0.1270 -0.4210
  467TMC3    H2 6957   2.474   1.382  13.864 -1.3479  0.0409  1.9175
  467TMC3    C7 6958   2.496   1.388  14.145  0.8969  0.6733 -0.4556
  467TMC3    C8 6959   2.638   1.508  13.707  0.8860  0.3954 -0.7662
  467TMC3    O1 6960   2.543   1.383  14.260 -0.3100 -0.1476  0.3046
  467TMC3    O2 6961   2.687   1.400  13.707  0.1562  0.3493 -0.6819
  468MPD2     C 6962   1.178   4.214  10.756 -0.1783 -0.1550 -0.0055
  468MPD2    C1 6963   1.309   4.179  10.745  0.0942 -0.1299 -0.4747
  468MPD2    C2 6964   1.349   4.084  10.652 -0.1442  0.1965  0.3434
  468MPD2    C3 6965   1.255   4.017  10.570 -0.5588 -0.0012  0.4790
  468MPD2    C4 6966   1.123   4.049  10.597  0.3452  0.4667  0.4810
  468MPD2    C5 6967   1.091   4.154  10.671 -0.2353  0.4612 -0.5017
  468MPD2     H 6968   1.456   4.062  10.648 -0.2544  0.0509 -2.1610
  468MPD2    H1 6969   1.041   3.991  10.555  1.7099 -0.0197 -1.5408
  468MPD2    H2 6970   1.149   4.284  10.833 -0.4533 -2.0500  1.6199
  468MPD2    H3 6971   0.985   4.177  10.672  0.1742  2.5008 -3.0873
  468MPD2     N 6972   1.283   3.910  10.482 -0.3504  0.7299  0.1990
  468MPD2    H5 6973   1.205   3.863  10.437  0.7156  0.8202 -1.7503
  468MPD2    N1 6974   1.410   4.236  10.823 -0.2274  0.8089 -0.4026
  468MPD2    H7 6975   1.504   4.202  10.805 -1.1898 -2.4936  0.8700
  469TMC3    C1 6976   1.514   4.404  10.945 -0.5586 -0.6036  0.2998
  469TMC3    C2 6977   1.610   4.325  10.990 -1.1665  0.4792  0.2166
  469TMC3    C3 6978   1.711   4.380  11.056 -0.3464  0.1455  0.0394
  469TMC3    C4 6979   1.520   4.538  10.939 -0.0379 -0.1760  0.3089
  469TMC3    C5 6980   1.631   4.593  10.997  0.1968 -0.0987 -0.4731
  469TMC3    C6 6981   1.722   4.519  11.066  0.1985 -0.5390  0.0545
  469TMC3     C 6982   1.388   4.349  10.902  0.2970 -0.2707 -0.0536
  469TMC3     O 6983   1.292   4.415  10.932  0.1991  0.6050 -0.2558
  469TMC3     H 6984   1.603   4.217  10.982  0.4974  0.4153 -0.3024
  469TMC3    H1 6985   1.450   4.603  10.887 -0.4549  0.8262  2.1393
  469TMC3    H2 6986   1.803   4.567  11.119  0.5784 -1.9688  0.7434
  469TMC3    C7 6987   1.627   0.004  11.037  0.0666 -0.1759  0.1623
  469TMC3    C8 6988   1.831   4.294  11.060  0.0783  0.4802  0.8211
  469TMC3    O1 6989   1.590   0.092  10.962  0.1820  0.3050 -0.2323
  469TMC3    O2 6990   1.838   4.193  10.993 -0.3468  0.5523  0.0378
  470TMC3    C1 6991   3.283   0.481   0.863 -0.0138 -0.6435  0.1089
  470TMC3    C2 6992   3.386   0.528   0.932 -0.0625 -0.5428  0.5641
  470TMC3    C3 6993   3.367   0.568   1.062  0.1566 -0.1107  0.0105
  470TMC3    C4 6994   3.155   0.467   0.908 -0.8834  0.1670  0.3329
  470TMC3    C5 6995   3.140   0.505   1.037 -0.1157 -0.0413 -1.0487
  470TMC3    C6 6996   3.240   0.543   1.127 -1.1712 -0.5944 -0.3646
  470TMC3     C 6997   3.304   0.442   0.718  0.2729 -0.1161 -0.4065
  470TMC3     O 6998   3.391   0.498   0.651 -0.5104 -0.7276 -0.2177
  470TMC3     H 6999   3.474   0.551   0.874 -1.3988 -0.1257 -1.2851
  470TMC3    H1 7000   3.069   0.436   0.848  0.3393 -0.5224 -1.0641
  470TMC3    H2 7001   3.228   0.567   1.232 -1.2773  1.0685 -0.7582
  470TMC3    C7 7002   3.005   0.510   1.089  0.1716 -0.3545 -0.4826
  470TMC3    C8 7003   3.445   0.673   1.118 -0.6201  0.8450 -0.1063
  470TMC3    O1 7004   2.921   0.446   1.030 -0.1902  0.7022  0.1245
  470TMC3    O2 7005   3.397   0.728   1.215  0.0993  0.4606  0.4961
  471MPD2     C 7006   4.516   1.606  16.493 -0.3448 -0.0599 -0.3427
  471MPD2    C1 7007   4.436   1.499  16.516  0.5763 -0.6842  0.7124
  471MPD2    C2 7008   4.420   1.446  16.642  0.3711 -0.0470 -0.2297
  471MPD2    C3 7009   4.496   1.494  16.753  0.0769 -1.3239  0.0897
  471MPD2    C4 7010   4.562   1.614  16.731 -0.0692 -0.0653  0.5061
  471MPD2    C5 7011   4.574   1.667  16.600  0.5619  0.4273 -1.0569
  471MPD2     H 7012   4.358   1.357  16.645 -0.1660  0.3409  0.2954
  471MPD2    H1 7013   4.613   1.665  16.812  1.0573  1.2269 -1.0127
  471MPD2    H2 7014   4.522   1.648  16.393  1.4371  0.3070 -0.0840
  471MPD2    H3 7015   4.629   1.760  16.589 -3.0317  2.5543 -1.1447
  471MPD2     N 7016   4.491   1.427  16.880 -0.2743  0.3988  0.0244
  471MPD2    H5 7017   4.523   1.477  16.962 -1.4864  0.8217  0.2349
  471MPD2    N1 7018   4.370   1.434  16.413  0.1705 -0.0914  0.3422
  471MPD2    H7 7019   4.307   1.363  16.448  0.5196 -0.6056 -0.0855
  472TMC3    C1 7020   4.297   1.352  16.214 -0.0624  0.3162  0.0768
  472TMC3    C2 7021   4.203   1.403  16.131  0.3378 -0.0812 -0.1706
  472TMC3    C3 7022   4.089   1.330  16.118  0.4028 -0.4975  0.2873
  472TMC3    C4 7023   4.279   1.239  16.286  0.2427 -1.0085 -0.4453
  472TMC3    C5 7024   4.171   1.166  16.258 -0.1893 -0.2170 -0.2849
  472TMC3    C6 7025   4.072   1.208  16.173  0.7331  0.3934 -0.1833
  472TMC3     C 7026   4.384   1.450  16.279 -0.2919  0.5277 -0.5863
  472TMC3     O 7027   4.428   1.533  16.199 -0.1421  0.0305  0.0452
  472TMC3     H 7028   4.208   1.506  16.099  1.9730 -0.5694 -1.4775
  472TMC3    H1 7029   4.360   1.206  16.350 -0.8061 -1.2091  0.7588
  472TMC3    H2 7030   3.993   1.143  16.135  2.8553 -2.0000 -0.4775
  472TMC3    C7 7031   4.168   1.039  16.326  0.1086 -0.6764  0.3306
  472TMC3    C8 7032   3.968   1.405  16.084 -0.0701 -0.1306 -0.6252
  472TMC3    O1 7033   4.244   1.018  16.424 -0.4821  0.6946 -0.9039
  472TMC3    O2 7034   3.982   1.516  16.036 -0.5977  0.1911  0.2391
  473MPD2     C 7035   4.468   3.965  13.683 -0.1260 -0.8335  0.5643
  473MPD2    C1 7036   4.484   4.083  13.614  0.8239 -0.5967 -0.2227
  473MPD2    C2 7037   4.490   4.204  13.682  0.0673  0.8380  0.8467
  473MPD2    C3 7038   4.482   4.208  13.821 -0.2967  0.3210 -0.0244
  473MPD2    C4 7039   4.491   4.091  13.886 -0.2442 -0.2542  0.2254
  473MPD2    C5 7040   4.480   3.967  13.821 -0.7751  0.1201 -0.2014
  473MPD2     H 7041   4.511   4.294  13.625  0.4007  0.5705  0.5469
  473MPD2    H1 7042   4.495   4.086  13.994 -0.0248 -0.2392  0.2177
  473MPD2    H2 7043   4.471   3.872  13.627 -2.9786 -1.3271  1.2679
  473MPD2    H3 7044   4.484   3.875  13.878 -0.2545  1.0841  1.2844
  473MPD2     N 7045   4.483   4.322  13.899 -0.9735 -0.1774 -0.2912
  473MPD2    H5 7046   4.488   4.311  14.000  0.7709  1.1300 -0.2193
  473MPD2    N1 7047   4.474   4.094  13.471  0.3527 -0.1587  0.0900
  473MPD2    H7 7048   4.473   4.188  13.435  2.6933  0.5934  1.9861
  474TMC3    C1 7049   4.489   4.546  13.942 -0.8168  0.3160 -0.1206
  474TMC3    C2 7050   4.419   4.668  13.946 -0.5996 -0.0354 -0.5574
  474TMC3    C3 7051   4.466   0.046  14.020  0.3313 -0.6128 -0.7199
  474TMC3    C4 7052   4.609   4.535  14.005 -0.1128  0.8921  0.0626
  474TMC3    C5 7053   4.657   4.640  14.077  0.0355 -0.0163  0.2360
  474TMC3    C6 7054   4.593   0.033  14.080 -0.5927  0.1376 -0.2142
  474TMC3     C 7055   4.456   4.447  13.851  0.5293  0.0336  0.1109
  474TMC3     O 7056   4.413   4.480  13.743 -0.0985 -0.0854 -0.3680
  474TMC3     H 7057   4.324   4.679  13.895 -0.7035  1.8313  0.0487
  474TMC3    H1 7058   4.660   4.439  14.002 -1.0216  0.4430 -0.7699
  474TMC3    H2 7059   4.623   0.113  14.147  0.5565 -0.4559 -0.0335
  474TMC3    C7 7060   0.053   4.622  14.152  0.2921  0.6357  1.0396
  474TMC3    C8 7061   4.390   0.169  14.009 -0.0604 -0.5721  0.0634
  474TMC3    O1 7062   0.145   4.567  14.092  0.5179 -0.1482 -0.5217
  474TMC3    O2 7063   4.325   0.176  13.903  0.1201 -0.6630 -0.2093
  475MPD2     C 7064   3.309   2.197  10.714 -0.1280 -0.2000  0.3616
  475MPD2    C1 7065   3.232   2.133  10.622  0.4020  0.2214  0.2349
  475MPD2    C2 7066   3.102   2.173  10.608 -0.6620 -0.5810 -0.2744
  475MPD2    C3 7067   3.042   2.261  10.705  0.2088 -0.1137 -0.3954
  475MPD2    C4 7068   3.120   2.309  10.808 -0.3151 -0.4708  0.3298
  475MPD2    C5 7069   3.259   2.274  10.814  0.3680  0.4751  0.2869
  475MPD2     H 7070   3.046   2.142  10.521 -0.2937 -0.3716 -0.5854
  475MPD2    H1 7071   3.081   2.374  10.885  0.6173 -0.7635  1.0494
  475MPD2    H2 7072   3.415   2.172  10.715  0.1883  1.1213  0.7932
  475MPD2    H3 7073   3.322   2.337  10.876  1.0894 -0.1347  0.1765
  475MPD2     N 7074   2.912   2.307  10.679  0.4854  0.1440  0.4704
  475MPD2    H5 7075   2.883   2.285  10.584 -0.8146  0.2843  0.8412
  475MPD2    N1 7076   3.297   2.061  10.514 -0.6166 -0.4033 -0.0009
  475MPD2    H7 7077   3.397   2.050  10.516 -0.6957 -0.6727  2.4241
  476TMC3    C1 7078   3.333   1.989  10.302  0.2586 -0.4714  0.7973
  476TMC3    C2 7079   3.261   1.964  10.182 -0.4031 -0.1118 -0.4953
  476TMC3    C3 7080   3.280   2.047  10.074  0.5183 -0.4787 -0.1169
  476TMC3    C4 7081   3.436   2.084  10.299 -0.3215 -0.4470  0.5234
  476TMC3    C5 7082   3.454   2.156  10.181 -0.0220  0.6600 -0.4259
  476TMC3    C6 7083   3.375   2.142  10.070  0.9118 -0.0896 -0.9941
  476TMC3     C 7084   3.240   1.997  10.414  0.4356  0.2810  0.2858
  476TMC3     O 7085   3.125   1.975  10.396  0.1639 -0.1600  0.5231
  476TMC3     H 7086   3.168   1.909  10.190 -0.2576  0.0624  2.2399
  476TMC3    H1 7087   3.506   2.101  10.380 -0.8267 -1.2077  1.1155
  476TMC3    H2 7088   3.389   2.205   9.983  1.3530  0.1179 -0.7729
  476TMC3    C7 7089   3.483   2.294  10.211 -0.1216 -0.2843  0.1852
  476TMC3    C8 7090   3.157   2.098  10.018 -0.8901  0.4042 -0.1859
  476TMC3    O1 7091   3.539   2.365  10.128 -0.7788 -0.3060 -0.2278
  476TMC3    O2 7092   3.144   2.219  10.020 -0.7434 -0.3390  0.5060
  477MPD2     C 7093   0.149   3.269  11.489 -0.1034  0.3023  0.6079
  477MPD2    C1 7094   0.112   3.282  11.615  0.8930  0.8614  0.3097
  477MPD2    C2 7095   0.210   3.294  11.719  0.2398 -0.0699 -0.3980
  477MPD2    C3 7096   0.339   3.308  11.687 -0.3292 -0.2849 -0.2226
  477MPD2    C4 7097   0.379   3.310  11.555  0.7689  0.4256  0.5520
  477MPD2    C5 7098   0.278   3.290  11.462 -0.1072  0.6619  0.4289
  477MPD2     H 7099   0.184   3.292  11.824 -0.2761 -3.0327 -0.5910
  477MPD2    H1 7100   0.482   3.317  11.523  1.4195  1.9762  2.9485
  477MPD2    H2 7101   0.083   3.254  11.404 -1.5037  0.7308  1.6059
  477MPD2    H3 7102   0.305   3.279  11.358 -1.2537 -0.0970  0.2215
  477MPD2     N 7103   0.430   3.293  11.796 -0.0192 -0.1113 -0.0227
  477MPD2    H5 7104   0.396   3.273  11.889 -2.8682  2.8412 -0.4432
  477MPD2    N1 7105   4.693   3.279  11.633  0.1666  0.0547  0.1310
  477MPD2    H7 7106   4.635   3.265  11.550  1.7108 -2.7059 -0.4880
  478TMC3    C1 7107   4.494   3.347  11.732  0.0707 -0.3690 -0.0862
  478TMC3    C2 7108   4.443   3.449  11.812  0.5692  0.0292 -0.3633
  478TMC3    C3 7109   4.382   3.557  11.739  0.2257 -0.6933 -0.8425
  478TMC3    C4 7110   4.458   3.325  11.602  0.8563 -0.1555  0.3968
  478TMC3    C5 7111   4.395   3.431  11.540  0.4502  0.0690  0.0119
  478TMC3    C6 7112   4.366   3.546  11.602 -0.1504  0.6297 -0.3325
  478TMC3     C 7113   4.635   3.312  11.755 -0.5348  0.5641 -0.2357
  478TMC3     O 7114   4.675   3.345  11.861  0.3272  0.0093  0.3471
  478TMC3     H 7115   4.467   3.450  11.918  0.2535 -0.4216 -0.2861
  478TMC3    H1 7116   4.466   3.230  11.549  1.4555  1.5196 -2.5477
  478TMC3    H2 7117   4.311   3.620  11.545  1.2588  1.5850 -0.4614
  478TMC3    C7 7118   4.420   3.433  11.397 -0.4516  0.5246 -1.1154
  478TMC3    C8 7119   4.326   3.665  11.825 -0.3293 -0.0474  0.1656
  478TMC3    O1 7120   4.518   3.366  11.363 -0.6937 -0.6220 -0.2155
  478TMC3    O2 7121   4.303   3.632  11.942 -0.1048  0.1806 -0.0315
  479MPD2     C 7122   3.147   1.020  15.335  0.0840  0.0044  0.3221
  479MPD2    C1 7123   3.179   0.891  15.378 -0.1520 -0.0442  0.7114
  479MPD2    C2 7124   3.259   0.881  15.499 -0.2825 -0.9856 -0.3812
  479MPD2    C3 7125   3.305   1.004  15.558 -0.2425  0.3772 -1.1311
  479MPD2    C4 7126   3.269   1.126  15.511  0.2766 -0.0703 -0.4559
  479MPD2    C5 7127   3.202   1.135  15.389  0.1250  0.7133  0.3674
  479MPD2     H 7128   3.288   0.782  15.532  0.7522 -0.8273 -0.8021
  479MPD2    H1 7129   3.303   1.222  15.549 -1.3086 -0.0606  0.8946
  479MPD2    H2 7130   3.087   1.038  15.246  1.6642  1.9019 -0.3903
  479MPD2    H3 7131   3.183   1.235  15.349 -0.2388  0.5690  0.1772
  479MPD2     N 7132   3.380   0.999  15.678 -0.6379 -0.4682  0.0218
  479MPD2    H5 7133   3.421   1.088  15.704 -0.6558 -0.8786  1.4815
  479MPD2    N1 7134   3.106   0.787  15.310 -0.0506 -0.5148  0.3371
  479MPD2    H7 7135   3.047   0.819  15.233  0.0012 -0.1002  0.4728
  480TMC3    C1 7136   3.574   0.899  16.080  0.0001 -0.2666  0.0484
  480TMC3    C2 7137   3.683   0.978  16.054 -0.3300 -0.7762  0.2220
  480TMC3    C3 7138   3.693   1.039  15.931 -0.1177 -0.6723  0.3175
  480TMC3    C4 7139   3.495   0.853  15.975 -0.1938  0.8418 -0.2444
  480TMC3    C5 7140   3.509   0.918  15.855 -0.0094  0.7611 -0.0526
  480TMC3    C6 7141   3.606   1.005  15.829 -0.5752  0.2735  0.1344
  480TMC3     C 7142   3.562   0.825  16.206 -0.3643  0.3464  0.6529
  480TMC3     O 7143   3.598   0.884  16.307 -0.2242  0.3318  0.0054
  480TMC3     H 7144   3.762   0.991  16.128 -0.3961  2.3741 -0.2506
  480TMC3    H1 7145   3.408   0.793  16.001  0.9553 -0.2889  0.9831
  480TMC3    H2 7146   3.620   1.034  15.726  0.1366  0.7313  0.3607
  480TMC3    C7 7147   3.406   0.889  15.758 -0.4448 -1.1323 -0.6548
  480TMC3    C8 7148   3.818   1.089  15.884 -0.4451  0.1365  0.0883
  480TMC3    O1 7149   3.344   0.779  15.766 -0.4968 -0.1569  0.0754
  480TMC3    O2 7150   3.914   1.046  15.940 -0.6451 -0.1597 -0.7251
  481MPD2     C 7151   0.880   0.768  13.944  0.1205  0.0436 -0.0125
  481MPD2    C1 7152   0.792   0.681  14.008 -0.2004 -0.3693  0.1334
  481MPD2    C2 7153   0.823   0.637  14.139 -0.4191 -0.3356  0.0302
  481MPD2    C3 7154   0.934   0.680  14.203 -0.2232  0.7355  0.0466
  481MPD2    C4 7155   1.027   0.751  14.136  0.1497 -0.6569  0.4138
  481MPD2    C5 7156   0.995   0.796  14.008 -0.3041 -0.4633  0.3958
  481MPD2     H 7157   0.773   0.557  14.192  0.0452 -0.0823  0.8507
  481MPD2    H1 7158   1.118   0.784  14.186  0.4576 -1.7862  0.5956
  481MPD2    H2 7159   0.856   0.810  13.847 -0.0477 -3.3836 -1.4317
  481MPD2    H3 7160   1.060   0.869  13.961 -1.7994 -0.7851 -2.1445
  481MPD2     N 7161   0.960   0.647  14.342 -0.2259  0.2124  0.2106
  481MPD2    H5 7162   1.053   0.673  14.374  0.5607 -1.1527 -0.9577
  481MPD2    N1 7163   0.691   0.622  13.933  0.0236  0.1867 -0.0598
  481MPD2    H7 7164   0.659   0.672  13.850  1.0774 -0.0659 -0.6298
  482TMC3    C1 7165   0.489   0.510  13.900  0.1999 -0.1760  0.7060
  482TMC3    C2 7166   0.463   0.405  13.825  0.5174 -0.4805  0.7055
  482TMC3    C3 7167   0.370   0.413  13.726  0.2367  0.1987 -0.0496
  482TMC3    C4 7168   0.429   0.627  13.885 -0.3125  0.0100 -0.0874
  482TMC3    C5 7169   0.325   0.638  13.791  0.5043 -0.2483  0.7892
  482TMC3    C6 7170   0.306   0.535  13.708 -0.3829  0.0719 -0.5381
  482TMC3     C 7171   0.616   0.514  13.971 -0.2346 -0.6348 -0.2990
  482TMC3     O 7172   0.659   0.414  14.028  0.2491  0.2287 -0.0419
  482TMC3     H 7173   0.502   0.308  13.850 -4.0461 -2.8116 -1.1805
  482TMC3    H1 7174   0.456   0.709  13.950  1.6543 -0.1679 -0.6968
  482TMC3    H2 7175   0.226   0.545  13.635  1.7137 -0.4135 -2.9080
  482TMC3    C7 7176   0.288   0.782  13.768  0.3783 -0.7805  0.0708
  482TMC3    C8 7177   0.341   0.291  13.652  0.1113  0.9035 -0.1195
  482TMC3    O1 7178   0.305   0.860  13.859 -0.2867  0.1152 -0.2279
  482TMC3    O2 7179   0.419   0.197  13.669  0.3119 -0.3369  0.4568
  483TMC3    C1 7180   2.881   4.627   0.884  0.8888 -0.6170  0.0133
  483TMC3    C2 7181   2.949   0.014   0.910 -0.4426  0.7975  0.0676
  483TMC3    C3 7182   3.050   0.013   1.007 -0.2479 -1.1813 -0.1664
  483TMC3    C4 7183   2.926   4.504   0.940  0.9383 -0.2175  0.2131
  483TMC3    C5 7184   3.020   4.508   1.040  1.0407  0.1100  0.2514
  483TMC3    C6 7185   3.083   4.625   1.071 -0.4515  0.7025  0.1240
  483TMC3     C 7186   2.816   4.613   0.755  0.3233 -0.1227 -0.3393
  483TMC3     O 7187   2.701   4.580   0.764 -0.1149  0.7473 -0.7270
  483TMC3     H 7188   2.933   0.102   0.850  0.7739  0.8194 -0.2170
  483TMC3    H1 7189   2.878   4.412   0.912 -1.4026  1.4822 -1.3787
  483TMC3    H2 7190   3.177   4.613   1.123 -1.2265 -0.1381  1.3393
  483TMC3    C7 7191   3.112   4.397   1.021  0.2014  0.0009  0.8664
  483TMC3    C8 7192   3.158   0.106   0.989 -0.3898  0.1052 -0.1634
  483TMC3    O1 7193   3.198   4.379   1.105 -0.1413  0.7251 -0.6866
  483TMC3    O2 7194   3.172   0.155   0.873  0.2837 -0.2865 -0.1157
  484MPD2     C 7195   0.999   2.245  11.947  0.2197 -0.1406  0.1809
  484MPD2    C1 7196   1.067   2.311  12.049  0.6498 -0.3172 -0.4280
  484MPD2    C2 7197   1.203   2.344  12.032 -0.7320  0.4458  0.4588
  484MPD2    C3 7198   1.265   2.311  11.913  0.2521  0.1507  0.4213
  484MPD2    C4 7199   1.190   2.254  11.815  0.4178 -0.8639  0.6255
  484MPD2    C5 7200   1.063   2.227  11.834 -0.6318 -0.6976  0.0074
  484MPD2     H 7201   1.261   2.379  12.116 -2.5743  1.8330  1.1647
  484MPD2    H1 7202   1.220   2.227  11.714  1.8491  2.9524  0.0541
  484MPD2    H2 7203   0.895   2.216  11.950 -0.2666  1.3065 -2.3144
  484MPD2    H3 7204   1.015   2.181  11.749  2.4311 -2.1974 -0.9323
  484MPD2     N 7205   1.397   2.352  11.888 -0.6414  0.6716  0.6484
  484MPD2    H5 7206   1.433   2.360  11.793 -0.5980 -2.3887  0.3871
  484MPD2    N1 7207   0.995   2.335  12.163 -0.0662  0.4517 -0.4404
  484MPD2    H7 7208   0.894   2.331  12.156 -0.0826 -2.0425  1.1811
  485TMC3    C1 7209   1.609   2.420  11.942  0.2696  0.1999  0.7390
  485TMC3    C2 7210   1.722   2.383  12.009  0.7943  0.1440  0.4603
  485TMC3    C3 7211   1.827   2.458  12.006  0.5910 -0.3795  0.7156
  485TMC3    C4 7212   1.611   2.538  11.870  0.9351 -0.9065  0.2501
  485TMC3    C5 7213   1.723   2.616  11.878 -0.1465 -0.0830  0.2218
  485TMC3    C6 7214   1.831   2.586  11.953  0.0339 -0.2266  0.0902
  485TMC3     C 7215   1.481   2.368  11.993 -0.0584  0.1045 -0.9995
  485TMC3     O 7216   1.483   2.317  12.104 -0.4710  0.0358  0.1765
  485TMC3     H 7217   1.711   2.300  12.078  1.2266 -1.2123 -1.0964
  485TMC3    H1 7218   1.525   2.562  11.808 -0.5029 -1.2985  2.0647
  485TMC3    H2 7219   1.912   2.655  11.971  0.3978 -0.2869 -1.2513
  485TMC3    C7 7220   1.758   2.685  11.757 -0.0004 -0.5724 -0.1663
  485TMC3    C8 7221   1.959   2.403  12.021  0.4096 -0.0103 -0.2530
  485TMC3    O1 7222   1.670   2.714  11.677 -0.2269 -0.2950 -0.0393
  485TMC3    O2 7223   2.053   2.483  12.016  0.0230  0.0163  0.3017
  486MPD2     C 7224   3.633   2.059  13.491  0.2998 -0.1021 -0.0901
  486MPD2    C1 7225   3.606   1.972  13.383  0.7299 -0.1401  1.2578
  486MPD2    C2 7226   3.531   2.019  13.275 -0.1202  0.2875 -0.2865
  486MPD2    C3 7227   3.491   2.154  13.271 -0.9381  1.0772 -0.0417
  486MPD2    C4 7228   3.527   2.239  13.378  0.3043  0.3772 -0.2157
  486MPD2    C5 7229   3.597   2.189  13.486 -1.0267  0.6563 -0.1021
  486MPD2     H 7230   3.523   1.955  13.188  0.9313  0.8075 -0.7590
  486MPD2    H1 7231   3.493   2.341  13.388  0.0219  0.2734 -0.1248
  486MPD2    H2 7232   3.684   2.025  13.580 -0.8486 -0.9389  0.2415
  486MPD2    H3 7233   3.623   2.250  13.572  0.6783  0.0618 -0.2037
  486MPD2     N 7234   3.427   2.191  13.151  0.8083  0.1346  1.0478
  486MPD2    H5 7235   3.414   2.119  13.081  0.8345  1.6211 -0.4962
  486MPD2    N1 7236   3.654   1.838  13.405  0.6163 -0.5417  0.5924
  486MPD2    H7 7237   3.679   1.806  13.498  4.6657  1.6466  0.2168
  487TMC3    C1 7238   3.668   1.610  13.354 -0.3879 -0.0970  0.3775
  487TMC3    C2 7239   3.703   1.519  13.265  0.6289 -0.0181  0.9855
  487TMC3    C3 7240   3.694   1.384  13.296  0.1921 -0.5396 -0.5503
  487TMC3    C4 7241   3.630   1.565  13.475  0.2192 -0.4333 -0.0912
  487TMC3    C5 7242   3.636   1.433  13.511  0.2716  0.1771  0.3072
  487TMC3    C6 7243   3.691   1.339  13.427  0.0309 -0.1631  0.4486
  487TMC3     C 7244   3.644   1.747  13.303 -0.2510  0.0338 -0.0039
  487TMC3     O 7245   3.644   1.765  13.181 -0.6550 -0.2007 -0.3294
  487TMC3     H 7246   3.721   1.549  13.163 -0.2789  0.3122  0.9272
  487TMC3    H1 7247   3.596   1.640  13.545  1.8456 -0.3751  0.6458
  487TMC3    H2 7248   3.662   1.237  13.452  1.8620 -0.3041  1.9759
  487TMC3    C7 7249   3.540   1.382  13.604 -0.1580 -0.8219 -0.4761
  487TMC3    C8 7250   3.623   1.300  13.211  0.4093 -0.0158  0.3195
  487TMC3    O1 7251   3.569   1.276  13.660 -0.3012 -0.3071 -0.1543
  487TMC3    O2 7252   3.524   1.345  13.151 -0.3419 -0.1782 -0.0333
  488MPD2     C 7253   3.472   2.899  16.357 -0.0249 -0.8401  0.4913
  488MPD2    C1 7254   3.535   2.991  16.440  0.2107  0.2378  0.1807
  488MPD2    C2 7255   3.537   2.955  16.572  0.5208  0.0481 -0.4072
  488MPD2    C3 7256   3.484   2.837  16.623  0.3543 -0.3863  0.4506
  488MPD2    C4 7257   3.413   2.752  16.545 -0.2399  0.4270 -0.5409
  488MPD2    C5 7258   3.409   2.779  16.410  0.2210 -0.6324  0.2689
  488MPD2     H 7259   3.563   3.037  16.638  0.2403  1.0505 -1.5311
  488MPD2    H1 7260   3.360   2.666  16.584  0.8111 -0.5597 -1.2555
  488MPD2    H2 7261   3.458   2.925  16.253 -0.4741 -1.3507  0.4249
  488MPD2    H3 7262   3.363   2.710  16.341  0.5678  1.0773 -1.6975
  488MPD2     N 7263   3.496   2.817  16.758  0.3703 -0.5197 -0.8367
  488MPD2    H5 7264   3.538   2.892  16.811 -1.1153  0.5519 -1.1686
  488MPD2    N1 7265   3.588   3.122  16.404  0.1504 -0.6035  0.7510
  488MPD2    H7 7266   3.607   3.187  16.479  1.4198 -0.6590  0.4839
  489TMC3    C1 7267   3.422   2.719  16.968 -0.1318  0.5891  0.3781
  489TMC3    C2 7268   3.476   2.817  17.037 -0.3547  0.8412 -0.0014
  489TMC3    C3 7269   3.447   2.835  17.170 -0.5143 -0.0093 -0.1748
  489TMC3    C4 7270   3.341   2.629  17.027 -0.0905  0.4002  0.2617
  489TMC3    C5 7271   3.322   2.642  17.162  0.3146 -0.2657  0.0702
  489TMC3    C6 7272   3.363   2.753  17.238 -0.2890  0.3249  0.8028
  489TMC3     C 7273   3.460   2.702  16.826 -0.8707  0.2109 -0.7187
  489TMC3     O 7274   3.419   2.600  16.775  0.5883  0.1147  0.1351
  489TMC3     H 7275   3.569   2.863  17.005 -0.5130  2.0693  1.3016
  489TMC3    H1 7276   3.282   2.560  16.968  2.0326 -0.5274 -0.7725
  489TMC3    H2 7277   3.347   2.752  17.345  0.3843  1.4224  0.9093
  489TMC3    C7 7278   3.255   2.542  17.236  0.1335  0.0240 -0.7506
  489TMC3    C8 7279   3.490   2.966  17.224  0.8197 -0.2938 -0.1948
  489TMC3    O1 7280   3.206   2.576  17.344 -0.0589  0.3983 -0.4331
  489TMC3    O2 7281   3.561   3.032  17.151 -0.0431  0.2052  0.3424
  490MPD2     C 7282   4.302   2.607  17.189  0.1029  0.4746 -0.2364
  490MPD2    C1 7283   4.349   2.494  17.128 -0.1636 -0.7796  0.5279
  490MPD2    C2 7284   4.486   2.484  17.115  0.7182  0.7910 -0.0249
  490MPD2    C3 7285   4.574   2.579  17.156  0.4133  0.1050 -0.0673
  490MPD2    C4 7286   4.521   2.689  17.222 -0.3609 -0.2399 -0.4053
  490MPD2    C5 7287   4.387   2.705  17.235  0.8768  0.0420 -0.2017
  490MPD2     H 7288   4.530   2.392  17.077  0.2424  1.1825 -1.5140
  490MPD2    H1 7289   4.592   2.765  17.252 -1.5969 -0.4185  2.9445
  490MPD2    H2 7290   4.194   2.611  17.195  0.1598  0.4696  0.8911
  490MPD2    H3 7291   4.348   2.796  17.279  0.5221  1.0115 -2.4949
  490MPD2     N 7292   4.716   2.587  17.137  0.4870  0.7403 -0.0306
  490MPD2    H5 7293   0.041   2.663  17.181  3.0221 -1.3223  0.6913
  490MPD2    N1 7294   4.250   2.397  17.096 -0.5729  0.0212  0.4558
  490MPD2    H7 7295   4.154   2.413  17.125 -0.1380  1.3682  1.1590
  491TMC3    C1 7296   4.161   2.186  17.058  0.3927  0.1992  0.3856
  491TMC3    C2 7297   4.091   2.192  17.175  0.2870  0.3429  0.0538
  491TMC3    C3 7298   4.004   2.087  17.201 -0.7349  0.1242 -0.7721
  491TMC3    C4 7299   4.149   2.088  16.968 -0.2486 -0.7580 -0.4689
  491TMC3    C5 7300   4.056   1.984  16.996  0.0087  0.4290 -0.6657
  491TMC3    C6 7301   3.975   1.986  17.107  0.4710  0.3200 -0.4686
  491TMC3     C 7302   4.274   2.278  17.036 -0.0494 -0.0928 -0.8154
  491TMC3     O 7303   4.363   2.239  16.970  0.1854 -0.0829  0.0275
  491TMC3     H 7304   4.105   2.274  17.244 -1.6164  1.0706 -0.4404
  491TMC3    H1 7305   4.209   2.080  16.879  1.6183 -2.8483  0.9634
  491TMC3    H2 7306   3.912   1.900  17.125 -0.3720  0.6288 -1.9730
  491TMC3    C7 7307   4.004   1.902  16.889  0.2919 -0.0392  0.6659
  491TMC3    C8 7308   3.937   2.062  17.331  0.1723  0.2606 -0.5866
  491TMC3    O1 7309   3.882   1.884  16.893  0.0457  0.1384  0.4777
  491TMC3    O2 7310   3.873   1.961  17.341  0.1502 -0.2106 -0.4784
  492MPD2     C 7311   4.712   2.598  11.691 -0.1290 -0.6590  0.8606
  492MPD2    C1 7312   0.024   2.481  11.619  0.6673 -0.2867  0.0051
  492MPD2    C2 7313   0.014   2.358  11.674  0.1622 -0.0154 -0.8650
  492MPD2    C3 7314   4.676   2.346  11.800 -0.1571 -0.3845 -1.0684
  492MPD2    C4 7315   4.653   2.463  11.873  0.0823  0.4157  0.8462
  492MPD2    C5 7316   4.676   2.586  11.820 -0.8201 -0.9677 -0.3019
  492MPD2     H 7317   0.058   2.268  11.632  0.6219 -0.6164  0.9135
  492MPD2    H1 7318   4.603   2.463  11.969 -0.4123 -0.4713  0.5909
  492MPD2    H2 7319   4.710   2.694  11.642 -2.0717 -1.0537  0.1583
  492MPD2    H3 7320   4.645   2.675  11.874  1.4772 -0.8675  0.8450
  492MPD2     N 7321   4.645   2.221  11.866  0.1708 -0.1364  0.2371
  492MPD2    H5 7322   4.602   2.232  11.958 -3.6471 -2.0627 -1.3219
  492MPD2    N1 7323   0.077   2.499  11.486 -0.3975  0.2923 -0.6238
  492MPD2    H7 7324   0.075   2.593  11.447 -1.9032 -0.5681 -2.6792
  493TMC3    C1 7325   0.148   2.452  11.267  0.2559  0.1413 -0.5781
  493TMC3    C2 7326   0.223   2.564  11.265 -0.2284  0.1019  0.7365
  493TMC3    C3 7327   0.260   2.613  11.143 -0.1081 -0.6287 -0.0636
  493TMC3    C4 7328   0.123   2.373  11.154 -0.1511  0.2547  0.0176
  493TMC3    C5 7329   0.167   2.426  11.034  0.3573 -0.6058  0.4584
  493TMC3    C6 7330   0.244   2.537  11.027 -0.0075  0.2811 -0.0725
  493TMC3     C 7331   0.100   2.402  11.396 -0.2458  0.5924 -0.1293
  493TMC3     O 7332   0.076   2.282  11.401 -0.5376  0.5947  0.0004
  493TMC3     H 7333   0.234   2.628  11.351 -2.2038  0.4666  0.7292
  493TMC3    H1 7334   0.044   2.299  11.157 -0.6159  0.6280 -2.9597
  493TMC3    H2 7335   0.288   2.568  10.932 -1.7928  3.3027  0.0738
  493TMC3    C7 7336   0.140   2.347  10.914 -0.5514  1.0630  0.2517
  493TMC3    C8 7337   0.327   2.739  11.137 -0.2347 -0.1531 -0.2401
  493TMC3    O1 7338   0.057   2.259  10.917 -0.0799  0.5437 -0.3355
  493TMC3    O2 7339   0.391   2.774  11.237  0.5144  0.2504 -0.1240
  494TMC3    C1 7340   0.760   4.315   0.548 -0.7024 -0.2914 -0.7517
  494TMC3    C2 7341   0.760   4.190   0.598 -0.3744  0.1807  0.3468
  494TMC3    C3 7342   0.699   4.104   0.515  0.6827  0.0033  0.0894
  494TMC3    C4 7343   0.727   4.358   0.419  0.8460  0.1944 -0.4955
  494TMC3    C5 7344   0.686   4.259   0.338 -0.3282  0.0609 -0.4486
  494TMC3    C6 7345   0.661   4.132   0.382 -0.4410 -0.6558 -0.4888
  494TMC3     C 7346   0.769   4.419   0.653 -0.6974  0.4152 -0.0080
  494TMC3     O 7347   0.708   4.401   0.761 -0.4241 -0.6733 -0.0019
  494TMC3     H 7348   0.792   4.166   0.699  0.1732 -0.2156  0.0819
  494TMC3    H1 7349   0.747   4.457   0.379  0.5730 -0.2755 -1.8019
  494TMC3    H2 7350   0.634   4.053   0.313 -0.3496 -2.3991  1.4761
  494TMC3    C7 7351   0.668   4.266   0.194  0.1518  0.3961  0.2196
  494TMC3    C8 7352   0.709   3.959   0.542  0.7674 -0.4250  0.0301
  494TMC3    O1 7353   0.688   4.159   0.134 -0.4643  0.2178  0.4693
  494TMC3    O2 7354   0.618   3.885   0.501 -0.0494 -0.3892  0.4243
  495TMC3    C1 7355   4.030   1.435  14.978 -1.1398 -0.0461  0.3071
  495TMC3    C2 7356   3.934   1.477  14.895  0.1536 -0.3660  0.1244
  495TMC3    C3 7357   3.808   1.481  14.950 -0.7443 -0.4653 -0.2800
  495TMC3    C4 7358   4.008   1.389  15.107 -0.0217 -0.2050  0.4246
  495TMC3    C5 7359   3.889   1.412  15.162  0.5193 -0.1195  0.3438
  495TMC3    C6 7360   3.788   1.454  15.084  0.1530 -0.9402  0.1624
  495TMC3     C 7361   4.158   1.487  14.952 -0.1409 -0.0289  0.0550
  495TMC3     O 7362   4.183   1.584  15.028 -0.5473 -0.4681  0.2796
  495TMC3     H 7363   3.957   1.505  14.793 -1.4552  0.4885 -0.0138
  495TMC3    H1 7364   4.100   1.355  15.153  0.5293  1.0982  0.2972
  495TMC3    H2 7365   3.692   1.452  15.134 -0.7109 -1.3367 -1.5272
  495TMC3    C7 7366   3.862   1.362  15.297 -0.4013  0.0141  0.4554
  495TMC3    C8 7367   3.689   1.509  14.867  0.2537 -0.4306  0.1092
  495TMC3    O1 7368   3.748   1.353  15.339 -0.4694 -0.0581 -0.0642
  495TMC3    O2 7369   3.579   1.501  14.917  0.1571  0.1673 -0.1716
  496MPD2     C 7370   0.487   1.939  15.068 -0.0919 -0.0086  0.1587
  496MPD2    C1 7371   0.553   1.857  15.155 -0.4063  0.8573 -0.2374
  496MPD2    C2 7372   0.528   1.874  15.294 -0.3217  0.6194  0.3847
  496MPD2    C3 7373   0.431   1.958  15.335  0.5447 -0.2750 -0.2850
  496MPD2    C4 7374   0.365   2.046  15.251  0.1079  0.1029 -0.3303
  496MPD2    C5 7375   0.395   2.032  15.121 -0.2200  0.2796  0.5393
  496MPD2     H 7376   0.574   1.805  15.363  1.8956  1.7264  0.0013
  496MPD2    H1 7377   0.303   2.128  15.285  1.1527  0.3762  0.9328
  496MPD2    H2 7378   0.507   1.946  14.962 -0.0740 -0.4820  0.1283
  496MPD2    H3 7379   0.352   2.099  15.047 -1.4627 -2.6051 -1.3755
  496MPD2     N 7380   0.394   1.969  15.468  0.1376 -1.0891 -0.1188
  496MPD2    H5 7381   0.311   2.025  15.483  0.2955 -1.4028  1.8821
  496MPD2    N1 7382   0.646   1.777  15.091  0.1600 -0.7213 -0.1001
  496MPD2    H7 7383   0.650   1.781  14.990  2.9270  0.4147  0.0371
  497TMC3    C1 7384   0.391   1.925  15.704  0.3647 -0.9286  0.2456
  497TMC3    C2 7385   0.291   2.012  15.717  0.7675 -0.6099 -0.2782
  497TMC3    C3 7386   0.239   2.038  15.840 -0.4687  1.0092  0.5744
  497TMC3    C4 7387   0.453   1.872  15.820 -0.3178  0.3249  0.2475
  497TMC3    C5 7388   0.388   1.900  15.936  0.1932  0.3009  0.3856
  497TMC3    C6 7389   0.276   1.976  15.954 -0.1024  0.5055 -0.2301
  497TMC3     C 7390   0.461   1.918  15.578  0.5954  0.3458 -0.2508
  497TMC3     O 7391   0.569   1.856  15.578 -0.1629  0.8792 -0.6206
  497TMC3     H 7392   0.235   2.046  15.630 -0.3471  0.3404  0.8080
  497TMC3    H1 7393   0.542   1.810  15.813 -0.6651 -0.1107 -0.3104
  497TMC3    H2 7394   0.223   1.988  16.047 -1.4895 -1.9354 -0.6954
  497TMC3    C7 7395   0.433   1.823  16.056  0.2543 -0.0320  0.0367
  497TMC3    C8 7396   0.136   2.143  15.847 -0.2108  0.5747 -0.4544
  497TMC3    O1 7397   0.342   1.800  16.137  0.3145 -0.1854  0.1343
  497TMC3    O2 7398   0.109   2.215  15.752 -0.1876  0.0435 -0.2961
  498MPD2     C 7399   2.407   1.741   9.468 -0.0498 -0.0227 -0.2841
  498MPD2    C1 7400   2.418   1.832   9.574 -0.1129 -0.1814  0.3462
  498MPD2    C2 7401   2.292   1.857   9.640  0.1543  0.3113  0.3079
  498MPD2    C3 7402   2.171   1.804   9.598 -0.0646 -0.8925 -0.2964
  498MPD2    C4 7403   2.173   1.723   9.482 -0.1837  0.8920  0.4389
  498MPD2    C5 7404   2.292   1.692   9.419  0.5663 -0.7810  0.5519
  498MPD2     H 7405   2.293   1.914   9.732 -2.2954 -0.9356  1.1228
  498MPD2    H1 7406   2.084   1.672   9.448  1.0845  0.3486 -2.0989
  498MPD2    H2 7407   2.494   1.725   9.405  0.9086  0.6295  0.8753
  498MPD2    H3 7408   2.301   1.634   9.328 -0.1324 -0.6005  0.3648
  498MPD2     N 7409   2.059   1.831   9.688 -0.3021  0.2330 -0.7384
  498MPD2    H5 7410   2.069   1.868   9.782 -2.0243 -0.6889 -0.1884
  498MPD2    N1 7411   2.519   1.922   9.599 -0.1187 -0.0597 -0.4579
  498MPD2    H7 7412   2.492   2.007   9.647  1.8146  0.4992 -0.3665
  499TMC3    C1 7413   2.719   2.031   9.578  0.6992  0.7200  0.1957
  499TMC3    C2 7414   2.857   2.023   9.593 -0.6745  0.7946  0.3651
  499TMC3    C3 7415   2.918   2.143   9.615  0.3137  1.0196  0.5883
  499TMC3    C4 7416   2.654   2.153   9.576 -1.0635  0.1623  0.3111
  499TMC3    C5 7417   2.726   2.268   9.590  0.6411  0.1260  0.0014
  499TMC3    C6 7418   2.863   2.272   9.606 -0.9883  0.2317 -0.9086
  499TMC3     C 7419   2.641   1.909   9.561  0.6417 -0.2213 -0.2673
  499TMC3     O 7420   2.699   1.810   9.528 -0.0320 -0.3033  0.0289
  499TMC3     H 7421   2.905   1.928   9.575 -2.6928 -0.3246  0.8614
  499TMC3    H1 7422   2.551   2.146   9.544 -0.1266  0.0132 -2.7345
  499TMC3    H2 7423   2.922   2.362   9.615 -1.8444  0.7300 -0.2060
  499TMC3    C7 7424   2.662   2.392   9.538  0.3789 -0.5128 -0.2083
  499TMC3    C8 7425   3.060   2.145   9.631  0.8361 -0.9360 -0.1415
  499TMC3    O1 7426   2.732   2.479   9.491  0.1132  0.3149  0.3726
  499TMC3    O2 7427   3.125   2.246   9.614  0.2335  0.4892  0.7420
  500MPD2     C 7428   3.692   3.113  10.436  0.9805  0.8052 -0.1037
  500MPD2    C1 7429   3.725   3.159  10.310 -0.3042  0.4297 -0.8475
  500MPD2    C2 7430   3.652   3.115  10.197 -0.1030  0.9884 -0.1829
  500MPD2    C3 7431   3.549   3.012  10.211  0.0784  0.4601 -0.3793
  500MPD2    C4 7432   3.521   2.968  10.338  0.1920 -0.2172 -0.8564
  500MPD2    C5 7433   3.591   3.014  10.446 -0.4335  0.0527  0.0575
  500MPD2     H 7434   3.684   3.150  10.100  1.9682  0.5265  0.3310
  500MPD2    H1 7435   3.429   2.911  10.346 -0.7259  1.0412 -2.1966
  500MPD2    H2 7436   3.732   3.155  10.528  1.4131 -0.3398  0.2357
  500MPD2    H3 7437   3.558   2.987  10.546 -2.2427  1.2433 -0.2153
  500MPD2     N 7438   3.462   2.970  10.103 -0.3434  0.9113  0.0044
  500MPD2    H5 7439   3.391   2.903  10.130 -1.0037  2.3045  1.7369
  500MPD2    N1 7440   3.826   3.251  10.288 -0.5136 -0.1174 -0.0433
  500MPD2    H7 7441   3.849   3.282  10.194 -0.9906  1.7078  0.4504
  501TMC3    C1 7442   4.027   3.364  10.328  0.4606  0.7223  0.3664
  501TMC3    C2 7443   4.012   3.450  10.225 -0.3793  0.0619  0.6912
  501TMC3    C3 7444   4.118   3.515  10.181 -1.1134 -0.3378 -0.1791
  501TMC3    C4 7445   4.144   3.329  10.380  0.2983  0.6135  0.3757
  501TMC3    C5 7446   4.252   3.383  10.317 -0.3301  0.1275  0.9202
  501TMC3    C6 7447   4.240   3.475  10.218 -0.2435 -0.1428  0.4719
  501TMC3     C 7448   3.913   3.294  10.385 -0.7793 -0.0654 -0.2324
  501TMC3     O 7449   3.930   3.251  10.501 -0.2407 -0.2068 -0.6380
  501TMC3     H 7450   3.912   3.482  10.202 -0.1736 -0.9489 -1.5968
  501TMC3    H1 7451   4.156   3.261  10.463  0.1815  1.0045  0.7131
  501TMC3    H2 7452   4.335   3.506  10.176 -0.2282 -1.1914 -0.2602
  501TMC3    C7 7453   4.382   3.366  10.384  0.2339  0.3667 -0.7087
  501TMC3    C8 7454   4.110   3.580  10.046  0.0196  0.6859 -0.7101
  501TMC3    O1 7455   4.390   3.266  10.458  0.1431 -0.2282 -0.1601
  501TMC3    O2 7456   4.177   3.523   9.962 -0.3464 -0.2309  0.4557
  502TMC3    C1 7457   2.980   1.914  14.668  0.8033 -0.8352  0.4990
  502TMC3    C2 7458   2.971   2.043  14.628  0.7389 -0.0239 -0.1329
  502TMC3    C3 7459   2.859   2.114  14.667  0.5971 -0.1942  0.4085
  502TMC3    C4 7460   2.877   1.848  14.729  0.6698  0.2961 -0.2792
  502TMC3    C5 7461   2.768   1.924  14.767 -0.6540 -0.0023  0.3926
  502TMC3    C6 7462   2.760   2.057  14.735 -0.2879 -0.1361  0.1882
  502TMC3     C 7463   3.106   1.900  14.734  0.2145 -0.2126  0.8465
  502TMC3     O 7464   3.204   1.934  14.671  0.2374 -0.0828 -0.6632
  502TMC3     H 7465   3.060   2.100  14.606 -0.8056  2.4504 -0.0574
  502TMC3    H1 7466   2.895   1.745  14.761  1.0695 -0.1202 -1.8586
  502TMC3    H2 7467   2.682   2.120  14.777  1.0988  0.8765  1.2488
  502TMC3    C7 7468   2.711   1.887  14.897 -0.5499  0.3806 -1.0399
  502TMC3    C8 7469   2.879   2.256  14.670 -0.6096 -0.2608  1.2933
  502TMC3    O1 7470   2.791   1.824  14.961 -0.1627 -0.2874 -0.8856
  502TMC3    O2 7471   2.931   2.304  14.567 -1.0000 -0.3388 -0.2082
  503MPD2     C 7472   0.509   2.813  17.045  0.4751  0.3624  0.0604
  503MPD2    C1 7473   0.583   2.806  17.164  0.0262  1.5014  0.0245
  503MPD2    C2 7474   0.662   2.688  17.180 -0.5435  0.2691 -0.2456
  503MPD2    C3 7475   0.665   2.585  17.083  0.2363 -0.5416  0.3492
  503MPD2    C4 7476   0.593   2.600  16.965  0.0561 -0.4378  0.0264
  503MPD2    C5 7477   0.515   2.710  16.952 -0.0752 -0.1529 -0.1413
  503MPD2     H 7478   0.725   2.683  17.267 -0.4199 -0.9256 -0.4090
  503MPD2    H1 7479   0.578   2.525  16.888 -1.1496 -0.6113  0.4245
  503MPD2    H2 7480   0.444   2.896  17.022  0.1375  0.8810  2.8458
  503MPD2    H3 7481   0.466   2.727  16.857  0.6016  1.4307 -0.2071
  503MPD2     N 7482   0.751   2.474  17.089 -0.0839 -0.3938  0.2288
  503MPD2    H5 7483   0.745   2.415  17.006  0.4702  0.2075 -0.2292
  503MPD2    N1 7484   0.583   2.903  17.258  0.1179  0.6239  0.0507
  503MPD2    H7 7485   0.665   2.903  17.318 -1.8263  0.4798  2.7226
  504TMC3    C1 7486   0.888   2.310  17.180 -0.4390  0.1295 -0.9598
  504TMC3    C2 7487   0.835   2.192  17.214  0.6144  0.2998 -0.3098
  504TMC3    C3 7488   0.862   2.077  17.143  1.1329  0.3291  0.0163
  504TMC3    C4 7489   0.973   2.312  17.071 -0.0577  0.8081 -0.4683
  504TMC3    C5 7490   0.997   2.201  16.989 -0.4008  0.5570  0.6205
  504TMC3    C6 7491   0.935   2.084  17.025 -0.2005 -0.0461 -0.0485
  504TMC3     C 7492   0.816   2.430  17.200  0.1825  0.3865 -0.8895
  504TMC3     O 7493   0.811   2.466  17.317 -0.0722 -0.2511 -0.1649
  504TMC3     H 7494   0.753   2.189  17.285  1.3750  0.6429  0.5992
  504TMC3    H1 7495   1.004   2.411  17.040 -1.0071  2.3365  3.5038
  504TMC3    H2 7496   0.961   1.994  16.971 -1.0471  1.8438 -3.6264
  504TMC3    C7 7497   1.132   2.194  16.946 -0.1483  0.4881 -0.0854
  504TMC3    C8 7498   0.826   1.948  17.199 -0.1729  0.6383 -0.7105
  504TMC3    O1 7499   1.162   2.129  16.843  0.2091  0.3376 -0.3657
  504TMC3    O2 7500   0.862   1.849  17.141  0.0409 -0.3358 -0.4172
  505MPD2     C 7501   1.058   1.811  10.664  0.0403  0.3489 -0.1156
  505MPD2    C1 7502   1.009   1.712  10.576 -0.2982  0.3121 -0.4673
  505MPD2    C2 7503   1.073   1.595  10.586 -0.4914  0.0344 -0.0052
  505MPD2    C3 7504   1.183   1.575  10.669 -0.1645  0.1051  0.4281
  505MPD2    C4 7505   1.220   1.670  10.756  0.0917 -0.0657  0.2557
  505MPD2    C5 7506   1.154   1.788  10.760 -0.1815 -0.6403  0.5309
  505MPD2     H 7507   1.051   1.513  10.519  0.4879 -0.0599 -0.2147
  505MPD2    H1 7508   1.310   1.665  10.816  0.0820 -0.0363  0.2726
  505MPD2    H2 7509   1.015   1.910  10.670  0.7099  0.7145 -1.5106
  505MPD2    H3 7510   1.180   1.873  10.822  2.0542  1.3910 -3.1599
  505MPD2     N 7511   1.259   1.461  10.636 -0.4810  0.3631  0.3613
  505MPD2    H5 7512   1.209   1.395  10.577  2.1775 -0.4486 -0.9847
  505MPD2    N1 7513   0.909   1.737  10.478  0.0227 -0.4690 -0.6104
  505MPD2    H7 7514   0.863   1.827  10.483 -0.2325 -0.6303 -0.0094
  506TMC3    C1 7515   0.761   1.693  10.291  0.9457 -0.2512  0.4080
  506TMC3    C2 7516   0.792   1.796  10.212  0.5364 -0.2655  0.8082
  506TMC3    C3 7517   0.755   1.791  10.080 -0.4814 -0.6661 -0.1815
  506TMC3    C4 7518   0.702   1.582  10.230  0.3335  0.6239 -0.0521
  506TMC3    C5 7519   0.678   1.570  10.096  0.0640  0.5907  0.1931
  506TMC3    C6 7520   0.707   1.678  10.016  0.2607 -0.6927  0.1285
  506TMC3     C 7521   0.858   1.648  10.389 -0.2917 -0.1109  0.3502
  506TMC3     O 7522   0.874   1.526  10.380 -0.5628 -0.0170  0.4892
  506TMC3     H 7523   0.841   1.882  10.256 -0.3400  1.2953 -1.2884
  506TMC3    H1 7524   0.665   1.509  10.300 -0.4712  1.1741  0.0933
  506TMC3    H2 7525   0.687   1.667   9.910 -0.5548  1.4079  0.0636
  506TMC3    C7 7526   0.713   1.436  10.048  0.0280 -0.0818  0.2105
  506TMC3    C8 7527   0.814   1.887   9.981  0.3503 -0.2788  0.0725
  506TMC3    O1 7528   0.674   1.404   9.940  0.3288 -0.4145  0.4288
  506TMC3    O2 7529   0.740   1.903   9.887  0.2548 -0.1265  0.1914
  507TMC3    C1 7530   1.605   2.274  14.357  0.2843  0.6082 -0.4621
  507TMC3    C2 7531   1.726   2.266  14.286 -0.6086  0.5724 -0.2708
  507TMC3    C3 7532   1.841   2.299  14.348  0.1427  0.2099 -0.6160
  507TMC3    C4 7533   1.601   2.313  14.490 -0.1563 -0.1565 -0.2426
  507TMC3    C5 7534   1.727   2.320  14.552  0.6557 -0.0385 -0.1935
  507TMC3    C6 7535   1.841   2.307  14.485 -0.4201 -0.1859 -0.1421
  507TMC3     C 7536   1.482   2.247  14.285  0.9268 -0.0269  0.0293
  507TMC3     O 7537   1.497   2.196  14.173 -0.0147  0.0416 -0.1602
  507TMC3     H 7538   1.720   2.259  14.178 -2.8824 -0.2055 -0.0783
  507TMC3    H1 7539   1.511   2.298  14.549 -0.2606  0.7115 -0.1704
  507TMC3    H2 7540   1.942   2.313  14.524 -0.5934  0.2812  0.2454
  507TMC3    C7 7541   1.733   2.442  14.632  0.2078  0.1437 -0.0646
  507TMC3    C8 7542   1.915   2.409  14.288 -0.0583 -0.3314 -0.9746
  507TMC3    O1 7543   1.825   2.524  14.620 -0.6349  0.3142  0.0003
  507TMC3    O2 7544   1.936   2.391  14.167  1.1977 -0.3947 -0.0444
  508MPD2     C 7545   1.990   0.014  16.087 -0.4401  0.0447 -0.8876
  508MPD2    C1 7546   2.098   0.009  16.004  0.2948  0.1312 -1.3446
  508MPD2    C2 7547   2.079   0.015  15.866  0.2780 -0.4472  0.1220
  508MPD2    C3 7548   1.954   0.036  15.810 -0.0640 -0.0248 -0.0932
  508MPD2    C4 7549   1.843   0.048  15.897 -0.1389  0.4357 -0.1655
  508MPD2    C5 7550   1.866   0.034  16.033 -0.3304 -0.3366  0.4380
  508MPD2     H 7551   2.173   0.012  15.813 -0.4067  4.0639 -1.3617
  508MPD2    H1 7552   1.742   0.073  15.866 -0.4410 -1.0111 -0.3585
  508MPD2    H2 7553   1.994   0.003  16.195 -1.4239 -0.6685 -0.9303
  508MPD2    H3 7554   1.786   0.050  16.104  0.6196 -0.5262  1.5675
  508MPD2     N 7555   1.952   0.060  15.668 -0.0719  0.1466 -0.2957
  508MPD2    H5 7556   2.043   0.081  15.629 -0.3578  1.0965 -0.4418
  508MPD2    N1 7557   2.228   4.718  16.052  0.1252 -0.1355  0.1976
  508MPD2    H7 7558   2.241   0.005  16.152 -0.1170 -1.3040  0.3712
  509TMC3    C1 7559   1.842   0.308  15.319 -0.2891 -0.5406 -0.1305
  509TMC3    C2 7560   1.975   0.325  15.284 -0.4065 -0.1546 -0.4419
  509TMC3    C3 7561   2.066   0.231  15.334 -0.2515 -0.1311  0.0066
  509TMC3    C4 7562   1.797   0.195  15.385  0.2929  0.1728 -0.2114
  509TMC3    C5 7563   1.884   0.115  15.449  0.1125 -1.0713  0.3344
  509TMC3    C6 7564   2.018   0.130  15.411  0.2274  0.0726 -1.0356
  509TMC3     C 7565   1.759   0.426  15.332  0.3653  0.0930 -0.4485
  509TMC3     O 7566   1.641   0.392  15.359 -0.6352  0.5217  0.4781
  509TMC3     H 7567   2.009   0.406  15.221 -0.6947  1.7075  1.7510
  509TMC3    H1 7568   1.695   0.185  15.423  0.0382  0.3822 -0.8414
  509TMC3    H2 7569   2.095   0.079  15.467  0.7939  1.3290 -0.6521
  509TMC3    C7 7570   1.848   0.071  15.584 -0.6855  0.5782  0.1964
  509TMC3    C8 7571   2.212   0.258  15.329 -1.3708 -0.4609  0.8308
  509TMC3    O1 7572   1.733   0.058  15.608 -0.6192 -0.5073 -0.2577
  509TMC3    O2 7573   2.281   0.159  15.354 -0.3713 -0.0681  0.1701
  510MPD2     C 7574   0.359   1.956  14.597  1.0539  0.4299 -0.5144
  510MPD2    C1 7575   0.426   1.846  14.648  0.7053  0.7695 -0.2676
  510MPD2    C2 7576   0.528   1.788  14.573  0.0997  0.1495  0.4738
  510MPD2    C3 7577   0.575   1.851  14.460  0.0706  0.0796  0.2702
  510MPD2    C4 7578   0.519   1.964  14.417 -0.1872  0.1252  0.2797
  510MPD2    C5 7579   0.414   2.018  14.490 -0.2068 -0.3816  0.5748
  510MPD2     H 7580   0.582   1.698  14.597 -2.1130 -1.5081 -0.7955
  510MPD2    H1 7581   0.548   2.015  14.326  3.1772  0.8331  1.7196
  510MPD2    H2 7582   0.284   2.010  14.654  1.0836  1.2315 -1.2381
  510MPD2    H3 7583   0.368   2.111  14.459 -1.0748 -0.6989  0.8843
  510MPD2     N 7584   0.687   1.796  14.396 -0.0011  0.0562  0.3308
  510MPD2    H5 7585   0.715   1.704  14.430  2.3107  0.7009  0.1620
  510MPD2    N1 7586   0.378   1.789  14.770  0.0305  0.2975 -0.0521
  510MPD2    H7 7587   0.282   1.818  14.786 -0.2125  0.0402 -1.0407
  511TMC3    C1 7588   0.372   1.619  14.940  0.1193 -0.3242 -0.9649
  511TMC3    C2 7589   0.284   1.690  15.019 -0.0918  0.6406 -0.6575
  511TMC3    C3 7590   0.232   1.634  15.131 -0.3946 -0.1009 -0.4906
  511TMC3    C4 7591   0.402   1.493  14.979  0.4577  0.3031  0.3213
  511TMC3    C5 7592   0.348   1.438  15.086  0.5945 -0.4183  0.0808
  511TMC3    C6 7593   0.262   1.504  15.172 -0.6061 -0.1424 -0.2858
  511TMC3     C 7594   0.448   1.687  14.838 -0.0461 -0.2221  0.0795
  511TMC3     O 7595   0.567   1.659  14.826  0.6958 -0.3088 -0.1523
  511TMC3     H 7596   0.261   1.792  14.990  0.8190  1.1762  0.5216
  511TMC3    H1 7597   0.469   1.433  14.920 -0.7323  0.1665 -0.8991
  511TMC3    H2 7598   0.220   1.446  15.254  0.4546 -1.1305 -0.4361
  511TMC3    C7 7599   0.413   1.319  15.133 -0.2245  0.0196  0.9721
  511TMC3    C8 7600   0.177   1.716  15.238  0.4780  0.4335 -0.0588
  511TMC3    O1 7601   0.524   1.295  15.088  0.6295 -0.3124 -0.0352
  511TMC3    O2 7602   0.105   1.805  15.207  0.1000  0.4288  0.2653
  512TMC3    C1 7603   4.109   1.230  13.249 -0.1220  0.0790  0.7801
  512TMC3    C2 7604   4.187   1.188  13.359 -0.5274 -0.2916  0.2283
  512TMC3    C3 7605   4.233   1.061  13.349  0.2931 -0.4482 -0.5842
  512TMC3    C4 7606   4.080   1.153  13.141 -0.2541 -0.2695  0.1880
  512TMC3    C5 7607   4.138   1.035  13.139  0.2773  0.1106 -0.2465
  512TMC3    C6 7608   4.215   0.980  13.240 -0.1204 -0.2838  1.0075
  512TMC3     C 7609   4.041   1.357  13.255 -0.0885 -0.1369  0.2089
  512TMC3     O 7610   3.965   1.390  13.165  0.1637  0.5480  0.4961
  512TMC3     H 7611   4.197   1.246  13.449  0.5829  2.2689 -1.5436
  512TMC3    H1 7612   4.012   1.194  13.067 -0.7773 -1.6057 -0.0878
  512TMC3    H2 7613   4.276   0.891  13.238 -0.4471 -0.4831 -0.1726
  512TMC3    C7 7614   4.067   0.947  13.049 -0.4461  0.1155  0.5529
  512TMC3    C8 7615   4.351   1.028  13.442 -0.1033  0.0871 -0.1386
  512TMC3    O1 7616   4.022   1.005  12.951 -0.2430 -0.1553  0.2694
  512TMC3    O2 7617   4.385   0.909  13.442  0.7913  0.0764  0.3740
  513MPD2     C 7618   1.886   1.223  13.076  0.0722  0.1793 -0.1992
  513MPD2    C1 7619   1.937   1.342  13.051  0.1934  0.1297  0.0427
  513MPD2    C2 7620   1.898   1.455  13.121 -0.0973  0.2887  0.3917
  513MPD2    C3 7621   1.816   1.440  13.235 -1.2397 -0.3604  0.4719
  513MPD2    C4 7622   1.761   1.311  13.257  0.1064 -0.1687 -0.4175
  513MPD2    C5 7623   1.796   1.199  13.179 -0.7926  0.3389  0.4730
  513MPD2     H 7624   1.933   1.552  13.086 -1.1442  0.8640  0.9135
  513MPD2    H1 7625   1.686   1.292  13.333 -0.2098 -0.8037 -0.8848
  513MPD2    H2 7626   1.921   1.139  13.017 -1.3375  0.5959 -1.6440
  513MPD2    H3 7627   1.757   1.100  13.198  0.9501 -0.2039  1.2070
  513MPD2     N 7628   1.782   1.548  13.317  0.5034  0.4145  0.3637
  513MPD2    H5 7629   1.837   1.633  13.309 -1.0000  1.2776 -0.6483
  513MPD2    N1 7630   2.027   1.367  12.942 -0.1055  0.5411 -0.7582
  513MPD2    H7 7631   2.060   1.463  12.940 -2.3681  1.3063 -1.6726
  514TMC3    C1 7632   2.141   1.351  12.743 -0.5026 -0.0751 -0.4721
  514TMC3    C2 7633   2.074   1.315  12.630 -0.5755  0.2272 -0.0524
  514TMC3    C3 7634   2.037   1.429  12.560 -0.1854 -0.0156  0.1279
  514TMC3    C4 7635   2.186   1.473  12.782 -0.0939  0.3475 -0.1214
  514TMC3    C5 7636   2.134   1.579  12.711  0.1409 -0.1838 -0.2650
  514TMC3    C6 7637   2.058   1.559  12.605 -0.5153 -0.0104 -0.4697
  514TMC3     C 7638   2.077   1.285  12.852  0.0554 -0.2456  0.7038
  514TMC3     O 7639   2.052   1.166  12.840 -0.3846 -0.2365  0.0164
  514TMC3     H 7640   2.042   1.213  12.611  0.9827 -0.3446  0.4359
  514TMC3    H1 7641   2.260   1.483  12.861  2.0165  1.1993 -2.1886
  514TMC3    H2 7642   2.022   1.639  12.541  0.9478  0.5736 -0.5595
  514TMC3    C7 7643   2.083   1.684  12.799 -0.2263 -0.0009  0.4831
  514TMC3    C8 7644   1.930   1.411  12.467 -0.2406 -0.1150  0.4063
  514TMC3    O1 7645   2.103   1.668  12.916  0.0820 -0.1114 -0.1043
  514TMC3    O2 7646   1.853   1.507  12.461 -1.1722  0.0514  0.3693
  515MPD2     C 7647   4.098   2.960  15.149  0.2370  0.2362 -0.7219
  515MPD2    C1 7648   4.150   2.976  15.029  0.2827 -0.2200  0.1683
  515MPD2    C2 7649   4.202   3.097  14.988  0.8429 -0.3034 -0.0385
  515MPD2    C3 7650   4.211   3.198  15.082 -0.3415 -0.1391 -0.3078
  515MPD2    C4 7651   4.167   3.183  15.211 -0.4685 -0.7039 -0.6462
  515MPD2    C5 7652   4.103   3.065  15.240  0.4935 -0.3759 -0.1135
  515MPD2     H 7653   4.242   3.101  14.887 -0.2836 -0.1591 -0.4832
  515MPD2    H1 7654   4.186   3.253  15.292 -0.4679 -0.6567 -0.6872
  515MPD2    H2 7655   4.050   2.867  15.177 -0.7190  1.2261  0.9182
  515MPD2    H3 7656   4.044   3.048  15.329  0.2952 -2.2210 -0.6144
  515MPD2     N 7657   4.286   3.317  15.063 -0.1337 -0.6204 -0.4390
  515MPD2    H5 7658   4.293   3.388  15.136  1.1348  0.0244 -1.1931
  515MPD2    N1 7659   4.145   2.869  14.939 -0.1916  0.3670 -0.2147
  515MPD2    H7 7660   4.161   2.890  14.841 -0.1470  2.9736  0.3512
  516TMC3    C1 7661   4.088   2.645  14.863 -0.1471  0.8471 -0.4378
  516TMC3    C2 7662   4.028   2.698  14.755  0.6152 -0.2239 -0.1505
  516TMC3    C3 7663   3.938   2.620  14.696  1.1857  0.1254 -0.5004
  516TMC3    C4 7664   4.056   2.520  14.908  0.0915 -0.0486  0.2140
  516TMC3    C5 7665   3.957   2.441  14.843  0.8932  0.2696  0.6919
  516TMC3    C6 7666   3.898   2.495  14.736  0.1398  0.4186  0.2686
  516TMC3     C 7667   4.127   2.734  14.974  0.7504 -0.5616  0.1316
  516TMC3     O 7668   4.151   2.686  15.082  0.4882 -0.4663  0.1418
  516TMC3     H 7669   4.038   2.799  14.717 -0.1445 -0.0131  0.2022
  516TMC3    H1 7670   4.088   2.478  15.003 -1.2689 -2.3168 -0.3232
  516TMC3    H2 7671   3.819   2.444  14.682  1.8647 -1.6726 -0.2896
  516TMC3    C7 7672   3.925   2.310  14.896  0.1371 -0.2635 -0.3454
  516TMC3    C8 7673   3.883   2.659  14.565  0.0499  0.2474 -0.1855
  516TMC3    O1 7674   3.949   2.295  15.012  0.3270 -0.6907  0.0732
  516TMC3    O2 7675   3.780   2.612  14.515 -0.0518  0.6120  0.4600
  517MPD2     C 7676   3.617   4.588   0.162  0.6843 -0.5358 -0.4233
  517MPD2    C1 7677   3.729   4.564   0.238  0.1245 -0.7121  0.1802
  517MPD2    C2 7678   3.773   4.661   0.323 -0.7233 -0.3006  0.1946
  517MPD2    C3 7679   3.704   0.049   0.347  0.7318  0.1062 -0.8104
  517MPD2    C4 7680   3.581   0.059   0.284 -0.1283 -0.0704 -0.0025
  517MPD2    C5 7681   3.539   4.702   0.184 -0.3060 -0.0591  0.4803
  517MPD2     H 7682   3.864   4.637   0.378 -1.1283 -1.2612  0.4485
  517MPD2    H1 7683   3.521   0.149   0.287 -0.3933 -0.2807  1.1190
  517MPD2    H2 7684   3.580   4.526   0.081  0.6481  0.4041 -1.1266
  517MPD2    H3 7685   3.450   4.724   0.127  0.7042 -0.5312 -1.2860
  517MPD2     N 7686   3.742   0.150   0.437 -0.3871  0.0139  0.3152
  517MPD2    H5 7687   3.671   0.216   0.468 -3.4964 -2.9521 -0.5068
  517MPD2    N1 7688   3.792   4.439   0.228 -0.4473 -0.1406 -0.2455
  517MPD2    H7 7689   3.874   4.421   0.285 -1.0487  1.9196  1.2990
  518TMC3    C1 7690   3.832   4.221   0.140 -0.0554 -0.0584 -0.1584
  518TMC3    C2 7691   3.784   4.089   0.118 -0.6090 -0.2110  0.0396
  518TMC3    C3 7692   3.872   3.982   0.110 -0.7273  0.3276  0.3705
  518TMC3    C4 7693   3.970   4.244   0.136  0.1393  0.1441 -0.4331
  518TMC3    C5 7694   4.052   4.133   0.113  0.4446  0.1790 -0.2960
  518TMC3    C6 7695   4.007   4.005   0.104  0.0788 -0.4534  0.4713
  518TMC3     C 7696   3.742   4.328   0.162 -0.1649 -1.2076  0.2135
  518TMC3     O 7697   3.634   4.309   0.110  0.3918 -0.0189  0.0585
  518TMC3     H 7698   3.678   4.067   0.127 -0.5778 -1.0496 -1.6337
  518TMC3    H1 7699   4.017   4.341   0.137  0.9082 -0.2726  2.4374
  518TMC3    H2 7700   4.078   3.924   0.094 -0.0458 -0.3832 -1.1060
  518TMC3    C7 7701   4.192   4.158   0.125 -0.6225  0.4068 -0.2777
  518TMC3    C8 7702   3.827   3.845   0.076 -0.7854  0.1602  0.7919
  518TMC3    O1 7703   4.235   4.259   0.186 -0.2764 -0.9065 -0.1970
  518TMC3    O2 7704   3.909   3.779   0.016  0.5846  0.2818 -0.3932
  519MPD2     C 7705   1.166   3.060  14.400 -0.5936 -0.6216  0.3401
  519MPD2    C1 7706   1.053   2.997  14.349 -0.0623  0.4480 -0.3106
  519MPD2    C2 7707   1.071   2.928  14.226 -0.8868  0.5935 -0.5297
  519MPD2    C3 7708   1.199   2.913  14.175 -0.3521 -0.0528  0.0642
  519MPD2    C4 7709   1.307   2.956  14.252  0.7927 -0.1217 -0.1302
  519MPD2    C5 7710   1.292   3.039  14.357  0.0868 -0.1724  0.1177
  519MPD2     H 7711   0.982   2.891  14.176 -0.2515  1.8444 -2.5848
  519MPD2    H1 7712   1.407   2.942  14.213  2.3472  1.4868  3.3351
  519MPD2    H2 7713   1.159   3.127  14.485 -1.2421  0.4315 -0.5341
  519MPD2    H3 7714   1.379   3.081  14.407  1.1991  0.0168 -1.9468
  519MPD2     N 7715   1.223   2.863  14.048  0.7588 -0.3662  0.5570
  519MPD2    H5 7716   1.320   2.849  14.024  0.6931  0.0797  0.0214
  519MPD2    N1 7717   0.924   3.019  14.404 -0.5004 -0.4024  0.0873
  519MPD2    H7 7718   0.916   3.085  14.481 -1.0120 -2.0208  1.4364
  520TMC3    C1 7719   1.180   2.760  13.843  0.0408  0.1304  0.3620
  520TMC3    C2 7720   1.102   2.758  13.726  0.0791  0.2568 -0.2163
  520TMC3    C3 7721   1.142   2.664  13.627  0.0972  0.2579 -0.0180
  520TMC3    C4 7722   1.294   2.678  13.867 -0.5747  0.1505 -0.1607
  520TMC3    C5 7723   1.326   2.589  13.770  0.2308  0.8522  0.7960
  520TMC3    C6 7724   1.257   2.581  13.650  0.4588  0.0236 -0.0548
  520TMC3     C 7725   1.124   2.839  13.955 -0.7728 -0.0928  0.5796
  520TMC3     O 7726   1.006   2.864  13.951  0.0624 -0.4005  0.0397
  520TMC3     H 7727   1.025   2.832  13.706  1.2485  1.3232 -0.7399
  520TMC3    H1 7728   1.341   2.668  13.965 -1.1997 -1.2041  0.0118
  520TMC3    H2 7729   1.275   2.503  13.578  0.7016 -1.5174  1.6825
  520TMC3    C7 7730   1.406   2.478  13.809  0.5853 -0.2070 -0.5746
  520TMC3    C8 7731   1.063   2.657  13.511 -0.0187  0.0754 -0.1348
  520TMC3    O1 7732   1.420   2.465  13.930  0.8784  0.5175  0.3495
  520TMC3    O2 7733   1.106   2.620  13.403 -0.5390 -0.0342  0.0598
  521MPD2     C 7734   1.476   0.323  16.976  0.3603  0.1349 -0.5099
  521MPD2    C1 7735   1.439   0.367  16.852  0.3195 -0.2694 -0.4936
  521MPD2    C2 7736   1.536   0.440  16.778  0.3267 -0.2346 -0.1104
  521MPD2    C3 7737   1.660   0.469  16.837 -0.4294  0.8095 -0.6557
  521MPD2    C4 7738   1.698   0.404  16.948 -0.2527  0.2883  0.8134
  521MPD2    C5 7739   1.604   0.342  17.019 -0.1032 -0.7397 -0.3343
  521MPD2     H 7740   1.521   0.474  16.676 -0.8167  0.1491  0.1817
  521MPD2    H1 7741   1.801   0.413  16.983 -0.4683  2.9656  0.8025
  521MPD2    H2 7742   1.402   0.285  17.044  1.4773  0.1675  0.7312
  521MPD2    H3 7743   1.623   0.304  17.119 -1.3609  3.6840  1.6135
  521MPD2     N 7744   1.749   0.569  16.775 -0.2112  0.2596 -0.3583
  521MPD2    H5 7745   1.726   0.608  16.684  1.1924 -2.1242 -1.7582
  521MPD2    N1 7746   1.313   0.345  16.793 -0.6968  0.1469 -0.0576
  521MPD2    H7 7747   1.306   0.375  16.696 -0.0130  2.0210  0.4701
  522TMC3    C1 7748   1.935   0.721  16.750 -0.1032 -0.1087 -0.6135
  522TMC3    C2 7749   2.070   0.726  16.774  0.0505  0.5919 -0.1674
  522TMC3    C3 7750   2.159   0.781  16.686  0.2062  0.1069  0.8147
  522TMC3    C4 7751   1.894   0.767  16.630  0.2841  0.5230  0.0926
  522TMC3    C5 7752   1.986   0.813  16.537 -0.0939 -0.8001 -0.1828
  522TMC3    C6 7753   2.116   0.818  16.564  0.6368 -0.5712 -0.1649
  522TMC3     C 7754   1.865   0.621  16.830 -0.1562 -0.2472 -0.2798
  522TMC3     O 7755   1.919   0.584  16.929  1.1099 -0.4550 -0.3636
  522TMC3     H 7756   2.111   0.674  16.859  1.3024  2.9369  0.6772
  522TMC3    H1 7757   1.790   0.791  16.607 -1.2243 -4.1185  2.1548
  522TMC3    H2 7758   2.187   0.855  16.491  0.5152  0.2035  0.1139
  522TMC3    C7 7759   1.943   0.863  16.403  0.2285 -0.3440 -0.7311
  522TMC3    C8 7760   2.292   0.721  16.707  0.3568  0.5589 -0.4158
  522TMC3    O1 7761   2.029   0.914  16.327 -0.3105  0.0646 -0.0854
  522TMC3    O2 7762   2.332   0.725  16.824 -0.3657  0.4382  0.5241
  523MPD2     C 7763   4.132   4.659  10.168  0.3399 -0.4846 -0.0698
  523MPD2    C1 7764   4.057   4.568  10.100 -0.3964  0.6855 -0.0577
  523MPD2    C2 7765   3.998   4.600   9.972 -0.0780  0.3151  0.3842
  523MPD2    C3 7766   4.034   4.717   9.910  0.1970 -0.2838 -1.0252
  523MPD2    C4 7767   4.111   0.082   9.977  0.8594  0.8116  0.7859
  523MPD2    C5 7768   4.156   0.051  10.100  0.1603 -0.3662 -0.1401
  523MPD2     H 7769   3.942   4.525   9.916  1.5675 -0.7610  0.1696
  523MPD2    H1 7770   4.133   0.180   9.936 -0.2837  0.5911 -0.4003
  523MPD2    H2 7771   4.155   4.629  10.270 -4.0801 -0.3327  0.9675
  523MPD2    H3 7772   4.217   0.133  10.139 -1.3739  0.4089  0.6069
  523MPD2     N 7773   3.991   0.023   9.780 -0.6705  0.0440 -0.0863
  523MPD2    H5 7774   4.010   0.118   9.749 -2.0588  1.0468  2.1370
  523MPD2    N1 7775   4.040   4.435  10.161 -0.9331 -0.0033  0.4250
  523MPD2    H7 7776   4.111   4.407  10.228  0.7815 -0.4489 -1.5877
  524TMC3    C1 7777   3.860   0.004   9.571  0.5846  0.2097 -0.3028
  524TMC3    C2 7778   3.760   4.661   9.513  0.0810  0.0863 -0.2648
  524TMC3    C3 7779   3.698   4.722   9.405 -1.1756  0.1650  0.6308
  524TMC3    C4 7780   3.902   0.126   9.539 -0.0164  0.4308 -0.3876
  524TMC3    C5 7781   3.823   0.191   9.445  0.1498 -0.5468 -0.1463
  524TMC3    C6 7782   3.722   0.128   9.379 -0.0006  0.8354 -0.7010
  524TMC3     C 7783   3.916   4.668   9.695 -0.4398 -0.0638  0.0894
  524TMC3     O 7784   3.886   4.550   9.712 -0.1115 -0.6164  0.1250
  524TMC3     H 7785   3.753   4.554   9.534 -1.4085 -0.1223 -1.8179
  524TMC3    H1 7786   3.969   0.176   9.607 -0.3177 -1.2456  1.1489
  524TMC3    H2 7787   3.666   0.169   9.295 -0.9921  2.4267  0.7488
  524TMC3    C7 7788   3.857   0.331   9.418  1.0604  0.3176 -0.4570
  524TMC3    C8 7789   3.642   4.633   9.307  0.1821  0.2208  0.1434
  524TMC3    O1 7790   3.972   0.362   9.452  0.7034 -0.0918 -0.1550
  524TMC3    O2 7791   3.672   4.665   9.194 -0.0053  0.2979  0.4607
  525MPD2     C 7792   2.088   1.968  14.491  0.3110  0.6639  0.2269
  525MPD2    C1 7793   2.112   2.039  14.611  0.4345  0.5843  0.3225
  525MPD2    C2 7794   2.160   2.169  14.603 -0.1724 -0.1096  0.2376
  525MPD2    C3 7795   2.172   2.240  14.481 -0.0482  0.0922 -0.4688
  525MPD2    C4 7796   2.162   2.163  14.364  0.3634  0.7838  0.1484
  525MPD2    C5 7797   2.122   2.031  14.371 -0.6363  0.1022 -0.1299
  525MPD2     H 7798   2.174   2.226  14.694 -0.3153  1.2508 -0.5883
  525MPD2    H1 7799   2.177   2.214  14.270 -2.0356 -0.1683 -0.7613
  525MPD2    H2 7800   2.060   1.863  14.491  0.2157  0.6552 -4.1744
  525MPD2    H3 7801   2.104   1.984  14.274  1.2303 -0.2816 -0.2873
  525MPD2     N 7802   2.199   2.382  14.473  0.3505  0.0912 -0.2339
  525MPD2    H5 7803   2.213   2.426  14.383  0.9417  0.3614 -0.0120
  525MPD2    N1 7804   2.082   1.995  14.738 -0.1583 -0.1088 -0.2738
  525MPD2    H7 7805   2.121   2.040  14.820 -0.2611  3.0546 -1.9615
  526TMC3    C1 7806   1.983   1.842  14.900 -0.6191 -0.6733 -0.7431
  526TMC3    C2 7807   1.866   1.814  14.967  0.6207  0.5486  0.1099
  526TMC3    C3 7808   1.873   1.746  15.083 -0.9812  0.6428  0.1931
  526TMC3    C4 7809   2.097   1.778  14.937  0.1836 -0.5191 -0.8609
  526TMC3    C5 7810   2.097   1.696  15.047  0.2959  0.0852 -0.3771
  526TMC3    C6 7811   1.987   1.684  15.127 -0.6806  0.0185 -0.1240
  526TMC3     C 7812   1.986   1.891  14.760 -0.0385  0.6200  0.0824
  526TMC3     O 7813   1.887   1.880  14.696 -0.2945 -0.1064 -0.3175
  526TMC3     H 7814   1.776   1.865  14.932  1.0309  1.6214  0.6097
  526TMC3    H1 7815   2.186   1.806  14.882  0.6977  0.3716  0.4446
  526TMC3    H2 7816   1.988   1.617  15.212  0.6770 -1.1337 -1.0457
  526TMC3    C7 7817   2.217   1.627  15.082 -0.6353  0.4715  0.7240
  526TMC3    C8 7818   1.770   1.780  15.186 -0.3318  0.8998  0.2343
  526TMC3    O1 7819   2.215   1.579  15.195  0.2638 -0.4779 -0.3585
  526TMC3    O2 7820   1.652   1.796  15.159  0.0044 -0.2685  1.0464
  527MPD2     C 7821   0.369   0.296   1.494 -0.6996 -0.1259  0.7217
  527MPD2    C1 7822   0.370   0.164   1.534  0.8204 -0.3931 -0.0501
  527MPD2    C2 7823   0.475   0.082   1.504 -0.4632  0.0902  0.4168
  527MPD2    C3 7824   0.566   0.118   1.411 -0.0730  0.0306 -0.2103
  527MPD2    C4 7825   0.576   0.254   1.384 -0.5413  0.4614  0.5433
  527MPD2    C5 7826   0.477   0.339   1.424  0.3480  0.0349 -0.6424
  527MPD2     H 7827   0.470   4.705   1.540 -0.6388 -0.6385 -1.6238
  527MPD2    H1 7828   0.645   0.290   1.308 -0.7800 -1.3940 -0.5689
  527MPD2    H2 7829   0.293   0.365   1.529 -2.6653 -1.5161 -0.7637
  527MPD2    H3 7830   0.476   0.442   1.389  1.9870 -0.0489 -0.9437
  527MPD2     N 7831   0.656   0.026   1.363 -0.8652  0.0478 -0.5587
  527MPD2    H5 7832   0.635   4.653   1.376  1.8295 -0.4970 -0.2543
  527MPD2    N1 7833   0.272   0.106   1.617 -0.4379  0.4897  0.0255
  527MPD2    H7 7834   0.293   0.014   1.655  0.6259  0.7858  0.1411
  528TMC3    C1 7835   0.087   0.065   1.745  0.0047 -0.7355  0.1511
  528TMC3    C2 7836   4.677   0.079   1.759 -0.1049 -0.7542 -0.3898
  528TMC3    C3 7837   4.608   4.707   1.827  0.3528 -0.2330 -0.8654
  528TMC3    C4 7838   0.145   4.674   1.786 -0.4291  0.1937 -0.3108
  528TMC3    C5 7839   0.071   4.576   1.851  0.3218 -0.3062  0.3911
  528TMC3    C6 7840   4.665   4.589   1.871 -0.5329 -0.3099 -0.0816
  528TMC3     C 7841   0.159   0.159   1.663 -0.5855 -0.0757  0.0062
  528TMC3     O 7842   0.099   0.258   1.617  0.2116 -0.0552  0.2545
  528TMC3     H 7843   4.627   0.170   1.729  2.3599 -0.0039 -2.1373
  528TMC3    H1 7844   0.253   4.669   1.782 -0.4510  0.7744 -1.6083
  528TMC3    H2 7845   4.600   4.521   1.925 -0.8622 -1.5314 -2.0093
  528TMC3    C7 7846   0.156   4.465   1.897  1.3358 -0.5006  0.6469
  528TMC3    C8 7847   4.463   4.721   1.828  0.2469 -0.1626  0.0612
  528TMC3    O1 7848   0.274   4.465   1.870  0.1641 -0.3161  0.1312
  528TMC3    O2 7849   4.416   0.086   1.761 -0.2059 -0.2566 -0.3822
  529MPD2     C 7850   1.740   3.019   0.121 -0.4449  0.3274 -0.0171
  529MPD2    C1 7851   1.846   3.025   0.208 -0.6676  0.2175 -0.1170
  529MPD2    C2 7852   1.959   3.107   0.178 -0.8409 -0.5134 -0.1085
  529MPD2    C3 7853   1.944   3.200   0.082 -0.6646  0.4420  0.0511
  529MPD2    C4 7854   1.837   3.200   0.000 -0.1561  0.8703 -0.8892
  529MPD2    C5 7855   1.734   3.112   0.022 -0.3753  0.4207  0.1127
  529MPD2     H 7856   2.046   3.085   0.238  1.2591  2.3081 -2.1395
  529MPD2    H1 7857   1.828   3.272  17.622  3.2481  1.6689 -0.5295
  529MPD2    H2 7858   1.667   2.940   0.128 -0.3082  0.1508 -0.5887
  529MPD2    H3 7859   1.642   3.116  17.667 -0.0650 -1.9878 -0.5529
  529MPD2     N 7860   2.051   3.294   0.049  0.4809 -0.3558 -0.0120
  529MPD2    H5 7861   2.032   3.375  17.694 -1.3289  0.2491  1.4161
  529MPD2    N1 7862   1.866   2.939   0.318  0.2729  0.0835 -0.2993
  529MPD2    H7 7863   1.948   2.962   0.374  0.0252  1.1555 -0.3784
  530TMC3    C1 7864   1.812   2.780   0.487  0.6623 -0.0442 -0.1502
  530TMC3    C2 7865   1.871   2.857   0.578  0.1860  0.3408 -0.4005
  530TMC3    C3 7866   1.941   2.793   0.682 -0.2987 -0.2990  0.9124
  530TMC3    C4 7867   1.814   2.642   0.497  0.3486 -0.5400  0.0827
  530TMC3    C5 7868   1.866   2.584   0.607 -0.7271  0.1282  0.5229
  530TMC3    C6 7869   1.937   2.658   0.699 -0.0529 -0.2066 -0.2071
  530TMC3     C 7870   1.776   2.842   0.358 -0.0702 -0.2836  0.2756
  530TMC3     O 7871   1.684   2.790   0.297  0.0625  0.4922  0.0421
  530TMC3     H 7872   1.861   2.965   0.589 -2.0417  0.0152  0.6202
  530TMC3    H1 7873   1.754   2.588   0.425  1.1109  0.4601 -1.2953
  530TMC3    H2 7874   1.987   2.619   0.787  0.8330  1.5084  0.0499
  530TMC3    C7 7875   1.904   2.446   0.569 -0.7300 -0.2700  0.1279
  530TMC3    C8 7876   2.013   2.870   0.780 -0.7914 -0.4890 -0.7310
  530TMC3    O1 7877   1.908   2.417   0.449 -0.1791 -0.7849  0.0324
  530TMC3    O2 7878   1.973   2.980   0.810  0.2259 -0.5323 -0.6859
  531MPD2     C 7879   1.694   1.997  12.905  0.6158 -0.4825 -0.2140
  531MPD2    C1 7880   1.782   1.930  12.993 -0.1088 -0.5909  0.6975
  531MPD2    C2 7881   1.894   1.867  12.937 -0.0434  0.4999  0.4380
  531MPD2    C3 7882   1.897   1.856  12.794  0.8527 -0.3107  0.1705
  531MPD2    C4 7883   1.816   1.929  12.716  0.6327 -0.8247  0.1708
  531MPD2    C5 7884   1.719   1.999  12.770  0.4193 -0.1471 -0.5008
  531MPD2     H 7885   1.961   1.812  13.002  0.9408  0.5279 -0.5456
  531MPD2    H1 7886   1.822   1.926  12.608  1.0802 -1.8538  0.2162
  531MPD2    H2 7887   1.612   2.055  12.947 -0.0788 -2.5203  1.2049
  531MPD2    H3 7888   1.640   2.049  12.716 -2.5331 -1.8563  2.2442
  531MPD2     N 7889   2.005   1.772  12.732  0.6693  0.2249 -0.7505
  531MPD2    H5 7890   2.023   1.793  12.634 -4.1818  0.0932 -1.6695
  531MPD2    N1 7891   1.750   1.930  13.132  0.5430 -0.0441  0.2042
  531MPD2    H7 7892   1.669   1.984  13.161  1.7214  2.0373 -0.4452
  532TMC3    C1 7893   1.769   1.872  13.358  0.6790  0.6681  0.2513
  532TMC3    C2 7894   1.681   1.770  13.366 -0.1006 -0.9167 -0.0963
  532TMC3    C3 7895   1.681   1.683  13.470 -0.1789  0.1332 -0.1837
  532TMC3    C4 7896   1.853   1.890  13.464  0.2853  0.6176  0.4647
  532TMC3    C5 7897   1.853   1.809  13.574  0.1539  0.5507 -0.2758
  532TMC3    C6 7898   1.767   1.707  13.575 -0.1333  0.4739  0.1719
  532TMC3     C 7899   1.835   1.886  13.233 -0.7126 -0.4411  0.8484
  532TMC3     O 7900   1.953   1.853  13.223  0.1500  0.3872 -0.0133
  532TMC3     H 7901   1.624   1.735  13.281 -1.0047 -1.4421  0.7260
  532TMC3    H1 7902   1.931   1.964  13.449  0.7178  0.3303  1.3056
  532TMC3    H2 7903   1.750   1.650  13.666 -0.1141  0.0384 -0.0954
  532TMC3    C7 7904   1.987   1.761  13.582  0.6319 -0.7770  0.8656
  532TMC3    C8 7905   1.688   1.550  13.422 -0.2405  0.1155 -0.3006
  532TMC3    O1 7906   2.073   1.847  13.604  0.3614  0.1829  0.3437
  532TMC3    O2 7907   1.607   1.469  13.460 -1.2013 -0.0122 -0.5464
  533TMC3    C1 7908   2.201   2.610  14.546 -0.6320 -0.4493  0.7012
  533TMC3    C2 7909   2.295   2.669  14.460  0.2164 -0.3427  0.6319
  533TMC3    C3 7910   2.301   2.803  14.449  0.3462 -0.4519 -0.2393
  533TMC3    C4 7911   2.143   2.692  14.632 -0.4011  0.2661 -0.0193
  533TMC3    C5 7912   2.174   2.825  14.631 -0.5105 -0.4873 -0.1932
  533TMC3    C6 7913   2.243   2.891  14.535 -0.3387 -0.7292 -0.5750
  533TMC3     C 7914   2.198   2.468  14.579 -0.5182  0.2638 -0.0318
  533TMC3     O 7915   2.160   2.442  14.695  0.0843  0.3195  0.2546
  533TMC3     H 7916   2.338   2.603  14.386  1.3324  2.9205 -1.6110
  533TMC3    H1 7917   2.068   2.649  14.697  0.4467 -0.5021  0.4636
  533TMC3    H2 7918   2.258   2.998  14.536 -0.5245 -0.6948 -1.4340
  533TMC3    C7 7919   2.108   2.906  14.738  0.0838 -0.0454 -0.3760
  533TMC3    C8 7920   2.425   2.852  14.387  0.5705  1.1579 -0.3219
  533TMC3    O1 7921   2.079   3.017  14.707  0.4015  0.3716  0.5906
  533TMC3    O2 7922   2.520   2.777  14.386  0.3083  0.2106  0.3953
  534MPD2     C 7923   4.536   3.644   1.651  0.6867  0.0199  0.4284
  534MPD2    C1 7924   4.604   3.708   1.544  0.0622  0.7988  0.0840
  534MPD2    C2 7925   4.588   3.657   1.415 -0.4675  0.2204  0.3765
  534MPD2    C3 7926   4.502   3.550   1.384 -0.4319  0.2048  0.0851
  534MPD2    C4 7927   4.432   3.498   1.495 -0.0456 -0.0868  0.0456
  534MPD2    C5 7928   4.446   3.543   1.624 -0.0216  0.1428  0.6551
  534MPD2     H 7929   4.645   3.707   1.338 -1.8407 -0.2091 -0.9333
  534MPD2    H1 7930   4.368   3.412   1.479 -2.1438  1.2004  1.5293
  534MPD2    H2 7931   4.562   3.663   1.755  0.9146  0.6094  0.2685
  534MPD2    H3 7932   4.417   3.478   1.705 -0.1433  1.4177  1.6247
  534MPD2     N 7933   4.473   3.495   1.257  0.3309  0.2221  0.1720
  534MPD2    H5 7934   4.402   3.424   1.246 -1.9360  2.5657 -0.2920
  534MPD2    N1 7935   4.705   3.808   1.565 -0.0340  0.1383 -0.2182
  534MPD2    H7 7936   0.014   3.859   1.484 -0.1129 -0.3635 -0.5695
  535TMC3    C1 7937   4.502   3.436   1.030  0.6259 -0.3799 -0.1949
  535TMC3    C2 7938   4.377   3.388   1.014  0.3235  0.0503  0.2853
  535TMC3    C3 7939   4.340   3.335   0.896  0.2377  0.1649  0.1269
  535TMC3    C4 7940   4.594   3.428   0.923  0.0817 -0.7397 -0.1917
  535TMC3    C5 7941   4.556   3.351   0.816  0.0955  0.1099 -0.6495
  535TMC3    C6 7942   4.431   3.301   0.800 -0.7311 -0.6354  0.0150
  535TMC3     C 7943   4.546   3.522   1.142 -0.1505 -0.4559  0.1213
  535TMC3     O 7944   4.636   3.602   1.120 -0.4183 -0.1296 -0.1736
  535TMC3     H 7945   4.303   3.406   1.092 -1.0367 -0.5573 -0.8580
  535TMC3    H1 7946   4.694   3.464   0.944 -0.8853  2.4597 -0.9911
  535TMC3    H2 7947   4.404   3.245   0.712  1.1339  1.4854 -1.9157
  535TMC3    C7 7948   4.665   3.352   0.716  0.3433  0.7882  0.3227
  535TMC3    C8 7949   4.195   3.335   0.855  0.4589 -0.2656  0.3248
  535TMC3    O1 7950   4.708   3.243   0.679  0.7787  0.0893  0.2656
  535TMC3    O2 7951   4.158   3.278   0.755 -0.2331 -0.0921 -0.3752
  536MPD2     C 7952   3.609   1.817  15.952 -0.5127 -0.1077 -0.3638
  536MPD2    C1 7953   3.500   1.771  16.019  0.1206 -0.2540 -0.2053
  536MPD2    C2 7954   3.377   1.758  15.945  0.3998  0.5834  0.2090
  536MPD2    C3 7955   3.363   1.821  15.824  0.2194  0.3038 -0.4461
  536MPD2    C4 7956   3.478   1.879  15.765  0.0118  0.1698 -0.4000
  536MPD2    C5 7957   3.598   1.859  15.821  0.7044 -0.4323  0.5346
  536MPD2     H 7958   3.290   1.712  15.990  0.0553  2.5549  1.5796
  536MPD2    H1 7959   3.469   1.930  15.670  1.2733 -0.0070 -0.6093
  536MPD2    H2 7960   3.709   1.814  15.995 -1.3917  0.0390  1.6943
  536MPD2    H3 7961   3.689   1.891  15.772 -1.2749  2.8205 -1.0085
  536MPD2     N 7962   3.246   1.843  15.751 -0.3089 -0.2903  0.0089
  536MPD2    H5 7963   3.256   1.910  15.676 -0.2669 -0.5121 -0.1846
  536MPD2    N1 7964   3.515   1.706  16.148  0.4154  0.1841  0.0839
  536MPD2    H7 7965   3.606   1.700  16.191  0.3646  1.9463  0.4434
  537TMC3    C1 7966   3.445   1.617  16.360  0.6303 -0.3577  0.3952
  537TMC3    C2 7967   3.580   1.614  16.393 -0.0477  0.0777  0.4842
  537TMC3    C3 7968   3.618   1.512  16.482  0.3809 -0.1406 -1.0914
  537TMC3    C4 7969   3.346   1.544  16.419  0.2191  0.0876  0.0154
  537TMC3    C5 7970   3.392   1.457  16.514 -0.2482  0.6213  0.2720
  537TMC3    C6 7971   3.526   1.433  16.549  0.4724  0.3482 -0.3639
  537TMC3     C 7972   3.407   1.670  16.235  0.9176 -0.4455 -0.6027
  537TMC3     O 7973   3.288   1.691  16.221 -0.0640  0.0293 -0.0921
  537TMC3     H 7974   3.647   1.690  16.354 -0.8268  0.3132 -0.3834
  537TMC3    H1 7975   3.240   1.554  16.400  0.4057  0.2738 -0.9307
  537TMC3    H2 7976   3.550   1.356  16.621 -1.7917 -1.3055 -1.3691
  537TMC3    C7 7977   3.286   1.374  16.569 -0.7054 -0.8277  0.2024
  537TMC3    C8 7978   3.731   1.552  16.566 -0.0340  0.3975 -1.0669
  537TMC3    O1 7979   3.186   1.369  16.500  0.5690  0.2327  0.3943
  537TMC3    O2 7980   3.714   1.570  16.682 -0.0058  0.0868  0.2798
  538TMC3    C1 7981   4.548   4.263  11.010 -0.1367 -0.5475  0.1208
  538TMC3    C2 7982   4.678   4.266  10.992  0.3134  0.5260  0.3039
  538TMC3    C3 7983   4.724   4.310  10.869 -0.2937  0.5663 -0.0717
  538TMC3    C4 7984   4.462   4.306  10.913  0.2253  0.2802  0.0239
  538TMC3    C5 7985   4.510   4.343  10.792  0.0901  1.1424  0.4529
  538TMC3    C6 7986   4.642   4.340  10.768 -0.4844 -0.1663  0.1473
  538TMC3     C 7987   4.525   4.314  11.143  0.4797  0.0258 -0.1291
  538TMC3     O 7988   4.510   4.232  11.230 -0.8433 -0.2184 -0.3169
  538TMC3     H 7989   0.016   4.240  11.076 -1.6076 -0.2866  1.4993
  538TMC3    H1 7990   4.360   4.298  10.948  0.7873  0.9654  1.8334
  538TMC3    H2 7991   4.683   4.359  10.669  0.7199 -0.1031  0.6586
  538TMC3    C7 7992   4.423   4.412  10.700 -0.6992  0.5560 -0.1616
  538TMC3    C8 7993   0.133   4.363  10.854 -0.0359 -0.1606  0.3260
  538TMC3    O1 7994   4.304   4.397  10.712  0.0380  0.1367 -0.3275
  538TMC3    O2 7995   0.160   4.397  10.741  0.0987  1.0830  0.8871
  539MPD2     C 7996   4.376   3.913  11.971 -0.0245 -0.8801 -1.0713
  539MPD2    C1 7997   4.336   3.910  11.837 -0.7586 -0.4441  0.3924
  539MPD2    C2 7998   4.337   4.035  11.769 -0.0913  0.1961 -0.9003
  539MPD2    C3 7999   4.393   4.149  11.833  0.1338 -0.4052  0.3683
  539MPD2    C4 8000   4.441   4.141  11.961  0.2557  1.0904 -0.3213
  539MPD2    C5 8001   4.420   4.026  12.032  0.6768 -0.0075  0.1055
  539MPD2     H 8002   4.316   4.034  11.663  0.7319  0.4406 -1.0667
  539MPD2    H1 8003   4.481   4.229  12.010 -0.2462  2.0888 -1.7274
  539MPD2    H2 8004   4.385   3.819  12.024 -2.1547  0.5857  1.8689
  539MPD2    H3 8005   4.453   4.017  12.135  0.6539 -2.5533 -0.0898
  539MPD2     N 8006   4.408   4.271  11.764  0.2890  0.1616 -0.4646
  539MPD2    H5 8007   4.461   4.346  11.807 -1.2026  0.9586  0.0061
  539MPD2    N1 8008   4.333   3.788  11.767 -0.1656  0.1202 -0.0495
  539MPD2    H7 8009   4.353   3.801  11.668  0.8532  1.0158  0.2681
  540TMC3    C1 8010   4.377   4.444  11.617 -0.4111  0.3015 -0.9678
  540TMC3    C2 8011   4.333   4.473  11.495  0.1974 -0.0947  0.1335
  540TMC3    C3 8012   4.326   4.603  11.462 -0.3198  0.3600 -0.0087
  540TMC3    C4 8013   4.410   4.536  11.719 -0.1832 -0.4392  0.0749
  540TMC3    C5 8014   4.387   4.659  11.681  0.0650  0.1548 -0.3509
  540TMC3    C6 8015   4.342   4.704  11.555  0.0103  0.8400  0.2605
  540TMC3     C 8016   4.363   4.298  11.637  0.1137  0.0967 -0.3661
  540TMC3     O 8017   4.301   4.227  11.558 -0.7252  0.0976 -0.0876
  540TMC3     H 8018   4.335   4.399  11.415  1.1789  0.4074 -0.2981
  540TMC3    H1 8019   4.448   4.511  11.817 -1.7717  0.6518  0.9657
  540TMC3    H2 8020   4.315   0.082  11.536 -1.4138  0.7424  1.7251
  540TMC3    C7 8021   4.318   0.000  11.788 -0.0677 -0.0124 -0.1780
  540TMC3    C8 8022   4.278   4.639  11.327  0.6010 -0.3423  0.1954
  540TMC3    O1 8023   4.285   4.664  11.887  0.0144  0.2482 -0.2241
  540TMC3    O2 8024   4.287   0.033  11.299  0.4574 -0.3681 -0.2580
  541MPD2     C 8025   2.915   1.490  13.040  0.1021 -0.1943 -0.1212
  541MPD2    C1 8026   2.930   1.375  12.965 -0.3766 -0.0360 -0.1044
  541MPD2    C2 8027   2.946   1.381  12.829  0.5745 -0.1482  0.1159
  541MPD2    C3 8028   2.930   1.503  12.766  0.1021  0.9790 -0.5361
  541MPD2    C4 8029   2.924   1.617  12.840  0.5548  0.5892 -0.1098
  541MPD2    C5 8030   2.928   1.606  12.980  0.0156 -0.6856 -0.1842
  541MPD2     H 8031   2.952   1.283  12.783 -1.0879 -0.2599  0.1226
  541MPD2    H1 8032   2.893   1.715  12.807 -3.3612 -0.8637 -0.6703
  541MPD2    H2 8033   2.912   1.477  13.147 -1.6055 -0.9746 -0.2657
  541MPD2    H3 8034   2.919   1.698  13.036 -2.0981 -1.5051  0.8101
  541MPD2     N 8035   2.904   1.512  12.624 -0.1092 -0.0364  0.7608
  541MPD2    H5 8036   2.883   1.603  12.584 -0.0145 -1.3915 -2.4047
  541MPD2    N1 8037   2.944   1.248  13.031  0.5415 -0.3454 -0.2750
  541MPD2    H7 8038   2.975   1.169  12.975  1.0628  1.1432 -2.0857
  542TMC3    C1 8039   2.876   1.447  12.408 -0.0083  0.7703  0.4987
  542TMC3    C2 8040   2.942   1.389  12.300 -0.4991 -0.8622 -0.1437
  542TMC3    C3 8041   2.879   1.405  12.177 -0.0244 -0.0824 -0.3483
  542TMC3    C4 8042   2.773   1.535  12.395 -0.6022  0.1529 -0.0044
  542TMC3    C5 8043   2.716   1.552  12.274  0.0996  0.0666 -0.1373
  542TMC3    C6 8044   2.773   1.492  12.164 -0.1448 -0.3388 -0.3076
  542TMC3     C 8045   2.912   1.407  12.540 -0.0294 -0.1955  0.3962
  542TMC3     O 8046   2.983   1.310  12.555 -0.2386 -0.1465 -0.4532
  542TMC3     H 8047   3.039   1.344  12.312  1.8774  4.6291  1.3034
  542TMC3    H1 8048   2.730   1.588  12.479 -0.7184 -0.0828  0.0851
  542TMC3    H2 8049   2.727   1.527  12.072  1.3243 -1.4516 -1.4634
  542TMC3    C7 8050   2.610   1.649  12.256 -0.1067 -0.2657 -0.9222
  542TMC3    C8 8051   2.939   1.348  12.059  0.4498  0.4936 -0.0260
  542TMC3    O1 8052   2.550   1.641  12.150 -0.4697  0.0086  0.2678
  542TMC3    O2 8053   2.894   1.387  11.952 -0.2192  0.1306 -0.9512
  543TMC3    C1 8054   2.546   2.625  17.075 -0.5804 -0.1035 -0.0739
  543TMC3    C2 8055   2.558   2.493  17.072  0.5294 -0.2250 -0.5553
  543TMC3    C3 8056   2.459   2.410  17.118  0.2681  0.1798  0.2000
  543TMC3    C4 8057   2.440   2.681  17.148  0.2991  0.2050 -0.4447
  543TMC3    C5 8058   2.339   2.598  17.190  0.2437 -0.6309  0.6470
  543TMC3    C6 8059   2.339   2.464  17.173  0.8865 -0.6432 -0.0320
  543TMC3     C 8060   2.627   2.715  16.993 -0.0706 -0.2096 -1.0405
  543TMC3     O 8061   2.638   2.831  17.027  0.1533  0.3889 -0.1980
  543TMC3     H 8062   2.650   2.441  17.047 -0.1798 -0.8067 -1.9491
  543TMC3    H1 8063   2.432   2.788  17.159  0.0208  0.0274  1.0596
  543TMC3    H2 8064   2.249   2.406  17.189  1.0357 -1.5021 -2.2897
  543TMC3    C7 8065   2.206   2.653  17.222 -0.0318 -0.7581  0.4183
  543TMC3    C8 8066   2.490   2.265  17.139 -1.0955 -0.3774  0.7054
  543TMC3    O1 8067   2.113   2.595  17.172 -0.4279  0.1999 -0.2500
  543TMC3    O2 8068   2.571   2.204  17.069 -0.0381 -0.5063 -0.3423
  544MPD2     C 8069   2.428   1.826  17.410  0.1719  0.4752  0.4880
  544MPD2    C1 8070   2.449   1.842  17.277 -0.4393  0.9269 -0.5017
  544MPD2    C2 8071   2.462   1.969  17.225  0.0370  0.3750  0.6157
  544MPD2    C3 8072   2.438   2.084  17.308  0.1291  0.3098  1.2879
  544MPD2    C4 8073   2.413   2.064  17.445  0.3830  0.2774 -0.1887
  544MPD2    C5 8074   2.406   1.934  17.487  0.6515  0.6816  1.1270
  544MPD2     H 8075   2.479   1.987  17.119  0.8222 -0.8008  0.5402
  544MPD2    H1 8076   2.401   2.144  17.518 -2.3162  1.5881 -2.0632
  544MPD2    H2 8077   2.416   1.729  17.458  1.6119 -0.6949 -1.5379
  544MPD2    H3 8078   2.399   1.915  17.593 -2.2820 -0.7217  0.6853
  544MPD2     N 8079   2.434   2.220  17.263 -0.3559  0.0408 -0.7108
  544MPD2    H5 8080   2.384   2.289  17.318 -0.5790 -0.1316 -0.6966
  544MPD2    N1 8081   2.484   1.730  17.205  0.4912  0.5138 -0.5145
  544MPD2    H7 8082   2.471   1.636  17.240  2.5982  0.3467 -0.2380
  545TMC3    C1 8083   2.585   1.613  17.021 -0.2701  0.1796 -0.2367
  545TMC3    C2 8084   2.575   1.597  16.885 -0.4458  0.0633  0.8190
  545TMC3    C3 8085   2.636   1.486  16.833 -0.2441 -0.5288  0.3798
  545TMC3    C4 8086   2.649   1.527  17.110  0.1807  0.0557 -0.2830
  545TMC3    C5 8087   2.705   1.417  17.050  0.1327 -0.9400  0.1025
  545TMC3    C6 8088   2.699   1.391  16.914  0.2571 -0.2979 -0.3404
  545TMC3     C 8089   2.535   1.736  17.077 -0.4993  0.1558 -0.6202
  545TMC3     O 8090   2.526   1.825  16.991 -0.4834  0.3186 -0.4714
  545TMC3     H 8091   2.512   1.660  16.822  0.9634  1.3237  0.6725
  545TMC3    H1 8092   2.664   1.559  17.212 -0.4608 -4.4479  1.2011
  545TMC3    H2 8093   2.763   1.314  16.871 -2.2341 -2.7461  0.3565
  545TMC3    C7 8094   2.842   1.404  17.099  0.5319 -0.2521  0.3410
  545TMC3    C8 8095   2.663   1.485  16.690 -0.1364 -0.4607 -0.0260
  545TMC3    O1 8096   2.932   1.436  17.018  0.6977  0.2970 -0.4321
  545TMC3    O2 8097   2.712   1.380  16.656 -0.2214 -0.2854  0.2347
  546MPD2     C 8098   3.456   2.392  17.562  0.4247  0.4648  1.0069
  546MPD2    C1 8099   3.535   2.420  17.457  0.4039  0.2923 -1.1105
  546MPD2    C2 8100   3.587   2.547  17.457  0.2018  0.1971 -0.0139
  546MPD2    C3 8101   3.577   2.635  17.561  0.2655 -0.6891 -0.0955
  546MPD2    C4 8102   3.509   2.597  17.668 -0.3691 -0.4453 -0.1572
  546MPD2    C5 8103   3.440   2.480  17.665 -0.5908  0.2668  0.1215
  546MPD2     H 8104   3.642   2.578  17.369  0.8422 -1.1146 -0.0656
  546MPD2    H1 8105   3.486   2.665   0.047  0.7043  0.7839 -0.8875
  546MPD2    H2 8106   3.413   2.293  17.562  2.8432 -0.5672 -1.4448
  546MPD2    H3 8107   3.394   2.455   0.057  0.5024 -0.6858  0.4059
  546MPD2     N 8108   3.640   2.764  17.556 -0.0306 -0.2059  0.4466
  546MPD2    H5 8109   3.628   2.824  17.637  0.3932  1.7630 -0.9447
  546MPD2    N1 8110   3.584   2.311  17.379 -0.4304  0.6653 -0.3770
  546MPD2    H7 8111   3.556   2.218  17.408 -0.6894  0.3412 -1.6705
  547TMC3    C1 8112   3.661   2.210  17.167 -0.3106  0.1046  0.0884
  547TMC3    C2 8113   3.680   2.229  17.034 -0.4511  0.3184  0.1261
  547TMC3    C3 8114   3.672   2.128  16.946 -0.0656  0.1614 -0.0518
  547TMC3    C4 8115   3.629   2.083  17.215 -0.4041 -0.2817  0.6318
  547TMC3    C5 8116   3.622   1.985  17.121  0.1723  0.1332 -0.4094
  547TMC3    C6 8117   3.643   2.000  16.982  0.3276 -0.5085  0.1774
  547TMC3     C 8118   3.638   2.329  17.252  0.1499  0.4380 -0.1158
  547TMC3     O 8119   3.638   2.436  17.194  0.6357  0.3261  0.5719
  547TMC3     H 8120   3.704   2.327  16.996 -1.4174  0.2683 -0.6114
  547TMC3    H1 8121   3.571   2.074  17.306 -0.2985 -2.1962  0.5094
  547TMC3    H2 8122   3.611   1.928  16.908  0.7375 -0.3825 -0.1234
  547TMC3    C7 8123   3.540   1.869  17.161 -0.4421 -0.2029  0.2518
  547TMC3    C8 8124   3.649   2.158  16.810 -1.5518 -0.2361  0.1876
  547TMC3    O1 8125   3.455   1.831  17.078  0.4390 -0.5084  0.6860
  547TMC3    O2 8126   3.616   2.276  16.797  0.3447  0.4973  0.1201
  548MPD2     C 8127   3.056   3.001  11.858  0.4660 -0.0556  0.6268
  548MPD2    C1 8128   3.003   2.949  11.971  0.4100  0.7006  0.2531
  548MPD2    C2 8129   3.038   2.810  11.985 -0.6555  0.4398  0.3761
  548MPD2    C3 8130   3.133   2.744  11.899  0.6696  0.4722 -0.1007
  548MPD2    C4 8131   3.201   2.814  11.805  0.2263  0.4502 -0.5299
  548MPD2    C5 8132   3.150   2.942  11.781  0.8264  0.5947 -0.3797
  548MPD2     H 8133   3.003   2.759  12.074 -0.3286 -1.9907 -0.8813
  548MPD2    H1 8134   3.280   2.774  11.742 -1.3516 -0.5938 -1.8637
  548MPD2    H2 8135   3.036   3.104  11.828 -0.3729  0.4125  2.8051
  548MPD2    H3 8136   3.203   3.004  11.710  2.3106  0.9424  1.0169
  548MPD2     N 8137   3.173   2.617  11.947 -0.1909 -0.0020 -0.2138
  548MPD2    H5 8138   3.116   2.572  12.017 -0.8182  2.2160  0.7082
  548MPD2    N1 8139   2.913   3.026  12.057  0.0391  0.3048  0.3608
  548MPD2    H7 8140   2.915   3.127  12.055  1.0330  0.2544 -1.3886
  549TMC3    C1 8141   2.818   3.077  12.269  0.6941  0.2043 -0.8155
  549TMC3    C2 8142   2.775   3.200  12.220 -0.1050  0.0560 -0.2329
  549TMC3    C3 8143   2.776   3.305  12.299 -0.1887 -0.1014 -0.0271
  549TMC3    C4 8144   2.868   3.057  12.397 -0.4235 -0.7876 -0.1491
  549TMC3    C5 8145   2.865   3.167  12.479  0.8956 -0.8461 -0.8296
  549TMC3    C6 8146   2.814   3.288  12.435 -0.5615  0.6106  0.6425
  549TMC3     C 8147   2.853   2.976  12.169  0.4356  0.0158  0.4542
  549TMC3     O 8148   2.858   2.860  12.199  0.5076  0.1577 -0.0642
  549TMC3     H 8149   2.751   3.205  12.114  0.0603  2.8288 -0.1359
  549TMC3    H1 8150   2.907   2.960  12.423  0.8407 -0.0093  0.8594
  549TMC3    H2 8151   2.794   3.367  12.506 -1.8614  0.2824  0.6321
  549TMC3    C7 8152   2.891   3.148  12.619 -0.3015 -0.0536  0.5069
  549TMC3    C8 8153   2.670   3.398  12.263  0.1946  0.2388  0.2404
  549TMC3    O1 8154   2.882   3.247  12.694 -0.2759 -0.5563 -0.1005
  549TMC3    O2 8155   2.599   3.364  12.173 -0.1003 -0.7402  0.1127
  550TMC3    C1 8156   2.716   0.290  11.846 -0.1087 -0.4237  0.1516
  550TMC3    C2 8157   2.683   0.268  11.981 -0.2238  0.1910 -0.1873
  550TMC3    C3 8158   2.703   0.368  12.064  0.1634 -1.0125 -0.3062
  550TMC3    C4 8159   2.748   0.416  11.802  0.3543  0.0274  0.0028
  550TMC3    C5 8160   2.747   0.517  11.884  0.7492 -0.5066 -0.0600
  550TMC3    C6 8161   2.737   0.496  12.015  0.3575 -0.6222 -0.7935
  550TMC3     C 8162   2.672   0.200  11.741  0.5226 -0.7427 -0.3872
  550TMC3     O 8163   2.719   0.085  11.735 -0.2836  0.2071 -0.4519
  550TMC3     H 8164   2.662   0.165  12.010  0.4191  0.3586  0.8634
  550TMC3    H1 8165   2.753   0.425  11.694 -0.8729  0.3002 -0.0309
  550TMC3    H2 8166   2.764   0.580  12.078  0.7909  0.4474 -2.4352
  550TMC3    C7 8167   2.678   0.642  11.845  0.0215  0.5322 -0.1638
  550TMC3    C8 8168   2.616   0.381  12.180 -0.7995  0.2205 -0.0111
  550TMC3    O1 8169   2.615   0.691  11.933  0.3816 -0.2650 -0.5484
  550TMC3    O2 8170   2.578   0.287  12.249 -0.1943  0.3332  0.0564
  551TMC3    C1 8171   0.056   3.650  13.338 -0.0217  0.6126  0.1910
  551TMC3    C2 8172   0.172   3.665  13.267 -0.6801 -0.1435 -0.1199
  551TMC3    C3 8173   0.250   3.774  13.288 -0.2158 -0.5480  0.7015
  551TMC3    C4 8174   0.016   3.748  13.424  0.2255 -0.9299 -0.6291
  551TMC3    C5 8175   0.096   3.869  13.428 -0.0440  0.3136 -0.1969
  551TMC3    C6 8176   0.208   3.885  13.355  0.1121  0.8933  0.5339
  551TMC3     C 8177   4.686   3.558  13.282 -0.2830 -0.7293  0.3973
  551TMC3     O 8178   0.003   3.461  13.217  0.2198  0.7503 -0.1392
  551TMC3     H 8179   0.201   3.582  13.203 -0.3912 -0.7870  0.8425
  551TMC3    H1 8180   4.661   3.738  13.496  1.5500  0.9549  1.0922
  551TMC3    H2 8181   0.273   3.971  13.363  1.4807 -0.0823  0.0427
  551TMC3    C7 8182   0.095   3.936  13.560 -0.2129 -0.4102  0.3233
  551TMC3    C8 8183   0.358   3.778  13.195  0.2950 -0.6226  0.2342
  551TMC3    O1 8184   0.090   3.877  13.668 -0.6076 -0.9414  0.3655
  551TMC3    O2 8185   0.419   3.675  13.177 -0.1833 -0.0903  0.1947
  552MPD2     C 8186   1.668   0.941  13.890 -0.0725 -0.8203 -0.5325
  552MPD2    C1 8187   1.672   0.818  13.952  0.3185  0.1782  0.3303
  552MPD2    C2 8188   1.781   0.785  14.030 -0.7317 -0.2704  0.0536
  552MPD2    C3 8189   1.882   0.873  14.050 -0.6162  0.3520  0.0332
  552MPD2    C4 8190   1.880   0.997  13.988 -0.6889 -0.0095  0.8245
  552MPD2    C5 8191   1.775   1.025  13.906  0.2183 -0.3537 -0.1965
  552MPD2     H 8192   1.779   0.684  14.070 -0.2338  0.2208  1.3135
  552MPD2    H1 8193   1.959   1.069  14.003 -0.5416  0.2775 -1.3544
  552MPD2    H2 8194   1.590   0.973  13.821  1.1649 -0.0569 -1.5789
  552MPD2    H3 8195   1.768   1.121  13.856 -1.1826 -0.4094 -0.0837
  552MPD2     N 8196   1.983   0.845  14.146  0.0943 -0.2375  0.1712
  552MPD2    H5 8197   2.061   0.909  14.140 -1.4980  1.7681  0.7423
  552MPD2    N1 8198   1.567   0.725  13.939 -0.1859  1.0621 -0.6227
  552MPD2    H7 8199   1.584   0.645  14.000  0.7658  1.2717 -0.6073
  553TMC3    C1 8200   1.364   0.628  13.855 -0.0674  0.4456  0.1446
  553TMC3    C2 8201   1.253   0.646  13.779  0.1010  0.0442 -0.3569
  553TMC3    C3 8202   1.217   0.547  13.697  0.5586  0.4155 -0.0408
  553TMC3    C4 8203   1.429   0.508  13.861  0.0269  0.3866  0.9371
  553TMC3    C5 8204   1.379   0.408  13.791  0.8193  0.0885 -0.5807
  553TMC3    C6 8205   1.273   0.424  13.703  0.2724 -0.0253  0.0746
  553TMC3     C 8206   1.448   0.745  13.867 -0.5824 -0.1538 -0.2283
  553TMC3     O 8207   1.409   0.844  13.808 -0.5934 -0.3486  0.1828
  553TMC3     H 8208   1.208   0.744  13.776  0.5030  0.1458 -3.2152
  553TMC3    H1 8209   1.518   0.495  13.922 -1.0200  1.2586  2.6315
  553TMC3    H2 8210   1.269   0.359  13.616 -2.3933  2.7996 -1.9107
  553TMC3    C7 8211   1.447   0.282  13.786 -0.4938  0.5686 -0.4860
  553TMC3    C8 8212   1.201   0.581  13.560 -0.5311  0.0121 -0.1626
  553TMC3    O1 8213   1.379   0.181  13.777  0.0038  0.2752  0.3134
  553TMC3    O2 8214   1.154   0.494  13.486  0.0436  0.1664  0.4147
  554TMC3    C1 8215   3.315   4.339  11.710  0.1093 -0.1492  0.1263
  554TMC3    C2 8216   3.228   4.322  11.613  0.0689  0.1375 -0.6828
  554TMC3    C3 8217   3.224   4.409  11.502 -0.2008 -0.0279 -0.6900
  554TMC3    C4 8218   3.415   4.431  11.703 -0.2960 -0.2247  0.1777
  554TMC3    C5 8219   3.424   4.505  11.584  0.3989  0.3812  0.7087
  554TMC3    C6 8220   3.332   4.497  11.483  0.1987  1.1126 -0.1815
  554TMC3     C 8221   3.315   4.232  11.813  0.0333  0.6694  0.2123
  554TMC3     O 8222   3.225   4.147  11.804 -0.4374 -0.7562 -0.3446
  554TMC3     H 8223   3.165   4.234  11.616  1.6715 -1.0655 -2.7668
  554TMC3    H1 8224   3.488   4.454  11.779  0.3884 -2.4886  0.1881
  554TMC3    H2 8225   3.332   4.561  11.396  1.0796  1.6877  0.2401
  554TMC3    C7 8226   3.535   4.605  11.566 -0.2223  0.0685  0.1836
  554TMC3    C8 8227   3.125   4.387  11.398  0.0750 -0.0217 -0.2933
  554TMC3    O1 8228   3.585   4.656  11.664  0.2922  0.0560 -0.5294
  554TMC3    O2 8229   3.157   4.417  11.281  0.6138  0.0523  0.2947
  555TMC3    C1 8230   2.660   3.796  14.765  0.0083  0.0887  0.0103
  555TMC3    C2 8231   2.681   3.892  14.862  0.3381 -0.0642  0.8491
  555TMC3    C3 8232   2.639   3.852  14.982  0.2076 -0.0471  0.1586
  555TMC3    C4 8233   2.606   3.670  14.794 -0.7676  0.2790  0.0576
  555TMC3    C5 8234   2.553   3.642  14.910  0.8358  0.6537 -0.0164
  555TMC3    C6 8235   2.563   3.736  15.012 -0.6349 -0.4487 -0.3744
  555TMC3     C 8236   2.696   3.818  14.633 -0.0096 -0.4462 -0.5241
  555TMC3     O 8237   2.684   3.738  14.544  0.1040  0.0907  0.2487
  555TMC3     H 8238   2.734   3.986  14.855 -1.1612  0.5839 -1.4804
  555TMC3    H1 8239   2.572   3.607  14.712 -1.8973  0.8684  0.0765
  555TMC3    H2 8240   2.519   3.715  15.109 -0.5036  0.1459 -0.1900
  555TMC3    C7 8241   2.484   3.515  14.931  0.3957 -0.3077  0.7519
  555TMC3    C8 8242   2.637   3.955  15.083 -0.0257  1.1029  0.5078
  555TMC3    O1 8243   2.422   3.490  15.034  0.4303 -0.0954 -0.0393
  555TMC3    O2 8244   2.531   4.010  15.099  0.1662  0.4712 -0.3872
  556MPD2     C 8245   1.385   0.560  11.062 -0.6267  0.6550 -0.1793
  556MPD2    C1 8246   1.261   0.603  11.108 -0.0063 -0.5246 -0.2147
  556MPD2    C2 8247   1.148   0.555  11.049  0.6350 -0.1204 -0.2964
  556MPD2    C3 8248   1.154   0.465  10.942 -0.5856  0.5747  0.2824
  556MPD2    C4 8249   1.280   0.433  10.895 -0.2050  0.3395  0.0967
  556MPD2    C5 8250   1.393   0.473  10.956  0.3100  0.1727  0.3295
  556MPD2     H 8251   1.054   0.580  11.096 -0.0047 -0.9346 -1.1572
  556MPD2    H1 8252   1.295   0.358  10.818  1.1005  1.1356 -0.4173
  556MPD2    H2 8253   1.473   0.594  11.115 -0.5214  1.1190 -0.6506
  556MPD2    H3 8254   1.491   0.439  10.925 -0.1796  0.2804 -1.3816
  556MPD2     N 8255   1.032   0.407  10.890  1.5716 -0.3562 -0.2146
  556MPD2    H5 8256   0.949   0.443  10.936  1.0445 -0.2453 -1.2516
  556MPD2    N1 8257   1.240   0.703  11.209  0.3857 -1.0182 -0.6334
  556MPD2    H7 8258   1.143   0.720  11.236  1.1768 -3.0243  3.4674
  557TMC3    C1 8259   0.898   0.251  10.775  0.6592  0.1504 -0.0721
  557TMC3    C2 8260   0.798   0.347  10.763 -0.4588 -0.0069 -0.0031
  557TMC3    C3 8261   0.669   0.308  10.736  0.5986  0.3743  0.6113
  557TMC3    C4 8262   0.872   0.119  10.762  0.0976 -0.7813  0.3049
  557TMC3    C5 8263   0.742   0.089  10.747  0.2534 -1.1604 -0.0573
  557TMC3    C6 8264   0.638   0.175  10.726 -0.1107 -0.5410  0.2866
  557TMC3     C 8265   1.032   0.295  10.816  0.2644 -0.0118 -0.1143
  557TMC3     O 8266   1.124   0.217  10.797  0.4242  0.2210  0.3997
  557TMC3     H 8267   0.812   0.454  10.757  0.9420 -0.0208  2.8040
  557TMC3    H1 8268   0.948   0.049  10.792 -0.4376 -2.1005 -1.4456
  557TMC3    H2 8269   0.536   0.146  10.703  0.0877 -1.3236  0.4067
  557TMC3    C7 8270   0.713   4.703  10.840 -0.3934 -0.4000  0.4698
  557TMC3    C8 8271   0.559   0.404  10.748 -0.0546  0.2389 -0.1314
  557TMC3    O1 8272   0.807   4.664  10.907  0.0364 -0.2014 -0.0535
  557TMC3    O2 8273   0.561   0.480  10.845  0.2715  0.1191  0.1195
  558TMC3    C1 8274   3.346   2.967   9.905  0.0637  0.3392 -0.1395
  558TMC3    C2 8275   3.241   2.923   9.975 -0.2261 -0.6219 -0.7024
  558TMC3    C3 8276   3.127   2.893   9.908  0.3510  0.3907  0.7194
  558TMC3    C4 8277   3.355   2.960   9.767  0.0228  0.4306  0.3034
  558TMC3    C5 8278   3.237   2.922   9.696 -0.4755 -0.5229  0.3276
  558TMC3    C6 8279   3.119   2.894   9.769  0.1087  0.2186 -0.6429
  558TMC3     C 8280   3.470   2.998   9.971  0.1092  0.3015  0.3900
  558TMC3     O 8281   3.555   3.069   9.914  0.5376 -0.2489 -0.1016
  558TMC3     H 8282   3.230   2.958  10.077  0.0974 -0.6337 -0.6642
  558TMC3    H1 8283   3.439   3.001   9.713  0.9155 -0.5482  0.9336
  558TMC3    H2 8284   3.027   2.856   9.724  1.1446 -1.7394 -1.0966
  558TMC3    C7 8285   3.242   2.933   9.555 -0.3281 -0.6015  0.3224
  558TMC3    C8 8286   2.993   2.902   9.970  0.1658 -0.4915 -0.4469
  558TMC3    O1 8287   3.348   2.949   9.500 -0.4821  0.4619  0.8412
  558TMC3    O2 8288   2.892   2.918   9.906  0.4829 -0.1702 -0.3378
  559MPD2     C 8289   2.988   3.931  10.592  0.3653 -0.2662 -0.6339
  559MPD2    C1 8290   2.909   3.889  10.699 -0.0524 -0.3821 -0.0706
  559MPD2    C2 8291   2.976   3.859  10.816  0.4733 -0.2281 -0.3098
  559MPD2    C3 8292   3.116   3.865  10.823  0.1918 -0.0171 -0.4222
  559MPD2    C4 8293   3.193   3.914  10.721 -0.0972  0.1647 -0.1059
  559MPD2    C5 8294   3.123   3.944  10.604  0.5397  0.3946 -0.5144
  559MPD2     H 8295   2.921   3.850  10.909 -2.8215 -0.7500 -2.3127
  559MPD2    H1 8296   3.302   3.920  10.719 -0.0231 -0.1982  2.7939
  559MPD2    H2 8297   2.937   3.951  10.499  0.1326  0.5221 -0.3358
  559MPD2    H3 8298   3.176   3.986  10.519  0.1583  1.8199 -0.0570
  559MPD2     N 8299   3.169   3.837  10.948 -0.2431  0.2609 -0.0471
  559MPD2    H5 8300   3.099   3.821  11.020  0.3069 -0.3258  0.3574
  559MPD2    N1 8301   2.769   3.867  10.678  0.5614 -0.3977  0.2321
  559MPD2    H7 8302   2.746   3.874  10.579  0.8926 -0.0714  0.1809
  560TMC3    C1 8303   3.318   3.770  11.122  0.5540 -0.5578  0.6661
  560TMC3    C2 8304   3.218   3.680  11.154  0.0929 -0.4077 -0.0576
  560TMC3    C3 8305   3.240   3.604  11.266 -0.4987  0.9391  0.0852
  560TMC3    C4 8306   3.435   3.785  11.192 -0.1202  0.8372  0.0690
  560TMC3    C5 8307   3.441   3.709  11.309  0.0312  0.7613 -0.1810
  560TMC3    C6 8308   3.352   3.620  11.346 -0.3598 -1.4747  0.0023
  560TMC3     C 8309   3.299   3.841  10.990  0.2498 -0.5666 -0.1121
  560TMC3     O 8310   3.402   3.890  10.934 -0.2290  0.2737  0.1214
  560TMC3     H 8311   3.141   3.647  11.084 -1.7348  1.0784  1.2902
  560TMC3    H1 8312   3.508   3.859  11.165 -0.7070  1.6802  0.7674
  560TMC3    H2 8313   3.356   3.547  11.427 -2.2618  0.3736  1.7532
  560TMC3    C7 8314   3.547   3.734  11.401  0.4723  0.6634 -0.0914
  560TMC3    C8 8315   3.191   3.469  11.266 -0.0943  0.5689 -0.2480
  560TMC3    O1 8316   3.512   3.722  11.515  0.2152  0.2701  0.2991
  560TMC3    O2 8317   3.272   3.380  11.243 -0.3652  0.5835  0.1536
  561TMC3    C1 8318   1.086   2.660  10.949  0.1765  0.6441 -0.4172
  561TMC3    C2 8319   1.068   2.598  11.068 -0.0112 -0.1244  0.3815
  561TMC3    C3 8320   1.084   2.662  11.187 -0.3218  0.3953 -0.6688
  561TMC3    C4 8321   1.101   2.791  10.936 -0.5244  0.4522 -0.9213
  561TMC3    C5 8322   1.122   2.856  11.059  0.5838 -0.3820  0.2477
  561TMC3    C6 8323   1.118   2.794  11.178 -0.0330  0.0944 -0.0864
  561TMC3     C 8324   1.067   2.582  10.825 -0.1510 -0.6028  0.4257
  561TMC3     O 8325   0.976   2.499  10.830 -0.1027 -0.0574 -0.4060
  561TMC3     H 8326   1.025   2.499  11.072 -1.8926  0.6520 -0.9794
  561TMC3    H1 8327   1.107   2.836  10.838  0.0356  1.9422 -0.2174
  561TMC3    H2 8328   1.157   2.845  11.266 -0.9175  0.9666 -0.1991
  561TMC3    C7 8329   1.145   3.002  11.064  0.0476 -0.0446  0.2966
  561TMC3    C8 8330   1.051   2.603  11.315 -0.1431 -0.5364  0.2297
  561TMC3    O1 8331   1.131   3.052  11.176  0.2767  0.7500 -0.3392
  561TMC3    O2 8332   1.057   2.482  11.332  0.4462  0.3612 -0.4082
  562TMC3    C1 8333   2.580   3.924  15.725  0.7455  0.0959 -0.2585
  562TMC3    C2 8334   2.488   4.017  15.679 -1.0663 -0.1301  0.6741
  562TMC3    C3 8335   2.434   4.010  15.551  0.3699  0.0660 -0.4870
  562TMC3    C4 8336   2.612   3.818  15.645 -0.4519  0.4352  0.4927
  562TMC3    C5 8337   2.571   3.826  15.512  0.1459  0.0673 -0.2438
  562TMC3    C6 8338   2.486   3.923  15.467 -0.0098  0.5885  0.7002
  562TMC3     C 8339   2.631   3.949  15.861 -0.9322  0.1302 -0.4768
  562TMC3     O 8340   2.575   4.020  15.944  0.4198 -0.2022 -0.5534
  562TMC3     H 8341   2.462   4.096  15.749  2.2056  1.5934 -0.0811
  562TMC3    H1 8342   2.655   3.730  15.691 -1.8373 -0.6400 -0.3109
  562TMC3    H2 8343   2.450   3.913  15.365  2.5039  0.2381 -0.1731
  562TMC3    C7 8344   2.576   3.702  15.444 -0.0678  0.2526 -0.7024
  562TMC3    C8 8345   2.345   4.109  15.497 -0.0940  0.2996  0.0700
  562TMC3    O1 8346   2.472   3.657  15.388  0.1305 -0.1633  0.2243
  562TMC3    O2 8347   2.315   4.116  15.376 -0.2632  0.2893  0.0873
  563MPD2     C 8348   4.280   0.794  15.950 -0.5986  0.0047  0.3880
  563MPD2    C1 8349   4.328   0.816  16.079  0.3172  0.6690 -0.6851
  563MPD2    C2 8350   4.405   0.927  16.103 -0.2439 -0.4188  0.6358
  563MPD2    C3 8351   4.440   1.010  16.000  0.1413 -0.3416 -0.0116
  563MPD2    C4 8352   4.376   0.995  15.880  0.1654  0.0261  0.0946
  563MPD2    C5 8353   4.305   0.886  15.857  0.2816  0.4260  0.6679
  563MPD2     H 8354   4.454   0.950  16.197  1.7873  1.0936 -0.7862
  563MPD2    H1 8355   4.407   1.066  15.803  0.2159 -0.0470  0.0470
  563MPD2    H2 8356   4.213   0.710  15.933 -0.7207  0.1760  0.0175
  563MPD2    H3 8357   4.269   0.873  15.756  1.2242  1.4989  0.1916
  563MPD2     N 8358   4.536   1.108  16.025 -0.4500 -0.1744  0.2652
  563MPD2    H5 8359   4.579   1.102  16.117 -2.3234 -1.3117  1.0631
  563MPD2    N1 8360   4.311   0.711  16.177  0.0847 -0.2102  0.1970
  563MPD2    H7 8361   4.246   0.639  16.148 -2.2356  1.7317  0.5607
  564TMC3    C1 8362   4.322   0.611  16.395 -0.1625 -0.6224 -0.5422
  564TMC3    C2 8363   4.206   0.540  16.376 -0.5674 -0.5955  0.0656
  564TMC3    C3 8364   4.167   0.448  16.465 -0.2476 -0.3879 -0.0570
  564TMC3    C4 8365   4.397   0.589  16.503 -0.1634 -1.0497 -0.6546
  564TMC3    C5 8366   4.349   0.500  16.596  0.6507  0.2501 -0.3592
  564TMC3    C6 8367   4.226   0.437  16.589 -0.2050  0.1044  0.1652
  564TMC3     C 8368   4.377   0.700  16.301 -0.1741  0.3714 -0.2602
  564TMC3     O 8369   4.479   0.752  16.330  0.6677  0.7171  0.9343
  564TMC3     H 8370   4.144   0.553  16.288 -1.1989  0.1603  0.6252
  564TMC3    H1 8371   4.493   0.635  16.527 -0.0626 -0.8419 -1.4363
  564TMC3    H2 8372   4.192   0.357  16.653 -1.4065  0.0794 -0.4971
  564TMC3    C7 8373   4.458   0.422  16.652 -0.3921  0.1623 -0.2144
  564TMC3    C8 8374   4.073   0.343  16.428  0.2084 -0.0564 -0.5520
  564TMC3    O1 8375   4.572   0.431  16.602  0.1230 -0.3160  0.5592
  564TMC3    O2 8376   4.047   0.268  16.522  0.1561  0.3607  0.3032
  565TMC3    C1 8377   0.266   2.012  10.295 -0.3802  0.1681 -0.7493
  565TMC3    C2 8378   0.315   1.894  10.338 -0.4786  0.3266  0.2838
  565TMC3    C3 8379   0.254   1.779  10.297  0.1087 -0.3052  0.6394
  565TMC3    C4 8380   0.151   2.023  10.226  0.3097  0.5546  0.5578
  565TMC3    C5 8381   0.088   1.907  10.196 -0.4191  0.0728 -0.4490
  565TMC3    C6 8382   0.133   1.783  10.232  0.6554 -0.1524  0.9414
  565TMC3     C 8383   0.359   2.120  10.271  0.2978 -0.1779  0.8052
  565TMC3     O 8384   0.349   2.185  10.169 -0.2980  0.0879  0.0186
  565TMC3     H 8385   0.413   1.883  10.383 -0.9915  0.7438  1.4995
  565TMC3    H1 8386   0.121   2.120  10.189 -0.4632 -0.6497 -1.9530
  565TMC3    H2 8387   0.084   1.695  10.190  0.4520 -0.0793  1.0238
  565TMC3    C7 8388   4.675   1.925  10.141 -0.1070  0.0247  0.2713
  565TMC3    C8 8389   0.318   1.652  10.314  0.4288 -0.3008 -0.5516
  565TMC3    O1 8390   4.648   2.036  10.095 -0.2605  0.1669  0.2304
  565TMC3    O2 8391   0.392   1.648  10.412  0.2889  0.7767  0.3216
  566MPD2     C 8392   2.109   4.186  14.589 -0.1870 -0.0161  0.0947
  566MPD2    C1 8393   2.160   4.231  14.473  0.8468  0.2289  0.0005
  566MPD2    C2 8394   2.114   4.171  14.353 -0.2853  0.0685  0.0656
  566MPD2    C3 8395   2.055   4.048  14.358 -0.4242 -0.1447 -0.8842
  566MPD2    C4 8396   2.015   3.998  14.480  0.2756  0.0048 -0.3725
  566MPD2    C5 8397   2.047   4.069  14.591  0.8891  0.0861  0.3823
  566MPD2     H 8398   2.139   4.217  14.258  0.2464  3.1296  1.6789
  566MPD2    H1 8399   1.969   3.901  14.491 -0.7519  0.5102 -0.2124
  566MPD2    H2 8400   2.125   4.236  14.684 -0.8434  0.3481  0.0119
  566MPD2    H3 8401   1.990   4.038  14.678 -2.7966 -1.6564 -2.6185
  566MPD2     N 8402   2.022   3.972  14.238  0.1055  0.3266  0.1552
  566MPD2    H5 8403   1.984   3.880  14.257  1.1820 -0.1643 -0.0384
  566MPD2    N1 8404   2.241   4.347  14.480  0.3304  0.0234  0.2921
  566MPD2    H7 8405   2.221   4.410  14.557 -0.7970  0.0668 -0.0373
  567TMC3    C1 8406   2.394   4.311  14.304  0.2916 -0.3631  0.1877
  567TMC3    C2 8407   2.406   4.363  14.177 -0.3979  0.2084  0.2382
  567TMC3    C3 8408   2.430   4.268  14.082 -0.5203  0.2789 -0.2085
  567TMC3    C4 8409   2.406   4.180  14.332  0.5043  0.0738 -0.4364
  567TMC3    C5 8410   2.435   4.090  14.237 -0.1288 -0.4526 -0.7491
  567TMC3    C6 8411   2.441   4.134  14.107  0.2127  0.4284  0.6443
  567TMC3     C 8412   2.321   4.403  14.387 -0.7733  0.3716  0.2029
  567TMC3     O 8413   2.342   4.522  14.379  0.2798 -0.3868  0.3560
  567TMC3     H 8414   2.376   4.466  14.162  0.6921  0.3785 -0.7848
  567TMC3    H1 8415   2.401   4.143  14.434  2.1205 -1.4762 -0.9362
  567TMC3    H2 8416   2.460   4.063  14.028 -0.5798 -1.0107  1.7339
  567TMC3    C7 8417   2.407   3.945  14.263  0.0608 -0.1632  0.7042
  567TMC3    C8 8418   2.434   4.309  13.950 -0.1084  0.1528 -0.1693
  567TMC3    O1 8419   2.417   3.868  14.168  0.6341 -0.0173  0.5470
  567TMC3    O2 8420   2.400   4.235  13.859  0.0899  0.8308  0.0215
  568MPD2     C 8421   0.033   4.299  16.651 -0.1966 -0.7838  0.9277
  568MPD2    C1 8422   4.674   4.313  16.761  0.1197  0.1997 -0.3476
  568MPD2    C2 8423   4.536   4.313  16.738 -0.1557 -1.0743 -0.3586
  568MPD2    C3 8424   4.476   4.293  16.614 -0.0437 -0.2072  0.5145
  568MPD2    C4 8425   4.564   4.282  16.511 -0.1339 -0.2641  0.2389
  568MPD2    C5 8426   4.696   4.283  16.530 -0.3785 -0.1184 -0.2881
  568MPD2     H 8427   4.465   4.320  16.821 -1.0186 -0.1544 -1.1773
  568MPD2    H1 8428   4.532   4.277  16.407 -0.6108  1.5407  0.3041
  568MPD2    H2 8429   0.141   4.295  16.652 -0.1411  0.2482 -1.3400
  568MPD2    H3 8430   0.033   4.273  16.442 -0.4139  0.4636 -0.3773
  568MPD2     N 8431   4.331   4.289  16.601 -0.2236 -0.4766 -0.8797
  568MPD2    H5 8432   4.287   4.295  16.692  0.2905  1.3132 -0.7446
  568MPD2    N1 8433   0.010   4.297  16.886 -0.0431 -0.5243  0.7573
  568MPD2    H7 8434   0.108   4.272  16.888  0.3996  1.0583 -1.8366
  569TMC3    C1 8435   4.121   4.274  16.494  0.0682 -0.1328 -0.0173
  569TMC3    C2 8436   4.072   4.319  16.611  0.1373  0.1315  0.4435
  569TMC3    C3 8437   3.943   4.366  16.614  0.2504 -0.1449 -0.3004
  569TMC3    C4 8438   4.060   4.303  16.379  0.3762 -0.0280 -0.0434
  569TMC3    C5 8439   3.939   4.367  16.379 -0.9731  0.4191  0.0990
  569TMC3    C6 8440   3.879   4.395  16.494 -0.4269 -0.0729 -0.0939
  569TMC3     C 8441   4.265   4.263  16.487 -0.0901  0.0113  1.1053
  569TMC3     O 8442   4.317   4.249  16.375 -0.1922 -0.6325  0.4762
  569TMC3     H 8443   4.124   4.298  16.704 -0.7952  0.4404  1.0440
  569TMC3    H1 8444   4.106   4.286  16.283  0.3778  0.7151 -0.1757
  569TMC3    H2 8445   3.784   4.446  16.501  0.7162  2.1177 -0.3161
  569TMC3    C7 8446   3.917   4.461  16.270 -0.5710 -0.1236  0.2568
  569TMC3    C8 8447   3.875   4.410  16.742  0.3708 -0.1148  0.9587
  569TMC3    O1 8448   3.916   4.426  16.152 -0.1001 -0.4141 -0.0846
  569TMC3    O2 8449   3.750   4.421  16.743 -0.9023  0.2876  0.1050
  570TMC3    C1 8450   3.675   3.296  16.263 -0.7235  0.0868  1.4068
  570TMC3    C2 8451   3.761   3.324  16.165  0.0982 -0.3049 -0.5385
  570TMC3    C3 8452   3.836   3.434  16.173  0.1180 -0.5177 -0.0815
  570TMC3    C4 8453   3.648   3.383  16.360  0.2745 -0.0928 -0.1685
  570TMC3    C5 8454   3.716   3.501  16.360 -0.1628  0.0404 -0.3882
  570TMC3    C6 8455   3.814   3.533  16.267  0.4554  0.1187 -0.3261
  570TMC3     C 8456   3.625   3.154  16.274  0.1710 -0.9189  0.1601
  570TMC3     O 8457   3.628   3.091  16.170 -0.3691  0.1232 -0.5959
  570TMC3     H 8458   3.774   3.248  16.089 -2.1570 -1.7611  0.5280
  570TMC3    H1 8459   3.561   3.372  16.423 -1.2520  2.5851 -1.8338
  570TMC3    H2 8460   3.880   3.617  16.246 -0.6149  0.8681 -0.6644
  570TMC3    C7 8461   3.679   3.605  16.460  0.5501  0.0550  0.4990
  570TMC3    C8 8462   3.918   3.469  16.059  0.7288  0.9607 -0.3186
  570TMC3    O1 8463   3.621   3.560  16.558 -0.1260  0.7500 -0.1762
  570TMC3    O2 8464   3.999   3.558  16.070  0.5313  0.5254  0.1170
  571MPD2     C 8465   2.724   0.148  16.898  0.6725  0.6774 -1.2580
  571MPD2    C1 8466   2.604   0.197  16.919  0.7366  0.0056 -0.5569
  571MPD2    C2 8467   2.586   0.250  17.041 -0.4541  0.4048 -0.3089
  571MPD2    C3 8468   2.686   0.261  17.140  0.0749 -0.5235  0.1673
  571MPD2    C4 8469   2.808   0.222  17.104  0.1316 -0.2203  0.3689
  571MPD2    C5 8470   2.834   0.172  16.979 -0.0552 -0.1237  0.1127
  571MPD2     H 8471   2.485   0.285  17.063  0.5058  1.5585  2.3625
  571MPD2    H1 8472   2.892   0.223  17.172  1.0270  1.6485 -0.7517
  571MPD2    H2 8473   2.743   0.111  16.798 -1.1812  0.0834 -1.3974
  571MPD2    H3 8474   2.931   0.139  16.941  0.6043  0.7389  1.0594
  571MPD2     N 8475   2.668   0.334  17.259 -0.1047  0.2849 -0.2190
  571MPD2    H5 8476   2.746   0.348  17.322 -1.6266 -0.1272  1.7407
  571MPD2    N1 8477   2.502   0.170  16.823 -0.1604  0.1310  0.0957
  571MPD2    H7 8478   2.526   0.127  16.734 -2.0740 -0.2343 -0.2390
  572TMC3    C1 8479   2.531   0.434  17.438 -0.2360  0.0540  0.8783
  572TMC3    C2 8480   2.600   0.380  17.547  0.1086 -1.2618  0.1311
  572TMC3    C3 8481   2.538   0.385  17.665  0.0914  0.6409  1.3804
  572TMC3    C4 8482   2.420   0.507  17.461 -0.1484 -0.2816 -0.8227
  572TMC3    C5 8483   2.352   0.500  17.581  0.3845  0.3669 -0.1402
  572TMC3    C6 8484   2.417   0.446  17.687  0.1127  0.4166 -0.1197
  572TMC3     C 8485   2.542   0.378  17.302  0.2333 -0.3717 -0.6948
  572TMC3     O 8486   2.432   0.346  17.260 -0.2193  0.6519  0.3305
  572TMC3     H 8487   2.671   0.300  17.528  1.1311  0.1192 -1.9800
  572TMC3    H1 8488   2.362   0.531  17.373  1.0534  1.0521 -1.2461
  572TMC3    H2 8489   2.367   0.465   0.079 -0.4086  0.2064 -0.3485
  572TMC3    C7 8490   2.218   0.551  17.579  0.1932  0.6615  0.0085
  572TMC3    C8 8491   2.603   0.320   0.077  0.3129  0.4135  0.3857
  572TMC3    O1 8492   2.199   0.631  17.486  0.0902 -0.4664 -0.4231
  572TMC3    O2 8493   2.714   0.271   0.061  0.2093  0.7136 -0.9971
  573MPD2     C 8494   2.250   1.011   0.273  0.0739 -0.2766 -0.4781
  573MPD2    C1 8495   2.325   0.989   0.390  0.0494  0.6070  0.4272
  573MPD2    C2 8496   2.465   0.989   0.383  0.4719  0.0134 -0.0164
  573MPD2    C3 8497   2.524   1.021   0.263 -0.2472  0.3670  0.0690
  573MPD2    C4 8498   2.453   1.034   0.146 -0.5805  0.2259  0.3821
  573MPD2    C5 8499   2.315   1.036   0.152  0.7019 -0.5385  0.2580
  573MPD2     H 8500   2.530   0.975   0.469 -0.3159  0.0383  0.5866
  573MPD2    H1 8501   2.499   1.037   0.048 -1.4328 -1.6695 -0.0779
  573MPD2    H2 8502   2.141   1.013   0.274  0.0790 -0.5151  0.4813
  573MPD2    H3 8503   2.261   1.069   0.064  0.5609  0.9618  0.9013
  573MPD2     N 8504   2.668   1.034   0.241 -0.6790 -0.1045  0.2365
  573MPD2    H5 8505   2.702   1.047   0.146 -0.4721  0.4166  0.3802
  573MPD2    N1 8506   2.253   0.972   0.513 -0.6938  0.2726 -0.2892
  573MPD2    H7 8507   2.152   0.982   0.505 -0.4414  1.8037 -1.5970
  574TMC3    C1 8508   2.903   1.014   0.293 -0.7885  0.1115  0.5370
  574TMC3    C2 8509   2.929   1.052   0.160 -0.2142  0.1463  0.3509
  574TMC3    C3 8510   3.035   1.009   0.097  0.7461  0.1147  0.6780
  574TMC3    C4 8511   2.997   0.942   0.366 -0.1592 -0.4885  0.3740
  574TMC3    C5 8512   3.098   0.894   0.298 -0.4641  0.4910 -0.5655
  574TMC3    C6 8513   3.122   0.930   0.172 -0.0578 -0.2833 -0.7323
  574TMC3     C 8514   2.764   1.009   0.338  0.0432  0.1116  0.2037
  574TMC3     O 8515   2.754   0.979   0.455  0.4138 -0.4981  0.0701
  574TMC3     H 8516   2.864   1.125   0.112  0.0244  0.5681  0.6672
  574TMC3    H1 8517   2.981   0.907   0.467  0.7381 -0.1725  0.6266
  574TMC3    H2 8518   3.219   0.910   0.129  0.6331 -0.5242  0.9578
  574TMC3    C7 8519   3.205   0.829   0.368  0.2061 -0.2261  0.0344
  574TMC3    C8 8520   3.095   1.074  17.691 -0.0478 -0.1375 -0.5199
  574TMC3    O1 8521   3.268   0.741   0.313  0.0116  0.3789  0.2318
  574TMC3    O2 8522   3.216   1.060  17.674 -0.0870  0.5582 -0.0780
  575TMC3    C1 8523   0.926   1.224  10.695  0.1165  0.5991  0.0977
  575TMC3    C2 8524   0.953   1.098  10.668 -0.6848 -0.7518 -0.5833
  575TMC3    C3 8525   0.876   1.024  10.585 -0.2428  0.1981  0.4967
  575TMC3    C4 8526   0.810   1.281  10.643 -0.0503  0.5313 -0.0061
  575TMC3    C5 8527   0.727   1.202  10.567  0.2640  0.3660  0.3422
  575TMC3    C6 8528   0.760   1.072  10.536  0.0331  0.5474 -0.3882
  575TMC3     C 8529   0.982   1.276  10.822  0.2027  0.0167  0.7258
  575TMC3     O 8530   1.047   1.198  10.889 -0.6038 -0.6300  0.4432
  575TMC3     H 8531   1.041   1.052  10.711 -0.7437 -0.4162 -0.0969
  575TMC3    H1 8532   0.772   1.374  10.683  0.8061  0.9306 -0.1342
  575TMC3    H2 8533   0.684   1.004  10.501 -1.6427  2.1199  0.2236
  575TMC3    C7 8534   0.619   1.266  10.504  0.2643  0.1736 -0.5867
  575TMC3    C8 8535   0.921   0.893  10.542  0.5115  0.3986 -0.5165
  575TMC3    O1 8536   0.569   1.362  10.565 -0.0648 -0.2964  0.7971
  575TMC3    O2 8537   1.022   0.849  10.595 -0.0468  0.0154  0.1150
  576MPD2     C 8538   0.422   3.164  12.497 -0.1565 -0.4960  1.3325
  576MPD2    C1 8539   0.451   3.282  12.420 -0.8042 -0.1736  0.6898
  576MPD2    C2 8540   0.390   3.399  12.470  0.3561  0.2523  0.6152
  576MPD2    C3 8541   0.310   3.398  12.584  0.0957 -1.0229  0.4043
  576MPD2    C4 8542   0.298   3.287  12.661 -0.0699  0.2398  0.2932
  576MPD2    C5 8543   0.340   3.170  12.605 -0.8178  0.3954 -0.0255
  576MPD2     H 8544   0.408   3.481  12.403  2.2986 -0.1439  0.6556
  576MPD2    H1 8545   0.247   3.284  12.756 -0.2050  0.7535  0.2373
  576MPD2    H2 8546   0.448   3.065  12.460  1.7007 -0.1220  1.6091
  576MPD2    H3 8547   0.325   3.081  12.666 -0.4971  0.1475 -0.3083
  576MPD2     N 8548   0.270   3.523  12.631  0.1127 -0.6578  0.2571
  576MPD2    H5 8549   0.293   3.608  12.579 -0.0537 -0.0977  1.0960
  576MPD2    N1 8550   0.520   3.276  12.299  0.1247 -0.6118  0.0543
  576MPD2    H7 8551   0.514   3.365  12.250  1.0953 -0.8975 -0.5925
  577TMC3    C1 8552   0.649   3.169  12.118  0.0904 -0.1610  0.0644
  577TMC3    C2 8553   0.756   3.095  12.089 -0.2511  0.2198 -0.1739
  577TMC3    C3 8554   0.801   3.099  11.961  0.3507  0.2659 -0.1695
  577TMC3    C4 8555   0.586   3.245  12.023 -0.6240  0.4481 -0.5899
  577TMC3    C5 8556   0.647   3.258  11.898  0.4721 -0.4104  0.7130
  577TMC3    C6 8557   0.762   3.188  11.865 -0.2551  0.4158  0.2220
  577TMC3     C 8558   0.598   3.170  12.258  0.0947  1.2070  0.1333
  577TMC3     O 8559   0.622   3.065  12.319 -0.1304 -0.2744  0.3702
  577TMC3     H 8560   0.801   3.036  12.168  0.4994  0.4585 -0.4174
  577TMC3    H1 8561   0.497   3.303  12.040  0.6765  1.5849  2.1927
  577TMC3    H2 8562   0.809   3.190  11.766 -0.2088 -0.9224  0.2205
  577TMC3    C7 8563   0.568   3.302  11.780 -0.4124 -0.3556 -0.0204
  577TMC3    C8 8564   0.889   2.985  11.929  0.1309 -0.0649 -0.3642
  577TMC3    O1 8565   0.640   3.327  11.685 -0.3890  0.9569  0.6525
  577TMC3    O2 8566   0.961   2.943  12.018 -0.2650  0.2852 -0.3292
  578MPD2     C 8567   3.006   3.604   0.108 -0.2587  0.2060  0.2779
  578MPD2    C1 8568   3.101   3.661   0.188 -0.2681  0.1154 -0.7514
  578MPD2    C2 8569   3.156   3.592   0.293  0.0279  0.5063 -0.5940
  578MPD2    C3 8570   3.114   3.467   0.320  0.4306 -0.2713  0.5923
  578MPD2    C4 8571   3.028   3.407   0.233  0.3104  0.4282 -0.1132
  578MPD2    C5 8572   2.974   3.474   0.132  0.0211 -0.3033 -0.3300
  578MPD2     H 8573   3.223   3.642   0.362 -1.1028  1.3125 -0.0571
  578MPD2    H1 8574   2.990   3.308   0.255  0.9001  0.3013  0.3497
  578MPD2    H2 8575   2.962   3.655   0.023 -1.9630  0.8039  1.5295
  578MPD2    H3 8576   2.885   3.439   0.081 -1.0252  1.3404  0.3716
  578MPD2     N 8577   3.185   3.411   0.431 -0.0243  0.3291  0.8978
  578MPD2    H5 8578   3.248   3.475   0.479  0.6497  0.4667 -0.1666
  578MPD2    N1 8579   3.118   3.803   0.160  0.1493 -0.8903 -0.3261
  578MPD2    H7 8580   3.074   3.837   0.075  0.7784 -0.7037 -0.5765
  579TMC3    C1 8581   3.281   3.236   0.565  0.4277  0.0151  0.0622
  579TMC3    C2 8582   3.374   3.327   0.613 -0.4984  0.2719 -0.1107
  579TMC3    C3 8583   3.464   3.279   0.693 -0.4267 -0.5350  0.5747
  579TMC3    C4 8584   3.284   3.096   0.586 -0.5704 -0.7522 -0.4376
  579TMC3    C5 8585   3.378   3.060   0.675  0.9449 -0.4083  0.2555
  579TMC3    C6 8586   3.466   3.151   0.729  0.9715 -0.2353 -0.1641
  579TMC3     C 8587   3.186   3.277   0.465  0.5716  0.1447 -0.1657
  579TMC3     O 8588   3.129   3.185   0.416  0.1400 -0.1794 -0.5201
  579TMC3     H 8589   3.395   3.422   0.566  0.8458  0.7123  1.3997
  579TMC3    H1 8590   3.232   3.027   0.521  0.9106 -1.7847 -0.5485
  579TMC3    H2 8591   3.544   3.126   0.800  0.5352 -1.3477 -0.0656
  579TMC3    C7 8592   3.393   2.921   0.718 -0.3090  1.1808  0.1492
  579TMC3    C8 8593   3.543   3.382   0.767  0.3168  0.3296  0.9642
  579TMC3    O1 8594   3.468   2.898   0.812 -0.2341 -0.0636 -0.3528
  579TMC3    O2 8595   3.495   3.494   0.770 -0.2255  0.3862  0.2283
  580TMC3    C1 8596   2.957   2.227  11.763  0.2760 -0.0274 -0.0787
  580TMC3    C2 8597   3.045   2.184  11.664  1.1759 -0.2089  0.2939
  580TMC3    C3 8598   3.173   2.148  11.701 -0.5793 -0.1170 -1.2041
  580TMC3    C4 8599   2.992   2.207  11.896  0.1490 -0.2644  0.2849
  580TMC3    C5 8600   3.120   2.145  11.922  0.2646 -0.1371 -0.3875
  580TMC3    C6 8601   3.216   2.129  11.827 -0.1603 -0.6924 -0.4044
  580TMC3     C 8602   2.910   2.365  11.722 -0.2904  0.8586 -0.6179
  580TMC3     O 8603   2.944   2.394  11.607  0.5084  0.2842 -0.4280
  580TMC3     H 8604   3.012   2.180  11.561  1.1366 -2.4561  0.3829
  580TMC3    H1 8605   2.931   2.232  11.982 -0.2117  0.8697 -0.2966
  580TMC3    H2 8606   3.317   2.099  11.854  0.1785  0.4148 -0.4287
  580TMC3    C7 8607   3.154   2.132  12.066 -0.7922 -0.5143 -0.0580
  580TMC3    C8 8608   3.265   2.216  11.615 -0.1831 -0.0633 -0.0475
  580TMC3    O1 8609   3.095   2.210  12.140  1.1071 -0.1069 -0.2928
  580TMC3    O2 8610   3.376   2.168  11.607 -0.4482 -0.1054 -0.4185
  581MPD2     C 8611   0.943   2.449  14.684  0.0250 -0.7189  1.2146
  581MPD2    C1 8612   0.936   2.499  14.816 -0.6380 -0.7722  0.5351
  581MPD2    C2 8613   0.819   2.564  14.860  0.5241 -0.0356 -0.2998
  581MPD2    C3 8614   0.707   2.577  14.771 -0.2673 -0.3675  0.6932
  581MPD2    C4 8615   0.726   2.546  14.641  0.1510 -1.0755  0.5015
  581MPD2    C5 8616   0.841   2.484  14.597 -0.1915 -0.2726 -0.3935
  581MPD2     H 8617   0.805   2.590  14.964  0.9405  0.2715 -0.3171
  581MPD2    H1 8618   0.660   2.573  14.559 -0.0154 -1.3237  0.5518
  581MPD2    H2 8619   1.024   2.384  14.654  0.9848  0.9280  0.2346
  581MPD2    H3 8620   0.857   2.445  14.497 -0.9480 -1.5485 -0.0307
  581MPD2     N 8621   0.591   2.648  14.819 -0.0701 -0.1231  0.1993
  581MPD2    H5 8622   0.585   2.690  14.911  0.3557  0.5497 -0.0826
  581MPD2    N1 8623   1.054   2.486  14.900 -0.8087 -0.7449 -0.3171
  581MPD2    H7 8624   1.138   2.451  14.856 -0.8264 -0.2742 -0.7245
  582TMC3    C1 8625   1.133   2.401  15.102 -0.4501 -0.7389  0.1146
  582TMC3    C2 8626   1.121   2.403  15.238 -0.3063 -0.5794  0.1909
  582TMC3    C3 8627   1.102   2.285  15.299  0.1140 -0.2554  1.1681
  582TMC3    C4 8628   1.138   2.281  15.036 -1.0044 -0.4145 -0.4327
  582TMC3    C5 8629   1.124   2.162  15.105 -0.0192 -0.7826  0.0861
  582TMC3    C6 8630   1.105   2.163  15.242  0.4378  0.0418  0.1137
  582TMC3     C 8631   1.054   2.505  15.034 -0.1654  0.5001 -0.2032
  582TMC3     O 8632   0.987   2.576  15.108  0.0750  0.0339 -0.3143
  582TMC3     H 8633   1.124   2.497  15.292 -0.7497  0.3596 -1.3885
  582TMC3    H1 8634   1.149   2.271  14.928 -0.8479 -2.8185 -0.1842
  582TMC3    H2 8635   1.082   2.075  15.300  1.0575 -0.3764 -0.2667
  582TMC3    C7 8636   1.019   2.086  15.038  0.0467  0.3131  0.5324
  582TMC3    C8 8637   1.078   2.283  15.445 -1.1988  0.2122 -0.2655
  582TMC3    O1 8638   1.049   2.053  14.924 -0.0004  0.6470  0.2104
  582TMC3    O2 8639   1.031   2.392  15.482  0.7184  1.0647 -0.0202
  583MPD2     C 8640   1.307   3.395  17.088 -0.1298 -0.3563 -0.5712
  583MPD2    C1 8641   1.266   3.467  16.976  0.2567  0.8025  0.4505
  583MPD2    C2 8642   1.184   3.575  16.989 -0.2214  0.3069  0.1003
  583MPD2    C3 8643   1.153   3.628  17.114  0.4275 -0.2647 -0.9388
  583MPD2    C4 8644   1.202   3.572  17.225  0.2961  0.0255  0.5906
  583MPD2    C5 8645   1.277   3.457  17.212 -0.0120  0.2137 -0.5746
  583MPD2     H 8646   1.152   3.628  16.900  2.7035  2.0936  0.1147
  583MPD2    H1 8647   1.183   3.611  17.324  1.8917 -0.0211  0.9226
  583MPD2    H2 8648   1.380   3.316  17.076 -0.7330 -1.0811  0.5941
  583MPD2    H3 8649   1.298   3.400  17.302  0.5275  0.5257 -0.5012
  583MPD2     N 8650   1.069   3.746  17.117 -0.2645 -0.1518  0.2029
  583MPD2    H5 8651   1.014   3.779  17.039 -0.7946  0.1166  0.6895
  583MPD2    N1 8652   1.324   3.445  16.849  1.2206 -0.8859 -0.3536
  583MPD2    H7 8653   1.302   3.517  16.782  0.0190  1.1484  2.2225
  584TMC3    C1 8654   0.967   3.938  17.208  0.5421 -0.0555  0.2307
  584TMC3    C2 8655   0.913   3.962  17.090 -0.2909 -0.7604 -0.0582
  584TMC3    C3 8656   0.842   4.071  17.072 -0.1945 -0.1335  0.3070
  584TMC3    C4 8657   0.962   4.026  17.308  0.4238  0.1518  0.5062
  584TMC3    C5 8658   0.889   4.138  17.292 -0.7696 -0.5221 -0.2683
  584TMC3    C6 8659   0.829   4.167  17.170  0.0983 -0.1876 -0.4069
  584TMC3     C 8660   1.056   3.828  17.229  0.8154  0.9768 -0.1289
  584TMC3     O 8661   1.120   3.835  17.332  0.0236  0.2659 -0.1045
  584TMC3     H 8662   0.913   3.895  17.004  2.1299 -0.0460 -0.6243
  584TMC3    H1 8663   0.990   4.008  17.411  2.6422  0.7916  0.0037
  584TMC3    H2 8664   0.764   4.252  17.154  1.5778  1.3179  1.5876
  584TMC3    C7 8665   0.825   4.193  17.402 -0.1566  0.2061 -0.3636
  584TMC3    C8 8666   0.805   4.114  16.932 -0.1822  0.3323  0.0307
  584TMC3    O1 8667   0.793   4.110  17.490  0.0958  0.1366 -0.2695
  584TMC3    O2 8668   0.794   4.034  16.843 -0.6942 -0.0148  0.0986
  585MPD2     C 8669   0.175   2.844   0.148  0.5012 -0.0283  0.2481
  585MPD2    C1 8670   0.301   2.858   0.084  0.3909 -0.5854 -0.2881
  585MPD2    C2 8671   0.338   2.773  17.685 -1.0742  0.9666  0.0767
  585MPD2    C3 8672   0.243   2.693  17.627  0.7994 -0.0831 -0.1268
  585MPD2    C4 8673   0.116   2.689  17.671 -0.6879 -0.4329  0.4832
  585MPD2    C5 8674   0.083   2.766   0.081  0.2956  0.7625  0.4224
  585MPD2     H 8675   0.438   2.774  17.642 -1.8838  0.8053 -1.7964
  585MPD2    H1 8676   0.046   2.618  17.627 -1.8382  0.5979  0.6602
  585MPD2    H2 8677   0.143   2.913   0.225 -1.4625 -1.3395  0.5987
  585MPD2    H3 8678   4.707   2.770   0.121 -1.2154 -0.7570 -3.2756
  585MPD2     N 8679   0.261   2.608  17.521  0.5130 -0.1929 -0.8873
  585MPD2    H5 8680   0.177   2.553  17.502 -0.1520  0.5653 -0.1321
  585MPD2    N1 8681   0.384   2.968   0.131  0.2354  1.0608  0.0376
  585MPD2    H7 8682   0.330   3.027   0.194  0.9482  0.1925  1.4548
  586TMC3    C1 8683   0.353   2.515  17.332 -0.8386  0.1914 -0.2178
  586TMC3    C2 8684   0.442   2.428  17.285 -0.4904  0.2363  0.4465
  586TMC3    C3 8685   0.397   2.360  17.171 -0.2236 -0.6222 -0.3343
  586TMC3    C4 8686   0.232   2.546  17.264  0.0036  0.4968 -0.2806
  586TMC3    C5 8687   0.198   2.480  17.146  0.3714 -0.5319  0.3167
  586TMC3    C6 8688   0.279   2.379  17.107  0.2014  0.6087  1.2183
  586TMC3     C 8689   0.377   2.589  17.448 -0.2813  0.1338 -0.0097
  586TMC3     O 8690   0.488   2.629  17.481 -0.1141 -0.0581 -0.4048
  586TMC3     H 8691   0.543   2.413  17.321 -0.0123 -1.2966 -1.5031
  586TMC3    H1 8692   0.161   2.617  17.306 -1.4583 -1.6180  0.8504
  586TMC3    H2 8693   0.239   2.327  17.021  2.0295  0.3097  0.5582
  586TMC3    C7 8694   0.072   2.488  17.086  0.6866  0.6221  0.0348
  586TMC3    C8 8695   0.455   2.230  17.158 -0.1346 -0.0095 -0.0611
  586TMC3    O1 8696   0.039   2.406  17.000 -0.2639  0.1787 -0.0709
  586TMC3    O2 8697   0.444   2.162  17.258 -0.6306  0.2204  0.3348
  587TMC3    C1 8698   2.180   1.264  16.550 -0.8349 -0.4927 -0.0509
  587TMC3    C2 8699   2.214   1.350  16.443 -0.0473 -0.5484 -0.2746
  587TMC3    C3 8700   2.335   1.338  16.377  0.5353  0.3952 -1.0658
  587TMC3    C4 8701   2.282   1.188  16.600  0.3182  0.0171 -0.4559
  587TMC3    C5 8702   2.399   1.185  16.540  0.3220 -0.4762  0.8600
  587TMC3    C6 8703   2.426   1.252  16.425  0.5100  0.7456  0.5355
  587TMC3     C 8704   2.061   1.279  16.634  0.9171 -0.5082 -0.4701
  587TMC3     O 8705   2.061   1.241  16.748 -0.6078  0.3388 -0.4337
  587TMC3     H 8706   2.140   1.415  16.397  0.1950 -1.0225 -1.3332
  587TMC3    H1 8707   2.264   1.118  16.680 -1.1775  0.4451 -0.4155
  587TMC3    H2 8708   2.524   1.239  16.381 -0.2954 -1.3386 -0.6694
  587TMC3    C7 8709   2.495   1.081  16.589  0.3384 -0.2862  0.2225
  587TMC3    C8 8710   2.387   1.458  16.307  0.6889  0.5791 -0.4631
  587TMC3    O1 8711   2.560   1.016  16.507 -0.0066  0.4340 -0.4306
  587TMC3    O2 8712   2.463   1.456  16.212  0.4074 -0.4538 -0.0905
  588TMC3    C1 8713   4.689   3.721   9.339  0.3916  0.1335  0.0605
  588TMC3    C2 8714   4.695   3.613   9.426  1.0455 -0.3886 -0.1360
  588TMC3    C3 8715   0.079   3.604   9.506  0.3345 -0.1922 -0.1107
  588TMC3    C4 8716   0.061   3.815   9.341 -0.8734  0.5208  0.5374
  588TMC3    C5 8717   0.162   3.814   9.437  0.0341 -0.2315 -0.7766
  588TMC3    C6 8718   0.171   3.708   9.528  0.3073 -0.1807  0.2393
  588TMC3     C 8719   4.556   3.778   9.333 -0.5434 -0.0070  0.9346
  588TMC3     O 8720   4.459   3.709   9.313  0.0070 -0.4639 -0.4833
  588TMC3     H 8721   4.612   3.544   9.426 -0.1282  1.0500 -2.9379
  588TMC3    H1 8722   0.070   3.883   9.257 -2.3270 -0.7827 -0.6710
  588TMC3    H2 8723   0.249   3.708   9.604 -0.2163  1.0935  0.7748
  588TMC3    C7 8724   0.165   3.950   9.491  0.4123 -0.0005 -0.7875
  588TMC3    C8 8725   0.112   3.465   9.554  0.4036 -0.5254  0.1946
  588TMC3    O1 8726   0.097   4.035   9.429 -0.8323  0.5138  0.2190
  588TMC3    O2 8727   0.093   3.371   9.472 -0.9872  0.5550 -0.2901
  589TMC3    C1 8728   3.240   1.474   1.292 -0.0151 -0.4604  0.2521
  589TMC3    C2 8729   3.326   1.561   1.362  0.0173  0.4268  0.7964
  589TMC3    C3 8730   3.455   1.511   1.391  0.4153  0.5802 -0.3435
  589TMC3    C4 8731   3.277   1.353   1.245 -0.6404 -0.2033  0.4881
  589TMC3    C5 8732   3.404   1.312   1.274 -0.3032 -0.5278 -0.6582
  589TMC3    C6 8733   3.494   1.388   1.349  0.7244  0.0914  0.7861
  589TMC3     C 8734   3.128   1.526   1.212 -0.1404 -0.1550  0.3488
  589TMC3     O 8735   3.070   1.442   1.143 -0.4822  0.1936  0.4349
  589TMC3     H 8736   3.296   1.659   1.400 -1.9378  0.7353 -1.5577
  589TMC3    H1 8737   3.205   1.283   1.205  0.1402 -0.4995 -0.4033
  589TMC3    H2 8738   3.591   1.347   1.376  2.0163  2.2580 -0.5354
  589TMC3    C7 8739   3.440   1.185   1.213 -0.5086  0.0837  0.9788
  589TMC3    C8 8740   3.553   1.615   1.428 -0.0735  0.0793  0.0038
  589TMC3    O1 8741   3.346   1.107   1.193 -0.1132 -0.0435 -0.4980
  589TMC3    O2 8742   3.508   1.727   1.463 -0.2279  0.3099  0.1329
  590MPD2     C 8743   2.846   4.261  16.047  0.1188  0.6475 -0.3383
  590MPD2    C1 8744   2.855   4.377  16.115  0.3255 -0.4086  0.3421
  590MPD2    C2 8745   2.981   4.430  16.142  0.0551  1.1089  0.0586
  590MPD2    C3 8746   3.093   4.361  16.113 -0.1606 -0.5249 -0.0357
  590MPD2    C4 8747   3.083   4.237  16.054  0.1764  0.7562 -0.1969
  590MPD2    C5 8748   2.956   4.193  16.020 -0.3037  0.1369 -0.2847
  590MPD2     H 8749   2.997   4.527  16.187  0.0867  1.4932 -0.7856
  590MPD2    H1 8750   3.176   4.183  16.044  0.1923  1.0534 -1.6958
  590MPD2    H2 8751   2.763   4.203  16.008 -1.4285  1.6384  1.4834
  590MPD2    H3 8752   2.950   4.103  15.960  1.2659 -0.9694  1.2505
  590MPD2     N 8753   3.210   4.428  16.143  0.4553 -0.4703  0.0411
  590MPD2    H5 8754   3.199   4.519  16.187 -3.7991 -0.8436 -0.1932
  590MPD2    N1 8755   2.737   4.452  16.134  0.4413 -0.1123  0.3388
  590MPD2    H7 8756   2.656   4.413  16.086 -0.2534  0.6822  0.8554
  591TMC3    C1 8757   3.437   4.500  16.109 -0.9798 -0.1069 -0.6008
  591TMC3    C2 8758   3.518   4.510  16.001  0.2649 -0.2518  0.4753
  591TMC3    C3 8759   3.580   4.633  15.978  0.3230 -0.0470  0.6206
  591TMC3    C4 8760   3.423   4.605  16.200 -0.9732  0.0793 -1.0072
  591TMC3    C5 8761   3.484   4.722  16.177 -0.1602  0.4003  0.0699
  591TMC3    C6 8762   3.572   0.008  16.064 -0.7802 -0.3647  0.2205
  591TMC3     C 8763   3.329   4.399  16.089  0.2207 -1.1117  0.5772
  591TMC3     O 8764   3.356   4.309  16.006 -0.2685 -0.2040  0.5796
  591TMC3     H 8765   3.533   4.430  15.929  1.1254 -0.1254  0.5081
  591TMC3    H1 8766   3.372   4.590  16.295  0.1552 -1.1811 -0.5981
  591TMC3    H2 8767   3.634   0.095  16.048 -0.7451 -0.4967 -0.3822
  591TMC3    C7 8768   3.475   0.106  16.276 -0.4379  0.8999  0.0804
  591TMC3    C8 8769   3.642   4.656  15.849 -0.0326 -0.0116 -0.4710
  591TMC3    O1 8770   3.414   0.089  16.379  0.4511 -0.0504  0.9485
  591TMC3    O2 8771   3.685   4.556  15.798 -0.0144  0.1590 -0.0691
  592MPD2     C 8772   4.302   1.908  11.296 -0.8044  1.0532  0.8536
  592MPD2    C1 8773   4.269   1.939  11.428  0.2644  0.2996 -0.4333
  592MPD2    C2 8774   4.190   1.854  11.509 -0.6931  0.5736 -0.5613
  592MPD2    C3 8775   4.139   1.737  11.463 -0.1533  0.7328 -0.2237
  592MPD2    C4 8776   4.183   1.697  11.337  1.2818 -0.4218 -0.2908
  592MPD2    C5 8777   4.261   1.781  11.253 -0.4490  0.0358 -0.0366
  592MPD2     H 8778   4.157   1.885  11.607  0.3132 -1.7719  0.5159
  592MPD2    H1 8779   4.167   1.604  11.284  1.3207 -0.8337  0.4240
  592MPD2    H2 8780   4.366   1.968  11.233 -0.1633  0.5166  0.9936
  592MPD2    H3 8781   4.299   1.740  11.160  0.4711 -0.0503  0.3845
  592MPD2     N 8782   4.063   1.662  11.554 -0.2789  0.1164  0.1232
  592MPD2    H5 8783   4.043   1.695  11.647  3.5832  1.8404  0.3308
  592MPD2    N1 8784   4.317   2.066  11.468  0.7655  0.2248  0.0574
  592MPD2    H7 8785   4.347   2.125  11.391  0.1600 -2.2566 -2.0505
  593TMC3    C1 8786   4.341   2.257  11.609  0.5724  0.3340 -0.0748
  593TMC3    C2 8787   4.291   2.317  11.721 -0.0756 -0.2291  0.2880
  593TMC3    C3 8788   4.293   2.453  11.728  0.3028  0.6683 -0.0676
  593TMC3    C4 8789   4.407   2.320  11.510  0.0031  0.5779 -0.0649
  593TMC3    C5 8790   4.399   2.458  11.521  0.2630 -0.4025 -0.9895
  593TMC3    C6 8791   4.357   2.526  11.628 -0.2259  0.0428 -0.2752
  593TMC3     C 8792   4.318   2.113  11.602  1.0180  0.3499 -0.1889
  593TMC3     O 8793   4.307   2.047  11.706 -1.1324 -0.2215 -0.0241
  593TMC3     H 8794   4.252   2.261  11.806  2.8612 -1.0840  1.0496
  593TMC3    H1 8795   4.455   2.269  11.427  1.0225 -1.1293  1.5637
  593TMC3    H2 8796   4.362   2.633  11.641  2.3633  0.2247 -2.6956
  593TMC3    C7 8797   4.460   2.543  11.425 -0.4696 -0.1793 -0.2549
  593TMC3    C8 8798   4.264   2.509  11.860  0.3354 -0.4305 -0.4853
  593TMC3    O1 8799   4.484   2.660  11.455 -0.0130  0.0692  0.7947
  593TMC3    O2 8800   4.179   2.448  11.926 -0.2158  0.2093 -0.1652
  594MPD2     C 8801   2.590   0.981  14.011 -0.2633 -0.2368  0.1242
  594MPD2    C1 8802   2.567   0.984  14.151  0.0054  0.2646 -0.6188
  594MPD2    C2 8803   2.646   1.067  14.234  0.9968  0.2724  0.4443
  594MPD2    C3 8804   2.752   1.146  14.178 -1.0534  0.2040 -0.5555
  594MPD2    C4 8805   2.763   1.148  14.041  0.5276 -0.2426 -0.4229
  594MPD2    C5 8806   2.684   1.065  13.959 -0.7776 -0.4308  0.1048
  594MPD2     H 8807   2.631   1.082  14.340 -2.5836 -2.8305  0.3483
  594MPD2    H1 8808   2.834   1.214  13.991  1.6140 -0.5572  0.6845
  594MPD2    H2 8809   2.529   0.936  13.934  0.6426  1.0103 -1.3150
  594MPD2    H3 8810   2.696   1.061  13.851 -0.7254  0.0891  0.0936
  594MPD2     N 8811   2.807   1.234  14.271  0.1979 -0.0736 -0.0633
  594MPD2    H5 8812   2.794   1.216  14.370  0.0188  1.6899  0.2391
  594MPD2    N1 8813   2.449   0.918  14.201 -0.3772 -0.5824 -0.2871
  594MPD2    H7 8814   2.382   0.881  14.136 -0.9722 -0.7280  0.4112
  595TMC3    C1 8815   3.069   1.477  14.525 -0.4279 -0.2747 -0.5874
  595TMC3    C2 8816   3.055   1.428  14.397  0.1282 -0.2098 -0.2911
  595TMC3    C3 8817   2.928   1.390  14.368  0.1361  0.6425  0.2539
  595TMC3    C4 8818   2.967   1.485  14.619  0.2419  0.2400  0.1024
  595TMC3    C5 8819   2.840   1.452  14.579  0.5943 -0.3785  0.9939
  595TMC3    C6 8820   2.815   1.413  14.450  1.5824 -0.2642 -0.3898
  595TMC3     C 8821   3.203   1.498  14.577  0.4730 -0.0575  0.3641
  595TMC3     O 8822   3.221   1.509  14.698 -1.0407  0.3071 -0.3601
  595TMC3     H 8823   3.138   1.396  14.334  0.3942  3.1923 -1.6332
  595TMC3    H1 8824   2.992   1.529  14.715  1.0502  0.6015 -0.2705
  595TMC3    H2 8825   2.712   1.402  14.417  1.1980 -0.1182  0.7429
  595TMC3    C7 8826   2.725   1.489  14.660 -0.5065 -0.6919  0.1508
  595TMC3    C8 8827   2.902   1.324  14.241 -0.1344 -0.0288 -0.7487
  595TMC3    O1 8828   2.613   1.489  14.606 -0.6618  0.3503 -0.1037
  595TMC3    O2 8829   2.976   1.332  14.143  0.3272  0.4824 -0.7173
  596MPD2     C 8830   2.000   3.880  16.904 -0.0507 -0.0331  0.5410
  596MPD2    C1 8831   1.935   3.960  16.823 -0.5520  0.4747  0.3771
  596MPD2    C2 8832   1.962   3.942  16.684 -0.0180  0.2351 -0.5537
  596MPD2    C3 8833   2.030   3.826  16.640 -0.5407 -0.3184 -0.3931
  596MPD2    C4 8834   2.103   3.752  16.725 -0.3444 -0.1230  0.4020
  596MPD2    C5 8835   2.086   3.784  16.859 -0.6969  0.4456  0.2945
  596MPD2     H 8836   1.923   4.014  16.614 -0.2061 -0.3293 -1.0368
  596MPD2    H1 8837   2.162   3.666  16.695  1.2529  0.9989  0.2928
  596MPD2    H2 8838   2.007   3.906  17.010  1.7939  0.7949  0.2081
  596MPD2    H3 8839   2.149   3.735  16.933 -1.5112 -1.6062 -0.3813
  596MPD2     N 8840   2.039   3.786  16.504  0.1660 -0.0024 -0.3300
  596MPD2    H5 8841   2.104   3.712  16.479  0.2781  0.4648 -1.4452
  596MPD2    N1 8842   1.856   4.068  16.855  0.6590  0.1820  0.5785
  596MPD2    H7 8843   1.827   4.117  16.771  1.8538 -4.7181 -2.6852
  597TMC3    C1 8844   1.695   4.187  16.961  0.0974  0.0916 -0.1666
  597TMC3    C2 8845   1.664   4.247  16.842  0.2089 -0.2095 -0.0236
  597TMC3    C3 8846   1.557   4.333  16.839 -0.0837 -0.4035  0.2387
  597TMC3    C4 8847   1.628   4.220  17.075 -0.0797  0.4738 -0.2531
  597TMC3    C5 8848   1.538   4.317  17.072  0.4775  0.8644  0.2710
  597TMC3    C6 8849   1.490   4.364  16.951 -0.6826  0.3691  0.2176
  597TMC3     C 8850   1.803   4.094  16.976 -0.4534 -0.1147 -0.2789
  597TMC3     O 8851   1.829   4.046  17.086 -0.2960 -0.6252  0.3731
  597TMC3     H 8852   1.679   4.198  16.746 -0.0073  0.5890 -0.4628
  597TMC3    H1 8853   1.664   4.176  17.167  1.9164  1.8876 -0.3705
  597TMC3    H2 8854   1.411   4.439  16.955 -1.6074 -0.5289 -0.9544
  597TMC3    C7 8855   1.459   4.319  17.193 -0.5147  0.1326 -0.0324
  597TMC3    C8 8856   1.524   4.408  16.715  0.1136 -0.7787 -0.6974
  597TMC3    O1 8857   1.476   4.233  17.280  0.6935  0.1054 -0.4103
  597TMC3    O2 8858   1.408   4.438  16.691  0.5689 -0.0749  0.3131
  598TMC3    C1 8859   4.673   0.445  15.574  0.9183 -0.4444  0.5986
  598TMC3    C2 8860   4.584   0.455  15.471  0.3101  0.0796  0.9453
  598TMC3    C3 8861   4.593   0.554  15.376  0.3104 -0.1342  0.3365
  598TMC3    C4 8862   0.047   0.535  15.580 -0.5588 -0.0762  0.1667
  598TMC3    C5 8863   0.057   0.641  15.490 -0.0146 -0.3691  0.2553
  598TMC3    C6 8864   4.691   0.648  15.384 -0.0568  0.3332 -0.0849
  598TMC3     C 8865   4.652   0.353  15.683 -0.3713 -0.4900  0.0309
  598TMC3     O 8866   4.550   0.288  15.685 -0.3383  0.0854 -0.0295
  598TMC3     H 8867   4.499   0.388  15.479 -0.3774  1.3778  4.4665
  598TMC3    H1 8868   0.110   0.542  15.668 -0.1515  0.4270 -0.1680
  598TMC3    H2 8869   4.705   0.712  15.298 -1.8178  0.4770 -0.2573
  598TMC3    C7 8870   0.186   0.707  15.479 -0.0382  0.4936  0.6629
  598TMC3    C8 8871   4.479   0.581  15.294 -0.2203 -0.7947 -0.4163
  598TMC3    O1 8872   0.277   0.659  15.543  0.0907  0.2572 -0.9112
  598TMC3    O2 8873   4.457   0.692  15.245  0.3828  0.5092 -0.4337
  599MPD2     C 8874   4.362   3.041  15.684  0.1864  0.6354 -0.2347
  599MPD2    C1 8875   4.435   3.066  15.792  0.2507 -0.5404 -0.2921
  599MPD2    C2 8876   4.365   3.100  15.910  0.0296 -0.2668  0.2659
  599MPD2    C3 8877   4.226   3.082  15.923  0.3127 -0.9977  0.4179
  599MPD2    C4 8878   4.158   3.066  15.802  0.6633 -0.9019  0.6437
  599MPD2    C5 8879   4.224   3.041  15.684  0.9419 -0.0283 -0.1044
  599MPD2     H 8880   4.426   3.118  15.998  1.3009  0.4195 -0.7700
  599MPD2    H1 8881   4.050   3.071  15.792  1.0334  0.1109 -2.8078
  599MPD2    H2 8882   4.410   3.023  15.589 -1.8303  1.2894 -1.3741
  599MPD2    H3 8883   4.176   3.025  15.588 -0.5233 -0.7314  0.7333
  599MPD2     N 8884   4.152   3.083  16.040 -0.1146  0.1312  0.4311
  599MPD2    H5 8885   4.061   3.040  16.027 -0.0343  0.6433 -1.8299
  599MPD2    N1 8886   4.578   3.056  15.780  0.0639 -0.0176 -0.4059
  599MPD2    H7 8887   4.617   3.012  15.697  0.4704 -1.4367  0.5223
  600TMC3    C1 8888   4.104   3.114  16.268 -0.4365 -1.1186  0.3689
  600TMC3    C2 8889   4.017   3.003  16.264 -0.9944 -0.0243  0.2879
  600TMC3    C3 8890   3.936   2.990  16.367  0.2988 -0.9065  0.3791
  600TMC3    C4 8891   4.104   3.208  16.365 -0.2988 -0.2822 -0.7775
  600TMC3    C5 8892   4.014   3.194  16.470  0.3987  0.3972  0.7330
  600TMC3    C6 8893   3.932   3.081  16.467  0.2845 -0.2111  0.5961
  600TMC3     C 8894   4.200   3.137  16.156  0.2067  0.0269 -0.2891
  600TMC3     O 8895   4.289   3.217  16.170  0.1303  0.1121 -0.1311
  600TMC3     H 8896   4.037   2.927  16.190 -1.4317 -0.6757  0.8471
  600TMC3    H1 8897   4.172   3.292  16.364 -1.2088  0.4594  0.0079
  600TMC3    H2 8898   3.865   3.058  16.549 -2.8121  1.1975 -1.5512
  600TMC3    C7 8899   3.997   3.294  16.571  0.1871  0.2911 -0.2714
  600TMC3    C8 8900   3.868   2.866  16.376 -0.2749 -0.2389 -0.1904
  600TMC3    O1 8901   3.907   3.270  16.651 -0.4423 -0.2737 -0.7820
  600TMC3    O2 8902   3.841   2.822  16.487  0.4791 -0.3454  0.1018
  601MPD2     C 8903   1.720   0.515  17.675  0.1875  0.2746  0.5644
  601MPD2    C1 8904   1.793   0.608  17.600 -0.7823  0.4721 -0.1172
  601MPD2    C2 8905   1.929   0.604  17.601  0.4085 -0.7876  0.3031
  601MPD2    C3 8906   2.001   0.500  17.667  0.2750 -0.6227  0.1956
  601MPD2    C4 8907   1.920   0.421   0.047 -0.1881 -0.6492 -0.9161
  601MPD2    C5 8908   1.786   0.444   0.060  0.3417 -0.7379  0.0464
  601MPD2     H 8909   1.978   0.675  17.536 -1.0728 -1.2838 -1.3534
  601MPD2    H1 8910   1.962   0.340   0.105 -0.8700  0.0382  0.5186
  601MPD2    H2 8911   1.612   0.511  17.681  0.2613 -1.5320  0.7880
  601MPD2    H3 8912   1.728   0.372   0.117 -0.3816  0.7027  1.1168
  601MPD2     N 8913   2.139   0.486  17.667 -0.2094  0.1869  0.0165
  601MPD2    H5 8914   2.173   0.410   0.023 -0.2475  0.0695 -0.1129
  601MPD2    N1 8915   1.732   0.700  17.517  0.5710 -0.3201 -0.4775
  601MPD2    H7 8916   1.796   0.764  17.470 -0.9610  2.2772  0.9326
  602TMC3    C1 8917   1.572   0.860  17.448 -0.8195 -0.7180  0.3850
  602TMC3    C2 8918   1.457   0.924  17.484  0.5391 -0.2406 -0.8154
  602TMC3    C3 8919   1.445   1.054  17.436 -0.6301 -0.2077  0.2179
  602TMC3    C4 8920   1.658   0.914  17.360  1.0573 -0.1989 -0.0681
  602TMC3    C5 8921   1.643   1.039  17.314  0.3853  0.1476 -0.1891
  602TMC3    C6 8922   1.532   1.118  17.353  0.3760 -0.6350 -0.6115
  602TMC3     C 8923   1.601   0.732  17.512 -0.1564 -0.2106  0.0209
  602TMC3     O 8924   1.510   0.697  17.581 -0.1586 -0.0032 -0.1499
  602TMC3     H 8925   1.385   0.887  17.556  1.4184 -0.9058 -0.2813
  602TMC3    H1 8926   1.739   0.856  17.317  0.8531 -1.9843  1.9362
  602TMC3    H2 8927   1.493   1.198  17.290  0.5428 -0.4765 -0.5145
  602TMC3    C7 8928   1.755   1.104  17.248 -0.2404 -0.3836 -0.4098
  602TMC3    C8 8929   1.325   1.129  17.475  0.0069 -0.0967 -0.0399
  602TMC3    O1 8930   1.859   1.038  17.233  0.1138  0.2961 -0.5277
  602TMC3    O2 8931   1.228   1.057  17.505  0.4647  0.0254 -0.0868
  603TMC3    C1 8932   0.640   1.333  11.035 -0.1256  0.3488 -0.5206
  603TMC3    C2 8933   0.663   1.375  11.163  0.3567 -0.2253 -0.4921
  603TMC3    C3 8934   0.624   1.508  11.188 -0.2706  0.0272  0.0884
  603TMC3    C4 8935   0.595   1.412  10.934  0.0120  0.3449  0.1414
  603TMC3    C5 8936   0.566   1.543  10.966  0.0161 -0.5824 -0.8207
  603TMC3    C6 8937   0.580   1.592  11.091 -0.3315  0.0868 -0.0910
  603TMC3     C 8938   0.678   1.194  11.012  0.0002 -0.4376  0.4639
  603TMC3     O 8939   0.774   1.153  11.080  0.1914 -0.2100 -0.1644
  603TMC3     H 8940   0.698   1.306  11.239  0.3485 -0.1141 -0.3892
  603TMC3    H1 8941   0.560   1.374  10.839  1.6782  0.7321 -0.6292
  603TMC3    H2 8942   0.519   1.678  11.116  0.7457  0.6034  0.7440
  603TMC3    C7 8943   0.482   1.625  10.877 -0.3296 -0.5981 -0.4133
  603TMC3    C8 8944   0.602   1.532  11.327 -0.4398  0.1951 -0.1119
  603TMC3    O1 8945   0.492   1.746  10.887 -0.0465  0.1389  0.3251
  603TMC3    O2 8946   0.611   1.440  11.403  0.5975 -0.3850  0.1840
  604MPD2     C 8947   0.379   4.345  16.492 -0.2891  0.0874  0.0294
  604MPD2    C1 8948   0.404   4.458  16.415  1.1513  0.5161 -0.4460
  604MPD2    C2 8949   0.439   4.437  16.283 -0.4340 -0.1001  0.1261
  604MPD2    C3 8950   0.444   4.307  16.232  0.5228 -0.2619 -0.1802
  604MPD2    C4 8951   0.408   4.193  16.310  0.1572 -0.2375 -0.2367
  604MPD2    C5 8952   0.371   4.221  16.437  0.2209  0.4702  0.4608
  604MPD2     H 8953   0.459   4.523  16.220  1.6827 -1.3430 -0.8979
  604MPD2    H1 8954   0.426   4.091  16.276 -1.2028 -0.5192 -0.1156
  604MPD2    H2 8955   0.360   4.364  16.598 -0.6861 -1.3843  0.2156
  604MPD2    H3 8956   0.352   4.138  16.505  0.1683  0.8637  0.9255
  604MPD2     N 8957   0.471   4.293  16.094  0.2659 -0.1229 -0.8666
  604MPD2    H5 8958   0.475   4.382  16.046  2.1397  0.6761  0.7688
  604MPD2    N1 8959   0.390   4.589  16.473  0.4258 -0.1298 -0.5159
  604MPD2    H7 8960   0.360   4.598  16.569  2.2056 -0.0630  0.0263
  605TMC3    C1 8961   0.366   0.095  16.485  0.2205  0.2006  0.1669
  605TMC3    C2 8962   0.440   0.206  16.456  0.6268 -0.0122 -0.0408
  605TMC3    C3 8963   0.451   0.296  16.559  0.1724 -0.0035 -0.0289
  605TMC3    C4 8964   0.296   0.076  16.607 -0.5444 -0.3859  0.4592
  605TMC3    C5 8965   0.315   0.170  16.700  0.7796 -0.2169 -0.7676
  605TMC3    C6 8966   0.377   0.288  16.676  0.2896  0.4813  0.1311
  605TMC3     C 8967   0.390   4.705  16.401  0.1780  0.0306  0.1118
  605TMC3     O 8968   0.427   0.004  16.285 -0.4345 -0.3372 -0.6506
  605TMC3     H 8969   0.472   0.222  16.353  1.6330  0.9790  0.4293
  605TMC3    H1 8970   0.217   0.003  16.602  0.6927 -1.7795  1.2204
  605TMC3    H2 8971   0.412   0.356  16.754 -0.0616  1.0584 -0.2176
  605TMC3    C7 8972   0.195   0.212  16.772  0.9811 -0.1952  0.8189
  605TMC3    C8 8973   0.510   0.424  16.522 -0.1335 -0.3481  0.2526
  605TMC3    O1 8974   0.184   0.332  16.803  0.1195  0.1017 -0.3112
  605TMC3    O2 8975   0.573   0.421  16.418  0.6857  0.3763  0.1756
  606TMC3    C1 8976   2.409   2.827  16.693  0.0797  0.5282 -0.2615
  606TMC3    C2 8977   2.459   2.923  16.783  0.6465  0.7658  0.9391
  606TMC3    C3 8978   2.382   2.932  16.898 -0.4248 -0.4972 -0.0140
  606TMC3    C4 8979   2.296   2.751  16.711  0.2743 -0.2218 -0.4144
  606TMC3    C5 8980   2.226   2.770  16.825 -1.0151 -1.0483 -0.3671
  606TMC3    C6 8981   2.278   2.845  16.933  0.1832  0.5960 -0.0609
  606TMC3     C 8982   2.493   2.807  16.576 -0.6735  0.4724 -0.7447
  606TMC3     O 8983   2.556   2.904  16.536 -0.0903  0.0482  0.5469
  606TMC3     H 8984   2.554   2.970  16.766 -1.2484  4.3723  0.2927
  606TMC3    H1 8985   2.254   2.688  16.633  2.6264 -1.9423 -0.2630
  606TMC3    H2 8986   2.216   2.869  17.019  0.6635 -1.2317  0.7988
  606TMC3    C7 8987   2.090   2.800  16.791  0.1561 -0.2809  0.4146
  606TMC3    C8 8988   2.417   3.027  17.007 -0.2332 -0.1998 -0.5039
  606TMC3    O1 8989   2.076   2.838  16.675  0.2938 -0.3135 -0.1163
  606TMC3    O2 8990   2.374   3.012  17.121  0.0433 -0.0880  0.5257
  607MPD2     C 8991   4.715   1.340  12.002 -0.5355  0.0853  0.1886
  607MPD2    C1 8992   4.591   1.397  12.010  0.0225  0.3623  0.5906
  607MPD2    C2 8993   4.484   1.329  12.065 -0.3364  0.6504 -0.0623
  607MPD2    C3 8994   4.505   1.207  12.129  0.6855  0.2312  0.2293
  607MPD2    C4 8995   4.624   1.147  12.112  0.0463 -0.3306 -0.5818
  607MPD2    C5 8996   0.004   1.215  12.054  0.3502 -0.3165  0.0884
  607MPD2     H 8997   4.388   1.378  12.077 -0.0410  1.2207 -0.0327
  607MPD2    H1 8998   4.641   1.050  12.158 -0.7924  0.3587  1.2138
  607MPD2    H2 8999   0.072   1.394  11.957 -0.6102  1.6416  1.9065
  607MPD2    H3 9000   0.101   1.166  12.050  0.4356 -0.0743 -0.6834
  607MPD2     N 9001   4.399   1.145  12.203 -0.1794 -0.0849 -0.0518
  607MPD2    H5 9002   4.320   1.208  12.217  0.6360  0.6555  1.2085
  607MPD2    N1 9003   4.565   1.532  11.973  0.5195  0.9254 -0.2870
  607MPD2    H7 9004   4.473   1.571  11.989 -0.3128 -0.7952 -0.8676
  608TMC3    C1 9005   4.610   1.760  11.944 -0.4222  0.4758  0.4201
  608TMC3    C2 9006   4.540   1.784  12.055 -0.2398 -0.7192 -0.5765
  608TMC3    C3 9007   4.502   1.911  12.071 -0.8033  0.1309 -0.2401
  608TMC3    C4 9008   4.668   1.863  11.870 -0.5036  0.4236 -0.4829
  608TMC3    C5 9009   4.616   1.991  11.891  0.0572 -0.5895 -1.3820
  608TMC3    C6 9010   4.522   2.019  11.989  0.7127 -0.0609  0.5869
  608TMC3     C 9011   4.657   1.625  11.921 -0.0730  0.2822  0.9131
  608TMC3     O 9012   0.045   1.611  11.875 -0.6653  0.1209  0.6289
  608TMC3     H 9013   4.520   1.708  12.129  3.0374 -0.3826  0.6448
  608TMC3    H1 9014   0.017   1.837  11.796 -0.5200 -0.1074 -0.3145
  608TMC3    H2 9015   4.480   2.116  12.016  0.4480  0.4867 -1.7671
  608TMC3    C7 9016   4.667   2.098  11.808  0.0526 -1.0209 -0.2969
  608TMC3    C8 9017   4.407   1.931  12.180 -0.1124 -0.3457 -0.0717
  608TMC3    O1 9018   4.724   2.068  11.704 -0.0630  0.0947 -0.4733
  608TMC3    O2 9019   4.381   2.043  12.216 -0.0328  0.2378  0.2036
  609TMC3    C1 9020   2.850   4.551   9.561  0.3795 -0.1385 -0.4388
  609TMC3    C2 9021   2.879   4.436   9.486 -1.1082  0.8058  0.2438
  609TMC3    C3 9022   3.003   4.381   9.502  0.7054 -0.7685 -0.4551
  609TMC3    C4 9023   2.937   4.610   9.644  0.1739  0.1452  0.2271
  609TMC3    C5 9024   3.063   4.548   9.661  0.0818 -0.1201 -0.1622
  609TMC3    C6 9025   3.098   4.442   9.584 -0.3026  0.4787  0.2543
  609TMC3     C 9026   2.719   4.610   9.545 -0.3953 -0.4736 -0.2975
  609TMC3     O 9027   2.672   4.679   9.634 -0.6726  0.4368  0.1727
  609TMC3     H 9028   2.798   4.384   9.436 -0.9449 -0.8444  1.7280
  609TMC3    H1 9029   2.915   4.700   9.699  2.0005  0.8134 -0.1700
  609TMC3    H2 9030   3.183   4.380   9.612  0.5490  1.9432  0.9014
  609TMC3    C7 9031   3.161   4.618   9.739  0.0052  0.0824 -0.3502
  609TMC3    C8 9032   3.030   4.249   9.452 -0.6694  0.3777  0.5557
  609TMC3    O1 9033   3.199   4.721   9.682 -0.2446  0.0352  0.4931
  609TMC3    O2 9034   3.098   4.169   9.517  0.8426  0.2169 -0.7054
  610TMC3    C1 9035   4.364   2.019  13.202  0.6336 -0.4671 -0.2171
  610TMC3    C2 9036   4.479   2.094  13.210 -0.3362  0.6515 -0.3656
  610TMC3    C3 9037   4.585   2.050  13.135  0.5943  0.0582  0.2271
  610TMC3    C4 9038   4.359   1.920  13.113 -0.7607 -0.1839 -0.4200
  610TMC3    C5 9039   4.471   1.871  13.049 -0.1870  0.2789  0.4003
  610TMC3    C6 9040   4.591   1.932  13.070 -0.3297 -0.3398  0.1163
  610TMC3     C 9041   4.234   2.075  13.239  0.0991  0.3947 -0.5864
  610TMC3     O 9042   4.148   2.083  13.153  0.0580 -0.9396 -0.3773
  610TMC3     H 9043   4.489   2.186  13.266  0.5259  1.3460 -1.6326
  610TMC3    H1 9044   4.266   1.864  13.108 -1.2255  0.5675 -0.2250
  610TMC3    H2 9045   4.682   1.891  13.027 -1.2303 -0.2292 -1.9034
  610TMC3    C7 9046   4.464   1.737  12.988  0.1797  0.6958  0.0823
  610TMC3    C8 9047   4.716   2.109  13.169  0.0499 -0.3057 -0.3401
  610TMC3    O1 9048   4.559   1.704  12.919 -0.1989 -0.3357  0.5637
  610TMC3    O2 9049   0.025   2.121  13.287 -0.6155 -0.1182  0.4881
  611MPD2     C 9050   4.182   1.063   9.659  0.1647  0.2868 -0.6068
  611MPD2    C1 9051   4.184   1.186   9.716 -0.3581 -0.9990  0.1790
  611MPD2    C2 9052   4.270   1.210   9.817  0.2860  0.4254  0.4220
  611MPD2    C3 9053   4.365   1.113   9.855 -0.7441  0.3348 -0.5925
  611MPD2    C4 9054   4.369   0.991   9.787 -0.0329  0.6360  0.2465
  611MPD2    C5 9055   4.273   0.969   9.690  0.0234 -0.3401  0.1286
  611MPD2     H 9056   4.269   1.305   9.870  4.0797 -0.2267  1.6967
  611MPD2    H1 9057   4.442   0.918   9.819  0.8799  0.7628 -1.5847
  611MPD2    H2 9058   4.114   1.040   9.578  0.5725 -0.8232 -0.6371
  611MPD2    H3 9059   4.273   0.873   9.639 -0.9106 -0.2146 -0.1063
  611MPD2     N 9060   4.468   1.134   9.951 -0.0911  0.4645 -0.0388
  611MPD2    H5 9061   4.530   1.055   9.966  0.0984  0.0564 -2.9654
  611MPD2    N1 9062   4.088   1.281   9.672 -0.0048 -0.2592 -0.6052
  611MPD2    H7 9063   4.016   1.254   9.605 -2.3810  3.0906  0.5537
  612TMC3    C1 9064   4.554   1.216  10.161  0.1866 -0.6361  0.0455
  612TMC3    C2 9065   4.576   1.327  10.231  0.3747  0.2597 -0.0421
  612TMC3    C3 9066   4.680   1.338  10.310  0.9774 -0.1355 -0.0308
  612TMC3    C4 9067   4.648   1.119  10.153 -0.6108 -0.0060  0.4624
  612TMC3    C5 9068   0.037   1.136  10.227 -0.5008 -0.1845  0.3708
  612TMC3    C6 9069   0.056   1.242  10.313 -0.3239  0.6219 -0.4452
  612TMC3     C 9070   4.459   1.233  10.048  0.4481 -0.5360  0.3079
  612TMC3     O 9071   4.401   1.339  10.046 -0.3286 -0.4081  0.5057
  612TMC3     H 9072   4.512   1.414  10.224 -1.2247 -0.8516  0.8367
  612TMC3    H1 9073   4.632   1.033  10.090  0.3449  0.4168 -0.3604
  612TMC3    H2 9074   0.154   1.258  10.358 -1.0183  1.3902  0.7882
  612TMC3    C7 9075   0.130   1.021  10.236 -0.5806  0.0822  0.5567
  612TMC3    C8 9076   4.695   1.465  10.383  0.0479 -0.5217  0.2730
  612TMC3    O1 9077   0.160   0.999  10.351 -0.2175  0.4025  0.4395
  612TMC3    O2 9078   4.617   1.555  10.360  0.2193  0.3310  1.1188
  613MPD2     C 9079   3.311   3.498  16.075  0.5432  0.1386 -0.4377
  613MPD2    C1 9080   3.280   3.568  15.966  0.6116 -0.0023 -0.3851
  613MPD2    C2 9081   3.256   3.495  15.854 -0.5669 -0.3503  0.3928
  613MPD2    C3 9082   3.271   3.361  15.845  0.1699  0.1003  0.1297
  613MPD2    C4 9083   3.298   3.294  15.961  0.1920 -0.5489  0.1652
  613MPD2    C5 9084   3.316   3.365  16.077 -0.3057 -0.2026 -0.7486
  613MPD2     H 9085   3.238   3.548  15.762 -0.0617 -0.4437  0.2377
  613MPD2    H1 9086   3.302   3.186  15.954  2.1111 -0.4813  0.3319
  613MPD2    H2 9087   3.326   3.551  16.168 -0.5634  0.2533 -0.3303
  613MPD2    H3 9088   3.346   3.313  16.167  3.0607  0.0230 -1.7342
  613MPD2     N 9089   3.276   3.301  15.717 -0.1428  0.5684  0.2003
  613MPD2    H5 9090   3.262   3.362  15.637  0.3304  0.0361 -0.2929
  613MPD2    N1 9091   3.290   3.712  15.965 -0.9563 -0.0746  0.1926
  613MPD2    H7 9092   3.351   3.752  16.036 -1.5034  2.7303 -0.9142
  614TMC3    C1 9093   3.305   3.905  15.848  0.3021  0.9087  0.1407
  614TMC3    C2 9094   3.403   3.859  15.768  0.4575 -0.7459 -0.5037
  614TMC3    C3 9095   3.400   3.893  15.634  0.7496  1.0989  0.1331
  614TMC3    C4 9096   3.226   4.003  15.796 -0.4720  0.7926 -0.2226
  614TMC3    C5 9097   3.241   4.056  15.666 -0.4153  0.3613  0.0892
  614TMC3    C6 9098   3.327   3.995  15.580 -0.1901  0.1820  0.5148
  614TMC3     C 9099   3.230   3.789  15.869 -0.1628  0.4619 -0.5750
  614TMC3     O 9100   3.139   3.761  15.791 -0.3709 -0.2674  0.3220
  614TMC3     H 9101   3.471   3.782  15.802  2.3562  1.3631  0.4629
  614TMC3    H1 9102   3.157   4.049  15.865 -0.2874  0.8247 -0.0579
  614TMC3    H2 9103   3.329   4.018  15.474  0.6476  0.8731  0.6858
  614TMC3    C7 9104   3.121   4.117  15.614 -0.1967 -0.2061 -0.1026
  614TMC3    C8 9105   3.447   3.790  15.549  0.0734  0.0372  1.0283
  614TMC3    O1 9106   3.053   4.187  15.692 -0.7289  0.1671 -0.4078
  614TMC3    O2 9107   3.433   3.676  15.591 -0.2182 -0.2861 -0.4554
  615MPD2     C 9108   1.911   0.420  15.691 -0.8841  0.2513  0.3354
  615MPD2    C1 9109   1.977   0.536  15.722 -0.5283  0.2637  0.5769
  615MPD2    C2 9110   1.904   0.648  15.748  0.3453 -0.1767 -0.5038
  615MPD2    C3 9111   1.765   0.652  15.728 -0.1091  0.3153  0.4921
  615MPD2    C4 9112   1.703   0.535  15.702 -0.0531 -0.4372  0.2683
  615MPD2    C5 9113   1.775   0.416  15.690  0.1999  0.3155 -0.0650
  615MPD2     H 9114   1.960   0.736  15.777 -2.7539  2.0130 -1.1893
  615MPD2    H1 9115   1.596   0.537  15.682  0.4803  1.7384 -2.3533
  615MPD2    H2 9116   1.957   0.322  15.690  2.0618  1.6673 -2.7957
  615MPD2    H3 9117   1.725   0.325  15.659  2.5745 -1.8180  2.4515
  615MPD2     N 9118   1.681   0.770  15.726  0.3334 -0.5346  0.2476
  615MPD2    H5 9119   1.582   0.754  15.712  0.7459 -1.8268 -1.2416
  615MPD2    N1 9120   2.119   0.544  15.726 -0.3481  0.0295  0.2258
  615MPD2    H7 9121   2.170   0.624  15.761 -0.3458 -0.5578  1.5911
  616TMC3    C1 9122   2.334   0.458  15.749 -0.6710 -0.0992  0.2797
  616TMC3    C2 9123   2.382   0.582  15.702 -0.7155 -0.8042 -0.2607
  616TMC3    C3 9124   2.517   0.606  15.719  1.0071  1.1110 -0.5260
  616TMC3    C4 9125   2.420   0.355  15.765 -0.4054  0.5535 -0.3404
  616TMC3    C5 9126   2.558   0.383  15.755  0.1395 -1.0387 -0.8179
  616TMC3    C6 9127   2.610   0.505  15.743  0.7021 -0.6329 -0.3024
  616TMC3     C 9128   2.193   0.431  15.711  0.3125  0.1235 -0.6878
  616TMC3     O 9129   2.170   0.321  15.669  0.4118  0.6857  0.6086
  616TMC3     H 9130   2.323   0.668  15.674 -0.1785  0.5354  2.7264
  616TMC3    H1 9131   2.373   0.258  15.777 -0.1752  0.5423  0.4705
  616TMC3    H2 9132   2.711   0.521  15.707 -0.1014 -0.3181 -2.4215
  616TMC3    C7 9133   2.651   0.273  15.750 -0.0725 -0.3656  0.5001
  616TMC3    C8 9134   2.565   0.741  15.722 -0.8634  0.5368 -0.4705
  616TMC3    O1 9135   2.768   0.302  15.735 -0.5475  0.1496 -0.1513
  616TMC3    O2 9136   2.490   0.835  15.705 -0.3243 -0.7662  0.1488
  617MPD2     C 9137   0.804   3.669  13.851 -0.9700  0.1514 -0.1053
  617MPD2    C1 9138   0.805   3.613  13.980 -0.6152  0.4730  0.7278
  617MPD2    C2 9139   0.692   3.643  14.056 -0.5260  0.3703  0.2756
  617MPD2    C3 9140   0.584   3.717  14.009  0.6735 -0.4763 -0.0617
  617MPD2    C4 9141   0.601   3.774  13.887  0.1661 -0.6551  0.3262
  617MPD2    C5 9142   0.708   3.751  13.808 -0.2432  0.1617  0.6306
  617MPD2     H 9143   0.682   3.604  14.156 -1.4461  0.0350  0.0557
  617MPD2    H1 9144   0.522   3.835  13.846  1.8589  1.1363 -0.2454
  617MPD2    H2 9145   0.881   3.649  13.778  0.8934 -0.3500  2.0093
  617MPD2    H3 9146   0.724   3.815  13.722  2.6473  0.3308  1.2889
  617MPD2     N 9147   0.460   3.740  14.071 -0.2287 -0.4558  0.0380
  617MPD2    H5 9148   0.399   3.806  14.023  0.9648 -0.6889 -1.7862
  617MPD2    N1 9149   0.910   3.527  14.014 -0.7571  0.4365 -0.0786
  617MPD2    H7 9150   0.979   3.505  13.943  0.3591  0.5817  0.9574
  618TMC3    C1 9151   1.047   3.379  14.122 -0.2683  0.0611  0.2008
  618TMC3    C2 9152   1.023   3.282  14.027  0.0439  0.0802  0.5626
  618TMC3    C3 9153   1.124   3.201  13.982 -0.6262 -0.1155  0.5040
  618TMC3    C4 9154   1.177   3.399  14.160  0.3373 -0.9226  0.1127
  618TMC3    C5 9155   1.276   3.321  14.110  0.1813  0.1558 -0.0219
  618TMC3    C6 9156   1.252   3.216  14.020  0.1270 -0.6137 -0.0927
  618TMC3     C 9157   0.937   3.470  14.138  0.2858 -0.0697  0.1465
  618TMC3     O 9158   0.878   3.480  14.244 -0.3999  0.5479 -0.1870
  618TMC3     H 9159   0.920   3.269  13.997 -0.4227 -1.4304  2.8001
  618TMC3    H1 9160   1.193   3.478  14.232  0.5420  0.2267 -1.1995
  618TMC3    H2 9161   1.333   3.153  13.986  1.8841  3.0401 -2.6968
  618TMC3    C7 9162   1.405   3.386  14.124 -0.0801 -0.2386  0.1389
  618TMC3    C8 9163   1.091   3.142  13.855  0.2823 -0.1465  0.0408
  618TMC3    O1 9164   1.419   3.428  14.241  0.3777 -0.7165 -0.3180
  618TMC3    O2 9165   0.980   3.165  13.810  0.1638 -0.0944  0.1828
  619MPD2     C 9166   2.139   0.321  13.551  0.3809  0.4330 -0.0242
  619MPD2    C1 9167   2.025   0.372  13.497 -0.5372  0.3070 -0.7587
  619MPD2    C2 9168   1.913   0.291  13.481  0.2740  0.4298 -0.3157
  619MPD2    C3 9169   1.911   0.160  13.525 -0.8522  0.4248 -0.1993
  619MPD2    C4 9170   2.026   0.105  13.574  0.3939 -0.7520  0.4337
  619MPD2    C5 9171   2.137   0.185  13.575  0.3125  0.4073  0.1025
  619MPD2     H 9172   1.818   0.336  13.454 -0.1299 -0.2990 -0.1152
  619MPD2    H1 9173   2.040   0.001  13.604  0.4632 -0.4035  1.6321
  619MPD2    H2 9174   2.233   0.370  13.574 -0.9901  1.0944  4.1347
  619MPD2    H3 9175   2.230   0.145  13.614  1.5451 -0.2749 -3.5816
  619MPD2     N 9176   1.798   0.076  13.518 -0.1522 -0.1568  0.1060
  619MPD2    H5 9177   1.798   4.715  13.571 -1.0374 -1.6965 -2.4023
  619MPD2    N1 9178   2.010   0.503  13.465  0.2515  0.4795 -0.2237
  619MPD2    H7 9179   1.921   0.531  13.426  0.5838  0.8859 -0.6861
  620TMC3    C1 9180   2.063   0.735  13.430 -0.0375  0.7132 -0.2779
  620TMC3    C2 9181   1.934   0.752  13.382 -0.0018 -0.4120  0.4051
  620TMC3    C3 9182   1.890   0.880  13.374 -0.5224 -0.2633  0.1479
  620TMC3    C4 9183   2.148   0.836  13.465  0.3342  0.0220 -0.6493
  620TMC3    C5 9184   2.091   0.964  13.470  0.2413  0.5487  0.4334
  620TMC3    C6 9185   1.964   0.988  13.424 -0.0631 -0.0009 -0.4183
  620TMC3     C 9186   2.099   0.604  13.481 -0.5937  0.3501  0.0821
  620TMC3     O 9187   2.215   0.592  13.517 -0.2628  0.0711 -0.6136
  620TMC3     H 9188   1.864   0.671  13.367  1.2301 -1.0821 -1.7543
  620TMC3    H1 9189   2.249   0.817  13.499 -0.4859 -1.4438  1.0067
  620TMC3    H2 9190   1.918   1.081  13.455 -5.2107 -2.6015 -0.2325
  620TMC3    C7 9191   2.181   1.068  13.511 -0.2773  0.4290  0.6601
  620TMC3    C8 9192   1.741   0.886  13.380  0.4972  0.0444 -0.2851
  620TMC3    O1 9193   2.299   1.043  13.512 -0.1978 -0.6739  0.1558
  620TMC3    O2 9194   1.692   0.952  13.476 -0.0846  0.5005 -0.5034
  621MPD2     C 9195   1.978   0.103   9.999  0.9645  0.1773  0.7397
  621MPD2    C1 9196   2.073   0.060  10.090  1.0461 -0.4318  0.5761
  621MPD2    C2 9197   2.209   0.070  10.062  0.6336  0.6970 -0.0762
  621MPD2    C3 9198   2.249   0.113   9.934  0.6058 -0.3570  0.2276
  621MPD2    C4 9199   2.156   0.144   9.844  0.1016 -0.3080 -0.6960
  621MPD2    C5 9200   2.026   0.136   9.875  0.7794  0.0526  0.1881
  621MPD2     H 9201   2.281   0.035  10.134  0.4157 -1.2513 -0.8153
  621MPD2    H1 9202   2.187   0.177   9.746 -0.4272  0.0455 -0.7448
  621MPD2    H2 9203   1.871   0.088  10.002  0.7310  1.7256  0.2479
  621MPD2    H3 9204   1.954   0.149   9.795  2.0056  0.4968 -0.8416
  621MPD2     N 9205   2.383   0.126   9.902  0.3839  0.2762 -0.3278
  621MPD2    H5 9206   2.447   0.108   9.979 -2.3099  2.3940  2.3996
  621MPD2    N1 9207   2.035   4.713  10.208 -0.1269 -0.1231  0.1880
  621MPD2    H7 9208   2.107   4.670  10.265  1.8334 -0.2058 -2.3464
  622TMC3    C1 9209   1.892   4.585  10.348 -0.5090 -0.2772 -0.6691
  622TMC3    C2 9210   1.777   4.587  10.429  0.4216  0.0807 -0.4211
  622TMC3    C3 9211   1.751   4.469  10.503  0.3751  0.1009  0.0444
  622TMC3    C4 9212   1.967   4.472  10.330  0.1424 -0.2901 -0.6050
  622TMC3    C5 9213   1.926   4.360  10.393 -0.4199 -0.2089 -0.1392
  622TMC3    C6 9214   1.828   4.358  10.490 -0.5006 -0.9072  0.4698
  622TMC3     C 9215   1.909   4.697  10.255 -0.5869 -0.1026 -0.2287
  622TMC3     O 9216   1.812   0.043  10.239 -0.2057 -0.1682 -0.2930
  622TMC3     H 9217   1.725   4.680  10.447  0.5424 -0.3204  1.9875
  622TMC3    H1 9218   2.051   4.475  10.262  0.8840 -0.2574  0.3134
  622TMC3    H2 9219   1.803   4.272  10.551 -1.6060  0.9637  2.6430
  622TMC3    C7 9220   1.964   4.223  10.340  0.0201 -0.3087  0.4952
  622TMC3    C8 9221   1.617   4.438  10.531 -0.2846  0.5935  0.8239
  622TMC3    O1 9222   1.979   4.130  10.420 -0.2195 -0.1891  0.0574
  622TMC3    O2 9223   1.588   4.330  10.587  0.3160 -0.1756 -0.0004
  623MPD2     C 9224   0.594   1.456  15.844 -0.2071 -0.1133 -0.0343
  623MPD2    C1 9225   0.543   1.402  15.968  0.1297 -0.4346  0.2382
  623MPD2    C2 9226   0.634   1.350  16.057  0.1524  0.1740  0.6508
  623MPD2    C3 9227   0.771   1.346  16.027  0.4143 -0.5358  0.1058
  623MPD2    C4 9228   0.815   1.402  15.908 -0.2702 -0.3583  0.3838
  623MPD2    C5 9229   0.731   1.463  15.820 -0.1482  0.3491  0.6698
  623MPD2     H 9230   0.604   1.296  16.146  0.7574 -0.8335  0.2470
  623MPD2    H1 9231   0.922   1.403  15.889 -0.6163 -2.2221 -1.6475
  623MPD2    H2 9232   0.531   1.500  15.767 -2.2494 -0.2378  1.5492
  623MPD2    H3 9233   0.776   1.498  15.728  1.4976 -0.1288  1.2873
  623MPD2     N 9234   0.852   1.255  16.100  0.6680  0.4842  0.4798
  623MPD2    H5 9235   0.802   1.208  16.175  0.2626 -1.3292 -0.9551
  623MPD2    N1 9236   0.408   1.388  15.998  0.1515  0.0622 -0.1210
  623MPD2    H7 9237   0.381   1.359  16.091  0.3473 -2.4536 -0.8624
  624TMC3    C1 9238   1.169   0.917  16.203 -0.4661 -0.2862  0.2273
  624TMC3    C2 9239   1.078   0.847  16.280 -0.2661 -0.6034 -1.1134
  624TMC3    C3 9240   0.948   0.900  16.289 -0.0325  0.4064  0.5593
  624TMC3    C4 9241   1.132   1.033  16.139 -0.6986 -0.6008 -0.3394
  624TMC3    C5 9242   1.006   1.078  16.148 -0.0852 -0.1395  0.2776
  624TMC3    C6 9243   0.909   1.006  16.217 -0.3764 -0.2200  0.4134
  624TMC3     C 9244   1.306   0.890  16.232 -0.4455  0.8656  0.5006
  624TMC3     O 9245   1.330   0.843  16.343  0.3203 -0.2436 -0.3783
  624TMC3     H 9246   1.108   0.765  16.344  0.4144  0.8534  0.4366
  624TMC3    H1 9247   1.203   1.089  16.080  0.5521 -0.2937  1.4463
  624TMC3    H2 9248   0.810   1.049  16.215  0.2476  1.2004 -0.3866
  624TMC3    C7 9249   0.977   1.205  16.079 -0.5883  0.5645 -0.2128
  624TMC3    C8 9250   0.849   0.829  16.370 -0.2204  0.2980  0.5518
  624TMC3    O1 9251   1.067   1.255  16.012  0.6087 -0.0555 -0.0971
  624TMC3    O2 9252   0.889   0.720  16.407 -0.4175 -0.1161  0.5661
  625MPD2     C 9253   1.152   1.303   0.487 -0.3464  0.2981  0.8044
  625MPD2    C1 9254   1.142   1.423   0.556 -0.1477 -0.1769  0.0881
  625MPD2    C2 9255   1.226   1.447   0.662  0.3867  0.0831 -0.4900
  625MPD2    C3 9256   1.327   1.367   0.695  0.2576  0.5172 -0.6916
  625MPD2    C4 9257   1.346   1.255   0.614 -0.3960  0.0367  0.0167
  625MPD2    C5 9258   1.253   1.217   0.515  0.2080 -0.0751  0.1441
  625MPD2     H 9259   1.206   1.537   0.720 -0.2199  0.8769 -1.9337
  625MPD2    H1 9260   1.437   1.195   0.620  0.1480  0.9068  0.3736
  625MPD2    H2 9261   1.079   1.276   0.412  0.1515  0.1923  0.3625
  625MPD2    H3 9262   1.264   1.124   0.462  0.0664 -0.3616  0.6158
  625MPD2     N 9263   1.419   1.408   0.790  0.0984 -0.4092 -0.2287
  625MPD2    H5 9264   1.414   1.503   0.826  1.5947 -0.5613  0.3758
  625MPD2    N1 9265   1.048   1.522   0.520 -0.9372 -0.1105 -0.5316
  625MPD2    H7 9266   1.065   1.611   0.565  0.9033 -1.3441  1.2229
  626TMC3    C1 9267   0.857   1.622   0.414 -0.2274  0.7590  0.9016
  626TMC3    C2 9268   0.807   1.649   0.287  0.2880 -0.4024 -0.5929
  626TMC3    C3 9269   0.780   1.777   0.248 -0.1815 -0.1160  0.0522
  626TMC3    C4 9270   0.871   1.724   0.502  0.3988 -0.6698 -0.0651
  626TMC3    C5 9271   0.829   1.851   0.466 -0.3931  0.1985  0.6640
  626TMC3    C6 9272   0.792   1.880   0.338  0.4683 -0.3144 -0.4936
  626TMC3     C 9273   0.938   1.501   0.437 -0.2740 -0.5348  0.2670
  626TMC3     O 9274   0.896   1.399   0.382 -0.3450 -0.0470  0.6218
  626TMC3     H 9275   0.797   1.568   0.215 -0.6308 -1.1046  0.3082
  626TMC3    H1 9276   0.894   1.712   0.607  1.5065  0.1766 -0.2170
  626TMC3    H2 9277   0.756   1.977   0.305  1.0251 -0.0522 -0.3231
  626TMC3    C7 9278   0.795   1.948   0.564 -0.5947  0.0160 -0.0947
  626TMC3    C8 9279   0.715   1.806   0.123 -0.7213  0.0723  0.1636
  626TMC3    O1 9280   0.781   1.907   0.679 -0.5179 -0.5019  0.6109
  626TMC3    O2 9281   0.655   1.910   0.103  0.1638 -0.1757 -0.4746
  627MPD2     C 9282   4.502   2.664  14.585 -0.0943  0.1178  0.9503
  627MPD2    C1 9283   4.572   2.608  14.685 -0.2237 -0.5369 -0.4314
  627MPD2    C2 9284   4.526   2.484  14.732  0.1538 -0.1189  0.7537
  627MPD2    C3 9285   4.411   2.420  14.684 -0.4370  0.0208 -0.3835
  627MPD2    C4 9286   4.344   2.484  14.582  0.2955  0.4902 -0.3497
  627MPD2    C5 9287   4.396   2.600  14.531 -0.0681 -0.6904 -0.2331
  627MPD2     H 9288   4.582   2.439  14.814 -1.5111 -0.8814  1.4719
  627MPD2    H1 9289   4.260   2.444  14.526 -1.5111  0.7524  2.1630
  627MPD2    H2 9290   4.524   2.760  14.539 -2.5864 -0.3410 -1.2250
  627MPD2    H3 9291   4.343   2.648  14.449  0.7569 -0.5608 -0.6861
  627MPD2     N 9292   4.374   2.288  14.725 -0.7427 -0.4540 -0.2911
  627MPD2    H5 9293   4.418   2.265  14.814  2.0044 -0.7997 -1.7338
  627MPD2    N1 9294   4.695   2.658  14.730 -0.5748  0.1376 -0.3236
  627MPD2    H7 9295   0.015   2.613  14.809 -0.3195  1.6950  0.4026
  628TMC3    C1 9296   0.155   2.794  14.751  0.5364  0.7117 -0.5020
  628TMC3    C2 9297   0.260   2.700  14.756 -0.2893  0.1812 -0.3344
  628TMC3    C3 9298   0.380   2.733  14.807  0.3384 -1.3104 -0.1971
  628TMC3    C4 9299   0.175   2.921  14.808  0.2323 -0.4180 -0.6020
  628TMC3    C5 9300   0.288   2.941  14.876 -0.0631 -0.0093 -0.4089
  628TMC3    C6 9301   0.392   2.852  14.883  0.6905  0.5957 -0.9473
  628TMC3     C 9302   0.035   2.771  14.680 -0.1045 -0.4970 -0.6714
  628TMC3     O 9303   4.724   2.850  14.596  0.5674 -0.2230 -0.2152
  628TMC3     H 9304   0.252   2.605  14.705 -2.7861  0.0302  0.3444
  628TMC3    H1 9305   0.100   2.999  14.799 -0.1481 -0.8908 -1.5120
  628TMC3    H2 9306   0.490   2.896  14.901 -0.3035  0.8268  3.8175
  628TMC3    C7 9307   0.303   3.078  14.910  0.3380 -0.1914 -0.4267
  628TMC3    C8 9308   0.492   2.690  14.735  0.1365 -0.4510 -0.4566
  628TMC3    O1 9309   0.348   3.102  15.018 -0.0443  0.2098  0.1557
  628TMC3    O2 9310   0.481   2.693  14.612 -1.0822 -0.1311  0.4444
  629MPD2     C 9311   2.945   1.051  15.886  0.8799  0.4440 -0.5381
  629MPD2    C1 9312   2.922   0.959  15.979  0.0135 -0.2578 -1.1090
  629MPD2    C2 9313   2.832   0.862  15.953 -0.3274  0.5761 -0.0153
  629MPD2    C3 9314   2.760   0.854  15.835  0.2971  1.0193  0.1608
  629MPD2    C4 9315   2.782   0.952  15.740 -0.3293 -0.3485 -0.2905
  629MPD2    C5 9316   2.874   1.045  15.767  0.2106  0.9871 -0.1478
  629MPD2     H 9317   2.817   0.785  16.028  1.0627  0.8428  0.5303
  629MPD2    H1 9318   2.741   0.949  15.639  0.8064  2.5740 -0.8144
  629MPD2    H2 9319   3.022   1.126  15.900  3.1572 -1.6817 -1.8514
  629MPD2    H3 9320   2.894   1.124  15.696 -1.2977 -0.1212 -1.8166
  629MPD2     N 9321   2.673   0.740  15.803  0.8430 -0.7727 -0.0823
  629MPD2    H5 9322   2.674   0.669  15.876  1.9383 -3.3649 -2.6176
  629MPD2    N1 9323   3.012   0.963  16.088 -0.2860  0.2170  0.1835
  629MPD2    H7 9324   3.078   1.040  16.084  0.1577 -0.1697 -0.0539
  630TMC3    C1 9325   3.137   0.898  16.278  0.4501 -0.2598  0.2001
  630TMC3    C2 9326   3.219   1.005  16.251 -0.6301  0.4474  0.7559
  630TMC3    C3 9327   3.293   1.055  16.348 -0.1264  0.3233 -0.4778
  630TMC3    C4 9328   3.141   0.829  16.395 -0.2979  0.6508  0.1201
  630TMC3    C5 9329   3.213   0.890  16.498 -0.4225  0.3674  0.2648
  630TMC3    C6 9330   3.296   0.995  16.470  0.3004  0.5952  0.3296
  630TMC3     C 9331   3.029   0.866  16.185 -0.4587  0.0453  0.3037
  630TMC3     O 9332   2.971   0.761  16.198 -0.1809  0.3076  0.5949
  630TMC3     H 9333   3.233   1.030  16.147 -0.8526 -1.5868  0.2230
  630TMC3    H1 9334   3.061   0.760  16.421  1.7775 -1.4961  0.6862
  630TMC3    H2 9335   3.362   1.042  16.543 -1.9587 -0.3880  3.0206
  630TMC3    C7 9336   3.237   0.823  16.626 -0.8280 -0.7585  0.1231
  630TMC3    C8 9337   3.403   1.150  16.321 -0.2316  0.5160  0.3724
  630TMC3    O1 9338   3.334   0.854  16.694 -0.0793 -0.5962 -0.4864
  630TMC3    O2 9339   3.493   1.164  16.400 -0.6595 -0.1021 -0.1229
  631MPD2     C 9340   1.423   1.466  15.044  0.7521 -0.0637 -0.2328
  631MPD2    C1 9341   1.313   1.415  15.105 -0.1360 -0.2385 -0.2886
  631MPD2    C2 9342   1.331   1.350  15.225 -0.3280 -0.3125  0.1553
  631MPD2    C3 9343   1.458   1.358  15.289 -0.0613 -1.2174  0.9166
  631MPD2    C4 9344   1.568   1.414  15.225 -1.1278  0.6557  0.2581
  631MPD2    C5 9345   1.544   1.472  15.104  0.9181 -0.4218 -0.3344
  631MPD2     H 9346   1.248   1.296  15.268 -0.0352  1.3251  2.7322
  631MPD2    H1 9347   1.669   1.417  15.263 -0.5411  2.6085 -1.4570
  631MPD2    H2 9348   1.409   1.513  14.947 -1.6118  1.4476  0.8304
  631MPD2    H3 9349   1.620   1.527  15.051 -0.7632  0.0673 -2.2401
  631MPD2     N 9350   1.454   1.304  15.420  0.7396  0.1795  0.1724
  631MPD2    H5 9351   1.372   1.255  15.453  0.4458  1.1162  0.8014
  631MPD2    N1 9352   1.193   1.420  15.032  0.0186 -0.1989  0.0457
  631MPD2    H7 9353   1.189   1.476  14.948  1.0526  1.5207  1.1292
  632TMC3    C1 9354   0.955   1.452  15.009 -0.3186  0.0603  0.1742
  632TMC3    C2 9355   0.864   1.497  15.094 -0.4436  0.0902 -0.8027
  632TMC3    C3 9356   0.814   1.621  15.064 -0.0884 -0.3472 -0.0481
  632TMC3    C4 9357   0.984   1.509  14.889  0.2619  0.6190  0.2715
  632TMC3    C5 9358   0.929   1.627  14.857 -0.4236 -0.6573 -0.1843
  632TMC3    C6 9359   0.848   1.688  14.948 -0.3214 -0.0281  0.3986
  632TMC3     C 9360   1.067   1.385  15.079  0.6291  0.1835 -0.4955
  632TMC3     O 9361   1.034   1.318  15.175  0.2350 -0.5150 -0.8864
  632TMC3     H 9362   0.845   1.455  15.192 -0.1337 -0.2269 -0.8788
  632TMC3    H1 9363   1.042   1.448  14.821 -0.8548 -0.4347  0.2771
  632TMC3    H2 9364   0.827   1.793  14.931 -0.1235  0.1478  1.2351
  632TMC3    C7 9365   1.029   1.713  14.790 -0.0683 -0.1778  0.3099
  632TMC3    C8 9366   0.722   1.684  15.161  0.2081 -0.5311 -0.1271
  632TMC3    O1 9367   1.002   1.756  14.681 -0.0414  0.0908  0.4727
  632TMC3    O2 9368   0.698   1.639  15.268  0.0666  0.2326 -0.0796
  633MPD2     C 9369   1.494   3.326  17.550  0.0148 -0.1715  0.0545
  633MPD2    C1 9370   1.537   3.296  17.420  0.6088 -0.1589 -0.3995
  633MPD2    C2 9371   1.507   3.169  17.376 -0.7597 -0.2671 -0.0888
  633MPD2    C3 9372   1.423   3.083  17.441  0.1132 -0.1041 -0.4129
  633MPD2    C4 9373   1.381   3.112  17.568 -0.4158 -0.5044  0.3277
  633MPD2    C5 9374   1.418   3.237  17.623  0.4264 -0.0602 -0.4822
  633MPD2     H 9375   1.539   3.141  17.277 -2.3587 -2.9628  0.1690
  633MPD2    H1 9376   1.309   3.057  17.628 -1.2930  0.4409  0.1384
  633MPD2    H2 9377   1.524   3.422  17.589 -2.5773  1.0892 -1.0769
  633MPD2    H3 9378   1.371   3.259   0.016  1.8766  1.2429 -0.0785
  633MPD2     N 9379   1.407   2.953  17.389  0.9089  0.1745 -0.4344
  633MPD2    H5 9380   1.468   2.919  17.315  1.8008  0.2945  0.2516
  633MPD2    N1 9381   1.619   3.375  17.336 -0.1866  0.8795 -0.1078
  633MPD2    H7 9382   1.635   3.335  17.245  0.5491 -0.8480  0.7698
  634TMC3    C1 9383   1.658   3.551  17.198 -1.1593 -0.6812 -0.3309
  634TMC3    C2 9384   1.716   3.462  17.113 -0.2300  0.4010 -0.0185
  634TMC3    C3 9385   1.729   3.508  16.982  0.2844 -0.6258  0.0604
  634TMC3    C4 9386   1.595   3.672  17.163  0.8588 -0.0820  0.1489
  634TMC3    C5 9387   1.614   3.704  17.031  0.1102  0.3993 -0.1631
  634TMC3    C6 9388   1.688   3.631  16.943  0.4558 -0.0298 -0.0571
  634TMC3     C 9389   1.641   3.510  17.335  0.1487 -0.2099 -0.3768
  634TMC3     O 9390   1.610   3.597  17.418 -0.9749  0.2257 -0.5314
  634TMC3     H 9391   1.779   3.381  17.147  0.5489  1.3615  0.8263
  634TMC3    H1 9392   1.545   3.735  17.236 -2.8099 -2.3903 -0.3464
  634TMC3    H2 9393   1.685   3.659  16.838 -0.5275  0.3147  0.0564
  634TMC3    C7 9394   1.523   3.801  16.976  0.0654 -0.5869 -0.9871
  634TMC3    C8 9395   1.761   3.415  16.875  0.3372  0.1302  0.4256
  634TMC3    O1 9396   1.516   3.803  16.856 -0.4530  0.5794  0.0340
  634TMC3    O2 9397   1.744   3.296  16.904  0.2372  0.3029 -0.2903
  635TMC3    C1 9398   2.317   0.194  16.697 -0.7654  0.0802 -0.1973
  635TMC3    C2 9399   2.347   0.079  16.631  0.3395  0.2812 -0.0371
  635TMC3    C3 9400   2.261   0.052  16.529 -0.4704 -0.1238  0.1866
  635TMC3    C4 9401   2.224   0.288  16.662  0.6472  0.0763 -0.6236
  635TMC3    C5 9402   2.145   0.251  16.559  0.1962  0.4472 -0.1195
  635TMC3    C6 9403   2.168   0.136  16.484 -0.3328 -0.4697 -1.1151
  635TMC3     C 9404   2.381   0.228  16.823 -0.0608 -0.5006 -0.2452
  635TMC3     O 9405   2.328   0.306  16.900 -0.1531 -0.2866 -0.1130
  635TMC3     H 9406   2.425   0.010  16.661  0.2713  0.3074  0.1991
  635TMC3    H1 9407   2.204   0.380  16.715 -1.2567  1.3352 -3.5163
  635TMC3    H2 9408   2.104   0.098  16.405  1.1741 -1.9034 -1.6297
  635TMC3    C7 9409   2.079   0.359  16.484 -0.2283 -0.0056  0.4897
  635TMC3    C8 9410   2.303   4.666  16.437  0.2196  0.5945 -0.5158
  635TMC3    O1 9411   2.108   0.474  16.515  0.9634  0.0738  0.1121
  635TMC3    O2 9412   2.264   4.682  16.323 -0.2762  0.1126  0.2880
  636MPD2     C 9413   2.685   3.503  15.264 -0.1268 -0.2790 -0.3492
  636MPD2    C1 9414   2.751   3.542  15.377 -0.5112 -0.0911 -0.1591
  636MPD2    C2 9415   2.871   3.494  15.401  0.0087 -0.2872  0.3905
  636MPD2    C3 9416   2.932   3.395  15.319  0.1649  0.4053 -0.0015
  636MPD2    C4 9417   2.866   3.362  15.198  0.1814 -0.2808 -0.3850
  636MPD2    C5 9418   2.742   3.415  15.171  0.6250  0.4638  0.5223
  636MPD2     H 9419   2.921   3.511  15.496  0.1412  0.6201  0.1606
  636MPD2    H1 9420   2.916   3.296  15.128  2.6088  1.5864 -0.3977
  636MPD2    H2 9421   2.589   3.539  15.229 -1.5802 -1.6693  2.1999
  636MPD2    H3 9422   2.685   3.383  15.084  0.0718  1.8160  0.3859
  636MPD2     N 9423   3.067   3.347  15.356 -0.1238 -0.0458  0.2603
  636MPD2    H5 9424   3.104   3.381  15.444 -1.4466  1.2542  0.3185
  636MPD2    N1 9425   2.702   3.647  15.459 -0.2209  0.8768 -0.4442
  636MPD2    H7 9426   2.766   3.686  15.527  1.0909 -0.8838 -0.6754
  637TMC3    C1 9427   3.269   3.218  15.331  0.0699  0.4965  0.5158
  637TMC3    C2 9428   3.248   3.187  15.467 -0.0300  0.3063  0.2885
  637TMC3    C3 9429   3.357   3.154  15.544 -0.8596 -0.0616 -0.2700
  637TMC3    C4 9430   3.386   3.224  15.264 -0.4196 -0.2626  0.6172
  637TMC3    C5 9431   3.487   3.219  15.350 -0.6437 -0.5235  0.3904
  637TMC3    C6 9432   3.478   3.181  15.481 -0.2046 -0.4960 -0.5906
  637TMC3     C 9433   3.150   3.278  15.265 -0.0865  0.2690  0.6091
  637TMC3     O 9434   3.146   3.282  15.143 -0.5783  0.2885 -0.1390
  637TMC3     H 9435   3.146   3.183  15.503 -0.2235 -0.4370 -0.3258
  637TMC3    H1 9436   3.396   3.265  15.164  0.3617 -1.9582  0.0171
  637TMC3    H2 9437   3.568   3.172  15.541 -0.0905 -0.4448 -0.7548
  637TMC3    C7 9438   3.573   3.333  15.343 -0.8923 -0.3904  0.6276
  637TMC3    C8 9439   3.346   3.182  15.687 -0.1075  0.7183 -0.2163
  637TMC3    O1 9440   3.637   3.356  15.445 -0.1122 -0.0667 -0.4916
  637TMC3    O2 9441   3.434   3.127  15.751  0.7974  0.0777 -0.5059
  638MPD2     C 9442   1.938   2.953  14.963 -0.4010  0.8573  1.1568
  638MPD2    C1 9443   2.018   2.843  14.955  0.3099  0.1261 -0.2375
  638MPD2    C2 9444   2.014   2.738  15.043  0.0756  0.6852  0.5838
  638MPD2    C3 9445   1.913   2.729  15.134 -0.7895 -0.7190 -0.8837
  638MPD2    C4 9446   1.822   2.835  15.140 -0.2350 -0.0739 -0.3872
  638MPD2    C5 9447   1.845   2.945  15.065  0.0792  0.5643 -0.0567
  638MPD2     H 9448   2.080   2.654  15.022  0.2697  1.2906 -1.2218
  638MPD2    H1 9449   1.734   2.832  15.204  0.3883 -0.9267  0.4234
  638MPD2    H2 9450   1.930   3.039  14.897  0.2162 -0.4116 -0.5586
  638MPD2    H3 9451   1.771   3.023  15.056 -1.3407 -0.5469  2.1127
  638MPD2     N 9452   1.898   2.610  15.208 -0.2740  0.0184 -0.2595
  638MPD2    H5 9453   1.803   2.592  15.237 -0.5915 -0.5634 -1.6725
  638MPD2    N1 9454   2.117   2.840  14.856 -0.4239  0.0273  0.3265
  638MPD2    H7 9455   2.177   2.758  14.850  0.5638  0.8339 -1.0595
  639TMC3    C1 9456   1.931   2.393  15.267  0.6420 -0.6087  0.3432
  639TMC3    C2 9457   1.834   2.345  15.176 -0.4160  0.0458 -0.1283
  639TMC3    C3 9458   1.849   2.210  15.146 -0.0409  0.3075 -0.1317
  639TMC3    C4 9459   2.029   2.308  15.320  0.4392  0.1323 -0.1504
  639TMC3    C5 9460   2.021   2.176  15.297 -0.4418 -0.4666 -0.4275
  639TMC3    C6 9461   1.941   2.124  15.199 -0.4274  0.3636 -0.0288
  639TMC3     C 9462   1.993   2.522  15.239 -0.0200 -0.2807 -0.3789
  639TMC3     O 9463   2.113   2.529  15.245  0.9450  0.2871 -0.2243
  639TMC3     H 9464   1.755   2.404  15.131 -1.4613  0.0491  1.7363
  639TMC3    H1 9465   2.118   2.352  15.362  0.4395 -0.9848  1.0166
  639TMC3    H2 9466   1.944   2.021  15.165 -3.2161  0.0583  0.6308
  639TMC3    C7 9467   2.134   2.087  15.313  0.0755 -0.5099 -0.8005
  639TMC3    C8 9468   1.807   2.178  15.016 -0.2118 -0.1352  0.0225
  639TMC3    O1 9469   2.154   2.031  15.421 -0.0175 -0.3635  0.2608
  639TMC3    O2 9470   1.881   2.107  14.951 -0.3528 -0.0603 -0.0579
  640MPD2     C 9471   3.040   1.401   9.364 -0.4443  0.3681  0.2659
  640MPD2    C1 9472   2.931   1.322   9.363 -0.1201 -0.3140 -0.1253
  640MPD2    C2 9473   2.815   1.365   9.418 -0.1379  0.2246 -0.4695
  640MPD2    C3 9474   2.801   1.493   9.470  0.1653  0.4512 -0.5044
  640MPD2    C4 9475   2.912   1.574   9.458  0.2198  1.0418  0.5450
  640MPD2    C5 9476   3.032   1.528   9.408  0.1957 -0.2133 -0.0147
  640MPD2     H 9477   2.730   1.298   9.423  0.8702 -0.9694  0.6740
  640MPD2    H1 9478   2.904   1.670   9.506 -2.9556  0.8008  0.5115
  640MPD2    H2 9479   3.126   1.363   9.309 -0.4518 -1.6719  1.6619
  640MPD2    H3 9480   3.124   1.583   9.394  0.2014  0.2923  2.0062
  640MPD2     N 9481   2.690   1.538   9.547  0.3007  0.2625  0.3291
  640MPD2    H5 9482   2.690   1.633   9.584  1.2220 -0.3500  1.8971
  640MPD2    N1 9483   2.957   1.183   9.331  0.3907 -0.2011 -0.1838
  640MPD2    H7 9484   3.049   1.159   9.296  0.7992 -0.0720  0.8122
  641TMC3    C1 9485   2.918   0.951   9.300 -0.5105 -0.1211  0.9489
  641TMC3    C2 9486   3.050   0.934   9.325 -0.4274 -0.5318  0.0767
  641TMC3    C3 9487   3.101   0.811   9.296 -0.0459  0.6959 -0.3398
  641TMC3    C4 9488   2.832   0.855   9.261  0.0663 -0.2188  0.1070
  641TMC3    C5 9489   2.888   0.734   9.228  0.1047 -0.5944 -0.8943
  641TMC3    C6 9490   3.023   0.713   9.242 -0.6404  0.0752 -0.8701
  641TMC3     C 9491   2.859   1.094   9.319 -0.3214 -0.1601 -0.1112
  641TMC3     O 9492   2.738   1.098   9.326 -0.0753 -0.7144 -0.3640
  641TMC3     H 9493   3.097   0.998   9.399 -0.9637  1.3898 -1.2342
  641TMC3    H1 9494   2.731   0.881   9.231  0.4078  0.0174 -0.8269
  641TMC3    H2 9495   3.069   0.619   9.216  0.9348  0.6915 -0.3361
  641TMC3    C7 9496   2.794   0.627   9.198  0.3597 -0.8687  0.4032
  641TMC3    C8 9497   3.220   0.764   9.370 -0.2653  0.0015  0.1293
  641TMC3    O1 9498   2.682   0.662   9.165  0.3174  0.1188  0.1526
  641TMC3    O2 9499   3.237   0.644   9.370 -0.1506  0.2250 -0.4191
  642TMC3    C1 9500   3.338   2.478  12.020 -0.1722 -0.8330  0.1815
  642TMC3    C2 9501   3.322   2.528  12.147 -0.0867 -0.8810 -0.0124
  642TMC3    C3 9502   3.409   2.474  12.242  0.4929  0.5578  0.2767
  642TMC3    C4 9503   3.440   2.390  11.978 -0.0862  0.3382 -0.0676
  642TMC3    C5 9504   3.518   2.337  12.079  0.1689  0.5402  0.8782
  642TMC3    C6 9505   3.492   2.372  12.210  0.0647 -0.0281 -0.0514
  642TMC3     C 9506   3.292   2.559  11.911  0.1396  0.0461  0.1218
  642TMC3     O 9507   3.374   2.582  11.827  0.2517 -0.7698  0.0714
  642TMC3     H 9508   3.247   2.598  12.180 -1.6616 -2.6239  0.1194
  642TMC3    H1 9509   3.455   2.358  11.875  1.4260 -2.5412  1.0588
  642TMC3    H2 9510   3.544   2.327  12.294 -1.0499  1.1412  1.2645
  642TMC3    C7 9511   3.586   2.215  12.051  0.5617  0.2172  0.2001
  642TMC3    C8 9512   3.431   2.543  12.360  0.1578  0.6198 -0.4431
  642TMC3    O1 9513   3.542   2.156  11.953  0.2665 -0.2188 -0.0499
  642TMC3    O2 9514   3.464   2.474  12.459  0.0426 -0.1385 -0.7386
  643TMC3    C1 9515   2.799   1.865  17.397  0.3968  0.4637 -0.6489
  643TMC3    C2 9516   2.772   1.932  17.283  0.5181 -0.8747  0.2588
  643TMC3    C3 9517   2.828   1.889  17.167 -0.0584 -0.2637  0.0612
  643TMC3    C4 9518   2.887   1.758  17.394  0.1377 -0.4781  0.7227
  643TMC3    C5 9519   2.937   1.711  17.277  0.2341  0.0401  0.6649
  643TMC3    C6 9520   2.908   1.780  17.162 -0.2813 -0.0139  0.9857
  643TMC3     C 9521   2.776   1.938  17.519  0.4819  0.4203 -0.0244
  643TMC3     O 9522   2.724   2.049  17.503 -0.2930  0.1077 -0.3083
  643TMC3     H 9523   2.696   2.010  17.275  0.0100 -1.5094 -0.9507
  643TMC3    H1 9524   2.909   1.703  17.485  0.6539 -0.2775  0.7173
  643TMC3    H2 9525   2.928   1.726  17.070  1.5000  1.8765  0.2715
  643TMC3    C7 9526   3.071   1.666  17.279 -0.6348  0.4374  0.7352
  643TMC3    C8 9527   2.873   1.988  17.072  0.0090 -0.6797  0.8694
  643TMC3    O1 9528   3.133   1.668  17.175 -0.5286 -0.0685  0.7775
  643TMC3    O2 9529   2.916   1.938  16.970  0.3874 -0.0865 -0.4056
  644MPD2     C 9530   2.709   1.093   8.898 -0.0118 -1.2023  0.3489
  644MPD2    C1 9531   2.836   1.133   8.937 -0.0036  0.2477 -0.1252
  644MPD2    C2 9532   2.843   1.262   8.999 -0.2951  0.1185 -0.1211
  644MPD2    C3 9533   2.738   1.346   9.024 -0.1477 -0.0408  0.1739
  644MPD2    C4 9534   2.616   1.306   8.968  0.0658  0.0219  0.8358
  644MPD2    C5 9535   2.610   1.184   8.904  0.6014  0.0367 -0.1588
  644MPD2     H 9536   2.943   1.298   9.023  0.0298 -1.2863  0.6486
  644MPD2    H1 9537   2.524   1.361   8.982  0.1223  0.3505 -0.0561
  644MPD2    H2 9538   2.690   0.996   8.855  2.3900 -1.4220 -0.1679
  644MPD2    H3 9539   2.519   1.161   8.851  0.3574  1.9015 -0.5328
  644MPD2     N 9540   2.752   1.472   9.088 -0.6515  0.3499 -0.2671
  644MPD2    H5 9541   2.849   1.497   9.107 -0.9964  2.0316 -0.7047
  644MPD2    N1 9542   2.953   1.051   8.928 -0.1894 -0.6141 -0.7624
  644MPD2    H7 9543   2.937   0.966   8.875  2.5234 -0.9899 -1.0221
  645TMC3    C1 9544   2.694   1.689   9.186 -0.3330 -0.5311  0.5264
  645TMC3    C2 9545   2.826   1.717   9.162 -0.5536 -0.3316 -0.5438
  645TMC3    C3 9546   2.867   1.852   9.179  0.5230 -0.0020  0.2609
  645TMC3    C4 9547   2.605   1.796   9.177  0.0322 -0.2943 -0.3449
  645TMC3    C5 9548   2.648   1.933   9.187 -0.6445  0.3444  0.4631
  645TMC3    C6 9549   2.782   1.957   9.191 -0.2037  0.2737  0.0118
  645TMC3     C 9550   2.649   1.561   9.128  0.4383 -0.0194  0.2037
  645TMC3     O 9551   2.525   1.552   9.112 -0.3482 -0.8836 -0.4456
  645TMC3     H 9552   2.897   1.639   9.188  0.8593  0.1215 -3.0490
  645TMC3    H1 9553   2.498   1.778   9.173  0.0761 -1.1913  2.1182
  645TMC3    H2 9554   2.821   2.058   9.200 -0.9504  0.4216  1.5664
  645TMC3    C7 9555   2.556   2.041   9.233 -0.6249  0.3639 -0.3818
  645TMC3    C8 9556   2.999   1.880   9.231  0.7781  0.3615  0.3326
  645TMC3    O1 9557   2.602   2.150   9.263 -0.4815 -0.1460 -0.3812
  645TMC3    O2 9558   3.016   1.992   9.273  0.0590 -0.0291 -0.2983
  646MPD2     C 9559   2.270   1.436  14.590 -0.0348  0.1035  0.0228
  646MPD2    C1 9560   2.157   1.453  14.667  0.3004 -0.0482  0.4968
  646MPD2    C2 9561   2.044   1.506  14.604  0.6169 -0.3930 -0.4059
  646MPD2    C3 9562   2.049   1.557  14.481 -0.7193 -0.9728 -0.6015
  646MPD2    C4 9563   2.169   1.536  14.412  0.1158 -0.6781 -0.1448
  646MPD2    C5 9564   2.281   1.485  14.467  0.4404  0.3056 -0.1372
  646MPD2     H 9565   1.948   1.511  14.655  0.8952  0.8748  0.0066
  646MPD2    H1 9566   2.180   1.574  14.311  1.1204  0.4427  0.3765
  646MPD2    H2 9567   2.358   1.393  14.638 -0.8400  0.6698  2.0065
  646MPD2    H3 9568   2.371   1.478  14.408  1.0235  3.0268  0.4318
  646MPD2     N 9569   1.940   1.628  14.432  0.8775 -0.7768  0.2964
  646MPD2    H5 9570   1.860   1.641  14.492  0.1931  0.1317 -0.8297
  646MPD2    N1 9571   2.149   1.384  14.788  0.6407 -0.4132  0.5775
  646MPD2    H7 9572   2.235   1.340  14.818 -0.7263 -3.7665 -0.3407
  647TMC3    C1 9573   2.086   1.322  15.002  0.9485  0.6711  0.1973
  647TMC3    C2 9574   1.992   1.306  15.101 -0.1795  0.6791 -0.0720
  647TMC3    C3 9575   1.998   1.210  15.192 -1.0508  0.4717  0.4430
  647TMC3    C4 9576   2.194   1.239  14.989 -0.1045 -0.2583 -0.5439
  647TMC3    C5 9577   2.209   1.150  15.096 -0.0459  0.1503  0.2101
  647TMC3    C6 9578   2.115   1.128  15.189  0.6955 -0.5755 -0.2186
  647TMC3     C 9579   2.045   1.390  14.878 -0.2324  0.2611 -0.1568
  647TMC3     O 9580   1.943   1.458  14.875 -0.5898 -0.0856  0.5161
  647TMC3     H 9581   1.900   1.361  15.088 -1.2074 -1.1326 -0.4184
  647TMC3    H1 9582   2.285   1.247  14.929  0.0320  1.8539 -0.0287
  647TMC3    H2 9583   2.137   1.053  15.265 -2.6984  0.1682  1.5041
  647TMC3    C7 9584   2.315   1.049  15.085 -0.2868  0.8347  0.1248
  647TMC3    C8 9585   1.870   1.139  15.221  0.6668  0.6161  0.4303
  647TMC3    O1 9586   2.349   0.993  15.188  0.1998  0.0708  0.2853
  647TMC3    O2 9587   1.763   1.204  15.215 -0.7242 -0.1113  0.0893
  648TMC3    C1 9588   1.971   3.754  16.276 -0.3999 -0.9022 -1.1066
  648TMC3    C2 9589   2.087   3.693  16.235  0.5699  0.1873  0.4634
  648TMC3    C3 9590   2.080   3.618  16.120 -0.3359  0.5414  0.1126
  648TMC3    C4 9591   1.866   3.757  16.186  0.3253  0.2501 -0.0930
  648TMC3    C5 9592   1.864   3.683  16.071  0.8819 -0.2044 -0.1865
  648TMC3    C6 9593   1.974   3.601  16.041  0.6236  0.0645  0.1083
  648TMC3     C 9594   1.963   3.832  16.398 -0.2289 -0.3847 -0.3640
  648TMC3     O 9595   1.899   3.936  16.381 -0.2963 -0.5014 -0.5289
  648TMC3     H 9596   2.178   3.711  16.290  1.3361 -1.6314 -0.2171
  648TMC3    H1 9597   1.785   3.823  16.215 -1.5125 -1.5413 -1.1728
  648TMC3    H2 9598   1.968   3.538  15.953  0.9394 -1.3096  1.0747
  648TMC3    C7 9599   1.752   3.676  15.984 -0.6539 -0.3320  0.5818
  648TMC3    C8 9600   2.198   3.532  16.092  0.1792  0.3214 -0.3972
  648TMC3    O1 9601   1.779   3.666  15.862  0.2893  0.0330  0.1400
  648TMC3    O2 9602   2.297   3.562  16.157  0.4071 -0.5318 -0.5079
  649TMC3    C1 9603   0.186   0.172  12.537  0.3823 -0.3881  0.3197
  649TMC3    C2 9604   0.200   0.144  12.402  0.5766  0.2748 -0.2649
  649TMC3    C3 9605   0.318   0.094  12.358 -0.7134 -0.3009 -0.2915
  649TMC3    C4 9606   0.288   0.162  12.621 -1.3358  0.1884 -0.1953
  649TMC3    C5 9607   0.404   0.099  12.575 -0.2406 -0.2720  0.1338
  649TMC3    C6 9608   0.423   0.064  12.442 -0.5474 -0.5298  0.0189
  649TMC3     C 9609   0.059   0.219  12.589  0.0031  0.2668 -0.3545
  649TMC3     O 9610   0.058   0.299  12.682  0.3519 -0.9016  0.0454
  649TMC3     H 9611   0.113   0.153  12.338  0.0531 -0.9368  0.2659
  649TMC3    H1 9612   0.272   0.175  12.727  1.2055 -1.9052  0.4281
  649TMC3    H2 9613   0.506   0.004  12.407 -1.1592 -0.4292 -1.6071
  649TMC3    C7 9614   0.496   0.048  12.670  0.4913 -0.6648 -0.1801
  649TMC3    C8 9615   0.325   0.041  12.225 -0.8057 -0.1287  0.0681
  649TMC3    O1 9616   0.476   0.076  12.787  0.0336  0.0270 -0.3483
  649TMC3    O2 9617   0.435   0.010  12.182  0.5462  0.3323 -0.0424
  650TMC3    C1 9618   3.356   2.340  12.981  0.1386  0.2530 -0.8136
  650TMC3    C2 9619   3.258   2.437  12.957 -0.7028  0.1755  0.1535
  650TMC3    C3 9620   3.227   2.467  12.827 -0.6939 -0.7425  0.1137
  650TMC3    C4 9621   3.415   2.273  12.878  0.6380 -0.9642 -0.7633
  650TMC3    C5 9622   3.386   2.305  12.752  0.6184 -0.5513  0.0077
  650TMC3    C6 9623   3.290   2.399  12.721  0.3740 -0.1176 -0.2640
  650TMC3     C 9624   3.394   2.323  13.116 -0.1856  0.1669 -0.4900
  650TMC3     O 9625   3.384   2.422  13.191 -0.2219  0.0761 -0.2164
  650TMC3     H 9626   3.219   2.484  13.046 -0.0188  3.3283 -1.2231
  650TMC3    H1 9627   3.492   2.203  12.909  0.5145 -0.3431  0.9895
  650TMC3    H2 9628   3.265   2.425  12.619 -1.8543 -1.2537 -0.0068
  650TMC3    C7 9629   3.431   2.205  12.651  0.3021  0.7387 -0.6516
  650TMC3    C8 9630   3.171   2.592  12.788 -0.3009 -0.1271 -0.1065
  650TMC3    O1 9631   3.484   2.115  12.708  0.4193  0.5516  0.2677
  650TMC3    O2 9632   3.153   2.615  12.668 -0.0837  0.4049  0.3616
  651MPD2     C 9633   1.949   3.494  10.194  0.3685 -0.1907 -1.0876
  651MPD2    C1 9634   1.896   3.579  10.290  0.4291 -0.2012  0.4425
  651MPD2    C2 9635   1.981   3.651  10.368  0.2696 -0.0428 -0.3814
  651MPD2    C3 9636   2.119   3.646  10.362 -0.9040  0.4779 -0.4820
  651MPD2    C4 9637   2.172   3.564  10.265  0.0927  0.2091  0.1996
  651MPD2    C5 9638   2.090   3.482  10.192  0.7802  0.9451 -0.8338
  651MPD2     H 9639   1.934   3.720  10.437 -0.1076 -1.7421  1.0649
  651MPD2    H1 9640   2.278   3.543  10.250  0.1856  2.8294 -2.7910
  651MPD2    H2 9641   1.891   3.439  10.121 -2.9248 -1.4454  2.5073
  651MPD2    H3 9642   2.135   3.415  10.120  1.4290 -1.5528  1.9186
  651MPD2     N 9643   2.192   3.725  10.449  0.1501  0.4549 -0.0366
  651MPD2    H5 9644   2.145   3.774  10.524  0.6837 -0.2548  0.7664
  651MPD2    N1 9645   1.757   3.596  10.317 -0.1745  0.0444  0.2351
  651MPD2    H7 9646   1.740   3.670  10.384 -0.9977  1.0590 -1.0839
  652TMC3    C1 9647   2.544   3.846  10.727 -0.5435  0.3541  0.3356
  652TMC3    C2 9648   2.505   3.797  10.608 -0.3867  0.2814 -0.1392
  652TMC3    C3 9649   2.384   3.823  10.556 -0.0722 -0.0191 -0.5989
  652TMC3    C4 9650   2.453   3.914  10.806  0.3013 -0.1243 -0.4175
  652TMC3    C5 9651   2.346   3.966  10.737 -0.2882 -0.0753  0.4377
  652TMC3    C6 9652   2.303   3.914  10.621  0.1663  0.4363 -0.4098
  652TMC3     C 9653   2.680   3.824  10.774 -0.0336 -0.3896 -0.0637
  652TMC3     O 9654   2.695   3.814  10.894  0.2930  0.1446  0.1400
  652TMC3     H 9655   2.571   3.724  10.563 -0.3326  1.5315 -2.0980
  652TMC3    H1 9656   2.484   3.947  10.904  1.0926 -3.1119  0.3330
  652TMC3    H2 9657   2.212   3.945  10.571 -0.1922  2.7999  1.6836
  652TMC3    C7 9658   2.256   4.060  10.808  0.6660  0.3915 -0.2461
  652TMC3    C8 9659   2.330   3.744  10.445  0.3941  0.7175  0.2095
  652TMC3    O1 9660   2.138   4.064  10.776 -0.1949  0.1013 -0.9626
  652TMC3    O2 9661   2.410   3.689  10.372  0.1279  0.4363 -0.5689
  653MPD2     C 9662   1.143   3.608   0.002  0.2798 -0.6562  0.3856
  653MPD2    C1 9663   1.020   3.664   0.001 -0.6595  0.5432  0.2999
  653MPD2    C2 9664   0.909   3.596  17.655 -0.0899  0.8761 -0.2512
  653MPD2    C3 9665   0.920   3.470  17.599  0.2149  0.3946  0.1360
  653MPD2    C4 9666   1.047   3.412  17.600 -0.3145 -1.0657  0.4616
  653MPD2    C5 9667   1.150   3.482  17.657  0.5764  0.4106  0.2149
  653MPD2     H 9668   0.812   3.645  17.649  0.4984  2.1230  0.4272
  653MPD2    H1 9669   1.070   3.316  17.556  0.8956 -0.6489  0.1770
  653MPD2    H2 9670   1.231   3.658   0.042 -0.2789  1.7352 -1.3522
  653MPD2    H3 9671   1.239   3.421  17.661  0.9951  1.0238  0.1778
  653MPD2     N 9672   0.803   3.413  17.545 -1.2358 -0.6305  0.5130
  653MPD2    H5 9673   0.712   3.458  17.553 -0.2600  1.6274 -1.0906
  653MPD2    N1 9674   0.998   3.802   0.041  0.8477 -0.4007  0.0357
  653MPD2    H7 9675   0.905   3.842   0.032  0.7988 -0.6687 -0.6423
  654TMC3    C1 9676   0.646   3.254  17.474  0.4237  0.4643  0.4170
  654TMC3    C2 9677   0.553   3.352  17.477 -0.1380  0.1995 -0.0088
  654TMC3    C3 9678   0.449   3.337  17.391 -0.1019  0.7381 -0.1383
  654TMC3    C4 9679   0.619   3.133  17.414  0.0146 -0.7443  0.7190
  654TMC3    C5 9680   0.508   3.115  17.343 -0.5671 -0.0090  0.6318
  654TMC3    C6 9681   0.422   3.220  17.327  0.7204 -0.0168 -0.1534
  654TMC3     C 9682   0.788   3.290  17.495 -0.4398  0.5625  0.2971
  654TMC3     O 9683   0.870   3.202  17.472 -0.2245  0.0850  0.3785
  654TMC3     H 9684   0.558   3.441  17.539 -1.7492  1.2271 -1.3492
  654TMC3    H1 9685   0.690   3.053  17.430  0.3573 -0.3384  1.2521
  654TMC3    H2 9686   0.337   3.209  17.261 -1.5960 -1.0276  3.0034
  654TMC3    C7 9687   0.481   2.995  17.269  0.1292  0.9515  0.1763
  654TMC3    C8 9688   0.399   3.469  17.336 -0.1545  0.4308 -0.1106
  654TMC3    O1 9689   0.364   2.977  17.241 -0.2087 -1.0035  1.0122
  654TMC3    O2 9690   0.359   3.548  17.418  0.2300 -0.3805 -0.2034
  655MPD2     C 9691   2.112   3.876  15.835 -0.0443 -0.4879 -0.5938
  655MPD2    C1 9692   2.033   3.917  15.727  0.7427  0.5398 -0.7503
  655MPD2    C2 9693   2.077   3.890  15.604  0.3001 -0.0605 -0.2515
  655MPD2    C3 9694   2.179   3.803  15.580  0.3949 -0.3696  0.5342
  655MPD2    C4 9695   2.250   3.738  15.679  0.6240  0.1636  0.1077
  655MPD2    C5 9696   2.218   3.788  15.808  0.1865 -0.0024 -0.0459
  655MPD2     H 9697   2.022   3.929  15.519 -0.6899  0.8158  0.7808
  655MPD2    H1 9698   2.324   3.660  15.671  0.9961  0.4455  0.7933
  655MPD2    H2 9699   2.097   3.894  15.940 -2.0415  1.2155 -1.1781
  655MPD2    H3 9700   2.271   3.735  15.887 -0.5248  1.6621  1.5494
  655MPD2     N 9701   2.213   3.761  15.446 -0.0197  0.5335  0.3427
  655MPD2    H5 9702   2.261   3.673  15.434  2.3209  1.8383  0.1770
  655MPD2    N1 9703   1.920   3.997  15.744 -0.4606 -0.4010  0.7958
  655MPD2    H7 9704   1.872   4.034  15.662  1.2555 -2.2914 -1.0600
  656TMC3    C1 9705   1.749   4.114  15.860  0.2697  0.2477 -0.9566
  656TMC3    C2 9706   1.700   4.158  15.986  0.4408 -0.1867  0.1926
  656TMC3    C3 9707   1.569   4.205  15.995 -0.1573  0.5725  0.6787
  656TMC3    C4 9708   1.667   4.112  15.751 -0.0028 -0.8695  0.9693
  656TMC3    C5 9709   1.532   4.141  15.770 -0.9352 -0.6059  0.1551
  656TMC3    C6 9710   1.482   4.181  15.893 -0.7279 -0.0959 -1.4809
  656TMC3     C 9711   1.866   4.033  15.867 -0.0195  0.4935 -0.4299
  656TMC3     O 9712   1.908   4.007  15.976 -0.1993 -0.0498  0.1275
  656TMC3     H 9713   1.765   4.161  16.072  0.2709 -2.2647  0.3924
  656TMC3    H1 9714   1.700   4.066  15.659 -2.5039 -2.5797  0.9197
  656TMC3    H2 9715   1.379   4.213  15.906 -0.5708 -0.4211  0.5717
  656TMC3    C7 9716   1.437   4.115  15.661 -0.5548 -0.5799  0.1804
  656TMC3    C8 9717   1.513   4.215  16.125  0.3192 -0.3267  0.7184
  656TMC3    O1 9718   1.486   4.100  15.547  0.4524  0.0077 -0.3496
  656TMC3    O2 9719   1.404   4.265  16.134  0.2736 -0.3335 -0.3272
  657TMC3    C1 9720   1.434   3.540  14.955  0.1217  0.7772 -0.0862
  657TMC3    C2 9721   1.362   3.444  15.022 -0.4545  0.5833  0.2297
  657TMC3    C3 9722   1.228   3.460  15.036  0.8939 -0.9252 -0.1078
  657TMC3    C4 9723   1.379   3.646  14.893 -0.6175  0.0086  0.5394
  657TMC3    C5 9724   1.239   3.657  14.910 -0.5246 -0.4064  0.6726
  657TMC3    C6 9725   1.169   3.570  14.980  0.2760 -0.5535 -0.3990
  657TMC3     C 9726   1.577   3.527  14.929  0.4609  0.1516 -0.0673
  657TMC3     O 9727   1.633   3.592  14.839 -0.1277  0.0099 -0.0554
  657TMC3     H 9728   1.417   3.378  15.088 -0.0659  1.7851  1.1283
  657TMC3    H1 9729   1.439   3.724  14.849  1.2431 -1.6775  0.0946
  657TMC3    H2 9730   1.062   3.583  14.985  0.3319 -0.2246 -0.1074
  657TMC3    C7 9731   1.165   3.779  14.866  0.2343 -0.5089 -0.2516
  657TMC3    C8 9732   1.158   3.381  15.148  0.0263  0.3114  0.0328
  657TMC3    O1 9733   1.051   3.801  14.901 -0.2569 -0.4052 -0.3506
  657TMC3    O2 9734   1.221   3.293  15.200 -0.5059  0.2996  0.5131
  658MPD2     C 9735   2.190   3.597  14.567  0.7079 -0.1360  0.7346
  658MPD2    C1 9736   2.227   3.706  14.642  0.4056 -0.2890  0.4806
  658MPD2    C2 9737   2.301   3.801  14.580  0.2032  0.1367  0.0401
  658MPD2    C3 9738   2.326   3.798  14.446  0.7084  0.0895 -0.4250
  658MPD2    C4 9739   2.296   3.686  14.373 -0.2919 -0.2953  0.3857
  658MPD2    C5 9740   2.221   3.588  14.437 -0.7274 -0.6682  0.8014
  658MPD2     H 9741   2.336   3.887  14.637  1.2652 -1.9864  2.6006
  658MPD2    H1 9742   2.315   3.688  14.266 -1.6951 -1.0433  0.1210
  658MPD2    H2 9743   2.136   3.516  14.615  2.4540 -1.8789 -0.2385
  658MPD2    H3 9744   2.182   3.507  14.377 -0.5749  1.1098 -1.6995
  658MPD2     N 9745   2.393   3.911  14.397  0.0022 -0.2500 -0.0396
  658MPD2    H5 9746   2.418   3.983  14.463  0.5744 -1.9009  1.5173
  658MPD2    N1 9747   2.178   3.712  14.773  0.1476 -0.2496  0.1997
  658MPD2    H7 9748   2.120   3.636  14.806  0.3506 -0.7931 -0.6921
  659TMC3    C1 9749   2.130   3.792  14.993 -0.4220  0.5568  0.1650
  659TMC3    C2 9750   2.211   3.810  15.098 -0.2218 -0.0402  0.0292
  659TMC3    C3 9751   2.189   3.736  15.216  0.2038 -0.4845  0.9167
  659TMC3    C4 9752   2.020   3.715  14.990 -0.3588 -0.0270 -0.0072
  659TMC3    C5 9753   1.990   3.657  15.112 -0.7481 -0.3713  0.1065
  659TMC3    C6 9754   2.081   3.654  15.220  0.1131  0.4063  0.1151
  659TMC3     C 9755   2.195   3.816  14.864  0.2699  0.2974  0.5817
  659TMC3     O 9756   2.280   3.904  14.855  0.6351  0.4626  0.5904
  659TMC3     H 9757   2.282   3.892  15.095 -1.0713  0.6832 -0.3514
  659TMC3    H1 9758   1.955   3.712  14.904 -1.4835  2.4782  0.7748
  659TMC3    H2 9759   2.041   3.622  15.316  2.0541 -0.6207  0.5738
  659TMC3    C7 9760   1.857   3.676  15.152 -0.2615  0.2672  0.3444
  659TMC3    C8 9761   2.176   3.817  15.330  0.4379 -0.4385 -0.2156
  659TMC3    O1 9762   1.820   3.632  15.262  0.6088 -0.0609  0.2797
  659TMC3    O2 9763   2.101   3.913  15.319 -0.4857  0.1228  0.0673
  660MPD2     C 9764   0.630   2.763  12.605  0.0868  0.1187  0.8736
  660MPD2    C1 9765   0.490   2.744  12.602  0.3968 -0.1926  0.2458
  660MPD2    C2 9766   0.430   2.674  12.705 -0.1487  0.0993  1.2636
  660MPD2    C3 9767   0.498   2.641  12.821  0.2029  0.3214 -0.3015
  660MPD2    C4 9768   0.629   2.675  12.823  0.1696  0.0804 -0.6607
  660MPD2    C5 9769   0.695   2.732  12.722  0.3069 -0.3668 -0.2590
  660MPD2     H 9770   0.327   2.641  12.702 -0.3371  0.8506 -0.7579
  660MPD2    H1 9771   0.696   2.652  12.906 -0.5702  0.7426  0.1163
  660MPD2    H2 9772   0.685   2.808  12.523  2.2239 -0.7602  1.8485
  660MPD2    H3 9773   0.799   2.755  12.737 -0.2398  1.6632  0.4781
  660MPD2     N 9774   0.426   2.578  12.931 -0.4738  0.6088 -0.1437
  660MPD2    H5 9775   0.477   2.570  13.018 -2.8094 -2.1648  1.0032
  660MPD2    N1 9776   0.422   2.797  12.493  1.0723 -0.3535  0.2189
  660MPD2    H7 9777   0.482   2.817  12.414 -0.1636 -0.5860 -0.7797
  661TMC3    C1 9778   0.250   2.892  12.364  0.9424 -0.3746 -0.4795
  661TMC3    C2 9779   0.336   2.923  12.257 -0.1161 -0.6533  0.3712
  661TMC3    C3 9780   0.276   2.991  12.153 -0.7541 -0.2208  0.1837
  661TMC3    C4 9781   0.116   2.909  12.352  0.6054  0.1762 -0.3615
  661TMC3    C5 9782   0.063   2.983  12.243 -0.3207  0.4028  0.7691
  661TMC3    C6 9783   0.151   3.048  12.156 -0.4503 -0.8313  0.5058
  661TMC3     C 9784   0.283   2.814  12.481 -0.5541 -0.2034  0.4605
  661TMC3     O 9785   0.198   2.784  12.563  0.1269  0.3839 -0.5947
  661TMC3     H 9786   0.443   2.902  12.253 -0.0093 -0.4657  1.9802
  661TMC3    H1 9787   0.051   2.875  12.432  0.1933 -0.6701 -1.0439
  661TMC3    H2 9788   0.123   3.115  12.075  1.6762 -1.8638 -1.0724
  661TMC3    C7 9789   4.677   2.927  12.174  0.0101 -0.4274 -0.3513
  661TMC3    C8 9790   0.324   2.951  12.026 -0.2070 -0.1638 -0.3498
  661TMC3    O1 9791   4.685   2.941  12.054  0.2656 -0.6629  0.6240
  661TMC3    O2 9792   0.443   2.931  12.015  0.0624  0.2136 -0.6382
  662MPD2     C 9793   0.604   1.818  16.895  0.1728 -0.5387 -0.0060
  662MPD2    C1 9794   0.516   1.815  16.998  0.0837  0.2318  0.6570
  662MPD2    C2 9795   0.490   1.939  17.059  0.6668 -0.1883 -0.2837
  662MPD2    C3 9796   0.535   2.060  16.997  0.1565  0.0568  0.2845
  662MPD2    C4 9797   0.617   2.049  16.883 -0.2561 -0.1999  0.2753
  662MPD2    C5 9798   0.658   1.928  16.840 -0.3234  0.1809  0.2164
  662MPD2     H 9799   0.411   1.952  17.132  1.1828 -0.6817  0.3707
  662MPD2    H1 9800   0.652   2.137  16.830 -0.3278  0.4715  1.3481
  662MPD2    H2 9801   0.640   1.728  16.847  0.2057 -0.3806 -0.2755
  662MPD2    H3 9802   0.713   1.907  16.749 -1.8799 -1.4416 -0.3726
  662MPD2     N 9803   0.496   2.194  17.030 -0.1013  0.4766  0.1667
  662MPD2    H5 9804   0.514   2.268  16.963  2.2392 -1.0394 -0.8623
  662MPD2    N1 9805   0.458   1.697  17.043 -0.7134  0.8064 -0.2025
  662MPD2    H7 9806   0.403   1.704  17.129 -0.2771  2.2563 -0.0369
  663TMC3    C1 9807   0.425   1.467  17.078 -0.0404 -1.0870  0.3441
  663TMC3    C2 9808   0.464   1.464  17.210 -0.0158  0.7093 -0.0397
  663TMC3    C3 9809   0.495   1.351  17.271 -0.3690  0.3938 -0.1777
  663TMC3    C4 9810   0.417   1.344  17.018 -0.1815 -0.2894  0.0775
  663TMC3    C5 9811   0.428   1.230  17.097  0.3206 -0.3974  0.0121
  663TMC3    C6 9812   0.452   1.231  17.229  0.2123  0.1818  0.2698
  663TMC3     C 9813   0.486   1.570  17.000  0.1030  0.2065  0.1711
  663TMC3     O 9814   0.565   1.519  16.917 -0.0459  0.3074 -0.3507
  663TMC3     H 9815   0.498   1.556  17.257 -0.0982  0.4200  0.5832
  663TMC3    H1 9816   0.402   1.326  16.912  0.6950  1.3507 -0.3146
  663TMC3    H2 9817   0.462   1.142  17.291  0.0603  0.9814  1.4341
  663TMC3    C7 9818   0.403   1.100  17.036  0.0490  0.6830  0.5499
  663TMC3    C8 9819   0.482   1.353  17.423 -0.4868 -0.3329  0.1530
  663TMC3    O1 9820   0.417   1.082  16.917 -0.0720 -0.1802  0.5556
  663TMC3    O2 9821   0.529   1.257  17.481 -0.2883 -0.0849  0.0261
  664MPD2     C 9822   2.735   0.806  17.505  0.2093 -0.9055 -0.0156
  664MPD2    C1 9823   2.851   0.769  17.564  0.0808  0.4200  0.0218
  664MPD2    C2 9824   2.836   0.721  17.694 -0.5315  0.8043  0.4006
  664MPD2    C3 9825   2.716   0.705   0.056  1.2986  0.1786  0.0213
  664MPD2    C4 9826   2.600   0.735  17.687  0.1776  0.2431  0.1442
  664MPD2    C5 9827   2.613   0.801  17.572 -0.3089  0.0228  0.2507
  664MPD2     H 9828   2.927   0.688   0.040 -0.5989  0.6629  0.4305
  664MPD2    H1 9829   2.498   0.723   0.019 -0.4102  2.3927 -0.8954
  664MPD2    H2 9830   2.727   0.844  17.404  1.0167  0.5986  0.4905
  664MPD2    H3 9831   2.521   0.825  17.519  0.1504  0.6515 -0.2581
  664MPD2     N 9832   2.718   0.659   0.191 -0.2025 -0.2527 -0.2339
  664MPD2    H5 9833   2.806   0.649   0.239  0.7855 -0.3918 -2.0859
  664MPD2    N1 9834   2.981   0.767  17.507  0.2202  0.2019 -0.7132
  664MPD2    H7 9835   3.060   0.734  17.561 -1.0140  1.5034  1.8955
  665TMC3    C1 9836   2.626   0.610   0.399 -0.1286 -0.8733 -0.3761
  665TMC3    C2 9837   2.525   0.555   0.482 -0.1923  0.0955 -0.2092
  665TMC3    C3 9838   2.556   0.546   0.617 -0.3894 -0.1218  0.3415
  665TMC3    C4 9839   2.744   0.650   0.450 -0.0704 -0.4781  0.0093
  665TMC3    C5 9840   2.765   0.625   0.585 -0.2369 -0.4403  0.4400
  665TMC3    C6 9841   2.677   0.573   0.668  0.3324  0.2665 -0.1139
  665TMC3     C 9842   2.600   0.636   0.263  0.3335  0.0898  0.4810
  665TMC3     O 9843   2.489   0.606   0.222 -0.3289  0.0362 -0.4486
  665TMC3     H 9844   2.429   0.527   0.441 -0.7061  0.4527  0.7762
  665TMC3    H1 9845   2.811   0.721   0.402  1.5640 -1.9223  0.1729
  665TMC3    H2 9846   2.700   0.568   0.774 -0.5290 -2.5217 -0.0587
  665TMC3    C7 9847   2.891   0.673   0.635  0.1718 -0.2414  0.3275
  665TMC3    C8 9848   2.446   0.535   0.715 -0.0682  0.4840 -0.7239
  665TMC3    O1 9849   2.971   0.664   0.545  0.2689 -0.1234 -0.0709
  665TMC3    O2 9850   2.470   0.547   0.836 -0.2358  0.1750 -0.1385
  666TMC3    C1 9851   2.577   0.220   9.795 -0.9190 -0.0554  1.1528
  666TMC3    C2 9852   2.660   0.166   9.880  0.2780 -0.3154 -0.0535
  666TMC3    C3 9853   2.792   0.208   9.884 -0.0768  0.5129  0.4703
  666TMC3    C4 9854   2.623   0.310   9.706  0.1198 -0.3278 -0.2374
  666TMC3    C5 9855   2.749   0.353   9.714 -0.7604  0.6628  0.0461
  666TMC3    C6 9856   2.846   0.303   9.801 -0.4263  0.3566  0.3485
  666TMC3     C 9857   2.439   0.179   9.784  0.0099 -0.2924 -0.5913
  666TMC3     O 9858   2.395   0.215   9.680 -0.7327 -0.7649  0.2041
  666TMC3     H 9859   2.634   0.081   9.943  2.4193 -1.0924 -0.2404
  666TMC3    H1 9860   2.559   0.351   9.630 -0.1586 -0.5235 -0.1078
  666TMC3    H2 9861   2.942   0.352   9.814  0.4288 -2.0099  2.8888
  666TMC3    C7 9862   2.776   0.497   9.681  0.5443 -0.7865  0.1485
  666TMC3    C8 9863   2.897   0.142   9.950  0.3073  0.0643 -0.1387
  666TMC3    O1 9864   2.674   0.559   9.644 -0.1213  0.7387 -0.8858
  666TMC3    O2 9865   3.012   0.163   9.920  0.4843  0.0352  0.2769
  667MPD2     C 9866   4.186   0.783  14.584 -0.3872 -0.0103 -0.3943
  667MPD2    C1 9867   4.129   0.733  14.699 -0.3167  0.9373  0.8911
  667MPD2    C2 9868   4.052   0.623  14.685  1.0251 -1.0955  0.6438
  667MPD2    C3 9869   4.048   0.549  14.568  0.2202  0.1856  0.0872
  667MPD2    C4 9870   4.115   0.595  14.455  0.0101  0.0400 -0.1836
  667MPD2    C5 9871   4.174   0.720  14.461  0.1800 -0.3671  0.4960
  667MPD2     H 9872   4.009   0.586  14.778 -0.7410 -0.1761  0.1966
  667MPD2    H1 9873   4.119   0.539  14.362  0.2996 -0.3510  0.0651
  667MPD2    H2 9874   4.241   0.876  14.575 -1.5256  0.7910  0.9220
  667MPD2    H3 9875   4.209   0.761  14.367 -1.2234 -1.9948 -0.7639
  667MPD2     N 9876   3.980   0.432  14.557 -0.6980 -0.0818 -0.3355
  667MPD2    H5 9877   3.973   0.389  14.465 -0.4862 -0.5927 -0.1124
  667MPD2    N1 9878   4.154   0.797  14.824 -0.1104 -1.1686 -0.2022
  667MPD2    H7 9879   4.112   0.754  14.905  0.2664 -0.6448  0.2674
  668TMC3    C1 9880   4.226   0.968  14.967  0.1605  0.7188 -0.5572
  668TMC3    C2 9881   4.317   1.055  15.014  0.3941 -0.7483  0.1397
  668TMC3    C3 9882   4.290   1.118  15.131 -0.6587  1.4147 -0.3991
  668TMC3    C4 9883   4.105   0.942  15.029  0.0859 -0.8189  0.3280
  668TMC3    C5 9884   4.081   1.002  15.147 -0.5898  0.7177 -0.0140
  668TMC3    C6 9885   4.179   1.082  15.205 -0.2730  0.9411 -0.5328
  668TMC3     C 9886   4.249   0.897  14.844 -0.3291 -0.4554 -0.4558
  668TMC3     O 9887   4.325   0.955  14.769  0.5411  0.6157 -0.0751
  668TMC3     H 9888   4.401   1.066  14.946 -2.4961  2.0376 -2.9507
  668TMC3    H1 9889   4.014   0.894  14.996 -1.7057  1.0862  2.4705
  668TMC3    H2 9890   4.147   1.119  15.301  0.6406 -1.4054  0.6644
  668TMC3    C7 9891   3.963   0.970  15.225 -0.9423 -0.5726  0.7158
  668TMC3    C8 9892   4.350   1.246  15.162  0.0748  1.0068 -0.1362
  668TMC3    O1 9893   3.860   0.946  15.161 -0.1490  0.5146  0.0895
  668TMC3    O2 9894   4.325   1.299  15.269  0.1324 -0.1499 -0.1700
  669TMC3    C1 9895   2.210   0.661  14.513  0.7622 -0.6930  0.1465
  669TMC3    C2 9896   2.099   0.663  14.427 -0.3417  0.0601  0.3435
  669TMC3    C3 9897   2.110   0.732  14.314  0.0788 -0.1407 -0.6199
  669TMC3    C4 9898   2.331   0.723  14.473  0.2229  0.9559  0.1650
  669TMC3    C5 9899   2.321   0.810  14.369  0.4796 -0.1513 -0.5781
  669TMC3    C6 9900   2.217   0.813  14.279 -0.2573  0.2057  0.3777
  669TMC3     C 9901   2.218   0.544  14.606  0.3157  0.9838  0.0291
  669TMC3     O 9902   2.115   0.483  14.611 -0.2171  0.7816  0.0801
  669TMC3     H 9903   2.010   0.603  14.441  1.1104 -2.1032  0.2822
  669TMC3    H1 9904   2.427   0.710  14.521  0.6973  2.0023 -0.4830
  669TMC3    H2 9905   2.217   0.874  14.190  0.3922 -1.8735 -1.0514
  669TMC3    C7 9906   2.441   0.881  14.333  0.0877  0.1304 -0.5645
  669TMC3    C8 9907   1.989   0.736  14.232  0.6323  0.0167 -0.0362
  669TMC3    O1 9908   2.522   0.895  14.425 -0.1972  0.6462  0.0986
  669TMC3    O2 9909   1.918   0.638  14.248  0.0571  0.0274  0.2575
  670MPD2     C 9910   0.460   3.394  13.775  0.4201  0.1776 -0.0213
  670MPD2    C1 9911   0.580   3.345  13.801 -0.6281 -0.2190  0.7551
  670MPD2    C2 9912   0.605   3.288  13.926  0.3300  0.6658 -0.4225
  670MPD2    C3 9913   0.513   3.302  14.029 -0.1866 -0.0548 -0.0622
  670MPD2    C4 9914   0.402   3.375  14.004 -0.9978 -0.0696 -0.3203
  670MPD2    C5 9915   0.369   3.411  13.878  0.3443 -0.1689  0.0858
  670MPD2     H 9916   0.698   3.241  13.957  0.9770  1.5575 -0.9983
  670MPD2    H1 9917   0.330   3.398  14.081 -0.2776 -3.9622  1.5132
  670MPD2    H2 9918   0.429   3.437  13.680  0.8692 -0.3115 -0.3878
  670MPD2    H3 9919   0.273   3.455  13.855  0.4114  0.0632  0.2517
  670MPD2     N 9920   0.554   3.242  14.154  0.1717 -0.5513  0.2414
  670MPD2    H5 9921   0.641   3.189  14.152 -1.0943 -2.5941 -0.4353
  670MPD2    N1 9922   0.685   3.343  13.700 -0.4042  0.5432 -0.4317
  670MPD2    H7 9923   0.775   3.304  13.728 -0.3546 -0.1471 -1.6009
  671TMC3    C1 9924   0.538   3.188  14.390  1.3656 -0.7825  0.5451
  671TMC3    C2 9925   0.668   3.148  14.379 -0.1185  0.1427  0.0405
  671TMC3    C3 9926   0.699   3.016  14.421  0.2995 -0.3364 -0.6041
  671TMC3    C4 9927   0.447   3.108  14.450 -0.0342  0.6169 -0.3922
  671TMC3    C5 9928   0.475   2.976  14.458 -0.2483  0.5351  0.5222
  671TMC3    C6 9929   0.602   2.930  14.462  0.3980 -0.2122  0.3662
  671TMC3     C 9930   0.485   3.259  14.278 -0.4038  0.5362 -0.1345
  671TMC3     O 9931   0.371   3.298  14.287  0.0791  0.3195  0.3643
  671TMC3     H 9932   0.737   3.210  14.322  0.9257 -2.2248 -1.3004
  671TMC3    H1 9933   0.343   3.137  14.447 -0.1688  0.1875  0.3329
  671TMC3    H2 9934   0.621   2.827  14.492 -0.0010 -1.2223 -2.8297
  671TMC3    C7 9935   0.393   2.897  14.364  0.4613  0.2634 -0.1567
  671TMC3    C8 9936   0.815   2.949  14.373 -0.5392 -0.1619 -0.5511
  671TMC3    O1 9937   0.332   2.963  14.282 -0.4226 -0.1303  0.1239
  671TMC3    O2 9938   0.803   2.842  14.310 -0.2227 -0.0289  0.1830
  672MPD2     C 9939   0.274   3.223   0.957 -0.1321  0.6715  0.0612
  672MPD2    C1 9940   0.406   3.197   0.967  0.1052  0.2178 -0.3383
  672MPD2    C2 9941   0.475   3.232   1.084 -0.6202  0.2936  0.1298
  672MPD2    C3 9942   0.407   3.288   1.190 -0.4211 -0.0361 -0.0257
  672MPD2    C4 9943   0.270   3.315   1.180  1.1620 -0.0275  0.1873
  672MPD2    C5 9944   0.204   3.279   1.062 -0.2413  0.5342  0.2499
  672MPD2     H 9945   0.582   3.219   1.077 -1.0079 -2.8130 -0.3235
  672MPD2    H1 9946   0.209   3.364   1.255  0.4719 -2.1364  1.0058
  672MPD2    H2 9947   0.220   3.209   0.864  0.8874  0.3559 -0.4925
  672MPD2    H3 9948   0.098   3.302   1.063 -0.2898  0.3087  0.3196
  672MPD2     N 9949   0.475   3.323   1.307  0.8196  0.1596 -0.0363
  672MPD2    H5 9950   0.421   3.372   1.377  1.5162  0.2368  0.4537
  672MPD2    N1 9951   0.488   3.157   0.862 -0.1373  0.2337 -0.1260
  672MPD2    H7 9952   0.588   3.148   0.880 -0.2847 -0.3029  0.3939
  673TMC3    C1 9953   0.559   3.129   0.635 -0.1867  0.0559  0.5705
  673TMC3    C2 9954   0.584   3.010   0.582 -0.5494  0.1955  0.1343
  673TMC3    C3 9955   0.711   2.996   0.530 -0.8214  0.1293  0.3612
  673TMC3    C4 9956   0.642   3.240   0.638 -0.2964 -0.3080  0.2197
  673TMC3    C5 9957   0.767   3.214   0.583  0.4320 -0.0084  0.8464
  673TMC3    C6 9958   0.801   3.097   0.521 -0.0587  0.3906 -0.0372
  673TMC3     C 9959   0.450   3.128   0.735 -0.0040 -1.2678  0.2269
  673TMC3     O 9960   0.345   3.074   0.703 -0.3231 -0.0051  0.1710
  673TMC3     H 9961   0.516   2.926   0.590  1.9024 -2.0333 -2.6032
  673TMC3    H1 9962   0.618   3.331   0.691 -1.1489 -0.4733  0.1214
  673TMC3    H2 9963   0.899   3.085   0.476 -0.6409 -2.0787 -0.6380
  673TMC3    C7 9964   0.877   3.311   0.583 -0.1547  0.6828 -0.2768
  673TMC3    C8 9965   0.763   2.861   0.533  0.0594 -0.3489  0.2386
  673TMC3    O1 9966   0.994   3.279   0.571  0.2443  0.6474  0.2672
  673TMC3    O2 9967   0.679   2.773   0.544  0.1275 -0.2418  0.5200
  674MPD2     C 9968   1.417   3.080   0.309  0.1643  0.3120 -0.4135
  674MPD2    C1 9969   1.331   2.973   0.298  0.1569 -0.6874  0.0362
  674MPD2    C2 9970   1.199   2.988   0.276  0.2859 -0.1526 -0.1863
  674MPD2    C3 9971   1.145   3.107   0.256 -0.2411 -0.2589  1.5966
  674MPD2    C4 9972   1.230   3.216   0.267  0.5912 -0.2705  0.2981
  674MPD2    C5 9973   1.362   3.207   0.295 -0.2221 -0.6662 -0.0065
  674MPD2     H 9974   1.133   2.903   0.279  0.3541 -0.1725  0.7560
  674MPD2    H1 9975   1.196   3.317   0.246 -0.6914 -0.5739  0.8961
  674MPD2    H2 9976   1.517   3.049   0.337 -0.7187 -3.7614 -1.8464
  674MPD2    H3 9977   1.420   3.296   0.311  0.9615 -1.2328 -1.1787
  674MPD2     N 9978   1.002   3.121   0.222  0.1388  0.0122 -0.2013
  674MPD2    H5 9979   0.948   3.036   0.213 -1.5116  0.9197  0.9625
  674MPD2    N1 9980   1.384   2.843   0.305 -0.1151 -0.0609  0.2783
  674MPD2    H7 9981   1.483   2.829   0.322 -0.1980 -0.9591  0.0050
  675TMC3    C1 9982   1.403   2.610   0.316  0.0236 -0.3232  0.0330
  675TMC3    C2 9983   1.353   2.498   0.259  0.4379 -0.3519  0.9700
  675TMC3    C3 9984   1.353   2.388   0.337  0.3179  0.2494  0.9055
  675TMC3    C4 9985   1.457   2.625   0.442 -0.4047 -0.2740  0.2166
  675TMC3    C5 9986   1.451   2.511   0.518  0.4840 -0.2569 -0.2194
  675TMC3    C6 9987   1.410   2.391   0.462  0.3570  0.8566  0.3143
  675TMC3     C 9988   1.323   2.722   0.273 -0.1000 -0.2779  0.2778
  675TMC3     O 9989   1.218   2.695   0.213  0.1279 -0.0948 -0.3039
  675TMC3     H 9990   1.302   2.495   0.163  1.4416  1.4231  0.3871
  675TMC3    H1 9991   1.513   2.714   0.467 -0.0832 -0.2507 -0.5773
  675TMC3    H2 9992   1.397   2.306   0.528  0.5846  0.7792  0.2616
  675TMC3    C7 9993   1.517   2.503   0.647 -0.2024 -0.2179 -1.1792
  675TMC3    C8 9994   1.231   2.311   0.319  0.0665  0.1024  0.3230
  675TMC3    O1 9995   1.561   2.389   0.680  0.0283  0.6938  0.1067
  675TMC3    O2 9996   1.235   2.194   0.360  0.6390  0.0547 -0.2999
  676MPD2     C 9997   3.787   1.517  10.730 -0.2948 -0.8190  0.3528
  676MPD2    C1 9998   3.670   1.488  10.797 -0.4171 -0.1096  0.2848
  676MPD2    C2 9999   3.576   1.418  10.725  0.3543  0.2712 -0.0344
  676MPD2    C310000   3.587   1.375  10.595  0.6600 -0.4909  0.0684
  676MPD2    C410001   3.710   1.400  10.536 -0.1961  0.2681 -0.2784
  676MPD2    C510002   3.809   1.467  10.609 -0.4590 -0.0911 -0.3619
  676MPD2     H10003   3.478   1.411  10.771  0.6769  1.6290  0.8532
  676MPD2    H110004   3.735   1.365  10.436  0.5903 -0.2856  0.1063
  676MPD2    H210005   3.874   1.556  10.781 -0.5829  0.1398  0.0926
  676MPD2    H310006   3.905   1.477  10.560  0.3071 -2.7392  0.5389
  676MPD2     N10007   3.480   1.309  10.524 -0.2228  0.1559 -0.1691
  676MPD2    H510008   3.507   1.272  10.434 -0.5139  1.4073 -0.7831
  676MPD2    N110009   3.646   1.520  10.930 -0.2749 -0.0481 -0.1165
  676MPD2    H710010   3.558   1.486  10.968 -0.7321  1.0843 -0.1690
  677TMC3    C110011   3.654   1.633  11.133  0.5266  0.0820  0.7087
  677TMC3    C210012   3.523   1.615  11.139  0.0463 -0.2412 -1.0665
  677TMC3    C310013   3.466   1.649  11.257  0.0575 -0.5664 -0.0761
  677TMC3    C410014   3.731   1.686  11.231 -0.1367 -0.5618  0.2426
  677TMC3    C510015   3.671   1.725  11.347  0.2562  0.5542 -0.6010
  677TMC3    C610016   3.536   1.703  11.365 -0.3006  0.4842  0.2509
  677TMC3     C10017   3.724   1.607  11.007 -1.0875 -0.6327  0.3750
  677TMC3     O10018   3.835   1.660  10.987 -0.0149  0.2454  0.3804
  677TMC3     H10019   3.468   1.575  11.055 -0.9472 -0.3473 -0.3567
  677TMC3    H110020   3.835   1.711  11.212 -0.6109  0.6940 -0.7449
  677TMC3    H210021   3.487   1.727  11.459 -2.1802 -2.9938  0.1378
  677TMC3    C710022   3.751   1.778  11.456 -0.1122 -0.2073 -0.0513
  677TMC3    C810023   3.321   1.641  11.251 -0.2591  0.1433 -1.0148
  677TMC3    O110024   3.710   1.758  11.572 -0.1102  0.4725  0.3876
  677TMC3    O210025   3.276   1.636  11.135 -0.3876  0.0674  0.0885
  678MPD2     C10026   4.045   1.782   1.408 -0.4964 -0.0991  1.0399
  678MPD2    C110027   4.033   1.662   1.340 -0.3344  0.1288  0.3618
  678MPD2    C210028   3.908   1.598   1.330  0.6409 -0.3788 -0.2708
  678MPD2    C310029   3.799   1.650   1.397 -0.3191 -0.2256 -0.2369
  678MPD2    C410030   3.811   1.772   1.458 -0.2058 -0.1032  0.6896
  678MPD2    C510031   3.933   1.834   1.463 -0.1546 -0.2395 -0.1617
  678MPD2     H10032   3.904   1.500   1.285 -2.9768 -0.0663 -0.6209
  678MPD2    H110033   3.720   1.811   1.502 -1.2778  0.7844 -2.3677
  678MPD2    H210034   4.136   1.840   1.422  0.0611 -0.1152 -2.5327
  678MPD2    H310035   3.930   1.927   1.518  2.0667 -0.3094  0.0785
  678MPD2     N10036   3.676   1.580   1.384 -0.4382  0.2123 -0.2644
  678MPD2    H510037   3.690   1.488   1.342 -0.0447 -1.2344  2.9386
  678MPD2    N110038   4.140   1.597   1.282 -0.6675  0.0184 -0.6124
  678MPD2    H710039   4.119   1.526   1.212 -1.3423  0.2081 -0.6046
  679TMC3    C110040   4.411   1.410   1.042  0.0020  0.3921  0.8829
  679TMC3    C210041   4.319   1.449   1.143 -0.0814 -0.3055 -0.5414
  679TMC3    C310042   4.338   1.584   1.173 -0.4731  0.0603  0.2093
  679TMC3    C410043   4.494   1.492   0.970 -0.1507  0.1872 -0.3301
  679TMC3    C510044   4.485   1.626   0.999 -0.7208 -0.5937  0.0048
  679TMC3    C610045   4.412   1.676   1.104  0.4807  0.4869 -0.5612
  679TMC3     C10046   4.451   1.276   1.045 -0.2653  0.1995 -0.3350
  679TMC3     O10047   4.372   1.199   1.101 -0.2432  0.0761 -0.1914
  679TMC3     H10048   4.255   1.380   1.197  0.3702  1.0074  1.6730
  679TMC3    H110049   4.566   1.459   0.896 -1.2385  2.0099 -2.2102
  679TMC3    H210050   4.436   1.775   1.142  0.4549 -0.6442  2.4312
  679TMC3    C710051   4.551   1.721   0.906  0.4175  0.2737 -0.1009
  679TMC3    C810052   4.265   1.643   1.280 -0.3606 -0.8535 -0.6813
  679TMC3    O110053   4.603   1.674   0.808  0.8889  0.6675 -0.1271
  679TMC3    O210054   4.320   1.737   1.339 -0.1873 -0.1865 -0.2952
  680MPD2     C10055   0.094   0.017  13.288 -0.2074  0.5000 -0.0067
  680MPD2    C110056   0.187   4.703  13.385  0.6223  0.6507 -0.5813
  680MPD2    C210057   0.228   0.066  13.485 -0.0694  0.0353  0.3554
  680MPD2    C310058   0.180   0.198  13.492 -0.0208 -0.5691 -0.2211
  680MPD2    C410059   0.078   0.231  13.404  0.2039  0.6768  0.0778
  680MPD2    C510060   0.035   0.143  13.309  0.0315 -0.3187  0.1891
  680MPD2     H10061   0.316   0.030  13.538 -0.7196 -0.5667  1.0197
  680MPD2    H110062   0.043   0.333  13.397 -1.5603 -0.0205 -1.3116
  680MPD2    H210063   0.057   4.681  13.207  1.3942 -0.9470  0.3636
  680MPD2    H310064   4.678   0.175  13.246  0.4939 -1.5418 -1.0374
  680MPD2     N10065   0.225   0.298  13.580 -0.1252  0.5308  0.2099
  680MPD2    H510066   0.175   0.386  13.583 -1.1457 -0.1340  3.0462
  680MPD2    N110067   0.250   4.576  13.379  0.0680 -0.0659 -0.3696
  680MPD2    H710068   0.330   4.566  13.441  0.8887 -0.4826 -1.4894
  681TMC3    C110069   0.319   4.368  13.286 -0.4686 -0.2110 -0.0491
  681TMC3    C210070   0.383   4.331  13.404  0.1694 -0.0786 -0.2165
  681TMC3    C310071   0.483   4.234  13.401  0.1743  0.8759 -0.2430
  681TMC3    C410072   0.356   4.321  13.164  0.7023 -0.2255 -0.7474
  681TMC3    C510073   0.473   4.245  13.164 -0.9083 -0.3040 -0.1906
  681TMC3    C610074   0.532   4.198  13.281 -0.3879  0.1768 -0.2059
  681TMC3     C10075   0.223   4.478  13.283 -0.4040 -0.3579 -0.1658
  681TMC3     O10076   0.127   4.470  13.203  0.3683 -0.1368  0.0408
  681TMC3     H10077   0.322   4.348  13.492  2.6586  0.7041  1.3278
  681TMC3    H110078   0.298   4.345  13.076 -0.2388 -1.0934 -0.3582
  681TMC3    H210079   0.616   4.129  13.271 -0.4635  0.1485 -0.6213
  681TMC3    C710080   0.561   4.253  13.051  0.2466  0.2327  0.4086
  681TMC3    C810081   0.536   4.192  13.528  0.2094 -0.0579 -0.2511
  681TMC3    O110082   0.656   4.177  13.045  0.1234  0.0300 -0.0611
  681TMC3    O210083   0.586   4.079  13.533 -0.4090  0.1378  0.4054
  682MPD2     C10084   2.803   1.664  10.264 -0.9367 -0.3844 -0.3402
  682MPD2    C110085   2.705   1.565  10.281  0.1493 -1.2837  0.2717
  682MPD2    C210086   2.636   1.569  10.394  0.0917  0.7366 -0.9431
  682MPD2    C310087   2.673   1.651  10.500 -0.1391  0.3145 -0.0716
  682MPD2    C410088   2.777   1.738  10.485 -0.4776  0.3602 -0.1442
  682MPD2    C510089   2.836   1.751  10.360  0.0385 -0.8544 -0.3499
  682MPD2     H10090   2.555   1.497  10.394 -0.4546  1.3557 -0.6474
  682MPD2    H110091   2.814   1.804  10.562 -1.6511  1.0616 -0.1775
  682MPD2    H210092   2.853   1.675  10.168 -0.6594 -1.9823 -0.3881
  682MPD2    H310093   2.916   1.823  10.341 -2.0473  1.0631 -1.8707
  682MPD2     N10094   2.611   1.647  10.624 -0.5940 -1.0064 -0.2088
  682MPD2    H510095   2.662   1.701  10.693  1.0130  0.4026 -2.5148
  682MPD2    N110096   2.668   1.475  10.180 -0.1572 -0.0340 -0.3690
  682MPD2    H710097   2.613   1.398  10.216  0.7126 -0.9204 -0.9371
  683TMC3    C110098   2.492   1.686  10.996  0.0593  0.0970  0.5351
  683TMC3    C210099   2.421   1.585  11.058 -0.4950 -0.2171 -0.2949
  683TMC3    C310100   2.378   1.484  10.985 -0.4143  0.1545  0.3874
  683TMC3    C410101   2.525   1.688  10.865 -0.1399 -0.2485 -0.5729
  683TMC3    C510102   2.473   1.576  10.796 -0.0761 -0.1432 -0.0314
  683TMC3    C610103   2.406   1.470  10.855 -0.1279  0.2380  0.5833
  683TMC3     C10104   2.540   1.794  11.083  1.2532  0.5205  0.4430
  683TMC3     O10105   2.489   1.800  11.192 -0.0978  0.9062  0.1228
  683TMC3     H10106   2.414   1.590  11.166 -0.3586  0.2222 -0.3062
  683TMC3    H110107   2.544   1.784  10.818 -0.1272  0.3066  0.5651
  683TMC3    H210108   2.369   1.381  10.805 -2.2525  0.3915  1.9027
  683TMC3    C710109   2.514   1.557  10.662  0.3504 -0.2637  0.2650
  683TMC3    C810110   2.340   1.359  11.042  0.2130  0.0725  0.2892
  683TMC3    O110111   2.475   1.458  10.606  0.1842 -0.2647  0.3512
  683TMC3    O210112   2.365   1.250  10.988  0.9636  0.0763 -0.0594
  684MPD2     C10113   0.211   1.509  16.575 -0.5601 -0.1454  0.0286
  684MPD2    C110114   0.174   1.594  16.475 -0.4552  0.5722 -0.2078
  684MPD2    C210115   0.239   1.710  16.458 -0.0646 -0.2686  0.6542
  684MPD2    C310116   0.337   1.750  16.550 -0.5550 -0.0096 -0.0854
  684MPD2    C410117   0.373   1.657  16.651 -0.2482  0.6882 -1.1023
  684MPD2    C510118   0.312   1.538  16.661 -0.7547 -0.0667  0.8820
  684MPD2     H10119   0.211   1.773  16.374  1.6312  0.9216  0.9726
  684MPD2    H110120   0.440   1.686  16.731 -0.9252 -0.3118 -0.1727
  684MPD2    H210121   0.153   1.420  16.595  1.6363 -1.5781 -0.0458
  684MPD2    H310122   0.339   1.471  16.741 -0.0428  0.9278  1.4709
  684MPD2     N10123   0.424   1.860  16.536 -0.3684 -0.0686  0.0899
  684MPD2    H510124   0.512   1.852  16.588 -0.0409 -0.7135 -0.5706
  684MPD2    N110125   0.099   1.551  16.362  0.0707 -0.4993  0.2927
  684MPD2    H710126   0.097   1.613  16.281  1.9382 -0.4788  0.2651
  685TMC3    C110127   0.063   1.399  16.186  0.4187 -0.2535 -0.1866
  685TMC3    C210128   4.689   1.316  16.130  0.0651  0.5544  0.2861
  685TMC3    C310129   4.687   1.291  15.998  0.7040 -0.2037  0.4445
  685TMC3    C410130   0.174   1.434  16.115 -0.1847 -0.7872 -0.0336
  685TMC3    C510131   0.172   1.395  15.983  0.3888  0.2969 -0.1262
  685TMC3    C610132   0.067   1.334  15.926  0.1369  0.7141  0.1210
  685TMC3     C10133   0.060   1.418  16.329  0.3381 -0.0369 -0.0954
  685TMC3     O10134   0.005   1.337  16.404 -0.3642  0.5258 -0.3798
  685TMC3     H10135   4.607   1.288  16.195  0.6865  0.4245  1.0174
  685TMC3    H110136   0.256   1.493  16.154 -0.2941 -1.0011  0.5171
  685TMC3    H210137   0.072   1.296  15.825  1.5067  0.1633  0.3979
  685TMC3    C710138   0.300   1.403  15.911 -0.3496 -0.6465  0.2316
  685TMC3    C810139   4.589   1.202  15.939 -1.0623 -1.0089  0.1385
  685TMC3    O110140   0.307   1.430  15.792 -0.2852 -0.0227 -0.3449
  685TMC3    O210141   4.575   1.214  15.817 -0.1975 -0.2448  0.4467
  686MPD2     C10142   0.764   1.018  15.807  0.4544 -0.3256  0.3785
  686MPD2    C110143   0.854   0.924  15.861  0.3040 -0.6566 -0.6166
  686MPD2    C210144   0.993   0.947  15.842  0.1349 -0.5405  0.2835
  686MPD2    C310145   1.028   1.061  15.766 -0.3378 -0.0189 -0.1464
  686MPD2    C410146   0.939   1.138  15.703 -0.1483 -0.6333  0.0585
  686MPD2    C510147   0.803   1.121  15.726  0.0354 -0.2501  0.2667
  686MPD2     H10148   1.074   0.885  15.879 -0.5869 -1.7898 -0.2213
  686MPD2    H110149   0.969   1.223  15.643  2.1551 -2.2439 -1.0483
  686MPD2    H210150   0.658   1.001  15.818  0.2610  0.4539 -0.2881
  686MPD2    H310151   0.723   1.180  15.684 -1.3885 -1.6911  0.9621
  686MPD2     N10152   1.161   1.095  15.726  0.0245 -0.3949  0.3967
  686MPD2    H510153   1.160   1.149  15.640  1.5810  0.6947  1.0659
  686MPD2    N110154   0.808   0.809  15.933  0.0901  0.4953 -0.4075
  686MPD2    H710155   0.708   0.789  15.928  0.0716  0.6186 -0.5385
  687TMC3    C110156   1.393   1.063  15.717  0.1957 -0.0133 -0.0462
  687TMC3    C210157   1.418   1.181  15.648 -0.0896  0.3702 -0.1896
  687TMC3    C310158   1.548   1.193  15.601 -0.2629 -0.9280 -0.0150
  687TMC3    C410159   1.489   0.969  15.732  0.5482 -0.2584  0.0488
  687TMC3    C510160   1.618   0.989  15.684  0.2777 -0.2518  1.1038
  687TMC3    C610161   1.646   1.105  15.625  0.1209  0.0802  0.7065
  687TMC3     C10162   1.276   1.050  15.791  0.1712  0.0111  0.1141
  687TMC3     O10163   1.280   0.980  15.893 -0.2830  0.5540 -0.4937
  687TMC3     H10164   1.350   1.266  15.653 -0.9749 -0.2793 -1.0906
  687TMC3    H110165   1.463   0.878  15.785  0.8584  0.0673  0.7600
  687TMC3    H210166   1.740   1.111  15.570  0.1809  1.5609  0.9669
  687TMC3    C710167   1.723   0.899  15.714  0.4052 -0.2230 -0.2233
  687TMC3    C810168   1.571   1.291  15.500 -0.5899  0.0470 -0.9435
  687TMC3    O110169   1.835   0.946  15.718  0.4653 -0.7904 -0.2659
  687TMC3    O210170   1.681   1.336  15.484 -0.3061 -0.0907  0.0120
  688MPD2     C10171   1.070   4.506  17.482  0.1413  0.1993 -0.3440
  688MPD2    C110172   1.130   4.382  17.484 -0.1759 -0.0400 -0.6107
  688MPD2    C210173   1.230   4.350  17.394  0.2971  0.4120 -0.0698
  688MPD2    C310174   1.261   4.445  17.288 -0.4172 -0.1078 -0.2781
  688MPD2    C410175   1.191   4.563  17.288  0.3883 -0.5555  0.3919
  688MPD2    C510176   1.097   4.596  17.382  0.1008  0.2402 -0.2554
  688MPD2     H10177   1.271   4.251  17.412  2.6757  1.3731 -0.3083
  688MPD2    H110178   1.205   4.642  17.215 -0.7301 -0.9310 -0.2230
  688MPD2    H210179   0.986   4.528  17.547 -0.6688 -0.9955 -1.0078
  688MPD2    H310180   1.041   4.689  17.379  0.3142  0.2927 -3.2318
  688MPD2     N10181   1.359   4.421  17.187  0.3502 -0.1837 -0.5755
  688MPD2    H510182   1.368   4.493  17.116  1.7228 -0.8526 -1.0771
  688MPD2    N110183   1.116   4.293  17.589 -0.3806  0.3302 -0.2482
  688MPD2    H710184   1.149   4.198  17.576 -0.9563 -0.1756  1.8697
  689TMC3    C110185   1.049   4.227   0.099 -0.2823 -0.7682 -0.1021
  689TMC3    C210186   1.052   4.264   0.239 -0.5916 -0.4120  0.1922
  689TMC3    C310187   1.048   4.160   0.329  0.0309 -0.9963  0.9206
  689TMC3    C410188   1.035   4.101   0.057  0.6709 -0.0249 -0.4195
  689TMC3    C510189   1.033   4.002   0.153  0.3903  0.0974 -0.4391
  689TMC3    C610190   1.028   4.027   0.291 -0.7146  0.0504 -0.1356
  689TMC3     C10191   1.056   4.334   0.005 -0.3181 -0.2971  0.1087
  689TMC3     O10192   1.007   4.440   0.044 -0.8432 -0.2196 -0.1905
  689TMC3     H10193   1.050   4.370   0.261 -0.0253 -0.4201  0.2871
  689TMC3    H110194   1.019   4.069  17.658  1.2837 -0.3883 -0.3995
  689TMC3    H210195   1.034   3.945   0.363  0.5596  0.4788  0.2413
  689TMC3    C710196   1.082   3.875   0.118  0.2363 -0.0531  0.3295
  689TMC3    C810197   1.082   4.200   0.464  0.5112  0.2607 -0.4228
  689TMC3    O110198   1.176   3.836   0.190 -0.2136  0.2734  0.1581
  689TMC3    O210199   1.037   4.133   0.552 -0.0133 -0.6115  0.0006
  690MPD2     C10200   2.960   1.417  15.648  0.4275 -0.4495  0.0091
  690MPD2    C110201   2.975   1.401  15.510  0.6077  0.5926  0.3169
  690MPD2    C210202   3.094   1.448  15.454 -0.0217 -0.1027 -0.1613
  690MPD2    C310203   3.196   1.501  15.528  0.4064 -0.3070 -0.8341
  690MPD2    C410204   3.179   1.513  15.660  0.6474  0.0930 -0.0811
  690MPD2    C510205   3.064   1.466  15.717 -0.2799 -0.0007 -0.1366
  690MPD2     H10206   3.116   1.449  15.348  1.4716 -0.7789  0.1444
  690MPD2    H110207   3.251   1.558  15.728  1.0084 -0.3068 -0.1904
  690MPD2    H210208   2.878   1.379  15.708  0.4351  2.4234  1.8433
  690MPD2    H310209   3.050   1.465  15.825  1.0289  1.3253  0.0400
  690MPD2     N10210   3.307   1.565  15.470 -0.0761  0.5582  0.1112
  690MPD2    H510211   3.301   1.591  15.372 -1.1450 -2.0806 -0.5038
  690MPD2    N110212   2.866   1.346  15.436  0.0272 -0.3343  0.1303
  690MPD2    H710213   2.874   1.332  15.336 -0.9576  2.4286 -0.3496
  691TMC3    C110214   2.640   1.236  15.420  0.2536 -0.0850 -0.2539
  691TMC3    C210215   2.513   1.261  15.457 -0.1463 -0.4282  0.3647
  691TMC3    C310216   2.429   1.155  15.471  0.1655 -0.5485  0.3186
  691TMC3    C410217   2.683   1.115  15.377 -0.4301 -0.0992 -0.6561
  691TMC3    C510218   2.593   1.013  15.383  0.5534  0.0190  0.6135
  691TMC3    C610219   2.472   1.030  15.444  0.2418  0.6865 -1.1081
  691TMC3     C10220   2.740   1.329  15.485 -0.5222  0.0916 -0.1847
  691TMC3     O10221   2.683   1.389  15.574 -0.8651  0.6132 -0.3835
  691TMC3     H10222   2.496   1.367  15.477 -1.8847 -0.4008 -1.3001
  691TMC3    H110223   2.784   1.084  15.352 -0.6539 -0.1340 -1.5441
  691TMC3    H210224   2.404   0.947  15.461  1.1865  0.0489 -0.4179
  691TMC3    C710225   2.637   0.870  15.374 -0.2648 -0.1629  0.3904
  691TMC3    C810226   2.295   1.175  15.529  0.4121 -0.4530 -0.1188
  691TMC3    O110227   2.754   0.841  15.383  0.0928  0.3451  0.0088
  691TMC3    O210228   2.215   1.079  15.521 -0.3475  0.1825 -0.5798
  692TMC3    C110229   0.078   3.045  15.844 -1.0382 -0.1167 -0.1722
  692TMC3    C210230   0.162   3.093  15.939  0.3313 -0.2718 -0.7533
  692TMC3    C310231   0.282   3.034  15.963 -0.5474 -0.1634 -0.1251
  692TMC3    C410232   0.104   2.918  15.797 -0.3321  0.4004  0.3920
  692TMC3    C510233   0.207   2.848  15.848  0.1227  0.1149 -0.2814
  692TMC3    C610234   0.297   2.901  15.933 -0.4436 -0.0507 -1.0961
  692TMC3     C10235   4.670   3.074  15.880  0.1513  0.2986  0.1404
  692TMC3     O10236   4.655   3.127  15.990  0.2413 -0.1054  0.3057
  692TMC3     H10237   0.152   3.198  15.964  1.7809  0.0980 -1.7093
  692TMC3    H110238   0.027   2.857  15.751 -0.3318  1.8543 -1.4977
  692TMC3    H210239   0.387   2.852  15.967  1.2190  1.6748 -2.9769
  692TMC3    C710240   0.217   2.712  15.801 -0.3918  0.2975  0.2942
  692TMC3    C810241   0.307   3.047  16.104  0.0285 -0.8452  0.3360
  692TMC3    O110242   0.170   2.677  15.696 -0.1625  0.5851 -0.1606
  692TMC3    O210243   0.419   3.064  16.145 -0.1505  0.0540  0.2972
  693MPD2     C10244   4.327   0.131  10.444 -0.0111  0.3139  0.2679
  693MPD2    C110245   4.240   0.039  10.504 -0.3299 -0.3065  0.1609
  693MPD2    C210246   4.296   4.649  10.559  0.0226 -0.3914  0.2432
  693MPD2    C310247   4.436   4.629  10.567 -0.5096  1.0007 -0.7682
  693MPD2    C410248   4.520   0.007  10.523 -0.2573 -0.2748  0.7295
  693MPD2    C510249   4.461   0.120  10.473  0.0711  0.0127  0.5458
  693MPD2     H10250   4.228   4.585  10.615 -1.2496 -0.5498 -1.4945
  693MPD2    H110251   4.627   0.004  10.543 -0.0283 -1.1051 -0.6496
  693MPD2    H210252   4.287   0.225  10.406 -1.0943  0.9576  2.9929
  693MPD2    H310253   4.536   0.196  10.452 -3.1081  2.8946 -0.4585
  693MPD2     N10254   4.488   4.518  10.635  0.2738 -0.8080  0.1569
  693MPD2    H510255   4.589   4.517  10.646  0.8005  0.9231 -4.4578
  693MPD2    N110256   4.106   0.063  10.509  0.1494 -0.2763 -1.0453
  693MPD2    H710257   4.069   0.156  10.491 -0.4492 -0.3969 -0.4562
  694TMC3    C110258   3.900   0.014  10.595  0.0840  0.2668 -1.0874
  694TMC3    C210259   3.785   4.671  10.559 -0.1095  0.2370  0.2422
  694TMC3    C310260   3.683   4.652  10.654 -0.4145  0.0583  0.0687
  694TMC3    C410261   3.916   0.080  10.714  0.0022 -0.1303  0.0218
  694TMC3    C510262   3.812   0.071  10.798  0.4215 -0.3077 -0.1722
  694TMC3    C610263   3.691   4.723  10.770  0.3763  0.5237 -0.2385
  694TMC3     C10264   4.020   4.689  10.541  0.3922 -0.1740 -0.0034
  694TMC3     O10265   4.009   4.576  10.499 -0.9408  0.1709 -0.5177
  694TMC3     H10266   3.770   4.640  10.456 -2.5887 -0.0162  0.6766
  694TMC3    H110267   4.014   0.118  10.739 -0.2732 -0.0294  0.9339
  694TMC3    H210268   3.614   4.715  10.846  1.4360 -2.2659  0.5457
  694TMC3    C710269   3.842   0.121  10.930  0.1865 -0.5184  0.2554
  694TMC3    C810270   3.570   4.560  10.644 -0.5353  0.2581  0.0115
  694TMC3    O110271   3.926   0.205  10.965 -0.5482 -0.3454  0.0021
  694TMC3    O210272   3.487   4.570  10.732  0.2778 -0.4289 -0.0778
  695MPD2     C10273   0.848   2.741  13.317 -0.4136  0.0367  0.6771
  695MPD2    C110274   0.826   2.707  13.450  0.6531 -0.5687 -0.0662
  695MPD2    C210275   0.700   2.701  13.496 -0.1806  0.3507 -0.4092
  695MPD2    C310276   0.598   2.721  13.410 -0.7412 -0.1284  0.4242
  695MPD2    C410277   0.619   2.749  13.278  0.3925  0.0879 -0.5186
  695MPD2    C510278   0.745   2.768  13.227  0.8539 -0.1569  0.0447
  695MPD2     H10279   0.681   2.680  13.601 -1.2367  0.2587 -0.6259
  695MPD2    H110280   0.537   2.756  13.207  1.6182  1.6449 -1.7704
  695MPD2    H210281   0.948   2.748  13.275 -0.7059 -1.4675 -0.2641
  695MPD2    H310282   0.755   2.791  13.122  1.0313  0.3476  0.1733
  695MPD2     N10283   0.469   2.725  13.471  0.4912  0.5193  0.5664
  695MPD2    H510284   0.471   2.713  13.572 -0.4253 -2.8090  0.1899
  695MPD2    N110285   0.931   2.678  13.544  0.0523  0.6717 -0.5714
  695MPD2    H710286   0.904   2.677  13.642 -2.1143  0.5388 -1.1754
  696TMC3    C110287   0.243   2.753  13.507  0.3462 -0.5382  0.3467
  696TMC3    C210288   0.259   2.706  13.636  0.9983  0.3437  0.7379
  696TMC3    C310289   0.186   2.771  13.732  0.4523 -0.0756  1.0038
  696TMC3    C410290   0.158   2.856  13.477  0.1509 -0.4457 -0.4307
  696TMC3    C510291   0.100   2.919  13.587  0.5315  0.3769 -0.6336
  696TMC3    C610292   0.105   2.880  13.717 -0.0627 -0.7577  0.9346
  696TMC3     C10293   0.350   2.760  13.412  0.1127 -0.1299 -0.9157
  696TMC3     O10294   0.330   2.787  13.292 -0.5241  0.0823 -0.0573
  696TMC3     H10295   0.311   2.613  13.655  1.2002  0.4215  0.5697
  696TMC3    H110296   0.157   2.898  13.377  1.1840  0.0624 -0.2260
  696TMC3    H210297   0.040   2.915  13.797 -2.6529 -2.4354 -0.4424
  696TMC3    C710298   0.045   3.053  13.566 -0.2851  0.3418  0.1712
  696TMC3    C810299   0.227   2.754  13.878 -0.0634  0.2961 -0.7041
  696TMC3    O110300   0.000   3.090  13.456 -0.1739 -0.2572 -0.3403
  696TMC3    O210301   0.175   2.821  13.968  0.0156  0.1514  0.1898
  697MPD2     C10302   4.168   4.524  15.457 -0.3391  0.0634 -0.1963
  697MPD2    C110303   4.257   4.440  15.386  0.2577 -0.1821  0.8581
  697MPD2    C210304   4.351   4.497  15.305  0.4713 -0.1033  0.7780
  697MPD2    C310305   4.361   4.637  15.297 -0.9915 -0.4885  0.5029
  697MPD2    C410306   4.284   4.717  15.376 -0.1316 -0.3606  0.5295
  697MPD2    C510307   4.189   4.662  15.454 -0.6619  0.1404 -0.6364
  697MPD2     H10308   4.420   4.430  15.254 -1.5922 -2.9293  1.6787
  697MPD2    H110309   4.285   0.100  15.371  0.4947 -0.3046  1.8747
  697MPD2    H210310   4.103   4.479  15.532 -1.4321  2.3703  0.2342
  697MPD2    H310311   4.127   0.002  15.513 -1.4727 -0.5448 -0.7214
  697MPD2     N10312   4.459   4.688  15.206 -0.0730  0.7917 -0.2684
  697MPD2    H510313   4.511   4.625  15.146  0.5536  1.9637 -0.9580
  697MPD2    N110314   4.270   4.298  15.398 -0.3671  0.0199  0.3168
  697MPD2    H710315   4.348   4.256  15.349 -0.3136  1.6993 -1.0461
  698TMC3    C110316   4.647   0.087  15.139 -0.6345  0.1342  0.4519
  698TMC3    C210317   0.032   0.137  15.194  0.9534  0.7801  0.1541
  698TMC3    C310318   0.151   0.118  15.125 -0.0359 -0.0325  0.4131
  698TMC3    C410319   4.656   0.042  15.010 -0.0532 -0.2011 -0.1184
  698TMC3    C510320   0.049   0.023  14.946  0.0150  0.2484  0.5110
  698TMC3    C610321   0.162   0.056  15.008 -0.5416 -0.7885 -0.4174
  698TMC3     C10322   4.518   0.085  15.217 -0.4061  0.2859 -0.4368
  698TMC3     O10323   4.496   0.172  15.301 -0.0665 -0.7687 -0.3302
  698TMC3     H10324   0.033   0.172  15.296 -1.2047  1.6815 -0.1332
  698TMC3    H110325   4.560   0.020  14.964  0.2393 -1.5612 -0.1033
  698TMC3    H210326   0.258   0.050  14.957 -1.0837 -1.2877 -1.3586
  698TMC3    C710327   0.048   4.717  14.803 -0.1638  0.1083  0.7032
  698TMC3    C810328   0.273   0.154  15.196  0.2834 -0.2197  0.3756
  698TMC3    O110329   4.669   0.020  14.742  0.2317  0.2702  0.9425
  698TMC3    O210330   0.264   0.138  15.318 -0.3735  0.1044 -0.1317
  699TMC3    C110331   0.248   2.529  13.074  0.4265 -0.4728 -0.1536
  699TMC3    C210332   0.342   2.484  13.160 -0.3450 -1.1841  0.2074
  699TMC3    C310333   0.292   2.456  13.291  0.2195 -0.0697  0.4687
  699TMC3    C410334   0.118   2.551  13.109 -0.4814  0.0627  0.0311
  699TMC3    C510335   0.078   2.532  13.239  0.5252 -0.5138 -0.0759
  699TMC3    C610336   0.163   2.481  13.332 -0.1817 -0.0336  0.3905
  699TMC3     C10337   0.288   2.553  12.934  0.1572 -0.1012  0.0564
  699TMC3     O10338   0.201   2.556  12.851  0.2220  0.4422  0.1011
  699TMC3     H10339   0.444   2.458  13.134 -0.4810 -0.5181 -0.9601
  699TMC3    H110340   0.052   2.591  13.033  1.5669  3.5373  0.1328
  699TMC3    H210341   0.134   2.476  13.437 -1.3479 -0.1607  0.0565
  699TMC3    C710342   4.662   2.508  13.262  0.3154  0.3925  0.9485
  699TMC3    C810343   0.388   2.398  13.380  0.4133  0.3458 -0.0864
  699TMC3    O110344   4.638   2.516  13.380  0.0677  0.0813 -0.9569
  699TMC3    O210345   0.502   2.408  13.342  0.0367  0.0154 -0.2972
  700TMC3    C110346   3.785   4.712  17.637 -0.1193  0.2899  0.5043
  700TMC3    C210347   3.875   4.613  17.605 -0.6558 -0.8270  0.3773
  700TMC3    C310348   3.998   4.615  17.653 -0.6728 -0.5225  0.0527
  700TMC3    C410349   3.821   0.101   0.007 -0.1424  0.2712 -0.0560
  700TMC3    C510350   3.944   0.105   0.049  0.4213  0.7626  0.0412
  700TMC3    C610351   4.033   0.003   0.028 -0.6462 -0.0009 -0.0774
  700TMC3     C10352   3.678   0.014  17.553  0.5669 -0.3911  0.2911
  700TMC3     O10353   3.621   4.638  17.514 -0.0750 -0.3928 -0.0700
  700TMC3     H10354   3.842   4.541  17.531 -1.5625  0.9203 -0.9136
  700TMC3    H110355   3.754   0.186   0.014 -1.1941 -0.5944  0.3375
  700TMC3    H210356   4.128   0.016   0.080 -1.3846  2.8712  0.5729
  700TMC3    C710357   3.999   0.214   0.127 -0.1520 -0.2908  0.2565
  700TMC3    C810358   4.094   4.516  17.629  0.5839  0.5615  0.0389
  700TMC3    O110359   4.119   0.218   0.153 -0.4558  0.4726 -0.0202
  700TMC3    O210360   4.208   4.529  17.675  0.3134  0.3442  0.2159
  701TMC3    C110361   3.965   3.291  14.888  0.5599  0.1462 -0.0677
  701TMC3    C210362   4.039   3.304  14.774  0.9231 -0.0910  0.3804
  701TMC3    C310363   4.087   3.422  14.734  0.3070 -0.5062  0.3157
  701TMC3    C410364   3.959   3.399  14.980 -0.2128 -0.4783 -0.2241
  701TMC3    C510365   4.018   3.514  14.935  0.4339  0.3592  0.1977
  701TMC3    C610366   4.070   3.533  14.811  0.4943 -0.2588  0.2146
  701TMC3     C10367   3.872   3.182  14.909  0.3335 -0.4156  1.2176
  701TMC3     O10368   3.812   3.187  15.017  0.0912  0.1385  0.0328
  701TMC3     H10369   4.051   3.228  14.698  1.9793  0.8819 -0.4258
  701TMC3    H110370   3.919   3.395  15.080 -2.3054 -0.3531 -1.0644
  701TMC3    H210371   4.094   3.631  14.771 -0.4693  0.9518  2.6754
  701TMC3    C710372   4.015   3.629  15.021 -0.3076 -0.5726  0.2643
  701TMC3    C810373   4.048   3.435  14.592 -0.5315  0.3306  0.9852
  701TMC3    O110374   4.061   3.726  14.964  0.3442 -0.2499  0.2085
  701TMC3    O210375   4.118   3.391  14.506  0.0142 -0.2963  0.4034
  702MPD2     C10376   3.385   1.023   9.872  0.4048 -0.0035  0.4756
  702MPD2    C110377   3.394   1.133   9.955 -1.0397 -0.4129 -0.0700
  702MPD2    C210378   3.450   1.244   9.904 -0.1381 -0.3273  0.3551
  702MPD2    C310379   3.507   1.245   9.775 -1.0585 -0.1584 -0.1139
  702MPD2    C410380   3.504   1.132   9.700  0.5583  0.1731 -0.2038
  702MPD2    C510381   3.442   1.025   9.755  0.1418  0.3790  0.2433
  702MPD2     H10382   3.450   1.321   9.981 -0.9581 -0.1364  0.1682
  702MPD2    H110383   3.546   1.119   9.601 -0.5170 -3.2724 -0.2321
  702MPD2    H210384   3.336   0.929   9.896 -0.2342  0.0694 -0.5159
  702MPD2    H310385   3.441   0.930   9.702  0.7181 -1.2102  3.0844
  702MPD2     N10386   3.571   1.349   9.719  0.2618 -0.5771 -0.5631
  702MPD2    H510387   3.612   1.335   9.628  1.6610 -0.1542 -0.0084
  702MPD2    N110388   3.347   1.133  10.089 -0.4179 -0.2499  0.1312
  702MPD2    H710389   3.372   1.215  10.143 -0.5463 -0.0225 -0.1536
  703TMC3    C110390   3.737   1.503   9.709  0.5007  0.1662  0.0274
  703TMC3    C210391   3.754   1.630   9.736 -0.9416 -0.1373  0.9486
  703TMC3    C310392   3.873   1.692   9.731 -0.1392  0.0077 -0.1101
  703TMC3    C410393   3.844   1.427   9.685  0.1549 -0.4985  0.3657
  703TMC3    C510394   3.968   1.482   9.686  0.1549 -0.5375 -0.2809
  703TMC3    C610395   3.983   1.617   9.706  0.8453  0.7915  0.6910
  703TMC3     C10396   3.628   1.450   9.791  0.2711 -0.4964  0.2824
  703TMC3     O10397   3.589   1.520   9.886 -0.3950 -0.9197  0.3237
  703TMC3     H10398   3.667   1.688   9.764 -1.1046  0.2374 -0.3141
  703TMC3    H110399   3.830   1.320   9.674  0.3384 -0.3095 -1.7725
  703TMC3    H210400   4.075   1.672   9.693 -0.3287  2.7831  0.7095
  703TMC3    C710401   4.091   1.412   9.708  0.2475 -0.1464 -0.1847
  703TMC3    C810402   3.886   1.795   9.835 -0.3210 -0.4408 -0.2638
  703TMC3    O110403   4.173   1.476   9.772 -0.2214 -0.2345  0.1707
  703TMC3    O210404   3.959   1.891   9.823 -0.1937  0.0448  0.5855
  704TMC3    C110405   0.717   3.991  12.056  0.7629  0.3490  0.0002
  704TMC3    C210406   0.833   4.062  12.045  0.5638  0.0098  0.4046
  704TMC3    C310407   0.899   4.086  12.163 -0.6886 -0.1914 -0.4126
  704TMC3    C410408   0.660   3.964  12.178  0.2433 -0.3166  0.0097
  704TMC3    C510409   0.724   4.001  12.293 -0.3836  0.1236  0.0487
  704TMC3    C610410   0.849   4.057  12.281 -0.6460 -0.2355  0.7457
  704TMC3     C10411   0.673   3.895  11.954  0.8943  0.9087 -0.1890
  704TMC3     O10412   0.570   3.826  11.978  0.3038 -0.1175 -0.1028
  704TMC3     H10413   0.873   4.079  11.946  1.3722 -0.1109  0.7115
  704TMC3    H110414   0.571   3.903  12.190  1.0641 -1.4277  0.4101
  704TMC3    H210415   0.897   4.072  12.377  1.8874  3.0825 -1.0466
  704TMC3    C710416   0.702   3.915  12.406  0.3252  0.1865  0.1465
  704TMC3    C810417   1.036   4.115  12.155  0.1069 -0.4613  0.6598
  704TMC3    O110418   0.586   3.900  12.439  0.6006  0.0951  0.7492
  704TMC3    O210419   1.096   4.058  12.063  0.4576 -0.2283 -0.1145
  705MPD2     C10420   0.531   2.314  16.657 -0.2205  0.4176  0.4075
  705MPD2    C110421   0.527   2.442  16.628 -1.0958  0.1655  0.7900
  705MPD2    C210422   0.417   2.521  16.652 -0.0890 -0.2162 -0.7600
  705MPD2    C310423   0.303   2.463  16.705  0.1950  0.3097 -0.1889
  705MPD2    C410424   0.301   2.327  16.734  0.3530 -0.3955 -0.7522
  705MPD2    C510425   0.412   2.254  16.701 -0.2448 -0.4599 -0.4483
  705MPD2     H10426   0.427   2.627  16.629  4.1701 -0.2114  1.0669
  705MPD2    H110427   0.221   2.277  16.787  0.4209 -1.1929 -1.4031
  705MPD2    H210428   0.609   2.242  16.635  0.9291  1.7819 -0.0581
  705MPD2    H310429   0.413   2.153  16.740 -3.8726 -0.5406 -0.5234
  705MPD2     N10430   0.180   2.524  16.734 -0.0611 -0.2077 -0.4313
  705MPD2    H510431   0.106   2.467  16.774 -1.7314  1.2140 -1.5322
  705MPD2    N110432   0.623   2.497  16.543  0.1660 -0.0835  0.8997
  705MPD2    H710433   0.605   2.589  16.504  0.1435 -1.6645 -2.7882
  706TMC3    C110434   0.893   2.414  16.160 -0.2896 -0.0624  0.4792
  706TMC3    C210435   0.817   2.505  16.083  0.5236  0.3311  0.3560
  706TMC3    C310436   0.726   2.584  16.152  0.1759 -0.3116 -0.3485
  706TMC3    C410437   0.872   2.403  16.300 -0.0247 -0.1357  0.4592
  706TMC3    C510438   0.781   2.484  16.365  0.3913  0.1671 -0.6569
  706TMC3    C610439   0.714   2.578  16.292  1.1212 -0.3595  0.4321
  706TMC3     C10440   0.972   2.320  16.090 -0.5019  0.5286 -0.1022
  706TMC3     O10441   1.034   2.246  16.165  0.0564 -0.3924  0.1343
  706TMC3     H10442   0.816   2.506  15.974  0.7681 -1.3084  0.3392
  706TMC3    H110443   0.918   2.323  16.357  0.2690  0.1424  0.6096
  706TMC3    H210444   0.673   2.666  16.341  1.0581  0.2873 -0.7891
  706TMC3    C710445   0.728   2.429  16.492  0.1139 -0.6682 -0.0235
  706TMC3    C810446   0.693   2.714  16.096 -0.0493  0.9304 -0.3455
  706TMC3    O110447   0.780   2.329  16.539 -0.3543  0.6744 -0.6358
  706TMC3    O210448   0.591   2.766  16.139  0.4922 -0.2395 -0.3454
  707TMC3    C110449   1.180   0.993   0.905 -0.1127  0.3264 -0.2437
  707TMC3    C210450   1.176   1.032   1.030 -0.8432  0.1748  0.0543
  707TMC3    C310451   1.120   1.154   1.072 -0.1824  0.0862 -0.4217
  707TMC3    C410452   1.126   1.078   0.812 -0.2658 -0.4150 -0.4098
  707TMC3    C510453   1.062   1.194   0.854  0.1448  0.5415 -0.2069
  707TMC3    C610454   1.054   1.234   0.983 -0.0498  0.3414 -0.6430
  707TMC3     C10455   1.316   0.937   0.866  0.2389  0.7293  0.0353
  707TMC3     O10456   1.402   0.940   0.951  0.6212 -0.1183 -0.3406
  707TMC3     H10457   1.221   0.970   1.107 -2.0138 -0.6126  0.1092
  707TMC3    H110458   1.130   1.058   0.705 -0.0357 -2.2936 -0.0556
  707TMC3    H210459   0.993   1.318   1.014 -0.4253  0.0736 -0.6503
  707TMC3    C710460   0.937   1.213   0.786 -0.8288  0.0508  0.2096
  707TMC3    C810461   1.203   1.222   1.173 -0.1881 -0.2545 -0.3678
  707TMC3    O110462   0.902   1.111   0.727 -0.0410  0.6193  0.3549
  707TMC3    O210463   1.164   1.341   1.196  0.8605 -0.6537  0.6536
  708MPD2     C10464   3.661   0.695  13.982 -0.2337  0.2364 -0.4043
  708MPD2    C110465   3.561   0.678  14.078 -0.8233 -0.1930  0.5440
  708MPD2    C210466   3.594   0.679  14.212  0.3518  0.3923  0.6004
  708MPD2    C310467   3.725   0.691  14.255  0.3186 -0.0941  0.7557
  708MPD2    C410468   3.823   0.706  14.158  0.2645  0.7431  0.4096
  708MPD2    C510469   3.785   0.706  14.027 -0.4779  0.1868  0.9899
  708MPD2     H10470   3.512   0.675  14.284  1.5048  1.4314  1.9843
  708MPD2    H110471   3.930   0.707  14.180 -0.1629 -1.9799  2.6910
  708MPD2    H210472   3.643   0.678  13.876  0.4810  0.6042 -0.5864
  708MPD2    H310473   3.868   0.706  13.957 -0.5139  0.5846  0.9468
  708MPD2     N10474   3.758   0.694  14.394  0.0464 -0.1348 -0.4200
  708MPD2    H510475   3.827   0.767  14.407  0.5202 -0.7475  0.4481
  708MPD2    N110476   3.423   0.682  14.038  0.0669 -0.2798  0.3693
  708MPD2    H710477   3.408   0.712  13.942  0.2168  0.9849  0.7459
  709TMC3    C110478   3.216   0.772  14.085 -0.1798  0.3297  0.1149
  709TMC3    C210479   3.251   0.867  13.991 -0.4262  0.2338 -0.7357
  709TMC3    C310480   3.194   0.985  14.009 -0.1679  0.0039  0.4421
  709TMC3    C410481   3.128   0.797  14.188 -0.1989 -0.2971  0.3824
  709TMC3    C510482   3.081   0.923  14.206 -0.1607 -0.4420 -0.0244
  709TMC3    C610483   3.131   1.018  14.126  0.8034  0.5767  0.1055
  709TMC3     C10484   3.311   0.676  14.117 -0.4174 -0.7092  0.0540
  709TMC3     O10485   3.304   0.638  14.233  0.6439  0.0378  0.6097
  709TMC3     H10486   3.314   0.851  13.905 -1.5741 -0.0037 -1.5306
  709TMC3    H110487   3.089   0.713  14.243  0.0825 -1.5247 -1.3077
  709TMC3    H210488   3.110   1.122  14.147  3.3193  1.2326 -0.6799
  709TMC3    C710489   3.048   0.957  14.346 -0.1080 -0.0980  0.4881
  709TMC3    C810490   3.232   1.088  13.910 -0.3778 -0.1374  0.7388
  709TMC3    O110491   3.108   1.059  14.380 -0.3514  0.5566  0.0865
  709TMC3    O210492   3.326   1.056  13.845 -0.5166  0.3767 -0.1720
  710TMC3    C110493   4.688   2.121   0.113 -0.3966  0.0897  0.0502
  710TMC3    C210494   0.066   2.051   0.051  0.7205  0.5117  0.2636
  710TMC3    C310495   0.121   1.946   0.121  0.3943 -0.0837  0.8510
  710TMC3    C410496   4.663   2.106   0.241 -0.7182 -0.7722  0.6628
  710TMC3    C510497   0.001   1.997   0.306 -0.1408  0.5474 -0.4575
  710TMC3    C610498   0.085   1.911   0.251 -0.7473  0.2453  0.5575
  710TMC3     C10499   4.632   2.223   0.032 -0.2892  0.5431 -0.2501
  710TMC3     O10500   4.642   2.214  17.610  0.2168 -0.1565 -0.2575
  710TMC3     H10501   0.074   2.061  17.646 -0.4034  1.3282  0.2527
  710TMC3    H110502   4.591   2.159   0.302  0.6733  0.7732  0.9690
  710TMC3    H210503   0.104   1.812   0.292 -0.6447  1.2600  2.9143
  710TMC3    C710504   4.694   1.972   0.444 -0.4660 -0.4226 -0.0943
  710TMC3    C810505   0.198   1.852   0.042  0.2508 -0.0783  0.0225
  710TMC3    O110506   4.719   1.857   0.484 -0.1099 -0.4263  0.1372
  710TMC3    O210507   0.199   1.875  17.625  0.3674  0.4897  0.3074
  711TMC3    C110508   4.430   3.474  14.969 -0.3064  0.3319  0.5548
  711TMC3    C210509   4.405   3.545  15.081 -0.0943 -0.3948  0.1094
  711TMC3    C310510   4.504   3.543  15.175  0.0018  0.5039 -0.4298
  711TMC3    C410511   4.559   3.443  14.932 -0.5296  0.6723  0.7220
  711TMC3    C510512   4.657   3.435  15.030  0.5187 -0.0136  0.9336
  711TMC3    C610513   4.630   3.497  15.153  0.0665  0.1239  0.2730
  711TMC3     C10514   4.359   3.347  14.951  0.1482 -0.2715  0.2431
  711TMC3     O10515   4.390   3.277  14.855  0.4657  0.3602  0.3281
  711TMC3     H10516   4.309   3.591  15.104 -0.7344 -2.2365  1.1607
  711TMC3    H110517   4.583   3.394  14.837 -1.6047  1.1998  0.1787
  711TMC3    H210518   4.706   3.498  15.230  1.6343 -0.2523 -1.2555
  711TMC3    C710519   4.724   3.298  15.051  0.2893  0.0378  0.8163
  711TMC3    C810520   4.465   3.500  15.308  0.0489  0.2854  0.4853
  711TMC3    O110521   0.066   3.280  15.151 -0.1603 -0.0349  0.5787
  711TMC3    O210522   4.353   3.460  15.312  0.2813 -0.3721  0.0311
  712MPD2     C10523   1.711   4.133  14.051  0.0257  0.2987 -0.4963
  712MPD2    C110524   1.611   4.113  13.959 -0.0158 -0.0401  0.7733
  712MPD2    C210525   1.565   4.209  13.874  0.5876 -0.5988 -0.2278
  712MPD2    C310526   1.626   4.331  13.874  0.3122  0.8686 -0.0297
  712MPD2    C410527   1.735   4.353  13.951 -0.5128  0.5681 -0.6043
  712MPD2    C510528   1.774   4.253  14.038  0.4701 -0.5791 -0.0039
  712MPD2     H10529   1.484   4.193  13.803  1.3105  0.2739 -1.2519
  712MPD2    H110530   1.791   4.443  13.933  1.3456 -0.1305  1.6425
  712MPD2    H210531   1.752   4.056  14.116 -0.5430 -0.4507 -1.0225
  712MPD2    H310532   1.865   4.275  14.093 -0.7671  0.0870  1.7740
  712MPD2     N10533   1.590   4.434  13.780  0.3254  0.0694 -0.0541
  712MPD2    H510534   1.652   4.515  13.780  0.8612 -0.3439 -0.3987
  712MPD2    N110535   1.553   3.983  13.937  0.1956  0.3467  0.2690
  712MPD2    H710536   1.478   3.973  13.869  0.1795  2.7359 -0.0650
  713TMC3    C110537   1.472   4.576  13.620 -0.5234  0.1613 -0.4677
  713TMC3    C210538   1.584   4.641  13.572  0.5016 -0.0283  0.1934
  713TMC3    C310539   1.573   0.018  13.483  0.8293  0.6716  0.5548
  713TMC3    C410540   1.349   4.635  13.598  0.3247 -0.3957 -0.1828
  713TMC3    C510541   1.342   0.004  13.501  0.2360  0.5337 -0.2590
  713TMC3    C610542   1.444   0.064  13.443 -0.9467  0.5465  0.4084
  713TMC3     C10543   1.479   4.448  13.693  0.2142  0.2076  0.3517
  713TMC3     O10544   1.380   4.378  13.696 -0.0852 -0.2328 -0.1522
  713TMC3     H10545   1.679   4.591  13.576 -0.4071 -1.8434 -1.1422
  713TMC3    H110546   1.262   4.575  13.622  0.7120 -0.8856 -0.0137
  713TMC3    H210547   1.431   0.139  13.366  2.5463  1.6668  0.9183
  713TMC3    C710548   1.209   0.059  13.480 -0.4882 -0.0429 -0.2022
  713TMC3    C810549   1.677   0.111  13.456 -0.4565  0.0726  0.6900
  713TMC3    O110550   1.174   0.075  13.361  0.3060 -0.7255  0.0341
  713TMC3    O210551   1.650   0.207  13.383 -0.1171  0.3991 -0.4896
  714MPD2     C10552   2.427   2.960   1.073  0.2952 -0.0057  0.0499
  714MPD2    C110553   2.452   2.850   1.000  0.2409 -0.2628 -0.3423
  714MPD2    C210554   2.353   2.800   0.912 -0.3333 -0.3203  0.4346
  714MPD2    C310555   2.232   2.866   0.898 -0.5409  0.1431 -0.4584
  714MPD2    C410556   2.215   2.987   0.969  0.1826 -0.7575 -0.5917
  714MPD2    C510557   2.311   3.028   1.057  0.2574  0.2620 -0.1494
  714MPD2     H10558   2.374   2.706   0.863 -1.8990  0.0519 -0.9622
  714MPD2    H110559   2.120   3.040   0.960  0.7090  0.1221 -0.9374
  714MPD2    H210560   2.500   2.998   1.143  1.4777 -1.3985 -0.4293
  714MPD2    H310561   2.285   3.099   1.135  1.7764  0.9471 -0.2713
  714MPD2     N10562   2.131   2.811   0.812  0.5792 -0.0247 -0.3550
  714MPD2    H510563   2.160   2.726   0.764  3.1519  0.0735  1.0216
  714MPD2    N110564   2.575   2.781   1.018  0.0611  0.6788  0.4167
  714MPD2    H710565   2.631   2.815   1.096  2.4277  0.3975 -1.1539
  715TMC3    C110566   2.765   2.651   0.972  0.5756 -0.0324 -0.5353
  715TMC3    C210567   2.795   2.520   0.966 -0.3179  0.4020  0.4819
  715TMC3    C310568   2.928   2.487   0.993 -0.1876  0.4296 -0.3272
  715TMC3    C410569   2.849   2.749   1.007 -0.3643 -0.1622 -0.1517
  715TMC3    C510570   2.981   2.716   1.035  0.6861 -0.0397 -0.6801
  715TMC3    C610571   3.023   2.585   1.026 -0.3120  0.0605 -0.5477
  715TMC3     C10572   2.626   2.677   0.940 -0.6332  0.3534  0.0813
  715TMC3     O10573   2.581   2.610   0.848 -0.9900 -0.3661 -0.0942
  715TMC3     H10574   2.715   2.448   0.960 -2.4621  2.7272  1.0780
  715TMC3    H110575   2.812   2.851   1.017 -0.0094 -0.2091  1.5139
  715TMC3    H210576   3.129   2.567   1.039 -0.1787 -0.4682 -2.2569
  715TMC3    C710577   3.088   2.819   1.036 -0.1422  0.4362  0.4561
  715TMC3    C810578   2.959   2.347   1.002 -0.1211  0.3380  0.0072
  715TMC3    O110579   3.177   2.806   1.116  0.3309 -0.0925 -0.1587
  715TMC3    O210580   2.876   2.271   0.956  0.0662 -0.7326 -0.4152
  716MPD2     C10581   3.527   0.960   9.402 -0.3186  0.6109 -0.4095
  716MPD2    C110582   3.446   0.847   9.427 -0.0007 -0.7798 -0.9827
  716MPD2    C210583   3.491   0.736   9.496 -0.1923 -0.2637 -0.2784
  716MPD2    C310584   3.622   0.736   9.540 -0.2055 -0.1467 -0.3265
  716MPD2    C410585   3.699   0.845   9.516 -0.0625 -0.4471  0.3642
  716MPD2    C510586   3.662   0.953   9.435 -0.1435 -0.2100 -0.2890
  716MPD2     H10587   3.428   0.650   9.517  1.4270 -2.0594 -2.6887
  716MPD2    H110588   3.804   0.847   9.544 -0.5493  1.0264  2.1100
  716MPD2    H210589   3.492   1.042   9.341 -1.9445  0.6003  0.5079
  716MPD2    H310590   3.719   1.041   9.408 -0.2903 -0.0883 -0.2063
  716MPD2     N10591   3.666   0.628   9.624 -0.4899 -0.3610  0.0574
  716MPD2    H510592   3.594   0.561   9.648 -0.7303 -0.2608 -0.3746
  716MPD2    N110593   3.310   0.862   9.393  0.6819  0.4521  0.2884
  716MPD2    H710594   3.286   0.958   9.369  1.7199  0.1203 -2.0854
  717TMC3    C110595   3.798   0.505   9.783 -0.3844 -0.1688 -0.3463
  717TMC3    C210596   3.712   0.392   9.765 -0.5679 -0.9921  0.1884
  717TMC3    C310597   3.694   0.300   9.865  0.4586 -0.4634 -0.5146
  717TMC3    C410598   3.877   0.515   9.898  0.1512 -0.2687 -0.4775
  717TMC3    C510599   3.859   0.418   9.992 -0.6604  0.4209 -0.5666
  717TMC3    C610600   3.769   0.318   9.983  0.1120 -0.1466 -0.5792
  717TMC3     C10601   3.790   0.619   9.686 -0.4444  0.1840 -0.8834
  717TMC3     O10602   3.889   0.692   9.679 -0.3698 -0.4317 -0.4670
  717TMC3     H10603   3.668   0.379   9.667 -0.0042  0.5691 -0.2628
  717TMC3    H110604   3.937   0.605   9.912 -1.1377  0.6320 -0.6918
  717TMC3    H210605   3.755   0.251  10.067 -0.3136  0.2855 -0.3073
  717TMC3    C710606   3.903   0.457  10.124 -0.2317  0.5367  0.0792
  717TMC3    C810607   3.627   0.175   9.848 -0.2507  0.4759  0.6272
  717TMC3    O110608   3.921   0.363  10.200 -0.3201  0.4390 -0.2154
  717TMC3    O210609   3.566   0.156   9.746 -0.0904 -0.2846  0.0347
  718MPD2     C10610   2.644   0.007  12.659 -0.0040 -0.4275 -0.3310
  718MPD2    C110611   2.638   4.594  12.653  0.5219  0.9890  0.6028
  718MPD2    C210612   2.638   4.530  12.770  0.0764 -0.5377  0.1375
  718MPD2    C310613   2.663   4.593  12.888 -0.0595  0.0385  0.2167
  718MPD2    C410614   2.681   0.002  12.888  0.7093 -0.2313  0.6959
  718MPD2    C510615   2.658   0.072  12.774 -0.4232 -0.2353 -0.0761
  718MPD2     H10616   2.633   4.422  12.776  0.0691 -0.5825 -0.7462
  718MPD2    H110617   2.701   0.059  12.979 -1.9898  0.8405  0.6344
  718MPD2    H210618   2.639   0.076  12.576 -1.2937 -0.2918 -0.1357
  718MPD2    H310619   2.664   0.180  12.765  3.1739 -0.3709  0.3737
  718MPD2     N10620   2.672   4.504  13.000 -0.2524 -0.1608  1.0091
  718MPD2    H510621   2.667   4.403  12.986  0.1308  0.3217 -2.5003
  718MPD2    N110622   2.629   4.529  12.528 -0.3468 -0.0200 -0.6715
  718MPD2    H710623   2.643   4.582  12.442  2.9263 -0.1410 -0.2343
  719TMC3    C110624   2.640   4.349  12.378 -0.0712  0.2193 -0.6585
  719TMC3    C210625   2.625   4.218  12.373 -0.0750  0.1982  0.5121
  719TMC3    C310626   2.720   4.141  12.330 -0.0950  0.3505 -0.5931
  719TMC3    C410627   2.752   4.407  12.328 -0.5655  1.2734 -0.1739
  719TMC3    C510628   2.845   4.330  12.261 -0.5583  0.8739 -0.4727
  719TMC3    C610629   2.826   4.193  12.266  0.3565 -0.4746 -0.7528
  719TMC3     C10630   2.597   4.396  12.510  0.0435 -0.4762  0.0249
  719TMC3     O10631   2.550   4.312  12.591  0.1607 -0.5421  0.1873
  719TMC3     H10632   2.535   4.173  12.415 -1.2836  2.1629  0.0381
  719TMC3    H110633   2.772   4.513  12.332  1.1303  0.9809 -1.0548
  719TMC3    H210634   2.899   4.122  12.230 -0.2022 -2.4893  2.1228
  719TMC3    C710635   2.974   4.389  12.241  0.4680 -0.8058  0.3550
  719TMC3    C810636   2.760   4.046  12.428 -0.2787  0.3017  0.4569
  719TMC3    O110637   2.986   4.507  12.243  0.6372  0.1288 -0.4238
  719TMC3    O210638   2.835   3.955  12.401 -0.2453  0.1799  0.4820
  720MPD2     C10639   0.902   1.505  13.905  0.0889  0.6751 -0.1623
  720MPD2    C110640   1.013   1.538  13.835  0.0568  0.7710  0.1164
  720MPD2    C210641   1.139   1.496  13.879  0.5491 -0.5129 -0.0243
  720MPD2    C310642   1.158   1.437  14.002 -0.0731 -0.3053 -0.1618
  720MPD2    C410643   1.045   1.414  14.071  0.3150 -0.6643  0.1510
  720MPD2    C510644   0.917   1.444  14.028  0.0415  0.1881  0.0939
  720MPD2     H10645   1.221   1.525  13.815  1.1423 -2.2407 -0.0475
  720MPD2    H110646   1.062   1.355  14.160 -0.3487 -1.4860 -0.2708
  720MPD2    H210647   0.800   1.525  13.873 -0.1149 -1.3192 -0.7655
  720MPD2    H310648   0.831   1.407  14.082  0.8310 -1.1416  0.4444
  720MPD2     N10649   1.275   1.419  14.077 -0.1523  0.1725 -0.0814
  720MPD2    H510650   1.262   1.400  14.176 -0.6680  0.6515 -0.0544
  720MPD2    N110651   1.009   1.601  13.709  0.3826  0.0272  0.0311
  720MPD2    H710652   1.092   1.611  13.651  0.9456  0.9956  1.0042
  721TMC3    C110653   1.509   1.409  14.143 -0.2697 -0.0847 -0.6160
  721TMC3    C210654   1.488   1.469  14.266  0.8486 -0.0757  0.5643
  721TMC3    C310655   1.587   1.466  14.361  0.2871  0.3204  0.0600
  721TMC3    C410656   1.629   1.348  14.118 -0.4032 -0.1476 -0.0827
  721TMC3    C510657   1.721   1.339  14.217  0.1374  0.3295 -0.6046
  721TMC3    C610658   1.701   1.400  14.336 -0.3689  0.2504  0.3750
  721TMC3     C10659   1.412   1.421  14.036  0.1921  0.1370 -0.0146
  721TMC3     O10660   1.463   1.429  13.924  0.3015  0.1293 -0.4167
  721TMC3     H10661   1.404   1.538  14.272 -0.4852 -1.3323 -3.2738
  721TMC3    H110662   1.654   1.310  14.020  0.2672  0.1292 -0.0225
  721TMC3    H210663   1.789   1.402  14.400 -0.7796 -0.9555  0.9598
  721TMC3    C710664   1.853   1.296  14.179  0.2381 -0.0225 -0.4020
  721TMC3    C810665   1.590   1.541  14.481  0.0651 -0.5990 -0.1598
  721TMC3    O110666   1.885   1.318  14.062  0.2687 -0.3805  0.0724
  721TMC3    O210667   1.701   1.556  14.531 -0.2732  0.1328  0.2440
  722MPD2     C10668   0.245   4.653  12.967 -0.2309 -0.1180  0.4498
  722MPD2    C110669   0.196   0.058  12.972  0.2126 -0.6248  0.9271
  722MPD2    C210670   0.064   0.096  12.940  0.3649  0.5181  0.5897
  722MPD2    C310671   4.697   0.001  12.896  0.4750 -0.5470 -0.8525
  722MPD2    C410672   0.022   4.600  12.882  0.6098  0.3188 -0.4784
  722MPD2    C510673   0.154   4.563  12.923  0.0814  0.2745  1.1621
  722MPD2     H10674   0.034   0.190  12.984  1.0579  1.7893 -1.6601
  722MPD2    H110675   4.680   4.530  12.833  1.1502 -1.0715  0.7624
  722MPD2    H210676   0.347   4.632  12.996 -0.6527 -0.7224  1.4631
  722MPD2    H310677   0.188   4.461  12.907 -1.6438 -0.0099 -0.7289
  722MPD2     N10678   4.561   0.043  12.882 -0.6565 -0.1094 -0.0247
  722MPD2    H510679   4.546   0.143  12.891 -1.6244 -0.2152 -0.5177
  722MPD2    N110680   0.266   0.164  13.031  0.9367  0.2164 -0.0037
  722MPD2    H710681   0.219   0.253  13.018 -1.2084 -0.9931 -0.5303
  723TMC3    C110682   4.320   0.014  12.861 -0.0435 -0.9668 -0.1014
  723TMC3    C210683   4.223   4.644  12.840 -0.3885  0.3122 -0.7179
  723TMC3    C310684   4.092   4.675  12.880 -0.1741 -0.0171  0.7001
  723TMC3    C410685   4.291   0.136  12.919  0.6209 -1.1649 -0.8460
  723TMC3    C510686   4.160   0.156  12.950  0.2434 -0.9434 -0.4270
  723TMC3    C610687   4.061   0.064  12.941 -0.4186 -0.2462 -0.3088
  723TMC3     C10688   4.452   4.682  12.865  0.7348  0.0771  0.4307
  723TMC3     O10689   4.461   4.556  12.857 -0.2843  0.3318 -0.5459
  723TMC3     H10690   4.248   4.562  12.774  0.4449 -0.7157  0.8707
  723TMC3    H110691   4.369   0.207  12.945 -0.1290 -0.1980 -1.2483
  723TMC3    H210692   3.969   0.068  12.998  0.6399 -0.9830  1.4525
  723TMC3    C710693   4.131   0.286  13.012  1.0739 -0.0217 -0.3050
  723TMC3    C810694   3.983   4.575  12.881  0.0091 -0.1979 -0.0808
  723TMC3    O110695   4.231   0.346  13.051  0.2464 -0.4188  0.1451
  723TMC3    O210696   3.864   4.612  12.889 -0.0965  0.5956 -0.4233
  724TMC3    C110697   4.452   2.559  10.493  0.3875  0.2802 -0.5026
  724TMC3    C210698   4.579   2.558  10.532  0.3552 -0.0235  0.5167
  724TMC3    C310699   4.678   2.613  10.457  0.6994 -0.2096  0.2648
  724TMC3    C410700   4.418   2.600  10.366  0.5741 -0.6048  0.4277
  724TMC3    C510701   4.514   2.665  10.297  0.4647 -0.4019 -0.7940
  724TMC3    C610702   4.645   2.665  10.332  0.1978  0.0784  0.0841
  724TMC3     C10703   4.339   2.517  10.571  0.2723 -0.8437  0.2396
  724TMC3     O10704   4.228   2.557  10.536 -0.2531  0.2804  0.1074
  724TMC3     H10705   4.604   2.535  10.635 -2.1580 -1.9676  0.6986
  724TMC3    H110706   4.317   2.590  10.329  0.3310 -0.3864  1.0437
  724TMC3    H210707   4.713   2.728  10.275  1.5084 -2.2376 -0.8750
  724TMC3    C710708   4.480   2.740  10.176  0.0910 -0.4629  0.3339
  724TMC3    C810709   0.077   2.656  10.521 -0.3987 -0.6650  0.7589
  724TMC3    O110710   4.565   2.812  10.127  0.0784  0.2105  0.2731
  724TMC3    O210711   0.081   2.640  10.648 -0.2370  0.3310  0.1049
  725TMC3    C110712   2.229   1.309  12.207  0.5910  0.5803  0.4813
  725TMC3    C210713   2.220   1.347  12.075 -0.0310  0.2173 -0.2946
  725TMC3    C310714   2.220   1.248  11.981  0.0997 -0.0615 -0.2380
  725TMC3    C410715   2.246   1.181  12.242  0.2898 -0.0911  0.6744
  725TMC3    C510716   2.242   1.080  12.145 -0.6807 -0.2737  0.0050
  725TMC3    C610717   2.224   1.113  12.011  0.1550  0.3831 -0.2759
  725TMC3     C10718   2.268   1.417  12.297 -0.1004 -0.0040  0.3620
  725TMC3     O10719   2.202   1.520  12.281  0.0547  0.0939 -0.0101
  725TMC3     H10720   2.233   1.451  12.052 -2.6193 -0.0875 -3.0700
  725TMC3    H110721   2.267   1.155  12.345 -0.7825  0.0804  0.9325
  725TMC3    H210722   2.234   1.032  11.940  0.0844  0.2346 -0.1171
  725TMC3    C710723   2.303   0.953  12.164  0.7212 -0.5337 -0.2694
  725TMC3    C810724   2.274   1.280  11.851  0.2975  0.2731  0.0895
  725TMC3    O110725   2.352   0.902  12.062 -0.1869 -0.1398  0.3990
  725TMC3    O210726   2.345   1.196  11.797 -0.1352  0.1950 -0.0752
  726MPD2     C10727   4.593   3.347   9.997  0.1024 -0.1002 -0.6608
  726MPD2    C110728   4.469   3.367   9.949  0.0409 -0.0149  0.6206
  726MPD2    C210729   4.371   3.282   9.981 -0.1565 -0.4051 -0.0033
  726MPD2    C310730   4.397   3.177  10.072 -0.3174  0.0334 -0.9825
  726MPD2    C410731   4.520   3.159  10.120 -0.4635  0.5973 -0.3529
  726MPD2    C510732   4.619   3.251  10.083  0.0091 -0.2658  0.0837
  726MPD2     H10733   4.274   3.288   9.932 -0.6818 -1.3478  0.9253
  726MPD2    H110734   4.548   3.074  10.182 -0.2166  0.9128 -0.0340
  726MPD2    H210735   4.679   3.402   9.959  0.7072 -1.0463 -0.6623
  726MPD2    H310736   4.717   3.243  10.129  0.9170 -0.9306 -1.9751
  726MPD2     N10737   4.293   3.094  10.126  0.1848 -0.5412 -0.4760
  726MPD2    H510738   4.330   3.019  10.184  0.1244 -0.3706 -0.2169
  726MPD2    N110739   4.428   3.475   9.861 -0.0381  0.4205  0.5296
  726MPD2    H710740   4.327   3.482   9.854  0.0178  1.2689  0.5717
  727TMC3    C110741   4.444   3.677   9.730 -0.4164  0.0433  0.2784
  727TMC3    C210742   4.510   3.797   9.729 -0.1647  0.4623  0.1527
  727TMC3    C310743   4.425   3.904   9.712 -0.1560  0.5003 -0.0130
  727TMC3    C410744   4.314   3.663   9.707 -0.7493 -0.2282  0.4706
  727TMC3    C510745   4.236   3.771   9.690 -0.4389 -1.0048  0.2279
  727TMC3    C610746   4.290   3.895   9.695 -0.4219  0.0293  0.2454
  727TMC3     C10747   4.513   3.568   9.801 -0.3326  0.6098 -0.6239
  727TMC3     O10748   4.632   3.575   9.808 -0.3679  0.3171 -0.3270
  727TMC3     H10749   4.617   3.803   9.744 -0.1559  1.1316 -0.1784
  727TMC3    H110750   4.271   3.564   9.716 -3.2068  1.0022  2.2664
  727TMC3    H210751   4.228   3.982   9.677 -0.7301 -0.1236  0.5627
  727TMC3    C710752   4.094   3.764   9.654 -1.0755 -0.4277  0.1949
  727TMC3    C810753   4.476   4.028   9.778  0.2924 -0.3633 -0.3116
  727TMC3    O110754   4.044   3.853   9.593 -0.2423 -0.1801  0.4698
  727TMC3    O210755   4.598   4.014   9.806 -0.2581 -1.2781 -0.2972
  728TMC3    C110756   3.533   1.654  15.461  0.4378 -0.5401 -0.2843
  728TMC3    C210757   3.662   1.657  15.516  0.2861 -0.5922  0.3169
  728TMC3    C310758   3.767   1.695  15.434  0.0426  0.2568  0.0184
  728TMC3    C410759   3.516   1.693  15.337  0.7227  0.4098  0.0126
  728TMC3    C510760   3.623   1.741  15.260 -0.6292 -0.5175  0.0464
  728TMC3    C610761   3.753   1.735  15.301 -0.3792  0.1076  0.9947
  728TMC3     C10762   3.423   1.582  15.534 -0.0976  0.4363  0.7272
  728TMC3     O10763   3.452   1.540  15.648  0.2431 -0.4178 -0.6793
  728TMC3     H10764   3.679   1.629  15.619 -0.1290 -0.8236  0.3246
  728TMC3    H110765   3.423   1.680  15.282  0.9639 -0.3456 -0.2168
  728TMC3    H210766   3.830   1.760  15.229  0.0563  1.9624  2.0984
  728TMC3    C710767   3.592   1.783  15.122 -0.0024 -0.3374 -0.5168
  728TMC3    C810768   3.898   1.661  15.489  0.0541  0.3106 -0.0709
  728TMC3    O110769   3.494   1.733  15.069  0.1172 -0.2149  0.4456
  728TMC3    O210770   3.905   1.629  15.607  0.6949 -0.4237 -0.8838
  729MPD2     C10771   1.262   2.925  16.648 -0.0886  0.0401  0.4084
  729MPD2    C110772   1.332   2.808  16.683 -0.5287 -0.3158  0.2779
  729MPD2    C210773   1.288   2.747  16.794  0.0848  0.8011  0.3942
  729MPD2    C310774   1.184   2.799  16.880 -1.2404 -0.6874  0.2944
  729MPD2    C410775   1.113   2.911  16.840  0.2691 -0.0720  0.1224
  729MPD2    C510776   1.159   2.969  16.725 -0.2351 -0.0220 -0.2086
  729MPD2     H10777   1.350   2.665  16.828 -1.7140 -1.3719 -1.6113
  729MPD2    H110778   1.029   2.951  16.896  0.1010  1.0097 -0.8912
  729MPD2    H210779   1.293   2.981  16.560  0.2858 -0.4855  0.2051
  729MPD2    H310780   1.098   3.053  16.695  1.5745  0.7770 -1.6329
  729MPD2     N10781   1.162   2.743  17.013 -0.0652 -0.0575 -0.3223
  729MPD2    H510782   1.103   2.799  17.073  2.5933 -1.2026  3.3740
  729MPD2    N110783   1.451   2.772  16.615 -0.2204  0.5255  0.3700
  729MPD2    H710784   1.479   2.828  16.535  1.3700 -0.4655  0.2284
  730TMC3    C110785   1.246   2.608  17.182 -0.1380 -0.4583  0.5171
  730TMC3    C210786   1.373   2.560  17.163  0.3716  0.3213 -0.5882
  730TMC3    C310787   1.478   2.604  17.236  0.1268  0.0770 -0.1035
  730TMC3    C410788   1.218   2.707  17.272  0.0065 -0.3094  0.1287
  730TMC3    C510789   1.323   2.749  17.346 -0.2358  0.3296 -0.0705
  730TMC3    C610790   1.450   2.696  17.328 -0.3795 -0.2535  0.3107
  730TMC3     C10791   1.185   2.614  17.045 -0.4642  0.1286 -0.2001
  730TMC3     O10792   1.214   2.527  16.965  0.0630 -0.2685 -0.1958
  730TMC3     H10793   1.387   2.483  17.087  1.9612 -0.4139  0.4432
  730TMC3    H110794   1.121   2.751  17.294 -0.2990 -0.4832 -0.8584
  730TMC3    H210795   1.534   2.724  17.391  1.1250 -1.3632 -1.1989
  730TMC3    C710796   1.306   2.869  17.425 -0.9283  0.8509 -0.7932
  730TMC3    C810797   1.600   2.626  17.169 -0.5814 -0.1878  1.0792
  730TMC3    O110798   1.206   2.877  17.497  0.5271 -0.0684 -0.3191
  730TMC3    O210799   1.706   2.615  17.228  0.5375 -0.1896  0.6569
  731MPD2     C10800   1.630   1.163  12.141  0.3889  0.2664  0.0695
  731MPD2    C110801   1.740   1.084  12.158  0.1320  0.0317 -0.1230
  731MPD2    C210802   1.834   1.129  12.251  0.2494  1.2438  0.5451
  731MPD2    C310803   1.817   1.248  12.319  0.5279 -0.1541 -0.5284
  731MPD2    C410804   1.703   1.323  12.296  0.7043  0.3472  0.3867
  731MPD2    C510805   1.609   1.273  12.207  0.0020  0.6928  0.5609
  731MPD2     H10806   1.919   1.063  12.265  1.2025  2.5342  0.8401
  731MPD2    H110807   1.688   1.413  12.354 -1.0210 -0.9790  2.0218
  731MPD2    H210808   1.546   1.146  12.074 -0.4428 -1.3188  1.5267
  731MPD2    H310809   1.520   1.336  12.202  1.4036  2.8788  2.7670
  731MPD2     N10810   1.926   1.289  12.405  0.6446  0.1076  0.7314
  731MPD2    H510811   2.002   1.221  12.405  0.1161 -0.4838  1.2486
  731MPD2    N110812   1.756   0.975  12.071  0.3088 -0.3215  0.4279
  731MPD2    H710813   1.682   0.968  12.002  2.6429 -3.8254 -1.7242
  732TMC3    C110814   1.848   0.791  11.957 -0.0881  0.0894  0.2560
  732TMC3    C210815   1.720   0.770  11.907  0.2586  0.3902  0.1459
  732TMC3    C310816   1.714   0.713  11.787  0.4722  0.2887  0.5189
  732TMC3    C410817   1.961   0.770  11.877 -0.1005 -0.3676  0.0823
  732TMC3    C510818   1.947   0.735  11.743 -0.1928 -0.4122  0.4412
  732TMC3    C610819   1.817   0.702  11.697 -0.1561 -0.4611  0.0575
  732TMC3     C10820   1.870   0.898  12.058  0.2754 -0.2333  0.5577
  732TMC3     O10821   1.977   0.910  12.118  0.6314 -0.2221  0.1806
  732TMC3     H10822   1.636   0.761  11.976 -0.6744  1.1442 -0.8850
  732TMC3    H110823   2.053   0.816  11.913 -0.1080 -1.5036  1.5787
  732TMC3    H210824   1.804   0.649  11.603 -1.1176 -0.3578  0.1378
  732TMC3    C710825   2.059   0.758  11.651 -0.0992  0.6325 -0.3669
  732TMC3    C810826   1.588   0.646  11.753  0.9767  0.1782  0.1676
  732TMC3    O110827   2.030   0.814  11.546  0.5389  0.0933  0.0300
  732TMC3    O210828   1.599   0.562  11.663 -0.1519  0.1679 -0.4788
  733TMC3    C110829   2.537   4.306  13.368  0.2977 -0.6618 -0.2054
  733TMC3    C210830   2.551   4.426  13.307  0.1172  0.1253  0.3018
  733TMC3    C310831   2.661   4.435  13.221 -0.0503 -0.1431  0.1254
  733TMC3    C410832   2.618   4.199  13.333 -0.0472  0.7659 -0.2253
  733TMC3    C510833   2.716   4.211  13.236  0.0827 -0.2227 -0.3536
  733TMC3    C610834   2.739   4.332  13.179  0.1741 -0.4439  0.3313
  733TMC3     C10835   2.395   4.264  13.368 -0.8392 -0.5273 -0.3523
  733TMC3     O10836   2.320   4.332  13.300  0.4474  0.4417 -0.2107
  733TMC3     H10837   2.486   4.511  13.325 -1.3788 -0.9320 -0.1263
  733TMC3    H110838   2.612   4.100  13.378  1.2826  0.4736 -0.6849
  733TMC3    H210839   2.831   4.339  13.122 -0.7092 -3.2278 -1.4433
  733TMC3    C710840   2.769   4.096  13.165 -0.6098 -0.5698  0.1177
  733TMC3    C810841   2.662   4.545  13.129  0.7136  0.3912  0.0998
  733TMC3    O110842   2.793   3.991  13.224  0.3764  0.4047 -0.2502
  733TMC3    O210843   2.620   4.650  13.171 -0.4668 -0.0069  0.1243
  734MPD2     C10844   4.123   1.705  12.538  0.1401  0.6014 -0.3482
  734MPD2    C110845   4.153   1.615  12.434  0.5943 -0.7992 -0.2083
  734MPD2    C210846   4.214   1.664  12.320 -0.8264  0.2725 -1.2067
  734MPD2    C310847   4.258   1.789  12.313  0.4878  0.7212  1.0373
  734MPD2    C410848   4.230   1.879  12.417 -0.1754  0.5427 -0.0363
  734MPD2    C510849   4.157   1.835  12.524  0.1139 -0.0494 -0.4586
  734MPD2     H10850   4.235   1.601  12.234 -0.1501  1.0075 -1.5776
  734MPD2    H110851   4.276   1.976  12.428  1.0869 -0.2659  1.7615
  734MPD2    H210852   4.083   1.659  12.628  1.6449  0.4682  0.2567
  734MPD2    H310853   4.148   1.898  12.611  0.6941 -0.3109 -0.2065
  734MPD2     N10854   4.333   1.819  12.198  0.2716 -0.0611 -0.2019
  734MPD2    H510855   4.343   1.748  12.127 -0.8253  0.5506 -0.9720
  734MPD2    N110856   4.134   1.477  12.461  0.4911 -0.2035 -0.2433
  734MPD2    H710857   4.090   1.440  12.545 -0.8644  0.0073 -0.8504
  735TMC3    C110858   4.189   1.252  12.450  0.3615  0.4025 -0.1050
  735TMC3    C210859   4.221   1.155  12.362 -0.0378 -0.3220  0.4283
  735TMC3    C310860   4.324   1.070  12.404 -1.0405 -0.2781  0.4681
  735TMC3    C410861   4.252   1.268  12.570  0.0954  0.2515  0.0496
  735TMC3    C510862   4.364   1.187  12.598 -0.4939 -0.2460  0.2977
  735TMC3    C610863   4.386   1.078  12.519  0.4599 -0.4992  0.1267
  735TMC3     C10864   4.173   1.378  12.377  0.0751 -0.1270 -0.1343
  735TMC3     O10865   4.242   1.388  12.276  0.2761 -0.0895 -0.1582
  735TMC3     H10866   4.169   1.158  12.266 -1.2152  1.0396  1.1122
  735TMC3    H110867   4.222   1.342  12.644 -1.6806  0.3880 -0.8112
  735TMC3    H210868   4.461   1.002  12.536  1.3240 -0.1875 -2.4060
  735TMC3    C710869   4.484   1.269  12.600  0.0393 -0.4870  0.4659
  735TMC3    C810870   4.404   1.031  12.284 -1.4067 -0.0264 -0.2191
  735TMC3    O110871   4.592   1.212  12.585  0.0579 -0.6385 -0.1095
  735TMC3    O210872   4.500   0.953  12.307  0.0777 -0.2640  0.8140
  736MPD2     C10873   4.490   1.636  12.542  0.0981 -0.1364  0.8900
  736MPD2    C110874   4.538   1.504  12.544 -0.3318 -0.2256 -0.0875
  736MPD2    C210875   4.660   1.474  12.477  0.9646 -0.0547  0.4152
  736MPD2    C310876   0.023   1.571  12.432  0.1568 -1.3293 -0.8037
  736MPD2    C410877   4.700   1.702  12.444 -0.2017 -0.0444  0.1167
  736MPD2    C510878   4.581   1.733  12.498  0.3631  0.0495 -0.6958
  736MPD2     H10879   4.693   1.371  12.470  0.1235 -0.3429  0.7246
  736MPD2    H110880   0.038   1.788  12.424 -0.7464  1.2234  3.7599
  736MPD2    H210881   4.409   1.675  12.602 -0.4269  0.7825 -0.4273
  736MPD2    H310882   4.549   1.836  12.498  1.6947  0.4689 -0.1278
  736MPD2     N10883   0.139   1.547  12.349  0.3395  0.7158  0.6082
  736MPD2    H510884   0.191   1.630  12.322  1.1590 -0.1915 -0.6076
  736MPD2    N110885   4.454   1.399  12.588  0.1880  0.2449 -0.6564
  736MPD2    H710886   4.355   1.421  12.589 -0.1556 -1.5207  1.5869
  737TMC3    C110887   0.294   1.414  12.217  0.2540  0.4144 -0.2125
  737TMC3    C210888   0.314   1.531  12.149 -0.2399 -0.2128 -0.0749
  737TMC3    C310889   0.390   1.520  12.036  0.1755 -0.5417 -0.1230
  737TMC3    C410890   0.342   1.293  12.182 -0.6086 -0.1357 -0.1855
  737TMC3    C510891   0.421   1.292  12.071  0.4852 -0.2643  0.0168
  737TMC3    C610892   0.447   1.399  11.993 -0.2583 -0.2457 -0.0844
  737TMC3     C10893   0.188   1.417  12.319 -0.1318  0.4436 -0.6659
  737TMC3     O10894   0.163   1.313  12.377  0.2236  0.5512 -0.4521
  737TMC3     H10895   0.256   1.620  12.170  0.3850  0.4239 -1.0732
  737TMC3    H110896   0.321   1.204  12.240 -0.6241  0.5422  0.8642
  737TMC3    H210897   0.508   1.401  11.904  2.3165 -1.6294  1.6439
  737TMC3    C710898   0.467   1.161  12.020 -0.0793  0.2003  0.5420
  737TMC3    C810899   0.417   1.641  11.961 -0.6566  0.2925  0.2186
  737TMC3    O110900   0.409   1.067  12.075 -0.7444 -0.2860 -0.2896
  737TMC3    O210901   0.411   1.750  12.011  0.1807 -0.2125  0.1494
  738MPD2     C10902   0.564   0.212  15.271  0.1752  0.0840  0.1432
  738MPD2    C110903   0.497   0.258  15.157  0.0568  0.1578 -0.0457
  738MPD2    C210904   0.574   0.333  15.073 -0.0038 -0.4816  0.1935
  738MPD2    C310905   0.713   0.360  15.096  0.1233 -0.6712  0.1861
  738MPD2    C410906   0.774   0.308  15.209  0.2897  0.1324 -0.6563
  738MPD2    C510907   0.691   0.240  15.300 -0.8513  0.9854 -0.3720
  738MPD2     H10908   0.520   0.383  14.993  1.9833 -0.1949 -0.9860
  738MPD2    H110909   0.877   0.328  15.237 -0.5941  1.6897  1.4286
  738MPD2    H210910   0.518   0.151  15.349  0.5505 -2.2561 -1.4511
  738MPD2    H310911   0.729   0.211  15.397  1.3493  1.1416 -1.1781
  738MPD2     N10912   0.803   0.422  15.005  0.6496  0.4634  0.3534
  738MPD2    H510913   0.903   0.414  15.021  0.5914 -0.3659  0.3003
  738MPD2    N110914   0.367   0.217  15.122  0.1751  0.5659  0.0971
  738MPD2    H710915   0.338   0.236  15.027 -2.3896 -0.8877  0.5984
  739TMC3    C110916   0.865   0.516  14.791  0.8058  0.4891 -0.6626
  739TMC3    C210917   0.827   0.531  14.662 -0.1690  0.1332 -0.1838
  739TMC3    C310918   0.904   0.607  14.576 -0.4597  0.3323  0.0845
  739TMC3    C410919   0.968   0.593  14.838 -0.1017  0.5989  0.3281
  739TMC3    C510920   1.045   0.655  14.747  0.1519 -0.4993 -0.3480
  739TMC3    C610921   1.017   0.665  14.613  0.3158  0.0839 -0.0002
  739TMC3     C10922   0.757   0.467  14.880 -0.1628 -0.2569  0.5714
  739TMC3     O10923   0.644   0.481  14.839  0.7089 -0.3577 -0.4815
  739TMC3     H10924   0.753   0.456  14.637 -1.6328  1.8031 -0.8706
  739TMC3    H110925   0.994   0.585  14.943 -1.8937  1.7194  0.8660
  739TMC3    H210926   1.069   0.732  14.545 -0.5353  1.2179  0.4807
  739TMC3    C710927   1.168   0.701  14.780  0.1516  0.5012 -0.3592
  739TMC3    C810928   0.867   0.604  14.435  0.2832 -0.1996 -0.2982
  739TMC3    O110929   1.219   0.775  14.700 -0.0389  0.5941 -0.1730
  739TMC3    O210930   0.748   0.588  14.424  0.0771 -0.1585  0.7266
  740TMC3    C110931   0.898   1.787  14.288 -0.3020 -0.9176  0.5199
  740TMC3    C210932   0.940   1.688  14.372  0.8872  1.0431  0.1710
  740TMC3    C310933   1.068   1.645  14.362 -0.3085 -0.6607  0.2615
  740TMC3    C410934   0.983   1.840  14.188 -0.8818 -0.4337 -0.0521
  740TMC3    C510935   1.118   1.809  14.193  0.0741  1.0871  0.1606
  740TMC3    C610936   1.161   1.709  14.278  0.3080 -0.2816  0.1264
  740TMC3     C10937   0.770   1.857  14.311  0.1359  0.4318  0.8281
  740TMC3     O10938   0.749   1.965  14.254 -0.6733 -0.0632  0.5466
  740TMC3     H10939   0.870   1.650  14.445 -2.0895  1.7231 -2.3369
  740TMC3    H110940   0.936   1.905  14.116 -1.7992  0.0900  1.0321
  740TMC3    H210941   1.252   1.656  14.254  0.5811 -0.0134  0.5752
  740TMC3    C710942   1.215   1.816  14.075 -0.1367 -0.1074  0.6452
  740TMC3    C810943   1.107   1.519  14.409  0.0683 -0.5807 -0.4905
  740TMC3    O110944   1.321   1.757  14.088 -0.3656 -0.1909 -0.7146
  740TMC3    O210945   1.223   1.486  14.391  0.1588  0.2626  0.0839
  741TMC3    C110946   0.693   0.744  15.150 -0.0051 -0.4474  0.0068
  741TMC3    C210947   0.578   0.730  15.078  0.1644  0.2006 -0.5066
  741TMC3    C310948   0.466   0.673  15.143 -1.5276  0.2881  0.7447
  741TMC3    C410949   0.710   0.691  15.271  0.4219  0.1348 -0.1977
  741TMC3    C510950   0.603   0.619  15.326  0.2668  0.4730  0.2686
  741TMC3    C610951   0.482   0.612  15.268  0.3304 -0.1356 -0.1967
  741TMC3     C10952   0.791   0.828  15.071 -0.9275 -0.1323  0.4114
  741TMC3     O10953   0.746   0.884  14.968  0.1148  0.7494 -0.1092
  741TMC3     H10954   0.581   0.732  14.969 -0.3537 -0.9992 -0.5415
  741TMC3    H110955   0.810   0.680  15.312  0.9640 -1.0306 -1.8170
  741TMC3    H210956   0.399   0.558  15.312 -1.2034  2.5040  0.2046
  741TMC3    C710957   0.621   0.555  15.455  0.1650 -0.2399 -0.0507
  741TMC3    C810958   0.346   0.663  15.065  0.5814  0.3027  0.1285
  741TMC3    O110959   0.528   0.486  15.496 -0.2863 -0.5146 -0.4190
  741TMC3    O210960   0.348   0.736  14.964  0.0048  0.0590 -0.0019
  742TMC3    C110961   0.049   4.133  15.415 -0.4563  0.0682 -0.0276
  742TMC3    C210962   0.049   4.198  15.296  0.7249 -0.3670 -0.5885
  742TMC3    C310963   0.163   4.202  15.229 -0.6782  0.0551  0.2851
  742TMC3    C410964   0.157   4.069  15.476  0.4391  0.5451  0.8423
  742TMC3    C510965   0.271   4.073  15.398 -0.5342  0.4527  1.3441
  742TMC3    C610966   0.275   4.137  15.276  0.0298 -0.9484  0.6010
  742TMC3     C10967   4.650   4.132  15.496  0.3148  0.0961 -0.1735
  742TMC3     O10968   4.576   4.224  15.466  0.2761 -0.4207 -0.3405
  742TMC3     H10969   4.683   4.217  15.240  0.8419  4.8018  0.9765
  742TMC3    H110970   0.160   4.028  15.576 -1.1424  0.9492  1.0642
  742TMC3    H210971   0.362   4.140  15.211 -1.1463 -0.1319 -0.9536
  742TMC3    C710972   0.398   4.009  15.449  0.8378  0.3335 -0.2713
  742TMC3    C810973   0.166   4.267  15.095  0.2237 -0.0440  0.3313
  742TMC3    O110974   0.490   4.008  15.369 -0.0928 -0.0824 -0.6577
  742TMC3    O210975   0.262   4.244  15.026 -0.0849 -0.1678 -0.5160
  743MPD2     C10976   2.212   1.253   1.697  0.8599  0.2270 -0.3623
  743MPD2    C110977   2.252   1.127   1.667  0.0707  0.1946 -0.2137
  743MPD2    C210978   2.374   1.086   1.718  0.9124  0.1241 -0.2032
  743MPD2    C310979   2.449   1.168   1.793  0.4789 -0.5403 -0.5120
  743MPD2    C410980   2.411   1.295   1.826 -0.1412  1.1393 -0.3670
  743MPD2    C510981   2.290   1.335   1.771  0.4608 -0.5918 -0.4495
  743MPD2     H10982   2.406   0.985   1.694 -0.5196 -0.2354 -0.5415
  743MPD2    H110983   2.468   1.366   1.886  0.3329  0.8350 -0.4545
  743MPD2    H210984   2.119   1.287   1.653  0.7758  0.9009  0.3316
  743MPD2    H310985   2.261   1.439   1.782  1.3345 -0.1330 -2.5122
  743MPD2     N10986   2.574   1.115   1.837  0.6495 -0.8453 -0.4996
  743MPD2    H510987   2.590   1.020   1.805 -0.6251 -1.0929 -0.4076
  743MPD2    N110988   2.167   1.053   1.582  0.0760  0.6752 -0.1084
  743MPD2    H710989   2.094   1.109   1.538 -0.6565 -0.1694  0.0391
  744TMC3    C110990   2.092   0.873   1.441  0.2237  0.4081 -0.2240
  744TMC3    C210991   1.974   0.940   1.413  0.2821  0.2040 -0.1225
  744TMC3    C310992   1.907   0.912   1.301  0.7897 -0.1473  0.1280
  744TMC3    C410993   2.143   0.782   1.350 -0.0485  0.6312 -0.7678
  744TMC3    C510994   2.063   0.741   1.249  0.1619  0.1944  0.3937
  744TMC3    C610995   1.947   0.808   1.217  1.1745 -0.0489  0.5501
  744TMC3     C10996   2.186   0.923   1.544 -0.4394  0.3642 -0.5851
  744TMC3     O10997   2.276   0.844   1.581  0.1658 -0.1916  0.2592
  744TMC3     H10998   1.931   1.008   1.486 -1.8337 -3.6422  2.2127
  744TMC3    H110999   2.239   0.734   1.367  0.1532  1.2789 -0.0676
  744TMC3    H211000   1.894   0.805   1.122  2.4430  1.6652 -0.2141
  744TMC3    C711001   2.123   0.651   1.153  0.6534  0.2501  0.0259
  744TMC3    C811002   1.784   0.982   1.266 -1.0771  0.4146 -0.0296
  744TMC3    O111003   2.242   0.639   1.149 -0.2500 -0.1181 -0.0744
  744TMC3    O211004   1.697   0.917   1.210 -0.0822  0.2287 -0.0837
  745TMC3    C111005   1.517   3.753  13.959  0.3397 -0.5356  0.0750
  745TMC3    C211006   1.444   3.724  14.070  0.2921  0.6298  0.8341
  745TMC3    C311007   1.314   3.704  14.062  0.0404 -0.3832 -0.8303
  745TMC3    C411008   1.455   3.751  13.838  0.9249  0.4773 -0.3922
  745TMC3    C511009   1.324   3.711  13.834 -0.7196  0.3736  0.4900
  745TMC3    C611010   1.250   3.690  13.942  0.0998 -0.4240 -0.6048
  745TMC3     C11011   1.598   3.868  13.987 -0.3171 -0.5177  0.0874
  745TMC3     O11012   1.678   3.851  14.073  0.3778  0.0010 -0.9181
  745TMC3     H11013   1.497   3.732  14.165  1.8139 -0.8203  0.1112
  745TMC3    H111014   1.499   3.801  13.752  0.3097  0.0469 -0.9589
  745TMC3    H211015   1.146   3.663  13.930  0.4717 -2.4053  0.5836
  745TMC3    C711016   1.237   3.749  13.724 -0.4752 -0.2187 -0.1686
  745TMC3    C811017   1.231   3.786  14.152  0.2412 -0.5868 -0.0662
  745TMC3    O111018   1.120   3.783  13.747 -0.5340  0.3144 -0.1140
  745TMC3    O211019   1.110   3.766  14.140 -0.2408 -0.3375 -0.1847
  746TMC3    C111020   3.279   1.186  10.489 -0.1622 -0.2630 -0.2371
  746TMC3    C211021   3.328   1.144  10.364  0.2288  0.2710  0.1073
  746TMC3    C311022   3.247   1.063  10.290  0.2697  0.1506 -0.4074
  746TMC3    C411023   3.154   1.144  10.533  0.0799 -1.1099 -0.1282
  746TMC3    C511024   3.089   1.060  10.450 -0.0186  0.0327  1.0409
  746TMC3    C611025   3.122   1.027  10.322  0.3142 -0.2218 -0.5298
  746TMC3     C11026   3.355   1.277  10.573 -0.7792 -0.6092 -0.2167
  746TMC3     O11027   3.304   1.298  10.681 -0.0914 -0.0762  0.3472
  746TMC3     H11028   3.428   1.161  10.326 -0.4524  0.4054 -1.6321
  746TMC3    H111029   3.104   1.190  10.618  0.8570  0.7518 -0.6748
  746TMC3    H211030   3.061   0.961  10.260 -2.1917 -1.9110  3.7201
  746TMC3    C711031   2.985   0.977  10.511 -0.1439 -0.5353 -0.3361
  746TMC3    C811032   3.277   1.031  10.153 -0.7323 -0.0806  0.8557
  746TMC3    O111033   2.905   0.931  10.433  0.6000  0.5715 -0.2351
  746TMC3    O211034   3.246   0.916  10.123  0.2019  0.3637 -0.0758
  747TMC3    C111035   1.282   0.850  11.383  0.0801  0.1006  0.1191
  747TMC3    C211036   1.152   0.840  11.414  0.3769  0.5252  0.0831
  747TMC3    C311037   1.108   0.897  11.540  0.0877 -0.7429  0.1801
  747TMC3    C411038   1.377   0.913  11.464 -0.3845 -0.8706  0.5192
  747TMC3    C511039   1.331   0.956  11.587  0.2076 -0.3390 -0.4171
  747TMC3    C611040   1.201   0.944  11.628  0.0226 -0.1747 -0.0118
  747TMC3     C11041   1.337   0.775  11.271  0.3060  0.5817 -0.4001
  747TMC3     O11042   1.456   0.776  11.262  0.3524  0.1521  0.0430
  747TMC3     H11043   1.077   0.815  11.339 -1.0151 -0.0860  1.6819
  747TMC3    H111044   1.478   0.935  11.431 -1.5010  1.0160 -1.6134
  747TMC3    H211045   1.181   0.973  11.731  1.4652 -2.6593  0.9543
  747TMC3    C711046   1.427   1.020  11.682 -0.2604 -0.4769  0.1243
  747TMC3    C811047   0.972   0.874  11.568  0.5789  0.3056  0.5754
  747TMC3    O111048   1.378   1.060  11.785 -0.1549  0.1422 -0.2430
  747TMC3    O211049   0.923   0.773  11.517  0.0815 -0.1895  0.4130
  748MPD2     C11050   1.905   2.173   2.044  0.0267  0.1150 -1.2130
  748MPD2    C111051   1.895   2.094   1.931  0.6793 -0.1920  0.4771
  748MPD2    C211052   1.991   2.099   1.833 -0.4710  0.1487  0.1023
  748MPD2    C311053   2.109   2.168   1.850  0.8381 -0.7994  0.7969
  748MPD2    C411054   2.130   2.240   1.965 -0.1760  0.7515  0.0143
  748MPD2    C511055   2.027   2.236   2.061  0.2909 -0.3359  0.0588
  748MPD2     H11056   1.979   2.040   1.743  0.5473 -1.1848  0.8386
  748MPD2    H111057   2.218   2.300   1.980 -0.1527  0.0093  2.8663
  748MPD2    H211058   1.838   2.167   2.129 -0.5536 -0.4006 -1.7071
  748MPD2    H311059   2.043   2.281   2.159  0.2722 -0.4336  0.1061
  748MPD2     N11060   2.199   2.166   1.739  0.4740  1.1270  0.0313
  748MPD2    H511061   2.173   2.107   1.660 -0.0578 -1.3129  2.0015
  748MPD2    N111062   1.785   2.007   1.925 -0.2284  0.3592 -0.3284
  748MPD2    H711063   1.711   2.018   1.993 -1.5335 -0.6803 -1.5639
  749TMC3    C111064   2.410   2.157   1.641 -0.4213 -0.4230 -1.6447
  749TMC3    C211065   2.525   2.085   1.675 -0.1215 -0.9805 -0.0747
  749TMC3    C311066   2.575   1.988   1.590 -1.0784  0.2100  0.7946
  749TMC3    C411067   2.354   2.135   1.518 -1.0154  0.2532  0.4631
  749TMC3    C511068   2.407   2.040   1.437 -0.6919 -0.4256 -0.3354
  749TMC3    C611069   2.512   1.968   1.467 -0.5830  0.1713 -0.1087
  749TMC3     C11070   2.330   2.204   1.753  0.2539  0.1145  0.1857
  749TMC3     O11071   2.395   2.248   1.851  0.1770  0.0809  0.1292
  749TMC3     H11072   2.577   2.100   1.769 -1.5869  2.9322  0.1266
  749TMC3    H111073   2.272   2.196   1.481 -1.2089  1.4004  2.7403
  749TMC3    H211074   2.568   1.912   1.394 -0.1668  0.8251 -0.2875
  749TMC3    C711075   2.369   2.052   1.295 -0.1243 -0.4736  0.3305
  749TMC3    C811076   2.712   1.942   1.595 -0.4891  0.2396 -0.1703
  749TMC3    O111077   2.335   2.162   1.256  0.5571  0.4976 -0.3470
  749TMC3    O211078   2.790   2.015   1.654 -0.4972  0.2280 -0.0902
  750MPD2     C11079   3.454   3.161  11.084  0.7138 -0.0601 -0.7297
  750MPD2    C111080   3.391   3.061  11.152 -0.3019  0.1404  0.1118
  750MPD2    C211081   3.422   2.929  11.121  0.3713  0.0854  0.0493
  750MPD2    C311082   3.509   2.897  11.017  0.8822 -0.3346  0.2849
  750MPD2    C411083   3.573   3.002  10.951 -0.4798 -0.8012  0.3337
  750MPD2    C511084   3.543   3.134  10.981  0.1894  0.2948  0.6859
  750MPD2     H11085   3.380   2.846  11.177 -1.0284  0.0335 -1.0703
  750MPD2    H111086   3.634   2.990  10.862 -1.9179  1.2594 -0.9217
  750MPD2    H211087   3.427   3.265  11.101  0.2352 -0.1869 -0.7253
  750MPD2    H311088   3.582   3.217  10.924 -0.9773  1.1769  1.1710
  750MPD2     N11089   3.552   2.767  10.983 -0.0294 -0.3441 -0.7171
  750MPD2    H511090   3.635   2.756  10.926 -0.5937 -0.2981 -1.5548
  750MPD2    N111091   3.295   3.104  11.246  0.2558 -0.7703  0.5060
  750MPD2    H711092   3.296   3.203  11.270  0.9512 -0.8150  0.6723
  751TMC3    C111093   3.542   2.528  11.016 -1.3768 -0.5812  0.4284
  751TMC3    C211094   3.539   2.445  11.121  0.5715  0.3920  0.9908
  751TMC3    C311095   3.636   2.351  11.131 -0.8113  0.6237 -0.5416
  751TMC3    C411096   3.635   2.519  10.910 -0.1248  0.2685  1.4197
  751TMC3    C511097   3.741   2.430  10.932  0.0588 -0.1704  0.3267
  751TMC3    C611098   3.741   2.348  11.042  0.0864 -0.6293  0.1931
  751TMC3     C11099   3.477   2.657  11.018  0.6319 -0.3132 -0.3715
  751TMC3     O11100   3.376   2.645  11.088 -0.7960  0.4118  0.5032
  751TMC3     H11101   3.456   2.448  11.190 -1.5126  0.9825 -1.5442
  751TMC3    H111102   3.623   2.580  10.821 -0.6481 -0.5230  0.9442
  751TMC3    H211103   3.827   2.283  11.049 -0.1096 -1.1290 -1.8919
  751TMC3    C711104   3.790   2.358  10.817  0.0210  0.0618  0.0529
  751TMC3    C811105   3.587   2.220  11.139 -0.6003  0.5326  0.1321
  751TMC3    O111106   3.829   2.418  10.717 -0.0535 -0.0265 -0.3847
  751TMC3    O211107   3.656   2.142  11.068  0.2890  0.4027  0.2917
  752TMC3    C111108   2.064   2.037  17.215 -0.4277  0.1311  0.4123
  752TMC3    C211109   2.075   1.897  17.237  0.2395  1.0422 -0.0490
  752TMC3    C311110   1.996   1.849  17.337  0.4551 -0.4144  0.5485
  752TMC3    C411111   1.984   2.111  17.300  0.4599  0.1840  0.7327
  752TMC3    C511112   1.912   2.052  17.401  0.4912  0.5185 -0.4392
  752TMC3    C611113   1.913   1.917  17.412 -0.2151 -0.5933  0.2556
  752TMC3     C11114   2.135   2.092  17.105  0.1127 -0.9032 -0.3102
  752TMC3     O11115   2.208   2.004  17.050 -0.3202 -0.2074  0.0719
  752TMC3     H11116   2.137   1.828  17.181 -1.1141 -2.8414  3.2424
  752TMC3    H111117   1.959   2.215  17.284 -1.3041 -0.4283 -0.5817
  752TMC3    H211118   1.867   1.875  17.501  0.0267  0.1215  0.7218
  752TMC3    C711119   1.787   2.106  17.448  0.0096  0.2456  1.2232
  752TMC3    C811120   2.026   1.711  17.384  0.0663 -0.3296  0.1097
  752TMC3    O111121   1.708   2.020  17.477 -0.1635 -0.1606 -0.0222
  752TMC3    O211122   2.139   1.662  17.369 -0.5123 -0.5047  0.0552
  753TMC3    C111123   4.311   4.194  13.131 -0.1784 -0.5334 -0.7586
  753TMC3    C211124   4.397   4.160  13.232 -0.1934  0.4794  0.3119
  753TMC3    C311125   4.416   4.029  13.252 -0.6872 -0.0979  0.7020
  753TMC3    C411126   4.243   4.102  13.051 -0.2291 -0.7543  0.1604
  753TMC3    C511127   4.279   3.974  13.082 -0.3901  0.5069  0.0767
  753TMC3    C611128   4.371   3.930  13.178 -0.3183 -0.5791 -0.5793
  753TMC3     C11129   4.253   4.325  13.126  0.3521 -0.4280 -0.7671
  753TMC3     O11130   4.135   4.331  13.093 -0.1508  0.5898  0.6549
  753TMC3     H11131   4.450   4.236  13.287 -0.3082  0.8220 -0.0487
  753TMC3    H111132   4.176   4.135  12.972 -1.2919  1.1207  1.8330
  753TMC3    H211133   4.382   3.826  13.206  0.5575 -0.1399  0.7222
  753TMC3    C711134   4.186   3.873  13.042 -0.3316 -0.2759  0.1733
  753TMC3    C811135   4.467   3.988  13.382  0.0216 -0.3614 -0.3720
  753TMC3    O111136   4.223   3.757  13.028 -0.2817 -0.0640  0.3198
  753TMC3    O211137   4.466   3.868  13.408 -1.0154 -0.2774 -0.4011
  754MPD2     C11138   2.831   2.622  13.006 -0.0121 -0.0408  0.2692
  754MPD2    C111139   2.843   2.484  13.025  0.0004 -0.0819 -0.0528
  754MPD2    C211140   2.766   2.401  12.940 -0.1460 -0.2610  0.4753
  754MPD2    C311141   2.696   2.463  12.836 -0.3690  0.5069 -0.2517
  754MPD2    C411142   2.683   2.599  12.827 -0.8786  0.2036 -0.2008
  754MPD2    C511143   2.744   2.678  12.922 -0.5881 -0.3756 -0.1211
  754MPD2     H11144   2.751   2.294  12.955  0.8659 -0.5441 -0.5168
  754MPD2    H111145   2.612   2.642  12.758 -0.4410 -1.4402 -1.6803
  754MPD2    H211146   2.894   2.688  13.064  0.2497  0.4132 -0.5205
  754MPD2    H311147   2.735   2.785  12.907 -1.0766 -0.6992 -2.2660
  754MPD2     N11148   2.620   2.388  12.742 -0.2212 -0.1331 -0.0757
  754MPD2    H511149   2.552   2.437  12.684 -1.4059 -1.7507 -0.0749
  754MPD2    N111150   2.928   2.438  13.125  0.1258 -0.0604  0.0559
  754MPD2    H711151   2.978   2.505  13.183  1.6225 -0.7526 -0.4345
  755MPD2     C11152   1.660   2.472  12.815 -0.1199  0.0354 -0.2900
  755MPD2    C111153   1.775   2.484  12.898  0.1336 -0.3849  0.5869
  755MPD2    C211154   1.884   2.410  12.861  0.9174 -0.0970 -0.2513
  755MPD2    C311155   1.901   2.332  12.744  0.3675  0.2627 -0.0737
  755MPD2    C411156   1.790   2.335  12.659 -0.0807  0.2782  0.1634
  755MPD2    C511157   1.672   2.403  12.692 -0.0678  0.1324  0.1816
  755MPD2     H11158   1.969   2.416  12.928  0.1384 -0.4805  0.7666
  755MPD2    H111159   1.795   2.294  12.559 -0.3936  0.0994  0.2187
  755MPD2    H211160   1.567   2.521  12.841  0.2239  0.6315 -0.1846
  755MPD2    H311161   1.590   2.401  12.622 -1.3732  0.7720  1.6985
  755MPD2     N11162   2.018   2.259  12.704  0.3725 -0.2820 -0.3459
  755MPD2    H511163   2.006   2.214  12.614  1.5529  1.4059 -1.3452
  755MPD2    N111164   1.773   2.553  13.016  0.3690  0.4749 -0.3494
  755MPD2    H711165   1.853   2.532  13.076 -0.2990 -0.9758  0.0292
  756MPD2     C11166   3.171   2.920   9.264  0.0189  0.2638 -1.3802
  756MPD2    C111167   3.080   2.939   9.369 -0.1683  0.6952  0.6017
  756MPD2    C211168   2.946   2.962   9.341 -1.2967 -0.6107 -0.2191
  756MPD2    C311169   2.907   2.988   9.209 -0.3503 -0.4477 -0.3120
  756MPD2    C411170   2.999   2.979   9.105 -0.5910  0.0832  0.0100
  756MPD2    C511171   3.130   2.940   9.132  0.5166 -0.1328  0.1504
  756MPD2     H11172   2.876   2.971   9.423 -1.7729 -0.4924 -0.6361
  756MPD2    H111173   2.975   2.986   8.999 -1.0956  0.8410  0.1806
  756MPD2    H211174   3.274   2.890   9.275 -0.4315 -0.1553  1.9304
  756MPD2    H311175   3.193   2.930   9.045  0.1064  2.1006 -0.4152
  756MPD2     N11176   2.769   3.007   9.185 -0.1844  0.6040 -0.2880
  756MPD2    H511177   2.707   2.993   9.264  1.5236 -1.7940  0.6460
  756MPD2    N111178   3.117   2.925   9.502  0.4253 -0.0657 -0.1557
  756MPD2    H711179   3.041   2.913   9.569  1.2930 -0.5120  0.7547
  757MPD2     C11180   2.306   2.509   9.611  0.0005 -0.1215  0.6881
  757MPD2    C111181   2.426   2.498   9.543 -0.6504  0.1119 -0.2821
  757MPD2    C211182   2.450   2.567   9.428 -0.2262 -0.7221  0.3295
  757MPD2    C311183   2.357   2.660   9.388  0.2159  1.0934 -1.1143
  757MPD2    C411184   2.230   2.657   9.450  0.6318  0.8470  0.1554
  757MPD2    C511185   2.209   2.589   9.563 -0.5859 -0.5090 -0.0204
  757MPD2     H11186   2.547   2.571   9.378 -0.8910  1.6036 -0.7836
  757MPD2    H111187   2.143   2.714   9.417 -0.2425 -0.3553  0.3831
  757MPD2    H211188   2.289   2.461   9.706  0.3517 -0.5756  0.5224
  757MPD2    H311189   2.108   2.585   9.601 -0.6889 -1.2765 -0.3824
  757MPD2     N11190   2.384   2.733   9.271 -0.1179 -0.3122 -0.0712
  757MPD2    H511191   2.477   2.730   9.229 -0.4208 -0.7412 -0.7082
  757MPD2    N111192   2.524   2.403   9.583  0.5156  0.1398  0.7406
  757MPD2    H711193   2.493   2.321   9.633  2.8042 -0.5846  0.9816
  758MPD2     C11194   2.733   2.394  15.642 -0.0241 -0.3525 -0.0825
  758MPD2    C111195   2.771   2.296  15.729 -0.1705  0.1198  0.3085
  758MPD2    C211196   2.856   2.312  15.830  0.2873  0.0872  0.4435
  758MPD2    C311197   2.893   2.444  15.862 -0.6168  0.1071 -0.3462
  758MPD2    C411198   2.834   2.549  15.791 -0.3754  0.0765 -0.3690
  758MPD2    C511199   2.755   2.524  15.682  0.0027  0.5988  0.0218
  758MPD2     H11200   2.898   2.228  15.884 -0.0919 -1.5805 -1.9152
  758MPD2    H111201   2.856   2.649  15.828 -1.0000  0.1921 -0.3102
  758MPD2    H211202   2.677   2.375  15.551  3.1785 -1.2657 -1.8716
  758MPD2    H311203   2.707   2.603  15.626 -0.4447 -1.0280 -1.9324
  758MPD2     N11204   2.987   2.481  15.963 -0.4568 -0.1042 -0.5192
  758MPD2    H511205   3.000   2.581  15.977  0.4803 -0.0937 -1.4814
  758MPD2    N111206   2.731   2.171  15.691  0.0613 -0.4778 -0.1559
  758MPD2    H711207   2.687   2.173  15.600  0.7663  3.0096 -0.4394
  759MPD2     C11208   1.230   0.498   9.607 -0.7084 -0.7550  0.2807
  759MPD2    C111209   1.290   0.383   9.663 -0.0339  0.5472 -0.1623
  759MPD2    C211210   1.429   0.370   9.650 -0.0085  0.0775  0.0798
  759MPD2    C311211   1.511   0.465   9.586  0.3791 -0.2254 -0.6078
  759MPD2    C411212   1.446   0.566   9.522  0.0156  0.4373 -1.3975
  759MPD2    C511213   1.309   0.582   9.531 -0.2080  0.0265  0.7991
  759MPD2     H11214   1.481   0.285   9.692  1.1416 -1.2690 -4.0011
  759MPD2    H111215   1.500   0.641   9.465  0.0061 -0.6722 -2.8585
  759MPD2    H211216   1.124   0.518   9.603 -0.5308  0.5907  2.2620
  759MPD2    H311217   1.271   0.667   9.477 -1.5269 -1.2691 -0.3205
  759MPD2     N11218   1.649   0.450   9.563  0.2217  0.0649  0.2069
  759MPD2    H511219   1.681   0.512   9.490 -0.3925  0.6249  0.4111
  759MPD2    N111220   1.217   0.283   9.728  0.0062  0.6521 -0.0030
  759MPD2    H711221   1.263   0.197   9.758 -0.6318 -1.1769 -4.2470
  760MPD2     C11222   1.365   2.377  11.482 -0.4829 -0.6697 -0.6057
  760MPD2    C111223   1.470   2.456  11.526 -0.3890  0.4725  0.0193
  760MPD2    C211224   1.567   2.395  11.595 -0.1964  0.4424 -0.2347
  760MPD2    C311225   1.578   2.250  11.593 -0.0766 -0.2319  0.9304
  760MPD2    C411226   1.462   2.183  11.570  0.6142 -0.2493 -0.7073
  760MPD2    C511227   1.358   2.242  11.510  0.0505 -0.5899  0.7497
  760MPD2     H11228   1.652   2.453  11.628  0.8969 -1.4076  0.1703
  760MPD2    H111229   1.459   2.075  11.571 -1.0672 -0.1510  2.8204
  760MPD2    H211230   1.274   2.414  11.436 -2.1491 -0.7805  2.5862
  760MPD2    H311231   1.273   2.185  11.471  0.1849 -0.4177  0.2016
  760MPD2     N11232   1.697   2.186  11.627 -0.2720 -0.1607 -0.1862
  760MPD2    H511233   1.702   2.084  11.620  1.8671  0.1152 -2.8777
  760MPD2    N111234   1.482   2.597  11.495  1.0234 -0.9429 -0.2960
  760MPD2    H711235   1.523   2.653  11.569 -0.9631 -1.4925  1.2193
  761MPD2     C11236   3.161   1.943  11.098 -0.8954  0.1121  0.0010
  761MPD2    C111237   3.268   1.944  11.012  0.1599  0.0457 -0.2889
  761MPD2    C211238   3.372   2.028  11.053  0.0687 -0.4303  0.7110
  761MPD2    C311239   3.366   2.115  11.158  0.2180  0.1705  0.1841
  761MPD2    C411240   3.256   2.109  11.248 -0.4735 -0.6310 -0.6433
  761MPD2    C511241   3.158   2.021  11.214 -0.0332 -0.5085  0.3293
  761MPD2     H11242   3.462   2.024  10.994  0.3511  2.6536  0.9550
  761MPD2    H111243   3.243   2.173  11.334 -1.9173 -0.0330 -1.3079
  761MPD2    H211244   3.071   1.889  11.070 -1.2393  0.4911  0.3819
  761MPD2    H311245   3.072   2.021  11.281  0.7504 -0.9153  1.3415
  761MPD2     N11246   3.462   2.213  11.193 -0.2023 -0.4871 -0.8533
  761MPD2    H511247   3.426   2.286  11.253  1.0048  0.5082 -1.3319
  761MPD2    N111248   3.265   1.866  10.889 -0.0419  0.0258  0.2566
  761MPD2    H711249   3.185   1.807  10.868 -1.5400  1.8222  0.9578
  762MPD2     C11250   3.746   1.965  10.295  0.8607  0.3870  0.6058
  762MPD2    C111251   3.678   1.842  10.272 -0.6144 -0.7410  0.1862
  762MPD2    C211252   3.689   1.773  10.154 -0.7064 -0.3126  0.3181
  762MPD2    C311253   3.772   1.832  10.057 -0.3313 -0.0480 -0.0105
  762MPD2    C411254   3.828   1.956  10.080  0.6707 -0.3230  0.6173
  762MPD2    C511255   3.828   2.018  10.201  0.6663 -0.7018  0.4142
  762MPD2     H11256   3.636   1.680  10.135  1.0809 -1.6695  1.9827
  762MPD2    H111257   3.891   1.991   9.999  0.3541  1.3501  1.1080
  762MPD2    H211258   3.737   1.995  10.399 -1.0400  1.5694  0.0998
  762MPD2    H311259   3.886   2.106  10.227 -2.1396  1.3072 -0.1465
  762MPD2     N11260   3.802   1.764   9.940 -0.6131 -0.6529 -0.0588
  762MPD2    H511261   3.748   1.678   9.937  0.0991 -1.0970 -0.1409
  762MPD2    N111262   3.589   1.801  10.373  0.3193  0.4291  0.0920
  762MPD2    H711263   3.593   1.853  10.459 -0.2483 -1.6430  1.3724
  763MPD2     C11264   4.019   2.289  16.188 -0.4898  0.0599 -0.7095
  763MPD2    C111265   4.126   2.362  16.147 -0.9785  0.1512 -1.1551
  763MPD2    C211266   4.166   2.471  16.220  0.7244 -0.0486 -0.1999
  763MPD2    C311267   4.102   2.510  16.340  0.8485 -0.2936  0.2141
  763MPD2    C411268   4.003   2.430  16.383  1.0897 -0.0770 -0.0548
  763MPD2    C511269   3.961   2.325  16.309 -0.3068 -0.7989  0.0571
  763MPD2     H11270   4.256   2.519  16.184  0.6081 -0.5068 -1.0820
  763MPD2    H111271   3.956   2.444  16.480  0.1276  0.2672 -0.5747
  763MPD2    H211272   3.987   2.206  16.126  1.8165  1.1557 -3.3736
  763MPD2    H311273   3.866   2.279  16.334 -0.0223 -1.1643  0.4589
  763MPD2     N11274   4.157   2.631  16.404  0.1765 -0.2178 -0.6214
  763MPD2    H511275   4.233   2.677  16.354  0.4795  0.3815  0.3919
  763MPD2    N111276   4.195   2.341  16.028  0.1309 -0.0133  0.4530
  763MPD2    H711277   4.245   2.418  15.985  2.5811 -1.7127  0.2620
  764MPD2     C11278   2.114   4.154  17.380 -0.4044 -0.3224  0.1846
  764MPD2    C111279   2.169   4.067  17.284  0.2171 -0.4416 -0.2463
  764MPD2    C211280   2.210   3.938  17.325  0.0680  0.2444  0.0016
  764MPD2    C311281   2.196   3.902  17.454  0.0618 -0.4445 -0.2708
  764MPD2    C411282   2.150   3.991  17.552 -0.2368  0.4208  0.4100
  764MPD2    C511283   2.106   4.121  17.509  0.3618  0.4254  0.0694
  764MPD2     H11284   2.247   3.867  17.252 -3.2798 -0.6773 -0.7835
  764MPD2    H111285   2.141   3.973  17.659  3.8372 -0.3143  0.6440
  764MPD2    H211286   2.087   4.255  17.352 -1.2751 -0.6579 -0.1978
  764MPD2    H311287   2.070   4.193  17.582  2.3549  1.2530  0.2264
  764MPD2     N11288   2.230   3.769  17.493 -0.7542 -0.6919  0.5035
  764MPD2    H511289   2.250   3.710  17.413 -0.6651  1.0990 -0.8026
  764MPD2    N111290   2.182   4.105  17.147  0.1180  0.4040 -0.7308
  764MPD2    H711291   2.223   4.037  17.083 -0.2703 -0.0510 -0.4983
  765MPD2     C11292   1.973   1.472  15.797  0.2911 -0.5071  0.7559
  765MPD2    C111293   2.096   1.532  15.797 -0.4975 -0.6381 -0.1072
  765MPD2    C211294   2.201   1.472  15.720 -0.5673  0.2445 -0.1766
  765MPD2    C311295   2.178   1.356  15.644  0.4273 -0.0409  0.1822
  765MPD2    C411296   2.049   1.306  15.638 -0.2514  0.1982  0.5101
  765MPD2    C511297   1.953   1.365  15.708  0.8609  0.2282 -0.4894
  765MPD2     H11298   2.302   1.511  15.735 -1.2580  2.0198 -0.1392
  765MPD2    H111299   2.023   1.216  15.582  0.2694 -0.1597  0.8488
  765MPD2    H211300   1.883   1.516  15.839 -0.5458 -2.4376  0.9909
  765MPD2    H311301   1.854   1.323  15.692  0.9917 -0.0219 -0.6431
  765MPD2     N11302   2.288   1.294  15.585  0.1824 -0.1423  0.2142
  765MPD2    H511303   2.373   1.350  15.588 -0.1382  0.2691  1.8034
  765MPD2    N111304   2.107   1.645  15.871 -0.0885  0.3551 -0.2827
  765MPD2    H711305   2.022   1.689  15.906  0.1028  0.4659  0.0424
  766MPD2     C11306   1.693   1.837  15.684  0.0271 -0.1452 -0.1416
  766MPD2    C111307   1.826   1.845  15.658 -0.2011  0.4073  0.5588
  766MPD2    C211308   1.873   1.839  15.535  0.7645  0.1476 -0.2007
  766MPD2    C311309   1.786   1.808  15.436  0.3707  0.4284  0.6482
  766MPD2    C411310   1.651   1.800  15.463 -0.4482 -0.2855  0.7830
  766MPD2    C511311   1.608   1.817  15.587  0.3433 -0.2149 -0.2915
  766MPD2     H11312   1.977   1.863  15.515  0.5899 -0.2922 -1.6305
  766MPD2    H111313   1.572   1.790  15.390  0.5624  1.3057 -0.5418
  766MPD2    H211314   1.649   1.843  15.783 -0.8182  0.6302 -0.5686
  766MPD2    H311315   1.501   1.806  15.600  0.0021 -0.0994 -3.0414
  766MPD2     N11316   1.839   1.793  15.308 -0.0565  0.2886  0.1509
  766MPD2    H511317   1.939   1.786  15.295 -0.2009 -0.9635 -0.3214
  766MPD2    N111318   1.916   1.898  15.757 -0.1706 -0.2104  0.6335
  766MPD2    H711319   2.016   1.894  15.740 -0.6111 -1.0421 -1.7928
  767MPD2     C11320   1.464   2.137  14.929  0.4599  0.5916 -0.1474
  767MPD2    C111321   1.594   2.131  14.903  0.2411  0.3280 -0.1273
  767MPD2    C211322   1.645   2.080  14.790 -0.3153 -0.1259 -0.4297
  767MPD2    C311323   1.565   2.035  14.687  0.6410 -0.0311 -0.2650
  767MPD2    C411324   1.431   2.044  14.707 -1.0670  0.1625 -0.0045
  767MPD2    C511325   1.379   2.092  14.824 -0.0990 -0.7135 -0.3989
  767MPD2     H11326   1.752   2.079  14.771 -0.2673  0.5343 -0.1863
  767MPD2    H111327   1.349   2.012  14.643  0.5919 -0.9604 -1.5803
  767MPD2    H211328   1.421   2.175  15.021  1.3393  0.9604  0.1107
  767MPD2    H311329   1.273   2.087  14.845 -0.0886 -1.1889 -0.4596
  767MPD2     N11330   1.614   1.980  14.565 -0.0182 -0.0153  0.4558
  767MPD2    H511331   1.715   1.975  14.557 -0.2497  1.3689 -3.5926
  767MPD2    N111332   1.668   2.188  15.006  0.1117  0.2080 -0.5728
  767MPD2    H711333   1.629   2.225  15.092  2.3734  0.2142  0.4436
  768MPD2     C11334   3.014   0.368  10.293 -0.0461 -0.2731 -0.2344
  768MPD2    C111335   2.957   0.325  10.411 -0.8024  0.4314  1.6340
  768MPD2    C211336   3.036   0.289  10.521  0.0690 -0.1860  0.2709
  768MPD2    C311337   3.172   0.311  10.516 -0.4597  1.0550 -0.6825
  768MPD2    C411338   3.225   0.356  10.398 -0.1265  0.5029 -0.8216
  768MPD2    C511339   3.146   0.374  10.286 -0.0852 -0.3826 -0.0404
  768MPD2     H11340   2.989   0.256  10.613  1.1777  2.4197  1.7872
  768MPD2    H111341   3.332   0.373  10.395 -0.0963  0.1348 -1.6714
  768MPD2    H211342   2.963   0.399  10.202 -1.0485 -0.1054  0.3814
  768MPD2    H311343   3.185   0.394  10.187 -0.5933  0.6182 -0.0311
  768MPD2     N11344   3.263   0.295  10.620 -0.3316 -0.2670 -0.5331
  768MPD2    H511345   3.357   0.330  10.600 -0.2594 -0.1495 -0.0016
  768MPD2    N111346   2.816   0.300  10.427 -0.4924 -0.2524  0.1780
  768MPD2    H711347   2.794   0.263  10.519  1.7461 -2.6502 -0.2382
  769MPD2     C11348   3.688   3.201  14.325  0.5877  0.5936 -0.4316
  769MPD2    C111349   3.627   3.246  14.441 -0.3557 -0.1519  0.0969
  769MPD2    C211350   3.696   3.334  14.522  0.3403  0.0381 -0.8164
  769MPD2    C311351   3.830   3.360  14.497  0.1209 -0.1023 -0.2091
  769MPD2    C411352   3.884   3.323  14.374 -0.3140  0.0677  0.0880
  769MPD2    C511353   3.817   3.236  14.299 -0.8612  0.7853  0.4106
  769MPD2     H11354   3.655   3.375  14.614 -1.1806 -2.7179 -0.2530
  769MPD2    H111355   3.984   3.348  14.341  0.2368 -0.8937  1.0136
  769MPD2    H211356   3.641   3.138  14.250 -0.0679  1.5874 -0.8597
  769MPD2    H311357   3.862   3.198  14.208  0.8290 -1.0523  2.0289
  769MPD2     N11358   3.907   3.428  14.590  0.0491 -0.0765  0.0713
  769MPD2    H511359   3.853   3.461  14.669  0.4562 -0.1349  0.3740
  769MPD2    N111360   3.503   3.195  14.475 -0.6694  0.1127  0.0878
  769MPD2    H711361   3.447   3.151  14.403  0.0081  3.5567 -2.4992
  770MPD2     C11362   2.950   2.432  14.984 -0.4109 -0.1935  0.8620
  770MPD2    C111363   2.928   2.426  14.852  0.2897 -0.8871  0.2865
  770MPD2    C211364   2.977   2.532  14.772  0.7647 -0.0003 -0.0554
  770MPD2    C311365   3.040   2.641  14.828  0.8654 -0.3957 -0.6344
  770MPD2    C411366   3.053   2.645  14.963  1.1049  0.0992 -0.5374
  770MPD2    C511367   3.000   2.548  15.041  0.1741 -0.0486 -0.8264
  770MPD2     H11368   2.968   2.530  14.664 -2.0576  0.9120  0.1660
  770MPD2    H111369   3.085   2.737  15.009  3.3102 -1.3535  0.8118
  770MPD2    H211370   2.917   2.357  15.056 -0.0478 -0.8872  0.3086
  770MPD2    H311371   2.988   2.552  15.149 -0.1529 -1.2774 -0.8140
  770MPD2     N11372   3.099   2.737  14.751 -0.6953  0.1362  0.0726
  770MPD2    H511373   3.090   2.731  14.650  0.6200 -0.6541 -0.0049
  770MPD2    N111374   2.879   2.302  14.805  0.4368 -0.5723  0.1617
  770MPD2    H711375   2.845   2.240  14.878  3.9353 -1.8098  0.7316
  771MPD2     C11376   0.023   1.160  13.727 -0.1752  0.8452 -0.2345
  771MPD2    C111377   4.679   1.270  13.699  0.4893  1.2633 -0.5913
  771MPD2    C211378   4.572   1.259  13.608  0.2799 -0.8829 -0.3311
  771MPD2    C311379   4.527   1.139  13.567 -0.2330 -0.2556  0.5641
  771MPD2    C411380   4.599   1.026  13.598  0.2716  0.2777 -0.7035
  771MPD2    C511381   4.707   1.033  13.679  0.2624  0.0552  0.5261
  771MPD2     H11382   4.514   1.347  13.584  1.0384 -0.1965  0.3535
  771MPD2    H111383   4.582   0.928  13.557  1.3916  0.2836 -1.1887
  771MPD2    H211384   0.110   1.166  13.791 -1.4824 -0.0263  1.6222
  771MPD2    H311385   0.034   0.943  13.708 -2.1085 -1.7053 -0.6422
  771MPD2     N11386   4.418   1.143  13.483 -0.8748  0.3856 -0.0878
  771MPD2    H511387   4.385   1.232  13.448  0.4448 -0.0273 -2.3785
  771MPD2    N111388   4.712   1.402  13.736  0.5124  0.2751 -0.3674
  771MPD2    H711389   4.665   1.480  13.693 -0.5476 -0.8529 -1.2474
  772MPD2     C11390   4.341   2.015  13.994  0.2462  0.3808 -0.4577
  772MPD2    C111391   4.339   1.878  13.961  0.0227  0.0500 -0.6547
  772MPD2    C211392   4.215   1.818  13.982  0.2533 -0.1025 -0.0654
  772MPD2    C311393   4.103   1.886  14.030 -0.0877 -0.1498 -0.5423
  772MPD2    C411394   4.116   2.019  14.059 -0.4480  0.3495  0.4179
  772MPD2    C511395   4.236   2.083  14.048  0.2910  0.1426 -0.1656
  772MPD2     H11396   4.204   1.714  13.955  3.6113 -0.0511 -1.6872
  772MPD2    H111397   4.032   2.064  14.110  0.1769 -0.1792  1.9386
  772MPD2    H211398   4.419   2.083  13.962 -1.0733  2.7379  1.3327
  772MPD2    H311399   4.245   2.185  14.084 -0.6764 -0.1470  0.9263
  772MPD2     N11400   3.976   1.822  14.060  0.1445  0.1813  0.4028
  772MPD2    H511401   3.906   1.885  14.097 -0.8349  0.1437 -1.4068
  772MPD2    N111402   4.445   1.802  13.916  0.2352  0.4739  0.1147
  772MPD2    H711403   4.425   1.703  13.924  1.0264  0.5844  3.5575
  773MPD2     C11404   2.986   2.687   0.115 -0.0088  0.6190 -0.5659
  773MPD2    C111405   3.020   2.640  17.695 -0.1639  0.4012  0.2194
  773MPD2    C211406   3.061   2.503  17.685 -0.3063 -0.2020  0.1026
  773MPD2    C311407   3.074   2.430   0.099  0.4214  0.2522  0.5829
  773MPD2    C411408   3.029   2.480   0.223 -0.6622 -0.0754 -0.0647
  773MPD2    C511409   2.976   2.606   0.227 -0.2460 -0.4523 -0.2726
  773MPD2     H11410   3.116   2.466  17.599  1.4859  1.6418  0.4683
  773MPD2    H111411   3.022   2.418   0.311  1.7663  0.3760  0.4439
  773MPD2    H211412   2.952   2.786   0.141  0.1190  0.3511  0.6089
  773MPD2    H311413   2.937   2.649   0.319  1.4184  0.3986  0.0365
  773MPD2     N11414   3.131   2.302   0.088 -0.2561 -0.4783 -0.0257
  773MPD2    H511415   3.149   2.254   0.000  1.5091  2.5737 -1.3131
  773MPD2    N111416   3.025   2.712  17.579  0.2349 -0.2220 -0.0270
  773MPD2    H711417   3.064   2.666  17.498 -0.8151 -2.3202  0.6738
  774MPD2     C11418   2.828   1.518  13.481 -0.3171  0.0792  0.8893
  774MPD2    C111419   2.751   1.624  13.522  0.2850  0.0750  0.3231
  774MPD2    C211420   2.793   1.749  13.489 -1.2666  0.2156 -0.1006
  774MPD2    C311421   2.904   1.772  13.409 -0.4936  0.5685 -0.3036
  774MPD2    C411422   2.980   1.664  13.367 -0.2189  0.1473  0.0527
  774MPD2    C511423   2.943   1.543  13.406 -0.5307 -0.0749 -0.5553
  774MPD2     H11424   2.745   1.833  13.538 -1.4007 -0.2053  0.4943
  774MPD2    H111425   3.061   1.668  13.295 -0.1260 -1.5681  0.0546
  774MPD2    H211426   2.817   1.417  13.519  0.7752 -0.5214 -0.3995
  774MPD2    H311427   2.994   1.460  13.360 -0.7131  0.7429 -2.2491
  774MPD2     N11428   2.952   1.902  13.389  0.0613 -0.3526  0.4904
  774MPD2    H511429   2.900   1.984  13.418  1.9190  0.8647  0.4392
  774MPD2    N111430   2.649   1.614  13.623 -0.5527  0.7143  0.2753
  774MPD2    H711431   2.601   1.700  13.648 -0.4740  0.6956  0.4885
  775MPD2     C11432   3.932   3.310  15.733 -0.0097 -0.4377 -0.5088
  775MPD2    C111433   3.952   3.419  15.818  0.1443  0.6390 -0.0209
  775MPD2    C211434   4.021   3.529  15.773  0.1100  0.0935 -0.4809
  775MPD2    C311435   4.078   3.531  15.647 -0.1923  1.4214  0.6154
  775MPD2    C411436   4.075   3.415  15.570  0.0857  0.6311 -0.0805
  775MPD2    C511437   4.000   3.307  15.610  0.6716  0.4189  0.4303
  775MPD2     H11438   4.018   3.614  15.841 -1.5366 -0.9928  0.8005
  775MPD2    H111439   4.120   3.400  15.473 -1.9591 -1.6952 -0.6838
  775MPD2    H211440   3.881   3.227  15.781 -0.5531 -0.7902 -1.6805
  775MPD2    H311441   3.976   3.235  15.532  4.0113  0.6471 -0.8347
  775MPD2     N11442   4.150   3.641  15.600 -0.2642  0.5085 -0.0571
  775MPD2    H511443   4.190   3.631  15.507 -1.2323 -4.2393  0.0284
  775MPD2    N111444   3.891   3.398  15.946  0.4547 -0.5015  0.2152
  775MPD2    H711445   3.825   3.320  15.951 -4.1219  3.3574 -0.5349
  776MPD2     C11446   3.313   3.477  11.892 -0.0531  0.1580 -0.1399
  776MPD2    C111447   3.240   3.499  11.774 -0.0256 -0.0189 -1.3553
  776MPD2    C211448   3.237   3.625  11.716  0.2202 -0.1968  0.6076
  776MPD2    C311449   3.290   3.728  11.786  0.7763  0.5544  0.0746
  776MPD2    C411450   3.355   3.705  11.899 -0.0543 -0.5606  0.0065
  776MPD2    C511451   3.369   3.582  11.958  0.2926  0.0453 -0.3959
  776MPD2     H11452   3.204   3.653  11.617  0.4162 -4.2961 -0.6015
  776MPD2    H111453   3.404   3.786  11.951 -0.5017  1.9582 -3.4850
  776MPD2    H211454   3.321   3.381  11.942  0.9101 -0.3640 -1.2834
  776MPD2    H311455   3.419   3.574  12.054  0.7651  2.7637 -0.4344
  776MPD2     N11456   3.308   3.858  11.729 -0.8420 -0.0010 -0.5736
  776MPD2    H511457   3.375   3.920  11.771  0.1270 -3.0968  2.4759
  776MPD2    N111458   3.192   3.388  11.705 -0.1191  0.0519  0.1402
  776MPD2    H711459   3.239   3.301  11.729  1.0360 -0.0905 -2.6693
  777MPD2     C11460   3.214   0.882   0.958 -0.5403  0.4128 -0.0158
  777MPD2    C111461   3.093   0.894   1.014  0.7350  0.6338 -0.2055
  777MPD2    C211462   2.982   0.837   0.952  0.6590 -0.2858 -0.1860
  777MPD2    C311463   2.995   0.773   0.833  0.6791  0.5172  0.0993
  777MPD2    C411464   3.118   0.756   0.785  0.1057 -0.7667 -0.8635
  777MPD2    C511465   3.230   0.811   0.842 -0.1747 -0.2005 -0.2660
  777MPD2     H11466   2.883   0.857   0.992  0.7407  1.0441 -0.6434
  777MPD2    H111467   3.131   0.694   0.697  1.3096 -0.4278 -0.9303
  777MPD2    H211468   3.296   0.933   1.009  1.2213 -1.2979 -1.1427
  777MPD2    H311469   3.328   0.800   0.798 -0.5831  0.7958 -1.4280
  777MPD2     N11470   2.884   0.734   0.756 -0.0680  0.0687  0.0016
  777MPD2    H511471   2.789   0.754   0.785 -0.6402 -0.4104 -1.5290
  777MPD2    N111472   3.090   0.952   1.143 -0.4637  0.0036 -0.2475
  777MPD2    H711473   3.176   0.995   1.178 -0.8168 -0.3198  1.0082
  778MPD2     C11474   4.506   1.510  15.130 -0.1031 -0.4577  1.1351
  778MPD2    C111475   4.504   1.403  15.038  0.4200  0.0162 -0.2607
  778MPD2    C211476   4.575   1.411  14.919  0.0634  0.4020  0.1878
  778MPD2    C311477   4.661   1.520  14.888 -0.1538 -0.0826 -0.2982
  778MPD2    C411478   4.663   1.620  14.976  0.2420 -0.7096 -0.5327
  778MPD2    C511479   4.581   1.617  15.089 -0.0115  0.2483 -0.4511
  778MPD2     H11480   4.580   1.324  14.854 -2.6234 -0.1455  0.7049
  778MPD2    H111481   4.722   1.710  14.967  0.3868 -0.4480  2.8171
  778MPD2    H211482   4.455   1.517  15.225 -0.3729  0.9224  0.9032
  778MPD2    H311483   4.592   1.708  15.146 -1.7401  0.9979 -1.3181
  778MPD2     N11484   0.017   1.503  14.777 -0.3061  0.0517  0.1233
  778MPD2    H511485   0.008   1.415  14.726 -0.4682 -2.0528  3.7486
  778MPD2    N111486   4.439   1.282  15.064  0.4257 -0.2309  0.4972
  778MPD2    H711487   4.449   1.220  14.984 -0.9360  1.8555 -1.2739
  779MPD2     C11488   4.284   0.446  14.016 -0.3382  0.3252 -0.3241
  779MPD2    C111489   4.374   0.392  14.107 -0.5653  0.8126 -0.7279
  779MPD2    C211490   4.422   0.477  14.204 -0.2846 -0.0641  0.5783
  779MPD2    C311491   4.393   0.617  14.205  0.2874  0.2398 -0.1642
  779MPD2    C411492   4.302   0.659  14.113 -0.3491 -0.3524  0.8898
  779MPD2    C511493   4.254   0.579  14.018 -0.0917 -0.2905 -0.0347
  779MPD2     H11494   4.502   0.450  14.272  0.1113  2.7425  1.2506
  779MPD2    H111495   4.267   0.762  14.110  0.9160  0.1239  3.0521
  779MPD2    H211496   4.245   0.381  13.939  1.4033 -0.2532 -0.7113
  779MPD2    H311497   4.188   0.626  13.946 -1.6148 -1.2875  0.6923
  779MPD2     N11498   4.452   0.707  14.304  0.5619  0.4259  0.1450
  779MPD2    H511499   4.511   0.658  14.371  0.3640 -0.0860 -0.0569
  779MPD2    N111500   4.418   0.263  14.104 -0.0078 -0.6422  0.4518
  779MPD2    H711501   4.491   0.239  14.171  1.3094  0.5928 -0.5253
  780MPD2     C11502   3.417   0.198   1.226 -0.1671  0.3148 -0.6659
  780MPD2    C111503   3.368   0.165   1.104  0.7662  0.4199  0.8980
  780MPD2    C211504   3.442   0.196   0.991  0.4004  0.1285  0.0491
  780MPD2    C311505   3.555   0.276   0.997 -0.1211 -0.0089  0.2456
  780MPD2    C411506   3.594   0.315   1.126  0.4381  0.1520  0.0959
  780MPD2    C511507   3.527   0.270   1.232  0.5378  0.7402  0.3114
  780MPD2     H11508   3.419   0.172   0.888  1.6043 -3.6249  0.6195
  780MPD2    H111509   3.688   0.363   1.154  0.1195  0.8034  0.0557
  780MPD2    H211510   3.364   0.162   1.313  0.4060 -0.1054 -0.4868
  780MPD2    H311511   3.571   0.288   1.329 -0.9436 -0.3294  1.1896
  780MPD2     N11512   3.628   0.301   0.881 -0.6411  0.7714  0.4959
  780MPD2    H511513   3.616   0.238   0.802  1.0900 -1.2782  1.8667
  780MPD2    N111514   3.237   0.118   1.097 -0.0612  0.3044  0.3189
  780MPD2    H711515   3.200   0.078   1.182  0.6052  1.8445  1.3433
  781MPD2     C11516   1.177   1.906  11.821  0.1673 -0.3885  0.6146
  781MPD2    C111517   1.191   1.879  11.958  0.0820 -0.2190 -0.0557
  781MPD2    C211518   1.316   1.841  12.004  0.3319  0.3205 -0.1962
  781MPD2    C311519   1.426   1.827  11.925 -0.3651 -0.2471  0.1246
  781MPD2    C411520   1.412   1.848  11.791 -0.1743  0.1867  0.2007
  781MPD2    C511521   1.288   1.890  11.743 -0.4439  0.3824 -0.5432
  781MPD2     H11522   1.330   1.809  12.106  0.5582 -0.0033 -0.3259
  781MPD2    H111523   1.497   1.846  11.724 -0.0688 -1.6603  0.4129
  781MPD2    H211524   1.080   1.939  11.786 -0.1530 -1.3770  0.5645
  781MPD2    H311525   1.276   1.898  11.636 -0.2424  1.5833 -0.4748
  781MPD2     N11526   1.539   1.778  11.981  0.0500  0.3964 -0.0719
  781MPD2    H511527   1.619   1.743  11.929 -0.6453 -1.7928  0.3133
  781MPD2    N111528   1.080   1.876  12.044  0.0257 -0.3069  0.1850
  781MPD2    H711529   1.101   1.863  12.143 -2.1321 -1.2111  0.5291
  782MPD2     C11530   3.928   2.293   9.984  0.2683  0.0694  0.1326
  782MPD2    C111531   4.006   2.331  10.084  0.0813 -0.0976  0.1175
  782MPD2    C211532   3.977   2.447  10.141  0.3448  0.8824  0.0843
  782MPD2    C311533   3.881   2.531  10.089 -0.4256 -0.3997 -0.8909
  782MPD2    C411534   3.801   2.495   9.979 -0.0493 -0.4873 -0.2273
  782MPD2    C511535   3.828   2.374   9.934  0.4650 -0.2443 -0.7164
  782MPD2     H11536   4.029   2.484  10.229 -1.2201  0.1085  1.3336
  782MPD2    H111537   3.718   2.546   9.931  0.0984 -0.1033 -0.0740
  782MPD2    H211538   3.937   2.190   9.949  1.2451 -0.0524  0.7396
  782MPD2    H311539   3.775   2.325   9.853 -0.6433 -1.7754  0.9372
  782MPD2     N11540   3.872   2.654  10.156 -0.1934  0.1664 -0.2741
  782MPD2    H511541   3.928   2.672  10.239  1.3543 -1.7939 -0.9106
  782MPD2    N111542   4.114   2.254  10.130  0.3443 -0.1763  0.1222
  782MPD2    H711543   4.123   2.160  10.092  0.8615  0.0208 -0.2378
  783MPD2     C11544   3.800   1.994  10.814 -0.7872  0.9092  0.2577
  783MPD2    C111545   3.824   2.116  10.763  0.5624 -0.2350 -0.5158
  783MPD2    C211546   3.918   2.126  10.663  0.1856  0.0027 -0.2562
  783MPD2    C311547   3.988   2.016  10.622 -0.1471  0.3501 -0.4380
  783MPD2    C411548   3.954   1.892  10.671  0.7754 -0.0713  0.3745
  783MPD2    C511549   3.864   1.883  10.775 -1.1892  0.3035 -0.5989
  783MPD2     H11550   3.945   2.220  10.617  0.3565  0.0772 -0.0036
  783MPD2    H111551   4.002   1.801  10.638  0.3876 -1.6555  4.1484
  783MPD2    H211552   3.736   1.978  10.900 -0.1225 -1.4823  0.3077
  783MPD2    H311553   3.844   1.784  10.814 -0.1469  1.2669  2.3819
  783MPD2     N11554   4.091   2.032  10.521  0.6474 -0.2001 -0.0352
  783MPD2    H511555   4.098   2.124  10.478 -0.2187 -0.0443  0.1662
  783MPD2    N111556   3.758   2.225  10.833  0.2833 -0.0091  0.5605
  783MPD2    H711557   3.691   2.202  10.906  2.3508  0.3978  2.5842
  784MPD2     C11558   1.086   2.515   0.683  0.9561  0.4260  0.7727
  784MPD2    C111559   1.118   2.628   0.760 -0.6179  0.3660  0.1553
  784MPD2    C211560   1.055   2.740   0.715  0.2411 -0.1074  0.3229
  784MPD2    C311561   0.957   2.738   0.617 -1.1184  0.4762  0.0187
  784MPD2    C411562   0.919   2.620   0.550 -0.6797 -0.0223  0.1430
  784MPD2    C511563   0.991   2.510   0.587  0.2466  0.0795 -0.6485
  784MPD2     H11564   1.067   2.830   0.774  1.3337 -1.0736  1.5691
  784MPD2    H111565   0.847   2.604   0.470 -0.9420 -0.8386  0.5448
  784MPD2    H211566   1.126   2.422   0.720  1.2528  0.0736 -0.4567
  784MPD2    H311567   0.970   2.413   0.543  0.3882 -0.7152  1.0487
  784MPD2     N11568   0.887   2.859   0.591  0.1779  0.0566 -0.7835
  784MPD2    H511569   0.926   2.939   0.640  1.9722 -0.0979 -1.9246
  784MPD2    N111570   1.212   2.632   0.865 -0.2082 -0.1011  0.1261
  784MPD2    H711571   1.218   2.722   0.911 -1.5791  1.0814 -1.9915
  785MPD2     C11572   1.081   1.089  10.081  0.3088 -0.0081  0.5064
  785MPD2    C111573   1.074   1.156  10.194  0.7717 -0.0812 -0.0137
  785MPD2    C211574   0.988   1.259  10.209 -0.4898  0.2821 -0.2731
  785MPD2    C311575   0.886   1.282  10.116 -0.1373 -0.6109 -0.1040
  785MPD2    C411576   0.890   1.203   9.997 -0.1648 -0.9093 -0.1899
  785MPD2    C511577   0.989   1.112   9.979 -0.7858  0.4781 -0.5575
  785MPD2     H11578   0.975   1.308  10.305 -1.1277 -0.7854  0.1827
  785MPD2    H111579   0.815   1.214   9.920 -0.1221  1.0775  0.0563
  785MPD2    H211580   1.158   1.013  10.068 -0.5867 -0.7639 -0.4777
  785MPD2    H311581   0.994   1.053   9.889 -0.8504 -1.1081  0.4738
  785MPD2     N11582   0.802   1.383  10.137 -0.2157 -0.2763  0.0100
  785MPD2    H511583   0.809   1.434  10.225 -1.3453 -1.2481  0.6620
  785MPD2    N111584   1.174   1.124  10.289  0.0886  0.3231 -0.2955
  785MPD2    H711585   1.236   1.047  10.266 -1.0728 -0.6417 -0.1711
  786MPD2     C11586   4.588   4.410  14.698 -0.2688  0.5046 -0.8280
  786MPD2    C111587   4.709   4.351  14.703 -0.1845  0.1865 -0.2846
  786MPD2    C211588   0.041   4.324  14.827 -0.4191 -0.1640 -0.1918
  786MPD2    C311589   4.722   4.372  14.948 -0.5354 -0.0681  0.1474
  786MPD2    C411590   4.599   4.436  14.941  0.3297 -0.4397 -0.4566
  786MPD2    C511591   4.532   4.454  14.819 -0.3988 -0.1168  1.0688
  786MPD2     H11592   0.138   4.276  14.821 -0.6859 -0.6523 -0.6007
  786MPD2    H111593   4.544   4.450  15.033 -0.6299  0.5052 -1.1731
  786MPD2    H211594   4.539   4.429  14.604 -0.1145  1.0029 -0.8060
  786MPD2    H311595   4.434   4.499  14.831 -0.5824 -0.3453  0.4146
  786MPD2     N11596   0.061   4.349  15.076 -0.0815 -0.0117  0.1217
  786MPD2    H511597   0.013   4.387  15.157 -1.7404  0.3988 -1.0647
  786MPD2    N111598   0.065   4.317  14.589 -0.2714 -0.5144  0.0608
  786MPD2    H711599   0.159   4.291  14.615  0.0311 -1.0044 -1.5401
  787MPD2     C11600   0.414   4.007  14.855  0.0847  0.3989 -0.0792
  787MPD2    C111601   0.421   3.951  14.728 -0.3804 -0.1307  0.5396
  787MPD2    C211602   0.464   3.820  14.718  0.0295 -0.6633 -0.4156
  787MPD2    C311603   0.500   3.746  14.837  0.3561 -0.0145 -0.0311
  787MPD2    C411604   0.492   3.808  14.960  0.3573 -0.3933 -0.2918
  787MPD2    C511605   0.464   3.941  14.967  0.2609 -1.2703  0.0524
  787MPD2     H11606   0.466   3.772  14.621 -1.0855 -1.9506  0.2116
  787MPD2    H111607   0.527   3.761  15.052  0.8029 -1.8638 -1.2212
  787MPD2    H211608   0.378   4.109  14.863  0.8557  0.6280  0.4657
  787MPD2    H311609   0.461   3.990  15.064  0.1675 -1.9130  0.3756
  787MPD2     N11610   0.555   3.618  14.816 -0.0060  0.1824 -0.6242
  787MPD2    H511611   0.545   3.587  14.720 -1.1430  1.7719 -1.0277
  787MPD2    N111612   0.381   4.029  14.621  0.1642 -0.3866 -0.3930
  787MPD2    H711613   0.338   4.121  14.632  0.6404 -0.1344 -0.6572
  788MPD2     C11614   1.634   1.992   1.064  0.4623 -0.2637  0.5375
  788MPD2    C111615   1.643   1.889   0.967 -0.0876  0.5275 -0.0315
  788MPD2    C211616   1.634   1.921   0.834 -0.5129  0.0116 -0.2838
  788MPD2    C311617   1.634   2.052   0.788 -0.5248  0.3799  0.2947
  788MPD2    C411618   1.638   2.147   0.883  0.3393 -0.1916  0.4903
  788MPD2    C511619   1.639   2.122   1.017 -0.7429  0.1368  0.5125
  788MPD2     H11620   1.635   1.839   0.764  0.1258  0.7762 -1.1723
  788MPD2    H111621   1.636   2.252   0.856  0.7517 -0.4048 -0.3820
  788MPD2    H211622   1.618   1.977   1.170  1.3632  0.8193  0.8149
  788MPD2    H311623   1.621   2.208   1.082  1.4810  1.1952 -0.2575
  788MPD2     N11624   1.619   2.081   0.651 -0.4173 -0.0088  0.8021
  788MPD2    H511625   1.635   2.178   0.627  1.7699 -0.4873  0.3398
  788MPD2    N111626   1.632   1.752   0.998 -0.6848  0.0771  0.3778
  788MPD2    H711627   1.626   1.682   0.926  1.2363  0.7122 -0.4187
  789MPD2     C11628   2.422   1.746  16.202  0.6295  1.6018 -0.1217
  789MPD2    C111629   2.348   1.708  16.313 -0.1974 -1.1206  0.0296
  789MPD2    C211630   2.288   1.812  16.392  0.4735 -0.8191 -0.2235
  789MPD2    C311631   2.287   1.944  16.353 -0.2884  0.0563  0.1607
  789MPD2    C411632   2.356   1.972  16.237  0.4667 -0.7791  0.0123
  789MPD2    C511633   2.434   1.883  16.172 -0.3749 -0.1840 -0.4371
  789MPD2     H11634   2.236   1.776  16.480  2.6276  3.3637  2.7229
  789MPD2    H111635   2.355   2.071  16.195  0.6448 -0.3894  0.9240
  789MPD2    H211636   2.475   1.678  16.137  0.7880  0.0608  1.6177
  789MPD2    H311637   2.481   1.900  16.076 -0.8548  0.6826 -0.5150
  789MPD2     N11638   2.210   2.044  16.429 -0.6891  0.2478 -0.5757
  789MPD2    H511639   2.208   2.137  16.389  1.6003  0.5621 -0.0043
  789MPD2    N111640   2.328   1.570  16.357  0.3891  0.9332 -0.7167
  789MPD2    H711641   2.274   1.564  16.443  2.0013  0.6947  0.2666
  790MPD2     C11642   3.180   3.189  13.777 -0.5784 -0.1169  0.4555
  790MPD2    C111643   3.292   3.262  13.754  0.0069 -0.4017 -0.0700
  790MPD2    C211644   3.319   3.313  13.626  0.5946 -0.2490 -0.3538
  790MPD2    C311645   3.228   3.292  13.523 -1.1765 -0.0890  0.5028
  790MPD2    C411646   3.111   3.219  13.554  0.0895 -0.0991 -0.4745
  790MPD2    C511647   3.089   3.172  13.682 -0.1592 -0.1396  0.1521
  790MPD2     H11648   3.406   3.376  13.610 -1.4466  2.5092 -0.4433
  790MPD2    H111649   3.038   3.191  13.480 -0.3272 -1.2760  0.3667
  790MPD2    H211650   3.151   3.151  13.874 -0.2093 -1.7173 -0.0660
  790MPD2    H311651   3.002   3.112  13.706  0.7634 -1.8116 -0.7060
  790MPD2     N11652   3.250   3.348  13.391  0.0004  0.2594 -0.0931
  790MPD2    H511653   3.320   3.422  13.385  1.5257 -1.2576 -1.1450
  790MPD2    N111654   3.363   3.296  13.874 -0.3209 -0.4920  0.6119
  790MPD2    H711655   3.321   3.262  13.960 -1.9559  1.8717  0.7552
  791MPD2     C11656   2.659   3.670  12.966  0.1586  0.0986 -0.3939
  791MPD2    C111657   2.754   3.602  12.895  0.6365  0.3403 -0.3003
  791MPD2    C211658   2.704   3.524  12.793 -0.6323  0.1227 -0.3488
  791MPD2    C311659   2.573   3.532  12.752 -0.1889  0.9732 -0.3692
  791MPD2    C411660   2.487   3.627  12.813 -0.2734 -0.8128  0.7821
  791MPD2    C511661   2.533   3.689  12.926  0.9852  0.0414  0.6334
  791MPD2     H11662   2.769   3.456  12.739 -1.7635 -0.9296 -0.4054
  791MPD2    H111663   2.381   3.642  12.791  0.0769  1.2335  0.5465
  791MPD2    H211664   2.694   3.721  13.054  0.9309 -0.6973 -0.2474
  791MPD2    H311665   2.466   3.757  12.977  0.2297 -1.6912  1.9596
  791MPD2     N11666   2.525   3.433  12.660 -0.7002  0.0511  0.8742
  791MPD2    H511667   2.595   3.366  12.631 -0.4886 -1.1816  4.1964
  791MPD2    N111668   2.883   3.588  12.948  0.2343 -0.0348 -0.1099
  791MPD2    H711669   2.907   3.632  13.036  1.3509 -0.4213 -0.2242
  792MPD2     C11670   2.831   3.398  11.287  0.7238 -0.2133  0.6218
  792MPD2    C111671   2.956   3.377  11.237 -0.4874 -0.1003  0.0802
  792MPD2    C211672   2.980   3.259  11.168 -1.0960  0.0430 -0.0423
  792MPD2    C311673   2.874   3.177  11.138  0.3867 -0.0657  0.3313
  792MPD2    C411674   2.753   3.203  11.192  0.5120 -0.0592 -0.2900
  792MPD2    C511675   2.729   3.315  11.261 -0.4394 -0.5178  0.3131
  792MPD2     H11676   3.082   3.246  11.135 -1.8243 -1.1910 -1.7630
  792MPD2    H111677   2.672   3.132  11.177  0.7484  0.2099 -2.8353
  792MPD2    H211678   2.802   3.483  11.348  0.0808 -0.2125  0.3159
  792MPD2    H311679   2.633   3.356  11.293 -0.7069 -1.1667  0.3451
  792MPD2     N11680   2.888   3.065  11.054  0.6813 -0.6137  0.2066
  792MPD2    H511681   2.820   2.991  11.064  0.8758 -1.1160 -2.2254
  792MPD2    N111682   3.049   3.476  11.262  0.0511 -0.2700 -0.5096
  792MPD2    H711683   3.013   3.567  11.289 -0.2817 -0.2178 -1.1348
  793MPD2     C11684   2.771   2.870  10.167  0.5447 -0.8669  1.0124
  793MPD2    C111685   2.901   2.864  10.201  0.8704  0.1363  0.0290
  793MPD2    C211686   2.942   2.844  10.332  0.8780 -0.0057 -0.8125
  793MPD2    C311687   2.847   2.817  10.426 -0.3438 -0.4160 -0.2796
  793MPD2    C411688   2.714   2.813  10.390 -0.7111 -0.2495 -0.1642
  793MPD2    C511689   2.676   2.839  10.261 -0.1216 -0.5089 -0.0452
  793MPD2     H11690   3.044   2.822  10.362  0.7531 -1.1216 -1.1888
  793MPD2    H111691   2.650   2.775  10.468 -0.2992 -0.0304  0.2817
  793MPD2    H211692   2.742   2.866  10.063  2.1079 -0.2328  0.5613
  793MPD2    H311693   2.573   2.824  10.231 -0.7188  0.7836  1.3658
  793MPD2     N11694   2.894   2.799  10.554  0.2349  0.7540 -0.3719
  793MPD2    H511695   2.991   2.825  10.570 -0.2711  2.2136  0.2915
  793MPD2    N111696   3.007   2.864  10.103 -0.9545  1.0847  0.4707
  793MPD2    H711697   3.104   2.854  10.129 -1.0027  1.0044  0.6186
  794MPD2     C11698   3.021   3.426  17.065  0.2245  1.1416  0.5197
  794MPD2    C111699   3.002   3.309  17.001 -0.0863  0.4863 -0.9024
  794MPD2    C211700   2.995   3.309  16.860 -0.5211 -0.6420 -0.8637
  794MPD2    C311701   2.993   3.431  16.784 -0.0714  0.7206  0.1701
  794MPD2    C411702   2.997   3.542  16.859 -0.0437  0.5180 -0.4368
  794MPD2    C511703   3.007   3.543  16.995  0.4894 -0.1176  0.5366
  794MPD2     H11704   2.964   3.220  16.806 -1.4083 -0.3113 -0.8926
  794MPD2    H111705   2.986   3.640  16.815  1.0072  0.7294 -0.2379
  794MPD2    H211706   3.036   3.436  17.172  0.0523  0.8146  0.5730
  794MPD2    H311707   3.010   3.632  17.057 -2.2447  1.3410 -1.4666
  794MPD2     N11708   2.969   3.446  16.646  0.0371  0.1675 -0.1514
  794MPD2    H511709   2.969   3.543  16.615  2.8027  1.0030  2.4207
  794MPD2    N111710   2.993   3.190  17.075 -0.1848 -0.8917  0.0890
  794MPD2    H711711   2.977   3.104  17.023 -2.0459 -1.1167  1.0514
  795MPD2     C11712   0.829   0.330  13.639  0.9935  0.2943  0.1599
  795MPD2    C111713   0.841   0.251  13.522  0.5749  0.3436 -0.5736
  795MPD2    C211714   0.944   0.168  13.508 -0.3958  0.3183  0.3659
  795MPD2    C311715   1.038   0.167  13.607  0.0775  0.2622 -0.3477
  795MPD2    C411716   1.011   0.215  13.733 -0.3143 -0.3237 -0.2289
  795MPD2    C511717   0.904   0.301  13.749  0.4094  0.0674 -0.1487
  795MPD2     H11718   0.937   0.098  13.426  1.1414  1.4951 -0.7761
  795MPD2    H111719   1.077   0.196  13.817 -0.2916  3.3882  0.5856
  795MPD2    H211720   0.741   0.392  13.649  0.5818 -0.1014 -0.9632
  795MPD2    H311721   0.870   0.342  13.843  0.6234 -1.2235  0.4817
  795MPD2     N11722   1.154   0.087  13.598  0.2970  0.3189 -0.3902
  795MPD2    H511723   1.218   0.073  13.675 -0.4584 -0.1853  0.1438
  795MPD2    N111724   0.740   0.265  13.422  0.1284  0.2931 -0.3265
  795MPD2    H711725   0.743   0.196  13.347 -0.7561  0.8879 -0.9062
  796MPD2     C11726   0.484   2.273  15.862 -0.6300  0.4175  0.2397
  796MPD2    C111727   0.465   2.337  15.983 -0.0796 -0.4401  0.5923
  796MPD2    C211728   0.380   2.448  15.986 -0.4577  0.4817  0.5539
  796MPD2    C311729   0.328   2.510  15.874  0.1612 -0.1582  0.7109
  796MPD2    C411730   0.342   2.447  15.751  0.2695  0.0487  0.0460
  796MPD2    C511731   0.415   2.327  15.753  0.1475  0.0754  0.0831
  796MPD2     H11732   0.379   2.500  16.081 -0.8033 -0.2683  0.9602
  796MPD2    H111733   0.315   2.493  15.657  1.1808 -0.2421 -0.3586
  796MPD2    H211734   0.527   2.173  15.857 -0.7477  0.4775 -1.9465
  796MPD2    H311735   0.428   2.276  15.658 -3.5274 -0.1880 -0.2606
  796MPD2     N11736   0.282   2.640  15.890  0.7314 -0.1375 -0.5346
  796MPD2    H511737   0.295   2.673  15.985 -0.6642  0.8050 -0.6745
  796MPD2    N111738   0.518   2.288  16.103  0.0280 -0.3563  0.1198
  796MPD2    H711739   0.479   2.338  16.183  1.2312  0.0828  0.4187
  797MPD2     C11740   1.916   1.290  17.075  0.1441  0.3173  0.1827
  797MPD2    C111741   1.795   1.318  17.138 -0.4907 -0.7240 -0.2213
  797MPD2    C211742   1.744   1.447  17.134 -0.1535  0.0736  0.1298
  797MPD2    C311743   1.810   1.547  17.060  0.6043 -0.4200 -0.2178
  797MPD2    C411744   1.932   1.513  17.000  0.8604 -0.0107 -0.5297
  797MPD2    C511745   1.978   1.386  17.006 -0.6620 -0.1972  0.4995
  797MPD2     H11746   1.657   1.468  17.194  0.1542  1.5855  0.0548
  797MPD2    H111747   1.986   1.591  16.948 -2.1043  2.2128 -0.2506
  797MPD2    H211748   1.966   1.194  17.076  0.3751  0.4030 -2.9499
  797MPD2    H311749   2.065   1.364  16.945 -0.2344  2.5786  0.0852
  797MPD2     N11750   1.759   1.679  17.054  0.3229  0.1021  0.5228
  797MPD2    H511751   1.804   1.739  16.985  0.5567  1.3692  1.7759
  797MPD2    N111752   1.721   1.229  17.215 -0.2672  0.1018  0.1970
  797MPD2    H711753   1.628   1.265  17.234 -0.2355 -0.1469  0.7930
  798MPD2     C11754   1.094   1.537  17.299 -0.1057 -0.4843 -0.1576
  798MPD2    C111755   1.229   1.565  17.326 -0.5181  0.5403  1.2643
  798MPD2    C211756   1.305   1.472  17.400  0.3367  0.0647  0.3674
  798MPD2    C311757   1.253   1.353  17.425 -0.5574 -0.2637 -0.3179
  798MPD2    C411758   1.116   1.328  17.417  0.4760 -0.1525  0.3798
  798MPD2    C511759   1.039   1.419  17.349  0.5782  0.1809 -0.8334
  798MPD2     H11760   1.410   1.490  17.422  1.0669 -3.7777  0.0173
  798MPD2    H111761   1.067   1.237  17.449  1.2425 -0.5805  0.3351
  798MPD2    H211762   1.040   1.602  17.230  0.7294 -1.5879 -1.8458
  798MPD2    H311763   0.931   1.419  17.341  0.5481 -2.1674 -0.3349
  798MPD2     N11764   1.349   1.260  17.466  0.2762 -0.2772  0.2447
  798MPD2    H511765   1.445   1.292  17.477  0.5157 -0.4083 -1.5356
  798MPD2    N111766   1.298   1.679  17.266  0.3917  0.3345  0.0176
  798MPD2    H711767   1.390   1.701  17.303  1.1539  1.8753 -2.8058
  799MPD2     C11768   0.298   3.375  14.933 -0.3900 -0.2745 -0.1679
  799MPD2    C111769   0.272   3.296  14.816  0.6618 -0.6548 -0.5202
  799MPD2    C211770   0.223   3.348  14.699  0.2519 -0.1671 -0.1972
  799MPD2    C311771   0.188   3.482  14.698  0.3290  0.1151 -0.2774
  799MPD2    C411772   0.204   3.562  14.812  0.2493 -0.4284 -0.1822
  799MPD2    C511773   0.251   3.507  14.922 -0.5740  0.4764 -0.4412
  799MPD2     H11774   0.205   3.287  14.611  0.6492  1.5044 -1.4342
  799MPD2    H111775   0.165   3.662  14.821 -2.4528 -1.4319 -0.8121
  799MPD2    H211776   0.343   3.335  15.023  0.8800  2.8481  0.5969
  799MPD2    H311777   0.255   3.556  15.018  0.2783  1.3999 -0.9483
  799MPD2     N11778   0.149   3.553  14.589  0.4390 -0.2791  0.5771
  799MPD2    H511779   0.122   3.650  14.599  1.1851 -0.1776  1.5851
  799MPD2    N111780   0.288   3.159  14.804  0.1411 -0.2286 -0.6869
  799MPD2    H711781   0.243   3.126  14.719  1.5107  1.3528 -2.0113
  800MPD2     C11782   1.173   4.254  14.356 -0.2327  0.0365 -0.1485
  800MPD2    C111783   1.303   4.241  14.321  0.4043  0.3729 -0.4017
  800MPD2    C211784   1.339   4.122  14.262  0.7785  0.2464  0.2912
  800MPD2    C311785   1.251   4.020  14.257  0.3150 -0.4609  0.0815
  800MPD2    C411786   1.119   4.033  14.290  0.2112 -0.5619  1.0000
  800MPD2    C511787   1.082   4.148  14.349  0.2658  0.0821  0.3714
  800MPD2     H11788   1.443   4.109  14.236  0.3777 -1.7087 -0.3918
  800MPD2    H111789   1.055   3.945  14.292 -1.1521  0.3951 -0.3407
  800MPD2    H211790   1.131   4.345  14.397 -0.0309 -0.2748  0.7564
  800MPD2    H311791   0.979   4.159  14.381  0.4303 -0.2976  1.0128
  800MPD2     N11792   1.306   3.893  14.211  0.2900 -0.0484  0.1262
  800MPD2    H511793   1.407   3.890  14.219  0.1974  0.1570  1.3946
  800MPD2    N111794   1.381   4.356  14.321  0.1124  0.7109 -0.1478
  800MPD2    H711795   1.335   4.446  14.325  0.2284  0.7143  1.1242
  801MPD2     C11796   1.263   0.303  14.131  0.3167  0.2921  0.0956
  801MPD2    C111797   1.231   0.194  14.213 -0.4305 -0.2401 -0.8240
  801MPD2    C211798   1.100   0.170  14.247 -0.3006  0.1441 -0.2532
  801MPD2    C311799   0.999   0.254  14.193 -0.0388 -0.2884  0.0749
  801MPD2    C411800   1.031   0.364  14.116 -0.7421 -0.3146  0.0143
  801MPD2    C511801   1.163   0.379  14.076  0.0616  0.1567  0.0971
  801MPD2     H11802   1.073   0.082  14.304  0.6124  1.0623  1.5850
  801MPD2    H111803   0.951   0.429  14.084 -0.5379  0.8026  1.7640
  801MPD2    H211804   1.365   0.335  14.111  0.3001 -0.3130 -0.9476
  801MPD2    H311805   1.193   0.467  14.019 -0.2239 -0.4928 -1.0483
  801MPD2     N11806   0.858   0.232  14.220  0.2516 -0.1636  0.4177
  801MPD2    H511807   0.796   0.291  14.167  0.0735  0.6436  1.5129
  801MPD2    N111808   1.336   0.106  14.256 -0.6672  0.2274  0.4050
  801MPD2    H711809   1.309   0.038  14.327 -0.2334 -0.3673  0.0021
  802MPD2     C11810   0.282   4.200   0.348  0.4144 -0.0823  0.1666
  802MPD2    C111811   0.269   4.300   0.257 -0.1954 -0.1837 -0.8264
  802MPD2    C211812   0.303   4.274   0.126  0.6114  0.2556 -0.1430
  802MPD2    C311813   0.341   4.146   0.086 -0.1417  0.1861  0.2515
  802MPD2    C411814   0.354   4.042   0.175 -0.0533  0.0808  0.3120
  802MPD2    C511815   0.322   4.074   0.306 -0.4656 -0.0617 -0.0748
  802MPD2     H11816   0.294   4.348   0.047  0.7021  1.4426  0.9517
  802MPD2    H111817   0.371   3.937   0.155  2.3213  0.2752  1.2192
  802MPD2    H211818   0.245   4.206   0.450  2.2957  1.2893  0.7836
  802MPD2    H311819   0.320   3.995   0.379  0.2687  0.0187  0.0327
  802MPD2     N11820   0.370   4.134  17.651  0.2404  0.4150 -0.0763
  802MPD2    H511821   0.329   4.205  17.592 -0.3246 -0.1052 -0.3097
  802MPD2    N111822   0.225   4.432   0.289  0.3406  0.1051  0.2555
  802MPD2    H711823   0.207   4.496   0.213  1.9920  2.3554  1.7439
  803MPD2     C11824   1.689   3.625  11.727 -0.3365  0.1872 -0.0488
  803MPD2    C111825   1.630   3.686  11.831  0.3274 -0.1833  0.5063
  803MPD2    C211826   1.530   3.628  11.906  0.1433  0.2820 -0.4896
  803MPD2    C311827   1.500   3.493  11.879  0.1890 -0.8388  0.3299
  803MPD2    C411828   1.562   3.422  11.781 -0.3588 -0.0835  0.0799
  803MPD2    C511829   1.649   3.493  11.700  0.1020 -0.6585 -0.2791
  803MPD2     H11830   1.509   3.680  11.999 -1.4111 -1.6544  0.2454
  803MPD2    H111831   1.532   3.321  11.758  0.9803 -0.5882  0.5670
  803MPD2    H211832   1.770   3.663  11.666  1.1744 -0.3709  1.6020
  803MPD2    H311833   1.697   3.443  11.616 -0.2342 -1.3800 -0.0426
  803MPD2     N11834   1.418   3.407  11.962 -0.7923 -0.3038 -0.4066
  803MPD2    H511835   1.412   3.308  11.944 -0.9283 -0.4710  0.5526
  803MPD2    N111836   1.677   3.810  11.885  0.2623  0.8075 -0.0430
  803MPD2    H711837   1.650   3.846  11.976 -0.8793  2.7084 -1.1217
  804MPD2     C11838   0.716   4.288  16.712  0.2807 -0.4200 -0.4459
  804MPD2    C111839   0.807   4.324  16.813 -0.2797 -0.4201  0.0441
  804MPD2    C211840   0.860   4.458  16.808 -0.0417 -1.0530  0.1858
  804MPD2    C311841   0.821   4.541  16.706 -0.2208  0.1274  0.0874
  804MPD2    C411842   0.738   4.498  16.611  0.0505 -0.0496  0.0843
  804MPD2    C511843   0.694   4.370  16.610 -0.2806  0.0014 -0.0858
  804MPD2     H11844   0.919   4.490  16.893 -0.6466  1.5717 -0.3771
  804MPD2    H111845   0.718   4.547  16.516  2.8890 -0.5671 -0.7800
  804MPD2    H211846   0.668   4.191  16.708  0.5355 -0.4668 -2.2283
  804MPD2    H311847   0.642   4.327  16.525 -0.1715  1.1454 -0.7333
  804MPD2     N11848   0.869   4.671  16.699  0.4564 -0.0465 -0.7390
  804MPD2    H511849   0.936   4.691  16.773 -1.2374 -0.6171  0.9522
  804MPD2    N111850   0.841   4.243  16.920 -0.2884 -0.0535  0.4801
  804MPD2    H711851   0.882   4.289  17.000 -0.9007 -0.5859  1.1006
  805MPD2     C11852   4.435   3.409  15.578 -0.0198 -0.0626 -0.4224
  805MPD2    C111853   4.544   3.480  15.531 -0.0827 -0.0462 -0.6134
  805MPD2    C211854   4.647   3.509  15.623 -0.0978 -0.2724  0.0396
  805MPD2    C311855   4.646   3.462  15.752 -0.4785  0.4353  0.5954
  805MPD2    C411856   4.534   3.402  15.802 -0.2023 -0.5501  0.5962
  805MPD2    C511857   4.436   3.373  15.710 -0.4059 -0.2083 -0.0686
  805MPD2     H11858   0.009   3.564  15.588  1.0966 -2.2211 -0.0365
  805MPD2    H111859   4.515   3.371  15.904  1.7073 -2.9421  0.2022
  805MPD2    H211860   4.362   3.360  15.514 -2.5587  0.0368  2.3799
  805MPD2    H311861   4.343   3.327  15.742 -1.9744  2.9323 -0.1047
  805MPD2     N11862   0.017   3.481  15.845  0.3103  0.1164  0.2024
  805MPD2    H511863   4.716   3.450  15.938 -2.3264  1.0877 -0.2135
  805MPD2    N111864   4.558   3.528  15.406 -0.5504 -0.5071  0.6392
  805MPD2    H711865   4.645   3.570  15.373 -0.1312 -1.4553  0.5601
  806MPD2     C11866   0.775   2.231   0.110 -0.2336  0.9212 -0.1673
  806MPD2    C111867   0.780   2.365   0.149  0.1418 -0.2186 -0.3078
  806MPD2    C211868   0.909   2.415   0.192  0.3982 -0.6697  0.2418
  806MPD2    C311869   1.007   2.330   0.217 -0.8904  0.0773 -0.3340
  806MPD2    C411870   0.992   2.198   0.175 -0.6598  0.4598  0.0012
  806MPD2    C511871   0.877   2.143   0.122  0.4432  0.2692  0.2141
  806MPD2     H11872   0.922   2.521   0.211  0.4156 -0.9375  1.7256
  806MPD2    H111873   1.076   2.132   0.192 -0.3836  0.3939 -1.6320
  806MPD2    H211874   0.684   2.199   0.061 -0.1682 -0.3159  0.5344
  806MPD2    H311875   0.880   2.044   0.078 -3.4865 -0.3171  1.2144
  806MPD2     N11876   1.132   2.381   0.262  0.1021  0.1394  0.7753
  806MPD2    H511877   1.131   2.482   0.264  0.0950  0.1486  0.3024
  806MPD2    N111878   0.661   2.434   0.140 -0.4490 -0.5200 -0.1250
  806MPD2    H711879   0.585   2.378   0.104 -1.4234  1.4111 -1.0843
  807MPD2     C11880   0.405   2.043   0.317 -0.3469  0.4214  0.1415
  807MPD2    C111881   0.324   2.141   0.385  0.4998  0.0898 -0.7176
  807MPD2    C211882   0.286   2.114   0.519 -0.3072  0.1866  0.5111
  807MPD2    C311883   0.322   1.998   0.577 -0.1742 -0.1274 -0.2850
  807MPD2    C411884   0.390   1.900   0.507 -0.0701  0.7156  0.1352
  807MPD2    C511885   0.437   1.931   0.382 -0.4696  0.5275 -1.0636
  807MPD2     H11886   0.242   2.189   0.583 -1.3620  0.6696 -0.7853
  807MPD2    H111887   0.416   1.800   0.542 -0.4602  1.2354  1.8640
  807MPD2    H211888   0.438   2.049   0.214 -1.3361 -0.0488 -0.2005
  807MPD2    H311889   0.499   1.858   0.331 -0.1851  0.8741 -1.2147
  807MPD2     N11890   0.289   1.978   0.711  0.2446 -1.1673  0.2766
  807MPD2    H511891   0.234   2.050   0.757  1.5186  0.2811 -0.4606
  807MPD2    N111892   0.293   2.268   0.340 -0.2145  0.1105  0.2720
  807MPD2    H711893   0.250   2.325   0.412  1.6531 -0.8477  2.1508
  808MPD2     C11894   0.478   3.324   9.544 -0.1413  0.5855  0.1067
  808MPD2    C111895   0.525   3.418   9.637  0.0206 -0.6527 -0.0727
  808MPD2    C211896   0.542   3.544   9.590  0.4551  1.1175 -0.4023
  808MPD2    C311897   0.526   3.568   9.458 -0.1917 -0.1245  0.6582
  808MPD2    C411898   0.486   3.480   9.364 -0.1836  0.7164  0.4390
  808MPD2    C511899   0.461   3.350   9.412 -0.1347 -0.1890  0.2805
  808MPD2     H11900   0.599   3.610   9.655  0.9153 -0.5161  0.8561
  808MPD2    H111901   0.480   3.508   9.260 -1.2441 -1.7531 -0.1655
  808MPD2    H211902   0.464   3.219   9.566 -1.1045  0.6546 -0.1788
  808MPD2    H311903   0.434   3.274   9.340  1.2311 -1.6329  1.2888
  808MPD2     N11904   0.576   3.694   9.423  0.5574  0.2063  0.6388
  808MPD2    H511905   0.608   3.702   9.327 -0.2609  1.6169  0.4860
  808MPD2    N111906   0.556   3.388   9.772  0.1265  0.1229 -0.0623
  808MPD2    H711907   0.574   3.459   9.843 -0.7598 -1.4357  1.6928
  809MPD2     C11908   1.468   3.698   9.302 -0.1827  0.2252  0.7633
  809MPD2    C111909   1.446   3.822   9.350 -0.2739  0.2324  0.6150
  809MPD2    C211910   1.321   3.875   9.356 -0.8020 -0.4564  0.3014
  809MPD2    C311911   1.208   3.796   9.334  0.2058  0.3186 -0.1778
  809MPD2    C411912   1.230   3.660   9.306  0.3764 -0.2773  0.2000
  809MPD2    C511913   1.359   3.618   9.284 -0.0360  0.0658  0.0250
  809MPD2     H11914   1.313   3.980   9.384 -1.2614 -0.8818  1.7920
  809MPD2    H111915   1.154   3.586   9.286  0.0635  0.4000 -1.0808
  809MPD2    H211916   1.563   3.648   9.287 -0.8758 -0.5964 -0.9669
  809MPD2    H311917   1.378   3.519   9.243 -0.6362 -1.0387  2.4008
  809MPD2     N11918   1.073   3.834   9.341  0.3531  0.1753  0.0306
  809MPD2    H511919   1.003   3.762   9.327 -0.0901  0.5596  0.2671
  809MPD2    N111920   1.557   3.905   9.385 -0.4809  0.0568 -0.5426
  809MPD2    H711921   1.529   3.997   9.416  0.6457  0.4781 -0.7921
  810MPD2     C11922   0.395   3.798  10.842 -0.5272 -0.1194 -0.1400
  810MPD2    C111923   0.361   3.780  10.710 -0.2285  0.2048  0.2468
  810MPD2    C211924   0.331   3.887  10.627 -0.0822  0.3352  0.5942
  810MPD2    C311925   0.340   4.018  10.671 -0.4416  0.7040  0.4088
  810MPD2    C411926   0.368   4.030  10.807  0.3194 -0.2159  0.1458
  810MPD2    C511927   0.402   3.929  10.883  0.2088  0.4888 -0.0454
  810MPD2     H11928   0.313   3.875  10.521 -0.3715 -0.9449  0.7932
  810MPD2    H111929   0.379   4.129  10.848  0.2147  0.9552 -2.6667
  810MPD2    H211930   0.420   3.716  10.908  1.0238 -1.4945 -2.4437
  810MPD2    H311931   0.421   3.959  10.986  0.3433  0.3704 -0.0367
  810MPD2     N11932   0.308   4.132  10.600  0.7925 -0.6187  0.3907
  810MPD2    H511933   0.318   4.220  10.650 -0.0129  1.6626 -3.4596
  810MPD2    N111934   0.364   3.650  10.664  0.5271  0.0813  0.1013
  810MPD2    H711935   0.386   3.581  10.736  2.0387  2.8307  2.2836
  811MPD2     C11936   0.223   3.111   9.918 -0.6592 -0.0385 -0.7915
  811MPD2    C111937   0.244   3.234   9.978  0.2260  0.0895  0.2693
  811MPD2    C211938   0.215   3.341   9.897 -0.1515 -0.3213  0.2152
  811MPD2    C311939   0.178   3.338   9.764 -0.2152 -0.0369 -0.2069
  811MPD2    C411940   0.175   3.207   9.706 -0.1301 -0.3852  1.1144
  811MPD2    C511941   0.193   3.104   9.788  0.1826  0.1819 -0.3736
  811MPD2     H11942   0.209   3.440   9.941 -1.2217 -0.6175  0.7405
  811MPD2    H111943   0.162   3.189   9.600 -1.6321 -1.7274  1.5320
  811MPD2    H211944   0.254   3.022   9.972 -1.5908  0.7437  1.0546
  811MPD2    H311945   0.203   3.003   9.750  0.0165 -0.4370  1.2357
  811MPD2     N11946   0.152   3.458   9.686 -0.1239  0.6817 -0.0019
  811MPD2    H511947   0.170   3.548   9.728  0.8791 -0.0120  1.0336
  811MPD2    N111948   0.278   3.238  10.118  0.4155 -0.3440 -0.1387
  811MPD2    H711949   0.298   3.151  10.164  0.2271 -1.7603 -2.7310
  812MPD2     C11950   4.388   3.421  12.206 -0.1412 -0.2495 -0.1495
  812MPD2    C111951   4.280   3.448  12.287 -0.6529 -0.1165  0.3771
  812MPD2    C211952   4.262   3.381  12.407 -0.0745 -0.6891 -0.5707
  812MPD2    C311953   4.340   3.269  12.431 -0.0057  0.1596 -0.2624
  812MPD2    C411954   4.438   3.227  12.343 -0.0363  0.3267  0.5045
  812MPD2    C511955   4.465   3.310  12.234  0.0276  0.3974  0.2496
  812MPD2     H11956   4.197   3.414  12.487  0.5493 -1.1241  0.1085
  812MPD2    H111957   4.500   3.140  12.357 -0.9431  0.0832  2.9589
  812MPD2    H211958   4.407   3.462  12.107  0.0455  0.1609  0.0569
  812MPD2    H311959   4.528   3.280  12.151  0.6042  1.3737  0.3420
  812MPD2     N11960   4.314   3.202  12.551  0.0109  0.2846  0.3777
  812MPD2    H511961   4.244   3.251  12.605  1.2095  1.0591  1.2052
  812MPD2    N111962   4.194   3.553  12.249 -0.1828 -0.1642  0.4663
  812MPD2    H711963   4.221   3.588  12.158  2.7344 -2.3045  0.5337
  813MPD2     C11964   3.675   0.937  13.191  0.2188 -0.6474 -0.8888
  813MPD2    C111965   3.606   1.057  13.180 -0.6346  0.5950 -0.1624
  813MPD2    C211966   3.474   1.051  13.145  0.0283 -0.2480  0.7148
  813MPD2    C311967   3.410   0.932  13.143 -0.0304 -0.2327 -0.3996
  813MPD2    C411968   3.480   0.815  13.156 -0.0617  0.2444 -0.1287
  813MPD2    C511969   3.615   0.818  13.168 -0.0281 -1.1482  0.0177
  813MPD2     H11970   3.418   1.143  13.129 -1.2782 -1.5982 -2.3755
  813MPD2    H111971   3.446   0.712  13.154  1.5377 -0.2602 -1.0948
  813MPD2    H211972   3.781   0.943  13.215 -0.0063 -0.6370  0.1083
  813MPD2    H311973   3.675   0.728  13.170 -1.5173 -2.1344  0.1092
  813MPD2     N11974   3.272   0.935  13.141 -0.1350  0.1451 -0.1237
  813MPD2    H511975   3.226   1.026  13.136 -0.2454  0.0440 -1.0260
  813MPD2    N111976   3.669   1.170  13.228  0.2418 -0.1017 -0.6855
  813MPD2    H711977   3.760   1.162  13.273  1.0525  0.2206 -2.2675
  814MPD2     C11978   3.860   1.806  12.191 -0.1713  0.3226 -0.2424
  814MPD2    C111979   3.796   1.829  12.066  0.1822 -0.6060  0.7951
  814MPD2    C211980   3.743   1.956  12.045 -0.0941 -0.1135 -0.2317
  814MPD2    C311981   3.750   2.058  12.142  0.1199 -0.1888  0.4595
  814MPD2    C411982   3.812   2.031  12.269  0.2062 -0.3647 -0.6198
  814MPD2    C511983   3.873   1.910  12.284  0.3031  0.4584  0.4293
  814MPD2     H11984   3.689   1.977  11.952 -0.8021 -0.8732  0.0116
  814MPD2    H111985   3.804   2.104  12.349  0.3409 -0.0449 -0.9009
  814MPD2    H211986   3.916   1.715  12.208 -1.4344 -0.6418 -1.1733
  814MPD2    H311987   3.922   1.902  12.381 -0.3956 -0.7915  0.6891
  814MPD2     N11988   3.679   2.175  12.139 -0.1505  0.0519 -0.0680
  814MPD2    H511989   3.702   2.237  12.216 -0.0004  1.9757 -1.6544
  814MPD2    N111990   3.805   1.738  11.962  0.1366  0.2516  0.0847
  814MPD2    H711991   3.738   1.761  11.889 -0.6178 -0.2658  0.6036
  815MPD2     C11992   4.269   0.364  11.825  0.1946 -0.1228 -0.1467
  815MPD2    C111993   4.232   0.232  11.823  0.0754  0.5161 -0.7677
  815MPD2    C211994   4.109   0.204  11.873 -0.1012  0.1099 -0.6286
  815MPD2    C311995   4.023   0.303  11.927  0.2095 -0.1513 -0.3956
  815MPD2    C411996   4.071   0.431  11.943  0.1522 -0.0405  0.4597
  815MPD2    C511997   4.200   0.451  11.899 -0.6758  0.1037 -0.5965
  815MPD2     H11998   4.073   0.102  11.862 -0.5535  0.3338 -1.2122
  815MPD2    H111999   4.015   0.506  11.997  2.4660  1.2409  1.1042
  815MPD2    H212000   4.363   0.396  11.783  0.3177 -0.4669 -0.1361
  815MPD2    H312001   4.246   0.547  11.924 -0.4508 -0.0070 -0.5838
  815MPD2     N12002   3.896   0.258  11.975 -0.4115 -0.5166  0.7509
  815MPD2    H512003   3.868   0.163  11.956  2.0997 -0.9618 -0.7302
  815MPD2    N112004   4.317   0.138  11.765  0.1056  0.1122  0.1525
  815MPD2    H712005   4.402   0.175  11.723 -0.7054 -0.3581 -1.8864
  816MPD2     C12006   4.036   4.188  17.483 -0.2832 -0.6239 -0.1959
  816MPD2    C112007   4.106   4.302  17.509  0.4904 -0.2634 -0.7072
  816MPD2    C212008   4.244   4.307  17.495 -0.3621  0.8433 -0.6706
  816MPD2    C312009   4.308   4.200  17.442 -0.1761 -0.4605  0.1884
  816MPD2    C412010   4.238   4.084  17.397 -0.3333  0.2327  0.0011
  816MPD2    C512011   4.105   4.079  17.432 -0.3923  0.0125 -0.6822
  816MPD2     H12012   4.312   4.389  17.514 -2.2102  2.5779 -1.6527
  816MPD2    H112013   4.283   3.994  17.356 -0.2508  1.0107 -1.6417
  816MPD2    H212014   3.931   4.176  17.508  0.0691  0.7109  1.9578
  816MPD2    H312015   4.070   3.977  17.426 -0.4303  0.1403 -2.4066
  816MPD2     N12016   4.451   4.206  17.422  0.7995 -0.3727 -0.3850
  816MPD2    H512017   4.495   4.292  17.452  1.8992 -1.2251  0.4295
  816MPD2    N112018   4.040   4.412  17.558 -0.7914 -0.6400 -0.6042
  816MPD2    H712019   3.940   4.406  17.542 -0.8208  4.7238 -2.2286
  817MPD2     C12020   3.863   0.608   9.332  0.5789  0.3059  0.7388
  817MPD2    C112021   3.756   0.525   9.311  0.4228  0.6044 -0.0884
  817MPD2    C212022   3.643   0.574   9.242  0.5349  0.7442  0.6898
  817MPD2    C312023   3.647   0.691   9.173  0.0486 -0.3611  0.1248
  817MPD2    C412024   3.767   0.763   9.175  0.6220  0.4244 -0.4604
  817MPD2    C512025   3.865   0.730   9.268 -0.6370 -0.0823 -0.3189
  817MPD2     H12026   3.552   0.514   9.234  2.3758 -2.1551  1.5783
  817MPD2    H112027   3.764   0.866   9.139  0.6493  0.4201 -0.4754
  817MPD2    H212028   3.941   0.602   9.407  0.3845 -0.1182  0.9052
  817MPD2    H312029   3.935   0.809   9.292 -0.2446 -2.2337  5.5866
  817MPD2     N12030   3.526   0.717   9.101 -0.0797 -0.0573 -0.7449
  817MPD2    H512031   3.462   0.639   9.091 -1.3697  1.0633 -1.1901
  817MPD2    N112032   3.747   0.402   9.377 -0.1058 -0.1089 -0.0863
  817MPD2    H712033   3.658   0.354   9.372 -1.4565  2.1813  2.4204
  818MPD2     C12034   3.054   0.924   9.696  0.5524 -0.0498  0.3526
  818MPD2    C112035   2.919   0.909   9.698  0.9725  0.3820 -0.7409
  818MPD2    C212036   2.861   0.780   9.693 -0.3409  0.0110 -0.6971
  818MPD2    C312037   2.947   0.663   9.685  0.7191  0.6499  0.3066
  818MPD2    C412038   3.084   0.682   9.689 -0.1123 -0.0770 -0.4091
  818MPD2    C512039   3.131   0.810   9.700  0.4574  0.4758  0.8372
  818MPD2     H12040   2.756   0.757   9.709 -0.3124  1.1238  1.1292
  818MPD2    H112041   3.153   0.598   9.682  0.5171  0.5797 -1.9448
  818MPD2    H212042   3.103   1.020   9.710 -0.4817  0.9556 -3.0880
  818MPD2    H312043   3.239   0.815   9.707  0.3029  0.3539  3.4760
  818MPD2     N12044   2.903   0.534   9.685 -0.2059  0.2440 -0.8135
  818MPD2    H512045   2.974   0.465   9.703 -0.5361  0.3621  0.9658
  818MPD2    N112046   2.823   1.011   9.710  0.0106 -0.5017 -0.2312
  818MPD2    H712047   2.727   0.980   9.696  0.2346 -1.0511 -0.5614
  819MPD2     C12048   0.801   2.906  15.374  0.3565  0.4991 -0.0138
  819MPD2    C112049   0.759   2.810  15.462  0.1906 -0.0368 -0.0996
  819MPD2    C212050   0.846   2.753  15.551 -1.4433 -0.6150 -0.1507
  819MPD2    C312051   0.979   2.793  15.548  0.0369 -0.5094  0.1328
  819MPD2    C412052   1.015   2.889  15.459 -0.5870  0.0642  0.3466
  819MPD2    C512053   0.930   2.944  15.365 -0.0900  0.4382 -0.3157
  819MPD2     H12054   0.817   2.673  15.618  0.1487 -1.0746  0.0064
  819MPD2    H112055   1.121   2.912  15.454 -0.7523  0.7748  0.0156
  819MPD2    H212056   0.733   2.951  15.303 -1.2087  0.4251  1.4405
  819MPD2    H312057   0.961   3.025  15.300  0.3577  0.1708 -0.4336
  819MPD2     N12058   1.087   2.733  15.616  0.1060  0.2579  0.2526
  819MPD2    H512059   1.181   2.758  15.587  0.2249 -0.7654 -0.2396
  819MPD2    N112060   0.623   2.769  15.440 -0.0982  0.1032 -0.1728
  819MPD2    H712061   0.568   2.827  15.379  0.2621  0.7682  0.1373
  820MPD2     C12062   4.555   2.976  14.923 -0.1965  0.4872  0.0474
  820MPD2    C112063   4.644   3.054  15.001  0.0426  0.1548 -0.3455
  820MPD2    C212064   4.725   2.996  15.094  0.7488  0.3881  0.0830
  820MPD2    C312065   4.711   2.863  15.118 -0.3072  0.3389 -0.2838
  820MPD2    C412066   4.616   2.792  15.054 -0.1435  0.2083 -0.0851
  820MPD2    C512067   4.542   2.845  14.950  0.4331 -0.5596  0.4277
  820MPD2     H12068   0.081   3.052  15.139 -0.0073  1.6920 -0.1701
  820MPD2    H112069   4.619   2.685  15.068  0.0638  0.3366  0.8260
  820MPD2    H212070   4.495   3.015  14.842  0.2484 -0.6921 -0.8565
  820MPD2    H312071   4.466   2.788  14.897  0.8020 -0.8267  0.1924
  820MPD2     N12072   0.074   2.789  15.202 -0.0036 -0.0795 -0.6425
  820MPD2    H512073   0.054   2.690  15.213  0.6228 -0.1785 -0.4024
  820MPD2    N112074   4.655   3.198  14.979  0.2013 -1.5399 -0.2195
  820MPD2    H712075   4.598   3.223  14.899  0.9949  1.0999  0.0252
  821MPD2     C12076   1.130   3.786  13.451  0.1510 -0.1733  0.0548
  821MPD2    C112077   1.262   3.777  13.475  0.6973 -0.2262  0.2548
  821MPD2    C212078   1.360   3.805  13.374 -0.0720  0.0607 -0.6389
  821MPD2    C312079   1.322   3.840  13.247 -0.2253  0.1653 -0.1360
  821MPD2    C412080   1.180   3.850  13.231  0.2818  0.7498  0.0105
  821MPD2    C512081   1.091   3.824  13.327 -0.4826 -0.0592  0.2141
  821MPD2     H12082   1.466   3.805  13.399  0.4559  0.8404 -2.9302
  821MPD2    H112083   1.150   3.894  13.136 -0.0302  2.2897  0.8198
  821MPD2    H212084   1.050   3.767  13.521  0.0993  0.0446  0.0528
  821MPD2    H312085   0.986   3.842  13.305 -0.7878 -2.5064 -0.4045
  821MPD2     N12086   1.409   3.882  13.149 -0.3158 -0.4464 -0.0928
  821MPD2    H512087   1.369   3.945  13.080 -0.4535  2.7161  2.9109
  821MPD2    N112088   1.310   3.757  13.606  0.1902 -0.0834 -0.1671
  821MPD2    H712089   1.405   3.720  13.601  1.4979  3.1256  1.4538
  822MPD2     C12090   1.496   3.763  15.869  0.3423  0.4182 -0.4648
  822MPD2    C112091   1.515   3.736  16.005 -0.2720  0.3842  0.3290
  822MPD2    C212092   1.424   3.777  16.094  0.3494  0.2570  0.1147
  822MPD2    C312093   1.311   3.849  16.059 -0.3331 -0.2043 -0.9438
  822MPD2    C412094   1.290   3.875  15.927 -0.2741  0.5773  0.9798
  822MPD2    C512095   1.377   3.831  15.827 -0.1952  0.0332 -0.1367
  822MPD2     H12096   1.449   3.766  16.199  1.9974  2.3434 -0.0665
  822MPD2    H112097   1.197   3.919  15.894 -0.5383 -1.5021 -1.0690
  822MPD2    H212098   1.565   3.731  15.793 -1.4921  1.1875 -2.4577
  822MPD2    H312099   1.357   3.832  15.720 -1.6071 -0.2676  0.1315
  822MPD2     N12100   1.218   3.897  16.156 -0.3491 -0.0161 -0.9998
  822MPD2    H512101   1.231   3.866  16.251 -1.8042 -0.1965 -0.8715
  822MPD2    N112102   1.640   3.697  16.058 -0.3723 -0.0618  0.1803
  822MPD2    H712103   1.644   3.697  16.159 -0.1376  1.6636  0.1836
  823MPD2     C12104   1.166   4.154  16.946  0.7142  0.2629  0.4050
  823MPD2    C112105   1.191   4.047  16.863 -0.3049 -0.1419  0.3956
  823MPD2    C212106   1.271   3.948  16.900  0.2078 -0.1523  0.5714
  823MPD2    C312107   1.334   3.950  17.027  0.4496  0.2036  1.1401
  823MPD2    C412108   1.289   4.041  17.119  0.1134 -0.0967  0.8614
  823MPD2    C512109   1.202   4.140  17.077 -0.4335 -0.7128 -0.1608
  823MPD2     H12110   1.281   3.865  16.831 -2.6806  1.4157 -1.7236
  823MPD2    H112111   1.326   4.040  17.221  0.7306 -0.4794  0.6338
  823MPD2    H212112   1.109   4.237  16.906  0.7432  0.6861  1.2453
  823MPD2    H312113   1.169   4.220  17.142  0.5948  0.5889 -1.2455
  823MPD2     N12114   1.437   3.857  17.066  0.0911  0.7603  0.0798
  823MPD2    H512115   1.462   3.851  17.164 -0.8331  2.2612  0.4146
  823MPD2    N112116   1.128   4.061  16.738 -0.2517 -0.1848 -0.3062
  823MPD2    H712117   1.082   4.151  16.728  0.7858  0.4934  0.9279
  824MPD2     C12118   2.400   3.318  16.028  0.0743  0.0025 -0.6763
  824MPD2    C112119   2.292   3.344  15.950  0.5057  0.1992 -0.8167
  824MPD2    C212120   2.279   3.280  15.829 -0.5209 -0.1401  0.6481
  824MPD2    C312121   2.376   3.184  15.797  0.0962 -0.5837 -0.1624
  824MPD2    C412122   2.482   3.152  15.872 -0.0958 -0.0475 -1.0947
  824MPD2    C512123   2.490   3.223  15.990  0.5819 -0.8467  0.6444
  824MPD2     H12124   2.191   3.294  15.768  0.9480 -2.5446 -2.0441
  824MPD2    H112125   2.562   3.081  15.853  0.5454  0.1714  0.7848
  824MPD2    H212126   2.416   3.374  16.120 -1.5808  0.7890 -0.8679
  824MPD2    H312127   2.571   3.216  16.062  0.8087  1.4966  0.6279
  824MPD2     N12128   2.349   3.112  15.677 -0.1783  0.5280 -0.6672
  824MPD2    H512129   2.271   3.141  15.619  0.3301 -1.2699 -2.2716
  824MPD2    N112130   2.191   3.448  15.981  0.3271 -0.3181  0.8947
  824MPD2    H712131   2.114   3.466  15.918  0.8522 -0.8366  0.1000
  825MPD2     C12132   2.485   3.000  14.836  0.0014 -0.2754 -0.1902
  825MPD2    C112133   2.431   3.073  14.941  0.6327 -0.1672  0.1010
  825MPD2    C212134   2.426   3.213  14.936 -0.8969 -0.5914 -0.5256
  825MPD2    C312135   2.492   3.282  14.834 -0.8716 -0.1178 -0.4516
  825MPD2    C412136   2.548   3.200  14.732 -0.2036 -0.2433 -0.1721
  825MPD2    C512137   2.536   3.067  14.735  0.0403  0.3160  0.6768
  825MPD2     H12138   2.384   3.267  15.020  0.0761  0.1201 -0.4934
  825MPD2    H112139   2.600   3.248  14.649  0.7650 -0.2756  0.4209
  825MPD2    H212140   2.493   2.892  14.829 -1.0927 -0.3950  0.4418
  825MPD2    H312141   2.585   3.012  14.655 -0.1214  0.9492  0.1369
  825MPD2     N12142   2.507   3.425  14.826 -0.2495 -0.2334 -0.6452
  825MPD2    H512143   2.553   3.456  14.741  0.6814 -0.1091 -0.1017
  825MPD2    N112144   2.398   2.999  15.058 -0.2135 -0.1735 -0.1033
  825MPD2    H712145   2.429   2.903  15.064  3.8064  1.0770 -0.5617
  826MPD2     C12146   2.555   3.374  13.858 -0.1083 -0.6136 -0.0672
  826MPD2    C112147   2.438   3.343  13.789 -0.0413 -0.2950 -0.4213
  826MPD2    C212148   2.321   3.408  13.829 -0.3772  0.5281 -1.1617
  826MPD2    C312149   2.321   3.503  13.930 -0.8115  0.1979 -0.2064
  826MPD2    C412150   2.440   3.528  13.996  0.7329 -0.0222  0.5094
  826MPD2    C512151   2.554   3.466  13.964  0.5388 -0.1913  0.4144
  826MPD2     H12152   2.223   3.387  13.790 -0.4392 -1.2770 -0.0437
  826MPD2    H112153   2.435   3.597  14.080 -0.1371  1.8660 -1.0869
  826MPD2    H212154   2.648   3.327  13.827  0.0474  1.3498 -2.5280
  826MPD2    H312155   2.654   3.494  13.996  1.5105 -1.2410 -1.6731
  826MPD2     N12156   2.205   3.573  13.978  0.1185  0.4583 -0.0413
  826MPD2    H512157   2.213   3.653  14.039  0.0394  0.6638 -0.2978
  826MPD2    N112158   2.440   3.254  13.684  0.1809  0.4855 -0.1960
  826MPD2    H712159   2.528   3.207  13.665 -0.5039 -1.0378  0.3911
  827MPD2     C12160   2.440   4.252  10.220 -0.3293 -0.9074 -0.3054
  827MPD2    C112161   2.545   4.169  10.218 -0.0292  0.0778  0.2532
  827MPD2    C212162   2.567   4.085  10.110  0.7042 -0.3413  0.6593
  827MPD2    C312163   2.483   4.074  10.001 -0.0388  0.1355 -0.3381
  827MPD2    C412164   2.366   4.145  10.009  0.1294 -1.4405 -0.6196
  827MPD2    C512165   2.348   4.237  10.113  0.7728 -0.5141 -0.3763
  827MPD2     H12166   2.659   4.027  10.107  1.4774  0.8991  0.6149
  827MPD2    H112167   2.291   4.131   9.932  0.7347  0.7362 -1.5854
  827MPD2    H212168   2.425   4.330  10.293  0.9571  1.1687 -2.2500
  827MPD2    H312169   2.263   4.302  10.103 -0.3607 -2.3002 -2.3920
  827MPD2     N12170   2.510   4.002   9.882  0.1268  0.2232  0.2359
  827MPD2    H512171   2.577   3.926   9.888 -0.2324 -0.2293 -1.3466
  827MPD2    N112172   2.639   4.164  10.322  0.8899  0.0483  0.2185
  827MPD2    H712173   2.711   4.093  10.330  0.3696 -0.6725 -1.4283
  828MPD2     C12174   1.678   4.634  11.907  0.1290  0.9915  0.1693
  828MPD2    C112175   1.621   4.526  11.837  0.1552  0.2901  0.2189
  828MPD2    C212176   1.709   4.442  11.766 -0.0337  0.3507  1.1320
  828MPD2    C312177   1.844   4.458  11.766 -0.5504  0.6180  0.1772
  828MPD2    C412178   1.904   4.565  11.836  0.1808  0.1471 -0.6734
  828MPD2    C512179   1.820   4.642  11.912  1.0472 -0.0104 -0.1580
  828MPD2     H12180   1.666   4.359  11.711 -0.5717 -0.8313  3.3078
  828MPD2    H112181   2.011   4.582  11.842 -0.0905  1.5290  0.2195
  828MPD2    H212182   1.632   4.712  11.966 -3.0391 -0.6631 -0.1010
  828MPD2    H312183   1.855   0.002  11.970 -1.2206  0.6435  0.2417
  828MPD2     N12184   1.935   4.373  11.693 -0.4683 -0.1986 -0.5137
  828MPD2    H512185   2.030   4.400  11.716  0.0086 -0.7945 -1.8006
  828MPD2    N112186   1.484   4.515  11.824 -0.2482  1.0848  0.2880
  828MPD2    H712187   1.453   4.469  11.739  1.5241  0.9189 -0.2687
  829MPD2     C12188   1.045   0.321  11.282 -1.1361 -0.7602  0.3803
  829MPD2    C112189   0.947   0.221  11.297  0.1324  0.0456  0.4147
  829MPD2    C212190   0.985   0.118  11.383 -0.7759  0.0535  0.3378
  829MPD2    C312191   1.113   0.104  11.434 -0.2262  0.1977 -0.1058
  829MPD2    C412192   1.204   0.193  11.404  0.6072 -0.0568  0.4381
  829MPD2    C512193   1.172   0.311  11.336 -0.3576 -0.5980  0.4245
  829MPD2     H12194   0.915   0.042  11.413  0.3163 -0.7521  0.8346
  829MPD2    H112195   1.307   0.188  11.440  0.4054  0.7060  1.1482
  829MPD2    H212196   1.029   0.419  11.238  1.1580  0.2864  1.8488
  829MPD2    H312197   1.246   0.389  11.318  0.5030 -1.8907 -1.6517
  829MPD2     N12198   1.151   0.002  11.528  0.0671 -0.3718 -0.1592
  829MPD2    H512199   1.234   0.024  11.583  0.1596 -1.4023  0.1094
  829MPD2    N112200   0.815   0.245  11.255  0.0514  0.4462  0.5904
  829MPD2    H712201   0.793   0.338  11.221 -1.3436  0.0285  0.3391
  830MPD2     C12202   1.806   2.270  15.613 -0.2910 -0.0963 -0.2582
  830MPD2    C112203   1.721   2.373  15.577 -0.4296 -0.3118  0.3669
  830MPD2    C212204   1.778   2.499  15.554 -0.2428  0.5487 -0.2105
  830MPD2    C312205   1.914   2.525  15.582 -0.5080 -0.5704  0.4466
  830MPD2    C412206   1.992   2.422  15.619  0.3166  0.4069  0.6709
  830MPD2    C512207   1.935   2.294  15.632 -0.4297  0.3558 -0.2894
  830MPD2     H12208   1.713   2.584  15.542  0.3969  1.1541  0.6097
  830MPD2    H112209   2.099   2.429  15.634  0.4961 -0.5079 -0.1626
  830MPD2    H212210   1.774   2.168  15.630 -1.3181  0.4423  1.0527
  830MPD2    H312211   2.006   2.215  15.651 -2.2076 -2.0125 -3.5653
  830MPD2     N12212   1.974   2.649  15.578  0.2442  0.3357 -0.3040
  830MPD2    H512213   2.064   2.656  15.624 -0.3340  2.6032  0.5020
  830MPD2    N112214   1.579   2.344  15.582  0.1164 -0.3990  0.5916
  830MPD2    H712215   1.545   2.252  15.610  0.1757 -0.5997 -0.0019
  831MPD2     C12216   1.451   4.159  16.414  0.9313 -0.0928  0.3151
  831MPD2    C112217   1.514   4.069  16.327 -0.0472  0.1732  0.5869
  831MPD2    C212218   1.532   3.940  16.362 -0.6972  0.0717 -0.0090
  831MPD2    C312219   1.496   3.899  16.488  0.0105  0.1982 -0.4436
  831MPD2    C412220   1.448   3.991  16.579 -0.2769  0.0550  0.1711
  831MPD2    C512221   1.423   4.121  16.539  0.0806 -0.2328 -1.2308
  831MPD2     H12222   1.578   3.873  16.290  0.9239  0.2566  0.8518
  831MPD2    H112223   1.435   3.957  16.680  1.5468  2.7182  1.3113
  831MPD2    H212224   1.434   4.261  16.383 -1.3012 -0.7270 -0.5288
  831MPD2    H312225   1.387   4.185  16.619 -0.2976 -1.2906 -0.5541
  831MPD2     N12226   1.504   3.755  16.534 -0.0392  0.1007 -0.3102
  831MPD2    H512227   1.468   3.733  16.627  1.0384  0.8928  0.2933
  831MPD2    N112228   1.558   4.106  16.200  0.3880 -0.7937  0.4429
  831MPD2    H712229   1.625   4.044  16.156  0.4208  0.1525 -0.8647
  832MPD2     C12230   4.156   1.014  17.631 -0.4435 -0.4722  0.6040
  832MPD2    C112231   4.206   0.930  17.529  0.3288  0.4544  0.6410
  832MPD2    C212232   4.153   0.930  17.403  0.4462 -0.1378  0.3391
  832MPD2    C312233   4.022   0.980  17.385 -0.1217  0.0023 -0.8206
  832MPD2    C412234   3.970   1.054  17.495  0.2188  0.3572 -0.2810
  832MPD2    C512235   4.036   1.074  17.611 -0.1436  0.9207  0.3443
  832MPD2     H12236   4.209   0.881  17.324  1.8307  0.2167  1.1038
  832MPD2    H112237   3.872   1.100  17.494 -0.3173 -0.7773  1.1732
  832MPD2    H212238   4.218   1.024   0.017  0.1461  2.3559 -0.1365
  832MPD2    H312239   3.994   1.120  17.699 -0.1173 -1.4618  1.6088
  832MPD2     N12240   3.943   0.958  17.270  0.6121 -0.6182  0.0485
  832MPD2    H512241   3.851   1.001  17.268  0.4746 -0.9163 -0.0616
  832MPD2    N112242   4.323   0.851  17.553  0.2693  0.3742 -0.1466
  832MPD2    H712243   4.374   0.825  17.469  1.3425 -0.2303  0.6777
  833MPD2     C12244   2.021   2.050  11.976 -0.1545  0.0745 -0.0931
  833MPD2    C112245   2.062   2.182  11.981 -0.0302  0.5334 -0.4024
  833MPD2    C212246   2.177   2.232  11.928  0.1610 -0.5057 -0.3996
  833MPD2    C312247   2.270   2.148  11.868  0.0708 -0.1279 -0.1347
  833MPD2    C412248   2.235   2.020  11.863 -0.6746  0.2233 -0.7674
  833MPD2    C512249   2.110   1.964  11.916 -0.4851 -0.3018  0.2688
  833MPD2     H12250   2.191   2.340  11.926 -1.0097 -0.3717 -1.2951
  833MPD2    H112251   2.305   1.946  11.823 -0.4274 -0.1935  0.4387
  833MPD2    H212252   1.928   2.011  12.015  1.6892 -5.5110 -1.2044
  833MPD2    H312253   2.096   1.858  11.928 -1.1456 -0.1519  0.7868
  833MPD2     N12254   2.382   2.190  11.791  0.5361  0.0160 -0.3810
  833MPD2    H512255   2.427   2.123  11.730  1.9777  1.0919 -0.5178
  833MPD2    N112256   1.954   2.270  12.021  0.0537 -0.8875 -0.4963
  833MPD2    H712257   1.863   2.226  12.017 -1.3412  1.9185  0.3971
  834MPD2     C12258   2.788   2.053  11.013 -0.0513  0.3169  0.4483
  834MPD2    C112259   2.678   2.001  11.076 -0.9815  0.4669  0.2987
  834MPD2    C212260   2.623   2.069  11.184  0.2094 -1.1681  0.6362
  834MPD2    C312261   2.684   2.187  11.239 -0.8326 -0.1301  0.1153
  834MPD2    C412262   2.796   2.240  11.177  0.3880 -0.3270 -0.0667
  834MPD2    C512263   2.847   2.163  11.071 -0.3789  0.6774  0.0833
  834MPD2     H12264   2.530   2.029  11.222  0.4512 -2.2191  0.1233
  834MPD2    H112265   2.857   2.321  11.218 -1.5397  0.6962  0.7757
  834MPD2    H212266   2.842   1.999  10.936 -0.4180 -2.6209  2.2576
  834MPD2    H312267   2.940   2.196  11.026 -0.6191 -0.1657 -1.0374
  834MPD2     N12268   2.637   2.240  11.361 -0.1127  0.3388  0.2195
  834MPD2    H512269   2.563   2.190  11.410  0.5841  0.3892  1.3302
  834MPD2    N112270   2.630   1.883  11.020 -0.3859 -0.2232 -0.4922
  834MPD2    H712271   2.680   1.851  10.937  0.6479  0.8994 -0.2984
  835MPD2     C12272   2.098   4.192  11.136 -0.0000  0.2426 -0.4688
  835MPD2    C112273   2.038   4.300  11.184  0.7088 -0.0454 -0.4663
  835MPD2    C212274   2.107   4.365  11.282  0.3337 -0.2502  0.1781
  835MPD2    C312275   2.229   4.328  11.320  0.1536  0.0276  1.3633
  835MPD2    C412276   2.291   4.223  11.268  0.3795 -0.1201 -0.4127
  835MPD2    C512277   2.222   4.149  11.178  0.4670  0.1549 -0.3638
  835MPD2     H12278   2.063   4.451  11.332  0.4835 -0.2115  0.2430
  835MPD2    H112279   2.386   4.180  11.299  0.2889 -0.7392 -0.9677
  835MPD2    H212280   2.057   4.129  11.057 -1.2063 -0.2180  0.5194
  835MPD2    H312281   2.269   4.063  11.131  0.5520  0.5618 -1.0307
  835MPD2     N12282   2.308   4.399  11.418  0.3018  1.0279  0.1842
  835MPD2    H512283   2.402   4.366  11.442  0.6772  2.0756  0.1336
  835MPD2    N112284   1.916   4.348  11.151 -0.5312  0.8062  0.0064
  835MPD2    H712285   1.888   4.431  11.203 -0.5468 -0.3857  1.9121
  836MPD2     C12286   2.064   0.317  11.737 -0.1197  0.2997  0.4848
  836MPD2    C112287   2.120   0.233  11.828 -0.0503 -0.1348  0.1061
  836MPD2    C212288   2.059   0.200  11.945 -0.0944  0.1665  0.1454
  836MPD2    C312289   1.941   0.272  11.975 -0.3752 -0.2502  0.0469
  836MPD2    C412290   1.881   0.364  11.886  0.0947  0.4594 -0.1769
  836MPD2    C512291   1.946   0.385  11.763 -0.0407 -0.3399  0.3776
  836MPD2     H12292   2.095   0.128  12.018 -0.1921 -2.1644 -2.1194
  836MPD2    H112293   1.792   0.425  11.898  0.1546  0.6398 -0.6410
  836MPD2    H212294   2.124   0.336  11.649 -1.0156  0.2039 -0.1525
  836MPD2    H312295   1.901   0.450  11.689 -1.9305 -2.0036  0.0731
  836MPD2     N12296   1.863   0.259  12.093 -0.0174 -0.4321  0.2276
  836MPD2    H512297   1.779   0.315  12.094 -0.0270 -0.4086 -1.1785
  836MPD2    N112298   2.240   0.170  11.778  0.2313 -0.2772 -0.2145
  836MPD2    H712299   2.258   0.180  11.678 -1.5798 -0.3481 -0.5476
  837MPD2     C12300   0.360   4.117   9.745  0.3444  0.8299 -0.1731
  837MPD2    C112301   0.248   4.084   9.679  0.1818  0.1370 -0.0563
  837MPD2    C212302   0.144   4.181   9.679 -0.4638 -0.1733 -0.2303
  837MPD2    C312303   0.160   4.298   9.759  0.4223 -0.3938 -0.0936
  837MPD2    C412304   0.273   4.322   9.833  0.9001 -0.2866 -0.3389
  837MPD2    C512305   0.375   4.225   9.821  0.0429  0.6627  0.3230
  837MPD2     H12306   0.049   4.159   9.630  0.2711  1.1588 -2.2571
  837MPD2    H112307   0.296   4.414   9.887  0.0627  0.4870 -1.2788
  837MPD2    H212308   0.451   4.060   9.731 -0.4869 -0.3209 -0.9247
  837MPD2    H312309   0.472   4.248   9.862  0.7805 -0.8918 -0.5904
  837MPD2     N12310   0.057   4.392   9.759 -0.8536 -0.2068 -0.0100
  837MPD2    H512311   4.709   4.362   9.695  0.9582 -2.0827 -1.2122
  837MPD2    N112312   0.245   3.964   9.604 -0.1892 -0.0074 -0.8716
  837MPD2    H712313   0.307   3.885   9.620 -0.1956 -0.0304 -0.9574
  838MPD2     C12314   3.398   2.696  11.435  0.6548  0.2889  0.5742
  838MPD2    C112315   3.477   2.583  11.450  0.3898 -0.2249  1.0654
  838MPD2    C212316   3.427   2.466  11.491  0.4202 -0.1849 -0.3084
  838MPD2    C312317   3.288   2.450  11.514  0.4162 -0.2658  0.0064
  838MPD2    C412318   3.215   2.564  11.498 -0.6102  0.6413 -0.0424
  838MPD2    C512319   3.265   2.689  11.455  0.0748 -0.8949  0.4972
  838MPD2     H12320   3.498   2.390  11.520  0.0828 -0.6462 -0.6943
  838MPD2    H112321   3.110   2.566  11.525  0.0142 -0.5038  2.4038
  838MPD2    H212322   3.440   2.792  11.405  0.4421  0.8160  1.9662
  838MPD2    H312323   3.199   2.775  11.448  1.1348 -0.2962 -2.4058
  838MPD2     N12324   3.215   2.336  11.569 -0.3532  0.3105  0.2313
  838MPD2    H512325   3.122   2.360  11.601 -1.0149  0.6095 -1.9064
  838MPD2    N112326   3.616   2.583  11.425 -0.1956  0.3613  0.0612
  838MPD2    H712327   3.664   2.493  11.422 -0.5951  0.2016 -1.8391
  839MPD2     C12328   3.868   1.983  11.648  0.4793 -0.2485 -0.7182
  839MPD2    C112329   3.881   1.989  11.512  0.4426  0.6912 -0.1072
  839MPD2    C212330   3.945   2.103  11.461  1.1625  0.5231 -0.2877
  839MPD2    C312331   3.986   2.212  11.535  0.3914  0.5724 -0.0931
  839MPD2    C412332   3.961   2.203  11.670  0.4132 -0.2901 -0.2088
  839MPD2    C512333   3.910   2.087  11.727 -0.2418 -0.1942 -0.1909
  839MPD2     H12334   3.939   2.113  11.354  3.2652 -0.9352 -0.5425
  839MPD2    H112335   3.984   2.287  11.733 -0.3006 -0.3848  0.1723
  839MPD2    H212336   3.821   1.907  11.710 -0.4814 -1.0770 -2.4874
  839MPD2    H312337   3.895   2.075  11.833 -1.5710 -0.2306 -0.3809
  839MPD2     N12338   4.004   2.342  11.483  0.0569 -0.6820  0.0898
  839MPD2    H512339   4.008   2.419  11.550  1.4700 -0.5246 -0.1576
  839MPD2    N112340   3.832   1.887  11.419  0.0344 -0.1412  0.2240
  839MPD2    H712341   3.838   1.912  11.321 -1.6407 -0.6457 -0.0118
  840MPD2     C12342   3.300   4.196  10.385  0.7478  0.0179 -0.1187
  840MPD2    C112343   3.253   4.293  10.470  0.0099 -0.5370 -0.0272
  840MPD2    C212344   3.341   4.391  10.529 -0.2643 -0.6013  0.1128
  840MPD2    C312345   3.476   4.381  10.492 -0.0385  0.6773 -0.6121
  840MPD2    C412346   3.524   4.286  10.401 -0.3417 -0.2141 -0.2574
  840MPD2    C512347   3.431   4.207  10.343 -0.1588  0.0181 -0.0289
  840MPD2     H12348   3.304   4.467  10.597 -1.4822 -3.2243  2.3830
  840MPD2    H112349   3.627   4.279  10.368 -1.1678 -2.7379 -2.3325
  840MPD2    H212350   3.233   4.131  10.329 -0.5013  2.0474 -0.9821
  840MPD2    H312351   3.458   4.142  10.260  0.3416 -0.0436  0.1846
  840MPD2     N12352   3.581   4.474  10.538 -0.5219 -0.4883  0.2135
  840MPD2    H512353   3.675   4.465  10.501 -0.2371 -0.5410  0.9468
  840MPD2    N112354   3.117   4.291  10.498  0.1633  0.2647  0.1492
  840MPD2    H712355   3.053   4.228  10.452 -1.0001  1.9829 -0.5632
  841MPD2     C12356   3.088   4.555  14.693 -0.0939 -0.0979 -0.1915
  841MPD2    C112357   3.169   4.527  14.585  0.3534  0.3526 -0.0237
  841MPD2    C212358   3.252   4.623  14.528  0.1163 -0.2907 -0.0362
  841MPD2    C312359   3.271   0.008  14.592  0.0682  0.4838 -1.2135
  841MPD2    C412360   3.210   0.032  14.717  0.3937  0.6448 -0.5612
  841MPD2    C512361   3.107   4.674  14.759 -0.3022 -0.1909  0.4818
  841MPD2     H12362   3.299   4.596  14.435  1.3206  0.6059  0.3151
  841MPD2    H112363   3.218   0.126  14.770 -1.4810 -0.6684  2.0503
  841MPD2    H212364   3.009   4.484  14.716 -0.2791  1.0787  2.7367
  841MPD2    H312365   3.050   4.698  14.848  1.3236 -0.8071  1.6908
  841MPD2     N12366   3.371   0.094  14.538 -0.0926 -0.1138  0.0297
  841MPD2    H512367   3.410   0.054  14.453 -0.2863 -1.4834  0.5764
  841MPD2    N112368   3.161   4.408  14.516 -0.1733 -0.3230  0.6526
  841MPD2    H712369   3.208   4.398  14.426  1.8124 -0.9270  1.7500
  842MPD2     C12370   3.025   0.540  16.737  0.8838  1.0008  0.2170
  842MPD2    C112371   3.127   0.626  16.746  0.2647  0.0899 -0.4637
  842MPD2    C212372   3.188   0.633  16.866  0.2808 -0.4927  0.2723
  842MPD2    C312373   3.159   0.555  16.974 -1.1688 -0.3616 -0.1102
  842MPD2    C412374   3.064   0.455  16.954  0.6592 -0.0479 -0.6973
  842MPD2    C512375   2.994   0.454  16.839 -0.0913 -1.2118  0.6685
  842MPD2     H12376   3.265   0.709  16.879 -0.5073  0.9895 -3.6299
  842MPD2    H112377   3.046   0.382  17.031  1.3832  0.5469  0.0382
  842MPD2    H212378   2.984   0.517  16.639  2.8513 -1.1417 -0.1194
  842MPD2    H312379   2.907   0.392  16.825 -0.9880  0.5477 -1.4909
  842MPD2     N12380   3.220   0.570  17.103 -0.2194  1.0237  0.3744
  842MPD2    H512381   3.171   0.531  17.183  1.5355 -0.0396  0.9259
  842MPD2    N112382   3.141   0.721  16.644 -0.5305 -0.2214 -0.9428
  842MPD2    H712383   3.075   0.717  16.566 -0.9815  0.9627 -0.6190
  843MPD2     C12384   0.375   0.784   0.250  0.6445  0.5827 -0.1282
  843MPD2    C112385   0.483   0.702   0.246 -0.0431 -0.2490  0.7740
  843MPD2    C212386   0.605   0.764   0.216 -0.0323 -0.3388  0.2314
  843MPD2    C312387   0.620   0.901   0.206  0.7591  0.6315  0.3531
  843MPD2    C412388   0.504   0.978   0.224 -0.0432  0.1525 -0.7589
  843MPD2    C512389   0.382   0.918   0.235 -0.5168 -0.5503  0.2847
  843MPD2     H12390   0.692   0.701   0.209 -0.2423 -0.8503  2.1960
  843MPD2    H112391   0.496   1.086   0.220 -1.8082  0.0177 -0.9494
  843MPD2    H212392   0.278   0.741   0.273  0.6321  0.5076 -0.3215
  843MPD2    H312393   0.290   0.975   0.238 -0.6322 -0.6551 -1.3820
  843MPD2     N12394   0.746   0.959   0.191  0.1854 -0.0160 -0.3261
  843MPD2    H512395   0.748   1.060   0.203  1.2897  0.0276 -0.8433
  843MPD2    N112396   0.468   0.568   0.280 -0.4719  0.7307 -0.1715
  843MPD2    H712397   0.377   0.540   0.316  0.0192  0.6149  0.9806
  844MPD2     C12398   3.809   4.528  17.010 -0.3030  0.2199  0.1507
  844MPD2    C112399   3.933   4.503  16.963 -0.4133  1.3283  0.1161
  844MPD2    C212400   4.042   4.550  17.043 -0.1431 -0.7717  0.2675
  844MPD2    C312401   4.027   4.617  17.164  0.0770 -0.2434  0.7362
  844MPD2    C412402   3.902   4.628  17.217  0.0780  0.1418  0.2831
  844MPD2    C512403   3.794   4.588  17.133  0.5079 -1.2576 -0.2258
  844MPD2     H12404   4.144   4.541  17.007  0.2254 -1.2820  1.4287
  844MPD2    H112405   3.894   4.664  17.319 -1.6711  2.3910 -0.6633
  844MPD2    H212406   3.720   4.489  16.961  0.2206 -1.5423  0.5928
  844MPD2    H312407   3.694   4.595  17.174  1.1286 -0.0928  1.0935
  844MPD2     N12408   4.145   4.669  17.220  0.0743 -0.3889 -0.3159
  844MPD2    H512409   4.232   4.637  17.180 -1.2527 -2.6649 -1.3289
  844MPD2    N112410   3.959   4.434  16.846  0.9922  0.0242  0.0491
  844MPD2    H712411   4.059   4.432  16.826  1.0542  0.6400  0.2978
  845MPD2     C12412   4.606   0.656  16.993 -0.1962  0.2511 -0.3240
  845MPD2    C112413   4.530   0.705  17.092 -0.3563 -0.5065  0.5195
  845MPD2    C212414   4.469   0.624  17.190  0.7175  0.3640  0.1774
  845MPD2    C312415   4.494   0.487  17.183  0.6099  0.4069 -0.3890
  845MPD2    C412416   4.560   0.435  17.072  0.4232  0.5924 -0.5355
  845MPD2    C512417   4.619   0.516  16.980 -0.4125 -0.5448 -0.6045
  845MPD2     H12418   4.411   0.655  17.276  1.6092 -0.1477  0.9680
  845MPD2    H112419   4.574   0.329  17.054  1.0715  0.7256 -0.7823
  845MPD2    H212420   4.663   0.715  16.922 -0.0675 -1.0959 -1.3509
  845MPD2    H312421   4.689   0.483  16.904  0.4041  0.4522 -0.2829
  845MPD2     N12422   4.435   0.401  17.276 -0.1765  0.7277  0.0172
  845MPD2    H512423   4.359   0.437  17.332 -1.4132 -2.8787  0.6582
  845MPD2    N112424   4.496   0.842  17.082  0.7722 -0.2456  0.1042
  845MPD2    H712425   4.532   0.888  16.999 -3.1042  0.8920 -0.9246
  846MPD2     C12426   1.276   1.847  13.562 -0.1746 -0.1409 -0.0877
  846MPD2    C112427   1.214   1.961  13.602  0.1906  0.1371  0.1417
  846MPD2    C212428   1.171   1.967  13.737 -0.1101  0.5987 -0.2220
  846MPD2    C312429   1.218   1.873  13.829  0.4765  0.0149  0.0015
  846MPD2    C412430   1.304   1.783  13.791 -0.4925  0.5009 -0.2962
  846MPD2    C512431   1.326   1.761  13.654  0.2251 -0.0591  0.0506
  846MPD2     H12432   1.095   2.038  13.768 -1.1518  0.1582 -1.7366
  846MPD2    H112433   1.344   1.708  13.859 -2.0107  1.1516  1.3175
  846MPD2    H212434   1.315   1.833  13.462 -0.4971 -0.9676 -0.0934
  846MPD2    H312435   1.398   1.686  13.624  1.1162  0.4151  1.0239
  846MPD2     N12436   1.163   1.879  13.965 -0.0063 -0.4844  0.3330
  846MPD2    H512437   1.083   1.940  13.971  1.2035  1.2179 -0.9849
  846MPD2    N112438   1.190   2.067  13.514  0.4539 -0.1045  0.0541
  846MPD2    H712439   1.155   2.153  13.554 -1.8208  0.2127 -2.5833
  847MPD2     C12440   1.985   2.913  14.241  0.3863 -0.6401 -0.1659
  847MPD2    C112441   1.926   2.887  14.361 -0.3609  0.1122 -0.0015
  847MPD2    C212442   1.905   2.758  14.392  0.0614 -0.0298  0.7474
  847MPD2    C312443   1.938   2.650  14.313  0.0351 -0.1641 -0.3391
  847MPD2    C412444   1.998   2.677  14.191 -0.6022 -0.1977 -0.0654
  847MPD2    C512445   2.018   2.810  14.158  0.2321  0.7649  0.1837
  847MPD2     H12446   1.859   2.735  14.488 -1.6622  0.6382  0.0765
  847MPD2    H112447   2.025   2.605  14.115  2.0665  1.0695 -0.3234
  847MPD2    H212448   1.996   3.013  14.199 -1.8726 -0.6414 -0.7562
  847MPD2    H312449   2.057   2.825  14.058  2.2717 -0.7423  0.7670
  847MPD2     N12450   1.903   2.522  14.356  0.0487 -0.5602 -0.3654
  847MPD2    H512451   1.866   2.524  14.450 -0.7246 -0.6744 -0.6654
  847MPD2    N112452   1.878   2.986  14.449  0.4187 -0.9190  0.0084
  847MPD2    H712453   1.834   2.947  14.532  2.2085 -1.1760  0.8397
  848MPD2     C12454   3.885   0.643  16.469  0.0238 -0.5268  0.1402
  848MPD2    C112455   3.953   0.735  16.539  0.0831 -0.5472 -0.1495
  848MPD2    C212456   4.028   0.824  16.473 -0.2897 -0.1845  0.1460
  848MPD2    C312457   4.024   0.840  16.337  0.2242  0.2016 -0.4513
  848MPD2    C412458   3.952   0.750  16.264  0.0287 -0.2448  0.0779
  848MPD2    C512459   3.890   0.648  16.335  0.1298 -0.6381 -0.2735
  848MPD2     H12460   4.096   0.876  16.541  0.3737 -0.3574 -0.3878
  848MPD2    H112461   3.959   0.747  16.156 -2.4726 -2.3447 -0.0161
  848MPD2    H212462   3.826   0.564  16.514 -2.1678  0.8986 -0.2501
  848MPD2    H312463   3.831   0.573  16.283 -1.1407  0.3356 -0.2386
  848MPD2     N12464   4.093   0.941  16.267  0.4676 -0.1502  0.1372
  848MPD2    H512465   4.053   0.958  16.175  0.0657  0.2498  0.3904
  848MPD2    N112466   3.956   0.740  16.679  0.3108 -0.4394  0.4198
  848MPD2    H712467   4.024   0.799  16.725  0.6944  0.6346 -1.5443
  849MPD2     C12468   2.947   0.702  14.575 -0.2067 -0.1444  0.8110
  849MPD2    C112469   3.020   0.805  14.531 -0.4456 -0.7038 -0.2767
  849MPD2    C212470   3.129   0.855  14.606 -0.1109 -0.2869  0.1353
  849MPD2    C312471   3.178   0.783  14.714 -0.6923 -0.0244  0.6055
  849MPD2    C412472   3.099   0.679  14.757  0.8613 -0.5359  0.0476
  849MPD2    C512473   2.987   0.637  14.686  0.1853 -0.2646  0.2035
  849MPD2     H12474   3.184   0.939  14.566 -0.0862 -0.6036 -0.4995
  849MPD2    H112475   3.128   0.613  14.838  2.2594  1.1005  0.8742
  849MPD2    H212476   2.867   0.659  14.516  1.0337 -2.8248  1.0875
  849MPD2    H312477   2.937   0.547  14.721 -0.6666  0.5405  1.0955
  849MPD2     N12478   3.296   0.819  14.781 -0.2367 -0.1640 -0.4250
  849MPD2    H512479   3.334   0.749  14.843 -1.7658 -0.2972  0.3868
  849MPD2    N112480   2.982   0.857  14.412  0.7170  0.0859 -0.1041
  849MPD2    H712481   2.929   0.788  14.358  0.4128 -1.4075  2.1078
  850MPD2     C12482   1.395   3.900  15.100 -0.1027 -0.7966  0.0932
  850MPD2    C112483   1.433   3.800  15.183 -0.1538 -0.8437 -0.4435
  850MPD2    C212484   1.566   3.763  15.182 -0.5159 -0.2401  1.1819
  850MPD2    C312485   1.659   3.819  15.098  0.1633  0.4499 -0.6424
  850MPD2    C412486   1.616   3.912  15.009 -1.0610 -0.3864 -0.5463
  850MPD2    C512487   1.486   3.959  15.013  0.3294 -0.1667  0.7232
  850MPD2     H12488   1.601   3.688  15.252 -0.4150 -0.9004  0.4218
  850MPD2    H112489   1.677   3.953  14.929 -0.4243  0.0621  0.1747
  850MPD2    H212490   1.296   3.943  15.092 -0.3660 -1.2913  0.6953
  850MPD2    H312491   1.455   4.035  14.943  1.3994  1.1638  1.6830
  850MPD2     N12492   1.794   3.774  15.086  0.3027 -0.1092  0.7735
  850MPD2    H512493   1.849   3.815  15.011 -1.2190  0.7771  0.1259
  850MPD2    N112494   1.354   3.736  15.278  0.0561  0.5995  0.0871
  850MPD2    H712495   1.408   3.678  15.342 -2.2621  0.2632  1.7526
  851MPD2     C12496   1.510   3.415  15.938  0.1093 -0.2841  0.4039
  851MPD2    C112497   1.484   3.387  15.804 -0.1300  0.7392  0.0923
  851MPD2    C212498   1.580   3.312  15.738 -0.9943 -0.2856  0.6135
  851MPD2    C312499   1.694   3.269  15.801 -0.2076 -0.6612  0.3304
  851MPD2    C412500   1.706   3.294  15.933 -0.3985 -0.0526  0.0699
  851MPD2    C512501   1.613   3.357  15.999 -0.1824 -0.4599 -0.1263
  851MPD2     H12502   1.566   3.276  15.637 -0.5314  0.0696  0.4214
  851MPD2    H112503   1.793   3.268  15.992  1.3479  2.1516 -1.5503
  851MPD2    H212504   1.446   3.479  15.997  1.6448  0.3078  1.4444
  851MPD2    H312505   1.619   3.380  16.105  0.3558 -1.3915  0.0458
  851MPD2     N12506   1.800   3.198  15.730 -0.3974 -0.6087  0.5907
  851MPD2    H512507   1.785   3.185  15.630 -0.6827  3.6851  0.0679
  851MPD2    N112508   1.361   3.437  15.750  0.4063 -0.2749 -0.1797
  851MPD2    H712509   1.301   3.482  15.817  0.4283  1.4260 -1.3181
  852MPD2     C12510   0.995   2.031   9.797  0.3466 -0.2754  0.7086
  852MPD2    C112511   1.037   1.959   9.899  0.0652 -0.3359 -0.1589
  852MPD2    C212512   1.171   1.943   9.923 -0.4879 -0.9023  0.1007
  852MPD2    C312513   1.263   1.989   9.832 -0.0979 -0.4519 -0.7175
  852MPD2    C412514   1.217   2.064   9.734  0.1551  0.2441 -0.4881
  852MPD2    C512515   1.083   2.091   9.721  0.3170 -0.4928 -0.2217
  852MPD2     H12516   1.206   1.881  10.005  1.8786 -2.2002 -1.8887
  852MPD2    H112517   1.287   2.120   9.674 -0.5468 -1.6459 -3.0572
  852MPD2    H212518   0.893   2.067   9.792  0.6086  1.0501  4.4418
  852MPD2    H312519   1.054   2.170   9.652  2.3553  1.3695  1.0155
  852MPD2     N12520   1.399   1.952   9.847 -0.2579  0.7846  0.2319
  852MPD2    H512521   1.421   1.902   9.934 -1.0047  0.6803  0.3567
  852MPD2    N112522   0.952   1.903   9.999 -0.7457 -0.6231 -0.7715
  852MPD2    H712523   0.991   1.869  10.086 -0.6867  1.6139  0.0857
  853MPD2     C12524   3.243   1.150  12.032  0.0952 -0.5024 -0.0263
  853MPD2    C112525   3.132   1.214  11.986 -0.1237  1.0339 -0.4340
  853MPD2    C212526   3.101   1.216  11.851 -0.2279  0.6576 -0.6259
  853MPD2    C312527   3.190   1.145  11.765  0.1384  0.3484  0.7892
  853MPD2    C412528   3.297   1.081  11.822 -0.2212 -0.2269  0.3417
  853MPD2    C512529   3.328   1.083  11.954 -0.1046  0.2931 -0.2581
  853MPD2     H12530   3.016   1.274  11.819  0.3691  1.4997 -0.6890
  853MPD2    H112531   3.362   1.027  11.754  1.6124 -0.2227  2.0750
  853MPD2    H212532   3.259   1.139  12.139  1.3973  1.4025 -0.0260
  853MPD2    H312533   3.412   1.034  12.002 -1.2417  0.6338  2.1013
  853MPD2     N12534   3.182   1.144  11.628  0.3252 -0.6044 -0.3726
  853MPD2    H512535   3.258   1.100  11.576  1.9348 -0.9776  2.2760
  853MPD2    N112536   3.048   1.271  12.090 -0.0529 -0.8286 -0.5794
  853MPD2    H712537   3.080   1.265  12.186 -2.5896  1.6766  0.4316
  854MPD2     C12538   4.201   1.493  12.927 -0.5679  0.8656 -0.1752
  854MPD2    C112539   4.321   1.542  12.961  0.3266  0.3900 -0.4234
  854MPD2    C212540   4.424   1.445  12.972  0.4779 -0.2362 -0.3461
  854MPD2    C312541   4.410   1.310  12.951  0.6394  0.2805  0.0418
  854MPD2    C412542   4.287   1.271  12.907  0.2945 -0.2434  0.0644
  854MPD2    C512543   4.185   1.358  12.901  0.0628 -0.2284 -0.8475
  854MPD2     H12544   4.517   1.483  13.012 -0.7536  2.5936 -0.1747
  854MPD2    H112545   4.260   1.167  12.895 -1.7013 -0.0177  2.6100
  854MPD2    H212546   4.110   1.550  12.935 -0.7900  0.7501 -1.9484
  854MPD2    H312547   4.083   1.322  12.894  0.0857 -0.2581 -1.0302
  854MPD2     N12548   4.513   1.213  12.944  0.2072  0.4698 -0.3133
  854MPD2    H512549   4.490   1.116  12.926 -0.0889 -0.0530  2.7599
  854MPD2    N112550   4.337   1.679  12.991  0.2750 -0.3466 -0.3171
  854MPD2    H712551   4.251   1.732  12.995  0.7356  0.2548  1.3858
  855MPD2     C12552   0.330   1.057  13.651 -1.0526 -0.0638  0.1245
  855MPD2    C112553   0.302   0.946  13.574 -0.3069  0.4074  0.4041
  855MPD2    C212554   0.303   0.957  13.436  0.2103  0.0672 -0.6195
  855MPD2    C312555   0.314   1.083  13.375  0.2936  0.2983  0.7429
  855MPD2    C412556   0.327   1.195  13.453  0.1167  0.6252  0.6770
  855MPD2    C512557   0.343   1.178  13.590  0.3201  0.6626  0.2991
  855MPD2     H12558   0.289   0.868  13.375  0.5727  1.3908 -2.6280
  855MPD2    H112559   0.329   1.298  13.419  3.1821  0.0925 -0.7595
  855MPD2    H212560   0.344   1.061  13.758 -0.2622  2.3491 -0.0616
  855MPD2    H312561   0.357   1.258  13.661  1.1462 -0.0198  0.9062
  855MPD2     N12562   0.302   1.107  13.237 -0.2679  0.5760 -0.2579
  855MPD2    H512563   0.314   1.198  13.194 -1.2201 -0.0579 -1.8518
  855MPD2    N112564   0.290   0.810  13.630 -0.2210  0.3651  0.7808
  855MPD2    H712565   0.277   0.734  13.564 -0.8494  0.2528  1.0339
  856MPD2     C12566   2.462   1.802  14.213 -0.6943 -0.5997  0.0408
  856MPD2    C112567   2.518   1.926  14.185  0.1741  0.0250 -0.4379
  856MPD2    C212568   2.446   2.014  14.113 -0.3294 -0.3644 -0.5124
  856MPD2    C312569   2.319   1.991  14.070 -0.0968 -0.1488 -0.0272
  856MPD2    C412570   2.273   1.867  14.092  0.0549  0.2015  0.1525
  856MPD2    C512571   2.341   1.769  14.164  0.7670  0.3815  0.5228
  856MPD2     H12572   2.491   2.110  14.089  1.2384 -0.4540  2.0746
  856MPD2    H112573   2.175   1.844  14.052  0.3476  1.4545 -1.2601
  856MPD2    H212574   2.510   1.725  14.273 -2.0080 -0.9457  0.6780
  856MPD2    H312575   2.296   1.671  14.174  0.5048  0.5171  0.6732
  856MPD2     N12576   2.230   2.079  14.009 -0.2007 -0.0802 -0.6491
  856MPD2    H512577   2.145   2.033  13.976 -0.3675 -0.7601  0.7353
  856MPD2    N112578   2.650   1.956  14.212  0.2460 -0.3185 -0.2718
  856MPD2    H712579   2.677   2.046  14.174  2.0839 -0.9300 -0.3988
  857MPD2     C12580   3.785   4.128  12.709 -0.6127 -0.5964  0.3227
  857MPD2    C112581   3.923   4.118  12.716 -0.1184  0.1544 -0.1955
  857MPD2    C212582   3.999   4.228  12.745  0.0753 -0.3464 -0.0105
  857MPD2    C312583   3.942   4.347  12.789 -0.3037  0.7150 -0.0675
  857MPD2    C412584   3.806   4.356  12.773 -0.3880  0.0723  0.5670
  857MPD2    C512585   3.726   4.249  12.732 -0.2657 -0.9883  0.3917
  857MPD2     H12586   4.107   4.227  12.746  0.0498 -2.1803  1.3720
  857MPD2    H112587   3.752   4.447  12.798 -1.3514 -0.0543 -1.0806
  857MPD2    H212588   3.727   4.045  12.671  0.0503 -0.0228 -2.0144
  857MPD2    H312589   3.618   4.262  12.725 -0.1936 -0.7499 -0.3063
  857MPD2     N12590   4.027   4.451  12.837  0.5707 -0.4366  0.0667
  857MPD2    H512591   4.123   4.418  12.837  0.4879 -0.7003 -1.9222
  857MPD2    N112592   3.976   3.995  12.677 -0.4324 -0.6807 -0.2157
  857MPD2    H712593   3.904   3.926  12.665  0.1416 -1.5251  1.1739
  858MPD2     C12594   4.119   3.292  16.965 -0.1777  0.4081  0.4286
  858MPD2    C112595   4.238   3.277  16.900  0.9229  0.1871 -0.1271
  858MPD2    C212596   4.347   3.359  16.935 -0.6664  0.0857 -0.0671
  858MPD2    C312597   4.339   3.443  17.041  0.3710  0.4086 -0.6979
  858MPD2    C412598   4.217   3.456  17.099 -0.0224 -0.8197  0.0848
  858MPD2    C512599   4.106   3.384  17.061  0.5242  0.1196  0.0239
  858MPD2     H12600   4.439   3.359  16.879 -0.7277  2.6902 -0.1388
  858MPD2    H112601   4.206   3.522  17.185  0.3303  1.4653 -1.6322
  858MPD2    H212602   4.030   3.233  16.943  0.4492  0.2801 -1.8274
  858MPD2    H312603   4.017   3.401  17.120 -0.5034 -1.0552 -1.1978
  858MPD2     N12604   4.444   3.529  17.090  0.1571  0.6821  0.0315
  858MPD2    H512605   4.418   3.591  17.166  2.0817  1.3793  0.1316
  858MPD2    N112606   4.261   3.174  16.803 -0.0848 -0.0219  0.2710
  858MPD2    H712607   4.359   3.167  16.776 -0.0245  1.0201  0.2073
  859MPD2     C12608   3.066   0.002  15.510  0.3248  0.1128 -0.7075
  859MPD2    C112609   3.061   0.032  15.366 -0.0176  0.5082  0.5086
  859MPD2    C212610   3.094   4.657  15.273 -0.3337  0.1137  0.4837
  859MPD2    C312611   3.128   4.535  15.323  0.4085  0.1492 -0.0674
  859MPD2    C412612   3.117   4.501  15.461  0.2885 -0.2317 -0.2480
  859MPD2    C512613   3.086   4.602  15.548  0.3955 -0.0956  0.1466
  859MPD2     H12614   3.105   4.673  15.166  2.6579  0.1385  0.7806
  859MPD2    H112615   3.134   4.400  15.498  0.9961 -0.0191  0.0104
  859MPD2    H212616   3.023   0.072  15.580  1.0199 -0.9664  0.7971
  859MPD2    H312617   3.073   4.578  15.653 -1.3548  1.1103  0.2001
  859MPD2     N12618   3.169   4.422  15.242 -0.4290  0.3048  0.2377
  859MPD2    H512619   3.215   4.344  15.289 -1.6695 -0.6701 -0.1753
  859MPD2    N112620   3.031   0.164  15.331  0.1013  0.4653 -0.0015
  859MPD2    H712621   3.000   0.224  15.407 -1.9827 -0.1403 -0.3691
  860MPD2     C12622   1.313   0.533  11.697  0.3139 -0.3520 -0.1060
  860MPD2    C112623   1.343   0.648  11.778 -0.1955  0.4035 -0.1546
  860MPD2    C212624   1.238   0.705  11.848  0.2233 -0.4539 -0.0369
  860MPD2    C312625   1.108   0.655  11.841  0.1936 -0.2766  0.0312
  860MPD2    C412626   1.080   0.549  11.771 -0.1808  0.4446 -0.2969
  860MPD2    C512627   1.183   0.483  11.704 -0.1109  0.1560 -1.0318
  860MPD2     H12628   1.266   0.791  11.907 -1.5074  0.5914 -0.7340
  860MPD2    H112629   0.978   0.511  11.767 -1.0500  2.6446  1.3648
  860MPD2    H212630   1.386   0.468  11.651  0.3372  0.0137 -0.5845
  860MPD2    H312631   1.156   0.396  11.645  2.9332 -0.3629 -1.6740
  860MPD2     N12632   0.999   0.715  11.905  0.2407  0.5893 -0.6139
  860MPD2    H512633   0.912   0.664  11.898 -0.0858  1.3406 -1.8948
  860MPD2    N112634   1.474   0.692  11.808  0.8675 -0.3393  0.0762
  860MPD2    H712635   1.482   0.770  11.872 -0.9693 -1.5187  1.7431
  861MPD2     C12636   4.466   3.515  11.108  0.1009 -0.1288  0.1479
  861MPD2    C112637   4.346   3.532  11.175  0.2910 -0.3236 -0.0939
  861MPD2    C212638   4.238   3.594  11.107  0.3296 -0.1474 -0.4652
  861MPD2    C312639   4.255   3.623  10.973 -0.3526 -0.3103 -0.0274
  861MPD2    C412640   4.381   3.603  10.912  0.8711  0.3276  0.1467
  861MPD2    C512641   4.483   3.551  10.979  0.1402 -0.6700  0.0282
  861MPD2     H12642   4.143   3.611  11.156 -0.3600  1.0365 -2.2410
  861MPD2    H112643   4.392   3.622  10.806 -0.1495  0.8095  0.1284
  861MPD2    H212644   4.554   3.484  11.164 -0.8594  0.5183  2.0294
  861MPD2    H312645   4.579   3.525  10.936  0.7827  2.1615 -0.2580
  861MPD2     N12646   4.160   3.692  10.898 -0.6301  0.2220  0.1382
  861MPD2    H512647   4.187   3.719  10.804 -0.4651 -3.5585 -0.9046
  861MPD2    N112648   4.335   3.500  11.317  0.5432 -0.1341  0.1764
  861MPD2    H712649   4.246   3.525  11.359 -0.5091 -1.0971 -1.4741
  862MPD2     C12650   3.792   3.903  10.289  0.2817  0.3568  0.1683
  862MPD2    C112651   3.923   3.860  10.311  0.1002 -0.8375  0.6615
  862MPD2    C212652   3.974   3.769  10.227 -0.0782 -0.2140  0.0789
  862MPD2    C312653   3.919   3.734  10.107 -0.4940  0.8169 -1.2005
  862MPD2    C412654   3.794   3.781  10.082 -0.4767 -0.1964 -0.0996
  862MPD2    C512655   3.734   3.864  10.173 -0.8116 -0.4212 -0.2347
  862MPD2     H12656   4.072   3.734  10.258 -0.0617  2.2162  2.7894
  862MPD2    H112657   3.740   3.740   9.997 -0.8390  0.4289 -0.1744
  862MPD2    H212658   3.736   3.973  10.350 -1.8741 -1.2893  0.0496
  862MPD2    H312659   3.630   3.894  10.161 -0.2405  1.5341 -0.2957
  862MPD2     N12660   3.998   3.658  10.018 -0.3730 -0.0491  0.4857
  862MPD2    H512661   3.977   3.676   9.920  1.1531  1.0562  0.3498
  862MPD2    N112662   3.981   3.883  10.438 -0.0886  0.7499  0.5708
  862MPD2    H712663   4.059   3.827  10.471  0.0562 -1.3074 -3.3642
  863MPD2     C12664   3.592   2.057  16.311  0.5712  0.4735  0.5227
  863MPD2    C112665   3.520   2.128  16.399 -0.4796  0.2691  0.5237
  863MPD2    C212666   3.557   2.142  16.535 -0.4842 -0.0938  0.7513
  863MPD2    C312667   3.662   2.066  16.588  0.1117  0.0504  0.2098
  863MPD2    C412668   3.743   1.989  16.495  0.0939 -0.0447 -0.5187
  863MPD2    C512669   3.707   1.989  16.360 -0.0728  0.0235  0.0710
  863MPD2     H12670   3.492   2.190  16.606  0.8673 -0.4493  2.2353
  863MPD2    H112671   3.823   1.923  16.523 -1.8442 -2.3128 -0.3499
  863MPD2    H212672   3.557   2.054  16.209 -3.3291 -2.1922  1.8916
  863MPD2    H312673   3.765   1.916  16.304 -0.6635  1.2231 -2.1139
  863MPD2     N12674   3.690   2.060  16.725 -0.2773 -0.0444 -0.7264
  863MPD2    H512675   3.737   1.977  16.760 -0.1652 -0.5154 -1.9919
  863MPD2    N112676   3.417   2.209  16.344  0.1017 -0.5032  0.1805
  863MPD2    H712677   3.376   2.185  16.255  1.7794 -1.2483 -0.3681
  864MPD2     C12678   3.300   3.179  17.449 -0.6223 -0.3394  0.2532
  864MPD2    C112679   3.394   3.151  17.360 -0.0166  0.2007 -0.2956
  864MPD2    C212680   3.468   3.256  17.310  0.3304  0.1409  0.3969
  864MPD2    C312681   3.443   3.387  17.341  0.3067 -0.0915 -0.0106
  864MPD2    C412682   3.334   3.412  17.417  0.7527  0.4563 -0.7110
  864MPD2    C512683   3.261   3.310  17.471  0.6424  0.9531 -0.4573
  864MPD2     H12684   3.539   3.233  17.231  0.9207 -3.8153  2.0971
  864MPD2    H112685   3.309   3.515  17.439 -1.1158  0.0429 -0.8988
  864MPD2    H212686   3.246   3.101  17.503 -2.3976 -1.2246 -2.7716
  864MPD2    H312687   3.173   3.329  17.531  1.2170  0.2227  0.5991
  864MPD2     N12688   3.502   3.507  17.288  0.5634  0.0911  0.3508
  864MPD2    H512689   3.454   3.593  17.310  3.6987  1.3272  2.2624
  864MPD2    N112690   3.405   3.015  17.323 -0.0245  0.0968  0.0495
  864MPD2    H712691   3.338   2.952  17.367  1.3293 -0.6178  1.0892
  865MPD2     C12692   3.751   3.968  16.447  0.7794 -0.6985  0.1254
  865MPD2    C112693   3.707   3.846  16.501  0.5198  0.3171  0.8111
  865MPD2    C212694   3.664   3.838  16.632  0.5496 -0.0189 -0.1478
  865MPD2    C312695   3.671   3.949  16.709 -0.0876  0.1929  0.2938
  865MPD2    C412696   3.706   4.072  16.659 -0.0365 -0.7167  0.0415
  865MPD2    C512697   3.742   4.082  16.525  0.1616 -0.1283 -0.2322
  865MPD2     H12698   3.639   3.742  16.676  1.2893  0.4246  1.2503
  865MPD2    H112699   3.710   4.163  16.717 -0.9965 -1.0602  0.6440
  865MPD2    H212700   3.793   3.978  16.348 -0.2102  1.0249 -0.1337
  865MPD2    H312701   3.780   4.173  16.480 -1.5969 -0.2997 -2.0142
  865MPD2     N12702   3.630   3.953  16.846  0.5547 -0.1628 -0.5835
  865MPD2    H512703   3.663   4.033  16.899 -1.0363 -1.2028  1.9400
  865MPD2    N112704   3.716   3.732  16.423 -0.1251 -0.2250  0.0388
  865MPD2    H712705   3.764   3.738  16.334 -1.3063  0.1046 -0.5738
  866MPD2     C12706   0.368   4.077  11.435 -0.4303 -0.1676  0.1397
  866MPD2    C112707   0.368   3.972  11.344  0.2245 -0.1106 -0.4560
  866MPD2    C212708   0.246   3.929  11.291 -0.4513  0.0661 -0.4314
  866MPD2    C312709   0.127   3.988  11.331  0.0593 -0.1026  0.5034
  866MPD2    C412710   0.130   4.094  11.426 -0.0483  0.0563 -0.1769
  866MPD2    C512711   0.253   4.137  11.474  0.2381  0.6735  0.6778
  866MPD2     H12712   0.242   3.833  11.239  2.5215 -1.2171  1.7024
  866MPD2    H112713   0.037   4.130  11.468  0.1695  2.8553 -2.1355
  866MPD2    H212714   0.463   4.096  11.483 -0.1975  1.5939 -1.0401
  866MPD2    H312715   0.257   4.214  11.551 -2.3730  1.2205  0.2950
  866MPD2     N12716   4.723   3.942  11.300  0.0079  0.1894  0.0497
  866MPD2    H512717   4.656   3.990  11.359 -2.1447  0.4317 -2.6104
  866MPD2    N112718   0.488   3.905  11.312  0.4013  0.4803 -0.5808
  866MPD2    H712719   0.572   3.933  11.363 -0.8262 -0.0004  1.7004
  867MPD2     C12720   2.422   3.862  16.198  0.3202  0.7563  0.6675
  867MPD2    C112721   2.464   3.810  16.319 -0.1240  0.4447 -0.0785
  867MPD2    C212722   2.423   3.879  16.436  0.9032 -0.7664 -0.8617
  867MPD2    C312723   2.334   3.986  16.421  0.4992  0.4843 -0.1982
  867MPD2    C412724   2.285   4.026  16.298  0.4619 -0.7225  0.1090
  867MPD2    C512725   2.330   3.965  16.186 -0.3919 -0.0284  0.2225
  867MPD2     H12726   2.443   3.841  16.536  0.5153  0.1115 -0.4500
  867MPD2    H112727   2.231   4.119  16.292  1.0277 -0.5377 -2.3370
  867MPD2    H212728   2.445   3.818  16.102  1.5935  1.5384  0.6169
  867MPD2    H312729   2.287   3.990  16.090  0.2191  1.9523  0.4806
  867MPD2     N12730   2.280   4.069  16.528 -0.2306 -0.2917  0.5424
  867MPD2    H512731   2.204   4.132  16.505  0.7935  0.2256 -1.4393
  867MPD2    N112732   2.551   3.701  16.312 -0.1107  0.4201 -0.0332
  867MPD2    H712733   2.584   3.671  16.222 -0.5228  2.0897 -0.7471
  868MPD2     C12734   4.375   2.435  13.049  0.0794  0.0851  0.5107
  868MPD2    C112735   4.441   2.468  13.166 -0.5242 -0.2062 -0.0289
  868MPD2    C212736   4.365   2.515  13.270  0.9730  0.4739  0.6006
  868MPD2    C312737   4.228   2.508  13.262  1.0614  0.0978 -0.2882
  868MPD2    C412738   4.167   2.467  13.147 -0.3207  0.1984 -1.0663
  868MPD2    C512739   4.236   2.439  13.031  0.4050  0.1544 -0.3143
  868MPD2     H12740   4.410   2.541  13.365  0.4676 -1.8341  1.4762
  868MPD2    H112741   4.059   2.461  13.141 -0.5513 -0.0172  2.8355
  868MPD2    H212742   4.428   2.410  12.957  1.5936  3.0375  0.5550
  868MPD2    H312743   4.187   2.402  12.941 -3.0645  0.6556  1.3959
  868MPD2     N12744   4.162   2.550  13.376 -0.7187  0.3954  0.3174
  868MPD2    H512745   4.216   2.586  13.453 -2.4448 -1.0877  2.2340
  868MPD2    N112746   4.586   2.469  13.155 -0.3855  0.9607 -0.1928
  868MPD2    H712747   4.627   2.456  13.063  2.6573  0.2541  1.2608
  869MPD2     C12748   3.827   0.018   0.944  0.3024 -0.1224 -1.0277
  869MPD2    C112749   3.862   0.080   1.056 -0.0054 -0.8419  0.1041
  869MPD2    C212750   3.963   0.175   1.045  0.7206 -0.0938 -0.7027
  869MPD2    C312751   4.050   0.181   0.947  0.2943 -0.3604 -0.2845
  869MPD2    C412752   4.030   0.093   0.838  0.3056 -0.4593  0.1934
  869MPD2    C512753   3.921   0.008   0.841  0.2762  0.5220 -0.8002
  869MPD2     H12754   3.992   0.235   1.131 -0.0658  0.5046 -0.8510
  869MPD2    H112755   4.103   0.081   0.759 -2.4151  1.2325 -2.5921
  869MPD2    H212756   3.748   4.670   0.950  1.6220 -1.5639 -1.1066
  869MPD2    H312757   3.905   4.666   0.758 -3.1850  0.5671 -0.1703
  869MPD2     N12758   4.169   0.258   0.952 -0.1822  0.3144  0.3147
  869MPD2    H512759   4.234   0.237   0.877 -2.3351  0.0259 -1.4542
  869MPD2    N112760   3.790   0.049   1.173  0.4686  0.1905 -0.0394
  869MPD2    H712761   3.721   4.700   1.165 -1.4518  1.9547  0.0979
  870MPD2     C12762   4.618   4.482   1.531  0.3238 -0.3403  0.2381
  870MPD2    C112763   0.022   4.444   1.512  0.1260 -0.9517  0.7166
  870MPD2    C212764   0.103   4.523   1.436  0.4813 -0.4276 -0.2120
  870MPD2    C312765   0.070   4.645   1.385 -0.3932 -0.3353  1.4535
  870MPD2    C412766   4.665   4.679   1.405  1.0456  0.3975 -1.0167
  870MPD2    C512767   4.575   4.604   1.479 -0.4014  0.2949  0.4708
  870MPD2     H12768   0.207   4.496   1.418  0.8108 -0.3023  1.4743
  870MPD2    H112769   4.623   0.046   1.367  1.4355  0.5746 -1.0152
  870MPD2    H212770   4.541   4.416   1.571  0.6950  0.8877  2.9663
  870MPD2    H312771   4.475   4.643   1.492 -0.8262 -0.8830  0.7555
  870MPD2     N12772   0.157   4.720   1.302  0.0280 -0.6127  0.2027
  870MPD2    H512773   0.248   4.679   1.285 -0.0978 -0.1936 -1.5244
  870MPD2    N112774   0.060   4.318   1.561  0.3437  0.6736  0.4119
  870MPD2    H712775   4.709   4.265   1.600  0.6686 -0.3091 -0.2701
  871MPD2     C12776   1.838   3.459  16.519 -0.5542  0.1980  0.2004
  871MPD2    C112777   1.824   3.391  16.636  0.2750  0.1610 -0.1840
  871MPD2    C212778   1.830   3.256  16.630  1.1137  0.5477 -0.0078
  871MPD2    C312779   1.854   3.190  16.515  0.1158 -0.0742  0.3007
  871MPD2    C412780   1.868   3.258  16.404  0.3664 -0.4571  0.0410
  871MPD2    C512781   1.865   3.395  16.402  0.4689 -0.2396  0.0211
  871MPD2     H12782   1.819   3.193  16.718 -1.5878 -0.9881 -1.4486
  871MPD2    H112783   1.883   3.212  16.307 -0.7079 -1.4304  0.3269
  871MPD2    H212784   1.810   3.564  16.515  1.3094  0.6505 -1.1069
  871MPD2    H312785   1.879   3.458  16.315  0.1187  0.6265  0.5866
  871MPD2     N12786   1.836   3.050  16.519 -0.1663  0.3361  0.4084
  871MPD2    H512787   1.811   3.003  16.605 -0.2468 -0.6083 -0.1294
  871MPD2    N112788   1.799   3.470  16.753 -0.2132  0.2408 -0.1014
  871MPD2    H712789   1.794   3.571  16.749  0.0445  0.1816 -1.8057
  872MPD2     C12790   2.328   1.205  14.302  0.7920  0.4443 -0.1481
  872MPD2    C112791   2.287   1.279  14.193  0.3784  0.2525 -0.0456
  872MPD2    C212792   2.149   1.281  14.175  0.3843 -0.2325  0.1997
  872MPD2    C312793   2.064   1.216  14.265  0.1112 -0.1574  0.6177
  872MPD2    C412794   2.115   1.137  14.373  0.0458 -0.0313 -0.0149
  872MPD2    C512795   2.248   1.135  14.388  1.3185 -0.2680  0.0239
  872MPD2     H12796   2.111   1.341  14.094 -0.1574 -2.4740 -1.1886
  872MPD2    H112797   2.051   1.076  14.436 -2.1173  0.4095 -1.7549
  872MPD2    H212798   2.434   1.205  14.324  0.7190  0.3809  0.1958
  872MPD2    H312799   2.294   1.080  14.469  1.8865 -0.0620 -0.1624
  872MPD2     N12800   1.925   1.219  14.264  0.0324 -0.2094  0.1236
  872MPD2    H512801   1.876   1.179  14.343 -2.2784  0.0616 -1.1669
  872MPD2    N112802   2.365   1.356  14.108  0.1254  0.1884 -0.0610
  872MPD2    H712803   2.331   1.376  14.014  1.3897  0.2658 -0.5052
  873MPD2     C12804   3.760   1.073   1.075  0.1757 -0.0390 -1.3889
  873MPD2    C112805   3.631   1.059   1.116  1.1337 -0.7194  0.0852
  873MPD2    C212806   3.565   0.937   1.104  1.0031  0.0406  0.1068
  873MPD2    C312807   3.630   0.827   1.053 -0.8816  0.6737  0.3439
  873MPD2    C412808   3.765   0.843   1.013  0.6546  0.7834 -0.7871
  873MPD2    C512809   3.826   0.964   1.029 -0.0657  0.2103 -0.0307
  873MPD2     H12810   3.462   0.934   1.137  1.4100 -1.9190  1.1496
  873MPD2    H112811   3.830   0.761   0.985 -0.2020 -0.0906 -0.1886
  873MPD2    H212812   3.822   1.159   1.092 -0.7897  0.7635 -1.9290
  873MPD2    H312813   3.931   0.971   1.001  0.2964 -3.2661  0.3915
  873MPD2     N12814   3.564   0.697   1.059  0.1629 -0.0333 -0.2514
  873MPD2    H512815   3.604   0.633   0.991  0.1857 -0.4628  0.1667
  873MPD2    N112816   3.572   1.171   1.174 -0.1877 -0.4454  0.5532
  873MPD2    H712817   3.631   1.252   1.192 -1.4643  0.0240  2.6231
  874MPD2     C12818   3.459   1.370  16.034 -0.1585  0.8429  0.8503
  874MPD2    C112819   3.494   1.300  16.146 -0.0496  0.3670  0.3087
  874MPD2    C212820   3.625   1.304  16.186  0.1269  1.0914  0.0046
  874MPD2    C312821   3.724   1.369  16.116  0.0448 -0.4320 -0.3318
  874MPD2    C412822   3.684   1.435  15.998 -0.5380  0.3881 -0.1323
  874MPD2    C512823   3.556   1.425  15.956  0.0403  1.1462  0.4901
  874MPD2     H12824   3.648   1.243  16.273 -0.4349  1.6008  0.5112
  874MPD2    H112825   3.750   1.487  15.929  1.4563 -0.3433  1.2118
  874MPD2    H212826   3.354   1.374  16.008 -0.3587 -0.2361  1.5030
  874MPD2    H312827   3.528   1.480  15.867 -2.3413 -1.3817 -0.3287
  874MPD2     N12828   3.861   1.356  16.150  0.3879  0.4476 -0.0000
  874MPD2    H512829   3.886   1.288  16.222  3.0584 -2.6755 -3.8604
  874MPD2    N112830   3.395   1.213  16.197 -0.1842 -0.0710  0.5319
  874MPD2    H712831   3.304   1.213  16.151  0.9676  2.3263 -1.7435
  875MPD2     C12832   0.258   4.579  14.362  0.0100 -0.7636  0.1357
  875MPD2    C112833   0.141   4.648  14.383 -0.0475  0.3163 -0.3133
  875MPD2    C212834   0.111   4.684  14.508  0.3760 -0.5741 -0.3531
  875MPD2    C312835   0.201   4.659  14.611  0.2212 -0.8238 -0.5259
  875MPD2    C412836   0.325   4.609  14.586  0.1127 -0.1115 -0.0825
  875MPD2    C512837   0.351   4.557  14.463 -0.2713  0.0799 -0.2356
  875MPD2     H12838   0.021   0.018  14.520 -0.3080 -1.5115 -0.8759
  875MPD2    H112839   0.396   4.592  14.666 -0.4782 -2.5073 -0.0865
  875MPD2    H212840   0.284   4.537  14.266 -0.3426  2.1196 -1.2184
  875MPD2    H312841   0.435   4.489  14.450 -0.6641 -0.4531  0.0022
  875MPD2     N12842   0.176   4.697  14.749 -0.0988 -0.5734  0.4013
  875MPD2    H512843   0.248   4.679  14.817 -0.1062 -2.1128 -0.0099
  875MPD2    N112844   0.045   4.670  14.283  0.5137 -0.4739  0.7280
  875MPD2    H712845   4.688   4.721  14.313  0.7666  0.8814 -0.8855
  876MPD2     C12846   3.550   0.604  16.398  0.2908 -0.0403  0.3621
  876MPD2    C112847   3.553   0.583  16.265 -0.0276 -0.6665  0.1847
  876MPD2    C212848   3.540   0.459  16.207 -0.3903  0.1524 -0.3080
  876MPD2    C312849   3.527   0.350  16.288  0.2906 -0.0980 -0.0015
  876MPD2    C412850   3.517   0.368  16.423 -0.7985 -0.2890 -0.3148
  876MPD2    C512851   3.532   0.492  16.480  0.5970  0.5306  0.2935
  876MPD2     H12852   3.535   0.451  16.099 -2.1515  0.0870 -0.2315
  876MPD2    H112853   3.492   0.281  16.484  1.6001 -1.5265 -1.1069
  876MPD2    H212854   3.550   0.701  16.446  0.4561 -0.0377  0.3576
  876MPD2    H312855   3.511   0.502  16.586 -0.8015  3.0476 -0.2321
  876MPD2     N12856   3.514   0.227  16.220 -0.0887 -0.9196  0.7051
  876MPD2    H512857   3.531   0.229  16.120 -0.3045 -0.1853  0.6867
  876MPD2    N112858   3.553   0.691  16.176  0.1635  0.5667  0.4094
  876MPD2    H712859   3.556   0.669  16.076 -0.7793 -1.0200  0.7295
  877MPD2     C12860   4.048   1.209  15.749 -0.3234  0.4413  0.6241
  877MPD2    C112861   3.917   1.216  15.711 -0.0587 -0.0084 -0.3570
  877MPD2    C212862   3.888   1.272  15.591 -0.0913 -0.2040  0.0910
  877MPD2    C312863   3.988   1.308  15.504  0.1960 -0.0102 -0.0299
  877MPD2    C412864   4.119   1.305  15.543 -0.3085 -0.1236 -0.2403
  877MPD2    C512865   4.151   1.257  15.669 -0.1824  0.1982 -0.0454
  877MPD2     H12866   3.783   1.287  15.567 -0.5688 -0.3729  2.1141
  877MPD2    H112867   4.199   1.351  15.487  0.7671  0.8296  2.0634
  877MPD2    H212868   4.083   1.163  15.840 -0.3752 -1.7892 -0.4887
  877MPD2    H312869   4.251   1.261  15.712 -0.4110 -0.6284  0.5471
  877MPD2     N12870   3.975   1.354  15.372 -0.0768 -0.3159  0.0899
  877MPD2    H512871   4.054   1.397  15.324 -1.4097  0.1692 -1.6995
  877MPD2    N112872   3.805   1.183  15.785  0.2226 -0.2421 -0.0133
  877MPD2    H712873   3.715   1.203  15.741  0.3595 -0.2736 -0.3098
  878MPD2     C12874   3.204   1.529  13.664  0.0044  0.1809  0.4978
  878MPD2    C112875   3.305   1.438  13.670 -0.1345  0.6107  0.2743
  878MPD2    C212876   3.287   1.337  13.756  0.2195 -0.4565 -0.1260
  878MPD2    C312877   3.175   1.320  13.843  0.2066 -0.3303 -0.2556
  878MPD2    C412878   3.088   1.424  13.845  0.5791  0.0923  0.3397
  878MPD2    C512879   3.097   1.518  13.746  0.5158  0.7456 -0.4107
  878MPD2     H12880   3.362   1.260  13.768  0.7253 -0.3678 -2.5825
  878MPD2    H112881   2.998   1.417  13.906 -0.1382 -0.9445 -0.8419
  878MPD2    H212882   3.202   1.610  13.593  0.7030  0.4039  0.7383
  878MPD2    H312883   3.016   1.590  13.735 -1.5972 -1.6122 -0.2618
  878MPD2     N12884   3.158   1.207  13.918 -0.1417 -0.1305  0.1640
  878MPD2    H512885   3.080   1.207  13.984  1.1876  1.4033  1.7451
  878MPD2    N112886   3.421   1.452  13.591  0.1670 -0.5857  0.1061
  878MPD2    H712887   3.420   1.540  13.540 -0.5011 -1.3073 -1.1193
  879MPD2     C12888   4.190   1.778  16.602  0.2335 -0.0906  0.2694
  879MPD2    C112889   4.081   1.789  16.685 -0.2239 -0.3608 -0.0848
  879MPD2    C212890   3.969   1.716  16.654  0.0371  0.3147 -0.1951
  879MPD2    C312891   3.954   1.648  16.534 -0.3133 -0.0138  0.1109
  879MPD2    C412892   4.060   1.648  16.445  0.7650 -0.3346 -0.1641
  879MPD2    C512893   4.173   1.714  16.483 -0.1186 -0.0506  0.0175
  879MPD2     H12894   3.887   1.716  16.725 -0.8174 -0.1857 -1.1863
  879MPD2    H112895   4.057   1.586  16.356  1.0726  0.2424 -0.5819
  879MPD2    H212896   4.284   1.824  16.632 -0.7295  1.9601  0.1612
  879MPD2    H312897   4.261   1.713  16.421 -0.3040 -1.5721 -0.2459
  879MPD2     N12898   3.837   1.590  16.489  0.0089  0.1667 -0.0347
  879MPD2    H512899   3.838   1.566  16.390  1.8350 -1.8127  0.4641
  879MPD2    N112900   4.102   1.866  16.799 -0.2193 -1.1973 -0.1854
  879MPD2    H712901   4.196   1.901  16.815 -0.7276 -0.1261  0.5408
  880MPD2     C12902   0.992   3.800   0.697 -0.4671  0.2481 -0.3246
  880MPD2    C112903   0.865   3.796   0.647 -0.1803 -1.0867 -0.9025
  880MPD2    C212904   0.796   3.672   0.619  0.1566  0.5427  1.1461
  880MPD2    C312905   0.879   3.559   0.628 -0.6912  0.0180 -0.0074
  880MPD2    C412906   1.004   3.570   0.694  0.0511  0.3212 -0.9050
  880MPD2    C512907   1.069   3.688   0.728 -0.9427 -0.3800  0.2422
  880MPD2     H12908   0.699   3.659   0.572  0.9549 -0.9481 -0.1083
  880MPD2    H112909   1.053   3.480   0.730 -0.9747  0.6354  1.2684
  880MPD2    H212910   1.045   3.894   0.706 -0.3864  0.0871  0.9859
  880MPD2    H312911   1.168   3.695   0.771 -0.9162 -1.5485  0.3722
  880MPD2     N12912   0.822   3.433   0.594 -0.7662  0.1643 -0.0887
  880MPD2    H512913   0.727   3.434   0.559 -0.6423  0.0414 -0.4285
  880MPD2    N112914   0.814   3.926   0.625  0.5327  0.1820  0.6342
  880MPD2    H712915   0.872   4.003   0.655 -0.4688  0.9395  0.6015
  881MPD2     C12916   0.646   4.519  17.452 -0.3123  0.5799 -1.1440
  881MPD2    C112917   0.698   4.394  17.479  0.1708 -0.0778 -0.5962
  881MPD2    C212918   0.700   4.358  17.611 -0.1281  0.1450  0.6264
  881MPD2    C312919   0.632   4.433   0.008  0.1810 -0.1838  0.1534
  881MPD2    C412920   0.586   4.557  17.689  0.0190 -0.2648 -0.0402
  881MPD2    C512921   0.600   4.604  17.554 -0.5559 -0.7833  0.0803
  881MPD2     H12922   0.746   4.264  17.638 -1.1142 -0.2676  0.8731
  881MPD2    H112923   0.554   4.621   0.068  1.9719 -0.6256  1.0134
  881MPD2    H212924   0.674   4.564  17.358  0.3722  0.7642 -0.8554
  881MPD2    H312925   0.565   4.705  17.536 -0.1246 -0.5325  0.6551
  881MPD2     N12926   0.627   4.390   0.148  0.9596  0.0871 -0.1963
  881MPD2    H512927   0.607   4.463   0.215 -2.9503 -0.6188 -0.6306
  881MPD2    N112928   0.778   4.326  17.387  0.0258  0.7618  0.0518
  881MPD2    H712929   0.780   4.367  17.294  0.4683  0.3728 -0.1088
  882MPD2     C12930   3.694   1.645  14.517 -0.0614  0.2136  0.9241
  882MPD2    C112931   3.635   1.587  14.629  1.1044 -0.3559  0.1490
  882MPD2    C212932   3.499   1.551  14.626  1.0069 -0.1857 -0.1877
  882MPD2    C312933   3.432   1.553  14.503  0.7655 -0.6634 -0.2560
  882MPD2    C412934   3.495   1.604  14.389  0.1997  0.1542  0.0938
  882MPD2    C512935   3.617   1.655  14.399 -0.8152  0.3461  0.4092
  882MPD2     H12936   3.457   1.502  14.714 -2.4362  2.7878 -0.1650
  882MPD2    H112937   3.454   1.618  14.289 -2.6131  0.6685  1.3347
  882MPD2    H212938   3.796   1.681  14.518  0.2077 -0.5461  0.9810
  882MPD2    H312939   3.665   1.695  14.310  1.9386  0.9211  2.1522
  882MPD2     N12940   3.297   1.514  14.480 -0.0428 -0.1404 -0.1287
  882MPD2    H512941   3.271   1.530  14.383 -1.8119  0.4007  0.4388
  882MPD2    N112942   3.721   1.559  14.742 -0.5839  0.3546  0.3861
  882MPD2    H712943   3.819   1.583  14.727 -0.6442 -0.1891 -0.8861
  883MPD2     C12944   0.558   1.671  16.267 -0.1730  0.2984  0.1578
  883MPD2    C112945   0.629   1.728  16.168 -0.2596  0.2783  0.0342
  883MPD2    C212946   0.771   1.715  16.169  0.2868  0.0048 -1.1749
  883MPD2    C312947   0.834   1.657  16.278  0.3178  0.3058 -0.8444
  883MPD2    C412948   0.755   1.609  16.381 -0.4657  0.2859  0.8159
  883MPD2    C512949   0.614   1.614  16.377  0.4016  1.1306 -0.2331
  883MPD2     H12950   0.829   1.760  16.089 -0.5016  3.0822 -0.0204
  883MPD2    H112951   0.797   1.555  16.465  0.1884  1.8401  1.4821
  883MPD2    H212952   0.449   1.670  16.273 -0.2577 -0.6375 -1.6809
  883MPD2    H312953   0.550   1.553  16.439  1.1426  0.2281 -0.3606
  883MPD2     N12954   0.970   1.643  16.281 -0.3131 -0.3341 -0.4052
  883MPD2    H512955   1.016   1.593  16.357  1.0337  1.8104  0.1965
  883MPD2    N112956   0.572   1.801  16.060  0.0281 -0.0542 -0.1487
  883MPD2    H712957   0.632   1.841  15.989 -0.1110 -3.2724 -2.0863
  884MPD2     C12958   2.568   1.834  15.151  0.7767  0.2278 -0.0889
  884MPD2    C112959   2.516   1.915  15.048 -0.3925  0.2865 -0.4723
  884MPD2    C212960   2.392   1.983  15.060 -0.2165 -0.3818  0.0136
  884MPD2    C312961   2.328   1.985  15.184 -0.6460 -0.3758  0.1639
  884MPD2    C412962   2.375   1.895  15.279 -0.0738 -0.1878  0.0460
  884MPD2    C512963   2.492   1.827  15.259 -0.7019 -0.4412 -0.0362
  884MPD2     H12964   2.354   2.045  14.980  0.4631 -0.2770 -0.2333
  884MPD2    H112965   2.319   1.872  15.369 -0.1169 -2.6185 -0.6086
  884MPD2    H212966   2.654   1.767  15.150 -0.1204 -0.9213 -0.5417
  884MPD2    H312967   2.518   1.758  15.338 -1.3999 -0.7940 -0.1117
  884MPD2     N12968   2.206   2.061  15.203 -0.5328  0.1044  0.6282
  884MPD2    H512969   2.187   2.121  15.123  2.0133  2.0548  1.4874
  884MPD2    N112970   2.586   1.936  14.926 -0.1138 -0.0837  0.4342
  884MPD2    H712971   2.530   1.971  14.849  1.9826  0.6353 -0.7695
  885MPD2     C12972   0.709   1.586  17.534  0.6846 -0.0192  0.8934
  885MPD2    C112973   0.698   1.706  17.601 -0.6292  0.6508 -0.0167
  885MPD2    C212974   0.719   1.827  17.531 -0.9627 -0.2676 -0.4397
  885MPD2    C312975   0.728   1.828  17.394  0.0681 -0.5222  0.1529
  885MPD2    C412976   0.716   1.705  17.326 -0.2352 -0.1413  0.2290
  885MPD2    C512977   0.724   1.588  17.398  0.1311 -0.2507  1.0527
  885MPD2     H12978   0.733   1.917  17.589 -2.5815 -0.6957  0.6260
  885MPD2    H112979   0.722   1.701  17.218  0.3255 -1.8248  0.3249
  885MPD2    H212980   0.710   1.496  17.594 -0.8710 -0.0735  0.8378
  885MPD2    H312981   0.726   1.490  17.353  0.8712 -0.5914  1.8331
  885MPD2     N12982   0.764   1.944  17.324  0.0807 -0.2089  0.5366
  885MPD2    H512983   0.764   2.031  17.376 -1.5126 -0.2880  0.6428
  885MPD2    N112984   0.723   1.703   0.039  0.3981 -0.2844 -0.0867
  885MPD2    H712985   0.768   1.620   0.077  0.6521  0.5929  1.5399
  886MPD2     C12986   1.651   0.699  15.389 -0.6542 -0.1668  0.2600
  886MPD2    C112987   1.775   0.674  15.327 -0.0438 -0.0691 -0.1315
  886MPD2    C212988   1.847   0.773  15.273 -0.0340 -0.2218  0.1195
  886MPD2    C312989   1.808   0.903  15.280  0.8077 -0.2077  0.3335
  886MPD2    C412990   1.680   0.937  15.333  0.7426 -0.3266  0.1879
  886MPD2    C512991   1.606   0.834  15.383  0.0448  0.0728  0.7267
  886MPD2     H12992   1.950   0.764  15.240  0.0588 -0.0694  0.3681
  886MPD2    H112993   1.633   1.033  15.319 -1.9774 -1.3167  2.4692
  886MPD2    H212994   1.598   0.619  15.440  0.0735 -2.1758 -2.1277
  886MPD2    H312995   1.513   0.863  15.429 -0.6153  0.1880 -0.6895
  886MPD2     N12996   1.895   1.005  15.236  0.6043  0.3953 -0.2166
  886MPD2    H512997   1.992   0.983  15.215  0.6763  1.4777 -1.0452
  886MPD2    N112998   1.827   0.543  15.314 -0.0367  0.1728 -0.2207
  886MPD2    H712999   1.919   0.535  15.272 -0.1719  0.2534 -0.5338
  887MPD2     C13000   2.499   0.371  15.350  0.4801  0.4429  0.1063
  887MPD2    C113001   2.386   0.443  15.326 -0.4908 -0.4078  0.2887
  887MPD2    C213002   2.398   0.579  15.325 -0.3844 -0.4824 -0.0112
  887MPD2    C313003   2.521   0.646  15.349  0.0885 -0.5517 -0.3478
  887MPD2    C413004   2.631   0.569  15.379  0.0713  0.0229 -0.1806
  887MPD2    C513005   2.612   0.430  15.387  0.2581  0.1286 -0.5157
  887MPD2     H13006   2.308   0.636  15.306 -0.8345 -0.9046  0.8437
  887MPD2    H113007   2.731   0.607  15.400  0.2253 -0.9033  0.7396
  887MPD2    H213008   2.497   0.263  15.349  0.9767  0.4347  0.7329
  887MPD2    H313009   2.691   0.364  15.420 -2.5121 -2.4232  0.9308
  887MPD2     N13010   2.527   0.788  15.355  0.4624 -0.4135 -0.4835
  887MPD2    H513011   2.444   0.842  15.333 -0.0317 -1.0289 -0.1256
  887MPD2    N113012   2.253   0.388  15.313 -0.1458  0.2572  0.2409
  887MPD2    H713013   2.177   0.451  15.290 -1.2826 -0.8506  0.9961
  888MPD2     C13014   0.412   0.895  15.420  1.0885  0.4368 -0.7258
  888MPD2    C113015   0.279   0.921  15.386 -0.6484  0.3554  0.1840
  888MPD2    C213016   0.256   1.033  15.312 -0.3202 -0.7047  0.1117
  888MPD2    C313017   0.360   1.114  15.264  0.2515  0.5957  0.0405
  888MPD2    C413018   0.491   1.075  15.286 -0.0646  0.1731  0.4240
  888MPD2    C513019   0.509   0.963  15.360  0.4149 -0.3358  0.5861
  888MPD2     H13020   0.154   1.053  15.284  0.3269  1.2571 -0.8633
  888MPD2    H113021   0.578   1.124  15.244  0.3135  0.0950  1.1305
  888MPD2    H213022   0.457   0.809  15.469 -2.4672 -1.1710 -0.2897
  888MPD2    H313023   0.614   0.937  15.372  0.3428 -1.2742 -0.8732
  888MPD2     N13024   0.328   1.238  15.203 -0.0314 -0.2407 -0.4038
  888MPD2    H513025   0.232   1.268  15.217  0.1757  0.7222 -1.0553
  888MPD2    N113026   0.175   0.832  15.414 -0.4439  0.1828 -0.0936
  888MPD2    H713027   0.085   0.862  15.378 -1.3205 -0.6505  1.4019
  889MPD2     C13028   3.850   0.499  12.899 -0.3430 -0.7835 -0.0413
  889MPD2    C113029   3.961   0.466  12.976 -0.9603  0.4083  0.2653
  889MPD2    C213030   4.046   0.568  13.027  0.3447 -0.8224 -0.3062
  889MPD2    C313031   4.003   0.701  13.011 -0.4454  0.2268 -0.3318
  889MPD2    C413032   3.887   0.720  12.939 -0.3045 -0.7497  0.3445
  889MPD2    C513033   3.802   0.624  12.895  0.7865  0.1976 -0.2041
  889MPD2     H13034   4.118   0.538  13.102 -0.0402  1.9803  1.1974
  889MPD2    H113035   3.853   0.823  12.934 -0.0011 -0.7805 -2.4206
  889MPD2    H213036   3.790   0.425  12.847  1.2549 -0.8389 -1.8060
  889MPD2    H313037   3.710   0.649  12.843  1.2893  0.0856 -1.1421
  889MPD2     N13038   4.065   0.810  13.081 -0.6688  0.3047  0.2760
  889MPD2    H513039   4.116   0.791  13.167  1.1339  0.5044 -0.7654
  889MPD2    N113040   4.012   0.330  12.970 -0.2558 -0.3927  0.4828
  889MPD2    H713041   3.955   0.265  12.918  0.2137 -1.6452  1.5356
  890MPD2     C13042   3.736   2.042  14.708  0.1362 -0.7114  0.3193
  890MPD2    C113043   3.791   2.105  14.813  0.6887  0.1618  0.0569
  890MPD2    C213044   3.762   2.044  14.938  0.4411  0.4012  0.0300
  890MPD2    C313045   3.673   1.937  14.946 -0.5297  0.2220 -0.2193
  890MPD2    C413046   3.617   1.876  14.836  0.1182 -0.6354  0.5047
  890MPD2    C513047   3.657   1.934  14.715 -0.1677  0.5558 -0.6644
  890MPD2     H13048   3.803   2.087  15.029  0.1951  0.0395  0.3139
  890MPD2    H113049   3.546   1.794  14.838 -0.9931  0.3852  2.8203
  890MPD2    H213050   3.751   2.090  14.612 -1.7360  0.9015  0.8292
  890MPD2    H313051   3.622   1.885  14.625  2.5912 -2.2418 -0.2040
  890MPD2     N13052   3.662   1.891  15.075 -0.6812 -0.1103  0.0207
  890MPD2    H513053   3.721   1.937  15.144 -0.7189 -1.1776  0.7729
  890MPD2    N113054   3.862   2.233  14.796 -0.1874  0.4767  0.2546
  890MPD2    H713055   3.872   2.273  14.703 -0.6130  1.4369  0.6190
  891MPD2     C13056   1.603   1.007  16.048 -0.4420  0.1162 -0.6085
  891MPD2    C113057   1.535   0.942  16.152 -0.6364  0.1225 -0.0839
  891MPD2    C213058   1.601   0.883  16.263  0.9879 -0.1792  0.0242
  891MPD2    C313059   1.739   0.911  16.273 -0.5715  0.1577 -0.2663
  891MPD2    C413060   1.800   0.986  16.173 -0.1941  0.5255  0.6664
  891MPD2    C513061   1.736   1.023  16.059  0.7756  0.8960 -0.1358
  891MPD2     H13062   1.553   0.816  16.332 -0.0934  1.3631  0.7678
  891MPD2    H113063   1.907   1.001  16.175 -0.3006  1.4074 -0.8456
  891MPD2    H213064   1.557   1.060  15.965  3.2055 -0.5944 -3.1100
  891MPD2    H313065   1.790   1.081  15.984  1.7906  1.4512  1.0168
  891MPD2     N13066   1.805   0.853  16.385 -0.5651  0.1854  0.2314
  891MPD2    H513067   1.744   0.812  16.455  0.6403 -2.8949 -0.5502
  891MPD2    N113068   1.392   0.927  16.134 -0.2067  0.0264 -0.9143
  891MPD2    H713069   1.354   0.938  16.041  0.1966 -0.8021 -1.1790
  892MPD2     C13070   2.487   1.505  15.109  0.2932 -0.6544  0.0513
  892MPD2    C113071   2.442   1.548  14.985 -0.0118  0.2164  0.3470
  892MPD2    C213072   2.526   1.548  14.877  0.3204 -0.1512  0.3185
  892MPD2    C313073   2.654   1.496  14.897  0.4136  0.2669  0.3510
  892MPD2    C413074   2.693   1.464  15.023  0.8459 -0.3738 -0.2236
  892MPD2    C513075   2.610   1.467  15.128 -0.1238 -0.3490  0.3509
  892MPD2     H13076   2.495   1.573  14.776  1.4513  1.9754  0.5029
  892MPD2    H113077   2.798   1.438  15.033  1.1579  0.6795 -0.7182
  892MPD2    H213078   2.431   1.524  15.200  2.0543  1.6171  0.6738
  892MPD2    H313079   2.650   1.440  15.225 -1.7667 -0.9779  0.8547
  892MPD2     N13080   2.751   1.485  14.797  0.5787  0.5061  0.3286
  892MPD2    H513081   2.842   1.445  14.821 -1.0306 -3.8414 -0.7318
  892MPD2    N113082   2.313   1.610  14.977  0.6360  0.6532  0.7445
  892MPD2    H713083   2.296   1.657  14.889 -0.9971 -3.2161 -0.9741
  893MPD2     C13084   0.048   4.143   2.012  0.4581 -0.1276  0.0103
  893MPD2    C113085   0.143   4.238   1.988 -0.5583 -0.7050  0.2858
  893MPD2    C213086   0.277   4.202   1.989  1.2503  0.1509  0.3047
  893MPD2    C313087   0.307   4.072   2.032  0.5733  0.1868 -0.0724
  893MPD2    C413088   0.214   3.980   2.061  0.1802  0.9894  0.0537
  893MPD2    C513089   0.080   4.016   2.050  0.1025  0.6647 -0.7890
  893MPD2     H13090   0.355   4.273   1.962  1.6361 -0.9526 -1.5175
  893MPD2    H113091   0.245   3.883   2.099  0.8639  0.5733 -1.5378
  893MPD2    H213092   4.670   4.177   2.018  0.7125  0.5055  0.7432
  893MPD2    H313093   0.005   3.945   2.081 -0.1467  1.0128 -0.5902
  893MPD2     N13094   0.442   4.022   2.053 -0.5959  0.8267  0.7269
  893MPD2    H513095   0.462   3.924   2.073  0.5503  1.2216  1.4769
  893MPD2    N113096   0.087   4.364   1.961  0.2944 -0.4053 -0.4863
  893MPD2    H713097   4.711   4.367   1.963  0.3057 -0.8771  1.0761
  894MPD2     C13098   2.001   1.940   0.681  0.5460  0.4562 -0.6385
  894MPD2    C113099   1.994   2.013   0.800 -0.0878  0.0447  0.8912
  894MPD2    C213100   1.985   2.151   0.785 -0.5356 -0.0405 -0.2631
  894MPD2    C313101   1.959   2.219   0.672 -0.5615  0.2884  0.0075
  894MPD2    C413102   1.959   2.141   0.554 -0.3594 -0.0211 -0.3167
  894MPD2    C513103   1.983   2.007   0.566  0.0079 -0.1211  0.2915
  894MPD2     H13104   2.003   2.208   0.875  1.3186 -1.1390  0.0545
  894MPD2    H113105   1.950   2.173   0.451 -3.5072 -1.8645 -0.6250
  894MPD2    H213106   2.018   1.833   0.674  4.3007  1.0346 -0.1959
  894MPD2    H313107   1.992   1.952   0.473  0.2607  0.4701 -0.0390
  894MPD2     N13108   1.944   2.362   0.671 -0.3147 -0.0416  0.2297
  894MPD2    H513109   1.941   2.413   0.758 -1.3547  1.7839 -0.8668
  894MPD2    N113110   2.010   1.956   0.928 -0.1286  0.2461 -0.2704
  894MPD2    H713111   2.028   2.027   0.998 -0.9546 -1.0520  1.2630
  895MPD2     C13112   2.236   1.584  13.524 -0.2948 -0.0721  0.1925
  895MPD2    C113113   2.104   1.551  13.545 -0.1319 -0.5775  0.1894
  895MPD2    C213114   2.071   1.412  13.538 -0.6563 -0.3230 -0.6352
  895MPD2    C313115   2.164   1.314  13.528  0.5065  0.2699 -0.1656
  895MPD2    C413116   2.299   1.352  13.513  0.1123  0.2485  0.4747
  895MPD2    C513117   2.332   1.483  13.506  0.2719 -0.0223  0.1428
  895MPD2     H13118   1.968   1.380  13.535 -0.2321 -1.7705  0.5310
  895MPD2    H113119   2.381   1.281  13.501  0.1329  0.2816  0.4206
  895MPD2    H213120   2.263   1.689  13.519 -1.8667  0.3375  0.4622
  895MPD2    H313121   2.432   1.514  13.477  0.5449 -0.8771  0.1480
  895MPD2     N13122   2.111   1.185  13.523  0.3821 -0.6477 -0.5071
  895MPD2    H513123   2.010   1.190  13.521  0.3805 -0.9604 -1.2259
  895MPD2    N113124   1.992   1.630  13.561 -0.0152 -0.1217 -0.4250
  895MPD2    H713125   1.903   1.579  13.566 -0.7838  1.3163  0.5593
  896MPD2     C13126   3.950   3.545   1.031  0.2962 -0.5769  0.2001
  896MPD2    C113127   3.992   3.441   0.949 -0.3213  0.0956  0.3401
  896MPD2    C213128   3.901   3.376   0.866  0.0692 -0.2428  0.5964
  896MPD2    C313129   3.770   3.421   0.873  0.4717 -0.5185 -0.0504
  896MPD2    C413130   3.724   3.527   0.948 -0.5048  0.7868  0.9155
  896MPD2    C513131   3.821   3.593   1.018  0.2022 -0.1048  0.5619
  896MPD2     H13132   3.931   3.295   0.801 -0.8412  0.4803 -0.7062
  896MPD2    H113133   3.623   3.565   0.946  0.0073  2.0187 -1.8056
  896MPD2    H213134   4.013   3.613   1.087  1.1998 -1.2714  0.0242
  896MPD2    H313135   3.782   3.662   1.092  0.7982  0.5586  0.2591
  896MPD2     N13136   3.670   3.348   0.802  0.3906 -0.2273 -0.1297
  896MPD2    H513137   3.699   3.264   0.753  2.2339  1.1781 -1.4728
  896MPD2    N113138   4.128   3.412   0.942 -0.0535  0.8576 -0.2579
  896MPD2    H713139   4.184   3.456   1.014  1.3450 -1.3267 -0.0057
  897MPD2     C13140   0.594   4.525  11.034 -0.3655 -0.8103  0.7398
  897MPD2    C113141   0.531   4.543  10.912  0.3414 -0.0293  0.5728
  897MPD2    C213142   0.409   4.478  10.882  0.1730 -0.1800  0.6284
  897MPD2    C313143   0.344   4.418  10.987 -0.0074  0.0091 -0.6553
  897MPD2    C413144   0.409   4.393  11.102 -0.3572 -0.3062  0.0178
  897MPD2    C513145   0.533   4.448  11.126 -0.6911  0.0124 -0.1890
  897MPD2     H13146   0.354   4.513  10.795  0.2105 -3.0691 -0.5427
  897MPD2    H113147   0.370   4.334  11.184  1.1088 -1.5334 -0.1629
  897MPD2    H213148   0.691   4.565  11.062 -1.0888  2.2269 -1.1909
  897MPD2    H313149   0.580   4.438  11.224  1.4314 -0.8703 -1.2980
  897MPD2     N13150   0.212   4.368  10.970  0.0778 -0.1906  0.2265
  897MPD2    H513151   0.171   4.342  11.059 -0.2626  0.6282  0.3111
  897MPD2    N113152   0.590   4.635  10.821 -0.5129  0.0308 -0.7652
  897MPD2    H713153   0.533   4.662  10.741  0.2869  3.0294 -0.3228
  898MPD2     C13154   3.171   1.245  17.449  0.1738  0.4035  0.1317
  898MPD2    C113155   3.036   1.219  17.490  0.8424  0.3305 -0.4332
  898MPD2    C213156   2.931   1.254  17.410  0.4671 -0.0137  0.0220
  898MPD2    C313157   2.955   1.322  17.294 -0.1268  0.3982 -0.1295
  898MPD2    C413158   3.081   1.339  17.250  0.1176  0.7180  0.1409
  898MPD2    C513159   3.182   1.293  17.322 -0.1199 -0.4774 -0.0743
  898MPD2     H13160   2.827   1.252  17.441  0.7644 -1.0881  0.9379
  898MPD2    H113161   3.102   1.379  17.151 -0.4084 -1.3003 -0.7822
  898MPD2    H213162   3.261   1.217  17.501 -0.3892 -1.9010 -0.1209
  898MPD2    H313163   3.276   1.309  17.272 -0.3089 -0.7448 -0.5106
  898MPD2     N13164   2.841   1.370  17.229 -0.1329 -0.1414  0.3906
  898MPD2    H513165   2.754   1.353  17.280  0.0280  0.0398  0.7236
  898MPD2    N113166   3.001   1.137  17.606 -0.0336 -0.0753  0.4150
  898MPD2    H713167   2.902   1.125  17.625 -0.2266  1.8068  0.6109
  899MPD2     C13168   3.518   1.733  17.497 -0.1439 -0.8953 -0.1628
  899MPD2    C113169   3.470   1.777  17.378 -0.0460  0.2308 -0.2953
  899MPD2    C213170   3.339   1.745  17.347 -0.2672  0.2843 -0.4994
  899MPD2    C313171   3.257   1.678  17.433 -0.6315  0.6433 -0.3437
  899MPD2    C413172   3.311   1.627  17.554 -0.0074 -0.0986  0.3014
  899MPD2    C513173   3.440   1.661  17.588 -0.3036  0.5752 -0.7832
  899MPD2     H13174   3.300   1.779  17.252  0.2193 -2.5309 -1.7215
  899MPD2    H113175   3.258   1.561  17.623 -2.1300  1.3463  0.0586
  899MPD2    H213176   3.618   1.754  17.535 -0.4951 -1.1685  0.9315
  899MPD2    H313177   3.495   1.626  17.675 -2.2518  0.0055  0.1979
  899MPD2     N13178   3.123   1.656  17.408 -0.0373 -0.4847 -1.3464
  899MPD2    H513179   3.061   1.622  17.481 -0.3253  1.0526 -0.8938
  899MPD2    N113180   3.552   1.848  17.297 -0.2837 -0.1655  0.3768
  899MPD2    H713181   3.628   1.892  17.347 -1.2506  1.7198  0.1793
  900MPD2     C13182   2.573   3.703  12.432 -1.0411  0.4695 -0.3370
  900MPD2    C113183   2.572   3.614  12.331  0.4173  0.1757  0.3010
  900MPD2    C213184   2.482   3.628  12.224 -0.0562  0.3936 -0.0636
  900MPD2    C313185   2.385   3.725  12.234  0.0340  0.0182  0.4727
  900MPD2    C413186   2.376   3.806  12.344  0.3153 -0.5896  0.3043
  900MPD2    C513187   2.478   3.801  12.434 -0.0560 -0.0428  0.7125
  900MPD2     H13188   2.487   3.555  12.143 -0.9865  0.5309 -0.2494
  900MPD2    H113189   2.299   3.878  12.367  0.1802 -0.0890 -1.6592
  900MPD2    H213190   2.643   3.694  12.514 -2.0082 -1.3653  0.3001
  900MPD2    H313191   2.475   3.860  12.525  0.1889  0.4438  0.4042
  900MPD2     N13192   2.288   3.739  12.134  0.2435 -0.3224  0.6015
  900MPD2    H513193   2.297   3.690  12.045 -2.5542 -2.9080  1.7312
  900MPD2    N113194   2.667   3.508  12.344  0.0922  0.4007  0.0032
  900MPD2    H713195   2.736   3.522  12.417  0.9091 -0.8172 -0.5220
  901MPD2     C13196   3.091   2.879  12.997 -0.0077 -0.1783 -0.3206
  901MPD2    C113197   3.079   2.798  12.888 -0.1961  0.2049 -0.5814
  901MPD2    C213198   3.007   2.847  12.782  0.1856 -0.2632 -0.4464
  901MPD2    C313199   2.964   2.976  12.779 -0.8429  0.3198  0.3076
  901MPD2    C413200   2.982   3.059  12.889  0.4151  0.0119 -0.2705
  901MPD2    C513201   3.041   3.009  13.000 -0.8759  0.3960  0.1270
  901MPD2     H13202   2.999   2.791  12.690 -0.4086  0.3628 -0.7790
  901MPD2    H113203   2.946   3.161  12.882  4.3353  1.4733  1.2363
  901MPD2    H213204   3.148   2.853  13.085 -1.9037 -0.9813  0.6505
  901MPD2    H313205   3.054   3.066  13.091 -1.0294  0.8971 -0.1617
  901MPD2     N13206   2.915   3.023  12.654  0.3291  0.4872 -0.2460
  901MPD2    H513207   2.899   2.949  12.587 -0.0220  0.7392 -0.4418
  901MPD2    N113208   3.150   2.677  12.897  0.5717 -0.1765 -0.2186
  901MPD2    H713209   3.199   2.658  12.984 -0.7598 -1.2579  0.2949
  902MPD2     C13210   2.315   0.720  12.441  0.7901  0.1568 -0.5298
  902MPD2    C113211   2.347   0.770  12.316 -0.2377  0.2330  0.1038
  902MPD2    C213212   2.437   0.703  12.238  0.1418 -0.7214 -0.1843
  902MPD2    C313213   2.476   0.572  12.269  0.2570 -0.3360  0.2119
  902MPD2    C413214   2.444   0.515  12.394 -0.5256 -0.0224 -0.2072
  902MPD2    C513215   2.368   0.596  12.477  0.2166 -0.0600 -0.2117
  902MPD2     H13216   2.488   0.746  12.153 -1.0816 -0.0383 -0.5742
  902MPD2    H113217   2.490   0.426  12.435  1.3506  0.0260 -2.1868
  902MPD2    H213218   2.268   0.782  12.516  0.5632 -1.3913  0.5953
  902MPD2    H313219   2.336   0.549  12.569 -0.9295 -1.4942 -1.3546
  902MPD2     N13220   2.558   0.509  12.177  0.0770  0.5011  0.3068
  902MPD2    H513221   2.575   0.559  12.090  1.8106  0.2480  0.4901
  902MPD2    N113222   2.286   0.891  12.282 -0.1947 -0.1394  0.5110
  902MPD2    H713223   2.208   0.926  12.337 -0.2582  1.8705 -0.8651
  903MPD2     C13224   2.558   0.754  11.527  0.5362 -1.0574  0.3568
  903MPD2    C113225   2.555   0.714  11.657 -0.4551  1.3742  0.2992
  903MPD2    C213226   2.425   0.711  11.716 -0.3819 -0.7049 -0.4118
  903MPD2    C313227   2.309   0.750  11.657 -0.3689  0.1544  0.4744
  903MPD2    C413228   2.327   0.811  11.530 -0.3726 -0.3660  0.0126
  903MPD2    C513229   2.450   0.808  11.467 -0.5513  0.5497  0.4963
  903MPD2     H13230   2.405   0.677  11.817 -0.4979  1.9549  0.4764
  903MPD2    H113231   2.248   0.868  11.482 -1.0701 -0.3907  1.1489
  903MPD2    H213232   2.647   0.740  11.468 -1.1945 -1.2969 -2.1752
  903MPD2    H313233   2.464   0.857  11.372 -0.4550 -3.3291 -1.4909
  903MPD2     N13234   2.182   0.743  11.716  0.2367  0.4500  0.5664
  903MPD2    H513235   2.189   0.710  11.812 -2.8735 -1.5055  0.1103
  903MPD2    N113236   2.674   0.664  11.717  0.5311 -0.0578  0.5873
  903MPD2    H713237   2.754   0.637  11.660 -1.7230  1.0064 -3.1028
  904MPD2     C13238   1.643   0.487  13.641 -0.3088 -0.5594 -0.0795
  904MPD2    C113239   1.671   0.398  13.740 -0.3202  0.1185 -0.6687
  904MPD2    C213240   1.797   0.403  13.798 -0.1868  0.3710 -0.1925
  904MPD2    C313241   1.884   0.508  13.781 -0.1379 -0.5670  0.0009
  904MPD2    C413242   1.839   0.616  13.696  0.8111 -0.0812 -0.4990
  904MPD2    C513243   1.716   0.599  13.630 -0.4345  0.6440  0.4862
  904MPD2     H13244   1.832   0.314  13.850 -0.8920 -0.4034 -1.0291
  904MPD2    H113245   1.903   0.701  13.676  2.5172 -1.0052  0.9811
  904MPD2    H213246   1.554   0.483  13.578 -1.7058 -0.9388  1.9142
  904MPD2    H313247   1.693   0.676  13.557 -1.7738  0.9636  1.2589
  904MPD2     N13248   2.003   0.511  13.855  0.1394 -0.1083  0.1877
  904MPD2    H513249   2.014   0.442  13.929  4.2750 -0.6880 -0.9449
  904MPD2    N113250   1.586   0.285  13.773 -0.3085  0.2718  0.2651
  904MPD2    H713251   1.629   0.197  13.800  1.4104  0.9384 -0.2802
  905MPD2     C13252   1.297   0.640  13.283 -0.5931  0.7509 -1.1374
  905MPD2    C113253   1.345   0.700  13.399 -0.7189  0.9180  0.4184
  905MPD2    C213254   1.469   0.761  13.397 -0.3335  0.0429 -0.1735
  905MPD2    C313255   1.546   0.775  13.283  0.4874  0.6351 -0.2279
  905MPD2    C413256   1.500   0.710  13.164  0.3267 -0.6698  0.0436
  905MPD2    C513257   1.376   0.649  13.169  0.1153 -0.1600 -0.7269
  905MPD2     H13258   1.505   0.793  13.495  1.3948 -0.4875 -0.6433
  905MPD2    H113259   1.560   0.700  13.074  1.3665  0.9824  0.5627
  905MPD2    H213260   1.206   0.581  13.271  0.3598 -0.9214 -0.0874
  905MPD2    H313261   1.330   0.597  13.085  1.3911  1.0270 -2.1572
  905MPD2     N13262   1.685   0.815  13.278 -0.6257 -0.3380 -0.0258
  905MPD2    H513263   1.739   0.800  13.193 -1.0860  2.1917 -0.7875
  905MPD2    N113264   1.283   0.684  13.524 -0.0201 -0.5741 -1.0103
  905MPD2    H713265   1.324   0.737  13.600 -0.3991  1.0307 -1.9401
  906MPD2     C13266   3.840   0.142  11.242  0.5761  0.5170  0.2783
  906MPD2    C113267   3.767   0.052  11.163  0.0189 -0.1781 -0.3039
  906MPD2    C213268   3.676   4.696  11.233 -0.3818 -0.4098  0.7546
  906MPD2    C313269   3.662   4.699  11.371 -0.1031 -0.3547  0.0003
  906MPD2    C413270   3.736   0.064  11.439  0.0236  0.2371  0.5478
  906MPD2    C513271   3.828   0.148  11.381  0.3968 -0.5773 -0.1630
  906MPD2     H13272   3.602   4.633  11.186  0.7139 -0.9795 -0.1856
  906MPD2    H113273   3.717   0.093  11.542 -1.5761  1.7642 -0.1756
  906MPD2    H213274   3.909   0.213  11.196  0.6727  0.0212 -0.3439
  906MPD2    H313275   3.877   0.234  11.427 -1.1423  1.0809 -1.6458
  906MPD2     N13276   3.565   4.613  11.431  0.4239  0.5466 -0.3634
  906MPD2    H513277   3.519   4.551  11.364 -1.8725 -0.0411  1.7519
  906MPD2    N113278   3.772   0.043  11.022  0.8051 -0.0783 -0.0583
  906MPD2    H713279   3.721   4.687  10.989  1.0643 -0.0133 -0.6297
  907MPD2     C13280   2.702   4.135  15.311  0.3358  0.1336 -0.7514
  907MPD2    C113281   2.789   4.043  15.261 -0.7411  0.9486  0.1940
  907MPD2    C213282   2.915   4.017  15.322 -0.1871  0.2002  0.0901
  907MPD2    C313283   2.956   4.093  15.427 -0.1569 -0.0149 -0.2844
  907MPD2    C413284   2.863   4.178  15.487  0.3626 -0.1039 -0.0986
  907MPD2    C513285   2.740   4.201  15.425 -0.7081 -0.1959 -0.2043
  907MPD2     H13286   2.985   3.953  15.270  0.0701  1.3801 -1.0117
  907MPD2    H113287   2.897   4.249  15.561  0.5703  0.0344 -0.3245
  907MPD2    H213288   2.605   4.156  15.266  0.7008  0.4404 -1.4000
  907MPD2    H313289   2.671   4.276  15.463  0.5358  0.9545 -0.2547
  907MPD2     N13290   3.076   4.068  15.488 -0.3621 -0.3021  0.1355
  907MPD2    H513291   3.141   4.012  15.433  0.4598 -0.7773  1.5792
  907MPD2    N113292   2.757   3.954  15.151 -0.4535  1.3529  0.8531
  907MPD2    H713293   2.820   3.879  15.125  0.4220  2.3407  0.1514
  908MPD2     C13294   0.117   0.624  10.589 -0.2320 -0.4742  0.1213
  908MPD2    C113295   0.146   0.525  10.498  0.3270  0.4004  0.2831
  908MPD2    C213296   0.257   0.449  10.528 -0.3860 -0.0403  0.3330
  908MPD2    C313297   0.347   0.475  10.639 -0.6164  0.3272 -0.5376
  908MPD2    C413298   0.298   0.562  10.735  0.9962  0.0612 -0.3110
  908MPD2    C513299   0.185   0.637  10.704  0.0391  0.8846 -0.2756
  908MPD2     H13300   0.290   0.363  10.470 -1.9381 -0.8023  0.5693
  908MPD2    H113301   0.350   0.581  10.828  1.3661  0.3786 -0.5816
  908MPD2    H213302   0.032   0.690  10.581 -0.0563 -0.0300  1.9705
  908MPD2    H313303   0.158   0.712  10.777  2.4885  0.5451  0.9763
  908MPD2     N13304   0.463   0.394  10.648 -0.1480  0.7096 -0.3743
  908MPD2    H513305   0.488   0.336  10.568  0.2360  2.6305 -1.6402
  908MPD2    N113306   0.073   0.515  10.377 -0.5716 -0.0330 -0.4688
  908MPD2    H713307   0.002   0.586  10.363  0.2581  0.8930  0.0071
  909MPD2     C13308   1.065   2.608  11.619 -0.1690 -0.4836 -0.4566
  909MPD2    C113309   0.999   2.704  11.544 -0.4360  1.3700  0.5813
  909MPD2    C213310   0.934   2.808  11.605 -0.3929 -0.0491  0.3577
  909MPD2    C313311   0.946   2.834  11.738 -0.0392 -0.0675  0.8166
  909MPD2    C413312   1.020   2.744  11.810 -0.2829 -0.8977 -0.1554
  909MPD2    C513313   1.083   2.634  11.752  0.1318 -0.5747  0.0623
  909MPD2     H13314   0.870   2.874  11.547  0.8138  1.3272  0.5800
  909MPD2    H113315   1.017   2.746  11.918 -0.3240 -2.1727 -0.1310
  909MPD2    H213316   1.114   2.524  11.571  0.6949 -0.2573  0.0238
  909MPD2    H313317   1.131   2.561  11.817  0.1839  0.6033  1.3497
  909MPD2     N13318   0.880   2.947  11.798  0.2228  0.3233 -0.4981
  909MPD2    H513319   0.826   3.005  11.735  1.1121  0.1195 -1.4461
  909MPD2    N113320   1.005   2.703  11.403  0.2447 -0.1009  0.5921
  909MPD2    H713321   0.976   2.788  11.355  1.7964  2.0858  3.5325
  910MPD2     C13322   2.122   4.308  15.706 -0.3718 -0.5931  0.1141
  910MPD2    C113323   2.176   4.267  15.590 -0.0786 -0.4361  0.2295
  910MPD2    C213324   2.134   4.323  15.471 -0.5402  0.2331 -0.0859
  910MPD2    C313325   2.033   4.412  15.464 -0.0279 -0.6448  0.1153
  910MPD2    C413326   1.972   4.447  15.585  0.0602  0.3303 -0.1986
  910MPD2    C513327   2.021   4.401  15.701  0.7322 -0.2873 -0.2775
  910MPD2     H13328   2.173   4.286  15.377  0.6949 -0.5512  0.7370
  910MPD2    H113329   1.883   4.507  15.597 -0.4434 -0.3692 -0.3725
  910MPD2    H213330   2.156   4.268  15.801  1.3734 -2.6727 -1.3772
  910MPD2    H313331   1.975   4.436  15.793  3.7265 -0.6126  1.3549
  910MPD2     N13332   1.990   4.466  15.335 -0.9825  0.3661 -1.0162
  910MPD2    H513333   1.897   4.507  15.333 -0.6038  1.2431 -0.4891
  910MPD2    N113334   2.293   4.187  15.596  0.0393  0.5521 -0.0202
  910MPD2    H713335   2.337   4.173  15.686  1.6679  1.6192 -0.6407
  911MPD2     C13336   4.641   0.011  16.897 -0.4091 -0.3364  0.4199
  911MPD2    C113337   4.704   0.115  16.830  0.1249  0.0231  0.4694
  911MPD2    C213338   4.635   0.233  16.795 -0.1489  0.3817 -0.1404
  911MPD2    C313339   4.495   0.240  16.822  0.2540 -0.2337 -1.0128
  911MPD2    C413340   4.432   0.134  16.885  0.2693 -0.0333  0.9272
  911MPD2    C513341   4.510   0.031  16.922  0.0021  0.2142 -1.1741
  911MPD2     H13342   4.678   0.315  16.738 -1.2196  0.9651 -0.1101
  911MPD2    H113343   4.326   0.127  16.908 -0.2189 -0.3879 -1.4585
  911MPD2    H213344   4.688   4.641  16.915  1.1366  0.4739  0.6810
  911MPD2    H313345   4.457   4.671  16.963 -2.2807  2.9612  1.5184
  911MPD2     N13346   4.420   0.340  16.759  0.0231  0.3296  0.1326
  911MPD2    H513347   4.324   0.343  16.791  0.3799  1.6227  1.1245
  911MPD2    N113348   0.120   0.107  16.811 -0.1311 -0.2745 -0.6583
  911MPD2    H713349   0.152   0.011  16.805 -2.1633 -0.9529 -0.6831
  912MPD2     C13350   3.959   0.215  16.096 -0.2551  0.1195  0.2741
  912MPD2    C113351   3.987   0.214  16.232 -0.1451  0.3565  0.1080
  912MPD2    C213352   3.969   0.094  16.296 -0.2332 -0.2960 -0.0932
  912MPD2    C313353   3.924   4.705  16.232 -0.3903  0.6975  0.3197
  912MPD2    C413354   3.906   4.704  16.092 -0.4700 -0.3161  0.1957
  912MPD2    C513355   3.919   0.103  16.031  0.0530 -0.2473  0.4058
  912MPD2     H13356   3.993   0.094  16.401  2.2717  3.4764 -0.6681
  912MPD2    H113357   3.896   4.615  16.030  0.5278  0.8456 -1.6528
  912MPD2    H213358   3.980   0.305  16.040  1.3322 -1.0462 -1.0081
  912MPD2    H313359   3.901   0.117  15.925  1.0934  0.7781  0.3633
  912MPD2     N13360   3.907   4.594  16.314 -0.0850  0.0672 -0.0671
  912MPD2    H513361   3.914   4.610  16.414 -1.5325  1.5181 -0.1992
  912MPD2    N113362   4.036   0.333  16.293  0.9813  0.3352 -0.1073
  912MPD2    H713363   4.050   0.418  16.239 -0.0359  1.0649  0.7664
  913MPD2     C13364   0.468   1.187  10.169 -0.0048 -0.0186  0.4032
  913MPD2    C113365   0.482   1.256  10.288 -0.4104 -0.1295  0.0191
  913MPD2    C213366   0.408   1.371  10.316  0.3612  0.5162  0.9098
  913MPD2    C313367   0.327   1.425  10.215 -0.2606 -0.3991 -0.4313
  913MPD2    C413368   0.304   1.343  10.106 -0.0043 -0.0283  0.3238
  913MPD2    C513369   0.372   1.229  10.086 -0.0733 -0.2758  0.4332
  913MPD2     H13370   0.420   1.418  10.412  0.0243 -0.6815  1.5428
  913MPD2    H113371   0.235   1.378  10.030  0.5490  0.5310  0.0788
  913MPD2    H213372   0.505   1.088  10.144  0.8269  1.1262 -2.8428
  913MPD2    H313373   0.351   1.169   9.999  0.3226  2.9138 -1.8591
  913MPD2     N13374   0.285   1.563  10.217 -0.3031  0.0900 -0.3217
  913MPD2    H513375   0.231   1.597  10.138 -2.5378 -0.1780  1.0860
  913MPD2    N113376   0.581   1.209  10.378  0.0295  0.1602 -0.5456
  913MPD2    H713377   0.641   1.135  10.341  0.1035  0.3909 -0.8900
  914MPD2     C13378   3.437   1.932  12.215 -0.9128  1.1371 -0.6236
  914MPD2    C113379   3.334   2.030  12.211  0.3251  0.3738 -0.3375
  914MPD2    C213380   3.316   2.123  12.314  1.0320 -0.1887 -0.1321
  914MPD2    C313381   3.394   2.115  12.431  0.9110  0.3202 -0.8490
  914MPD2    C413382   3.484   2.014  12.435 -0.6866 -0.0995  0.5578
  914MPD2    C513383   3.510   1.930  12.331  0.1718  0.8169 -0.6239
  914MPD2     H13384   3.255   2.211  12.299 -0.7637 -1.8353 -2.4678
  914MPD2    H113385   3.557   2.004  12.515  0.6005 -1.3934 -0.7860
  914MPD2    H213386   3.460   1.860  12.137 -0.5738 -2.2353  2.5993
  914MPD2    H313387   3.588   1.855  12.329 -0.6220 -0.0032 -0.8561
  914MPD2     N13388   3.374   2.216  12.532 -0.1049 -0.5033 -0.4776
  914MPD2    H513389   3.310   2.288  12.499 -2.5237 -2.6658 -0.5372
  914MPD2    N113390   3.251   2.036  12.091 -0.1704  0.8557 -0.4903
  914MPD2    H713391   3.275   1.972  12.015 -0.1815 -0.2110  0.4150
  915MPD2     C13392   1.148   2.039  15.703  0.2414  0.4497  0.0766
  915MPD2    C113393   1.085   2.147  15.651  0.3568 -0.6670 -0.2660
  915MPD2    C213394   1.018   2.226  15.735 -1.0345  0.0268  0.2071
  915MPD2    C313395   1.015   2.204  15.873 -0.0548  0.3708 -0.3687
  915MPD2    C413396   1.099   2.100  15.922  0.0611 -0.2599 -0.1305
  915MPD2    C513397   1.160   2.018  15.834  0.5651 -0.3682 -0.6207
  915MPD2     H13398   0.971   2.317  15.698  0.2969  0.7778  0.3624
  915MPD2    H113399   1.101   2.085  16.029 -2.4137  2.8435  0.3594
  915MPD2    H213400   1.209   1.977  15.639 -1.7034 -0.9536 -0.4216
  915MPD2    H313401   1.209   1.927  15.868  2.1807  0.6168 -0.3345
  915MPD2     N13402   0.947   2.304  15.953 -0.5192  0.3487 -0.3863
  915MPD2    H513403   0.890   2.366  15.897  0.3903  1.6179  0.1136
  915MPD2    N113404   1.109   2.167  15.512 -0.4187  0.5172 -0.3434
  915MPD2    H713405   1.152   2.093  15.458 -0.6510 -1.3907  2.1063
  916MPD2     C13406   3.680   0.225  15.637 -0.6548 -0.0122  0.0095
  916MPD2    C113407   3.695   0.094  15.679 -0.2785  0.2918  0.1630
  916MPD2    C213408   3.758   0.015  15.591 -0.4582 -0.1676 -0.3984
  916MPD2    C313409   3.788   0.050  15.468  0.0964  0.1297 -1.0058
  916MPD2    C413410   3.789   0.182  15.429  0.4296  0.0337  0.2457
  916MPD2    C513411   3.727   0.267  15.515 -0.1953  0.3304 -0.2544
  916MPD2     H13412   3.763   4.634  15.609 -3.2115  0.1035  2.0104
  916MPD2    H113413   3.831   0.223  15.338  2.3987 -2.0738  0.2100
  916MPD2    H213414   3.637   0.300  15.704  1.2928  0.2254  0.9908
  916MPD2    H313415   3.737   0.374  15.501  1.1879  0.6227  2.9936
  916MPD2     N13416   3.837   4.674  15.389  0.2296 -0.0689 -0.4945
  916MPD2    H513417   3.849   4.582  15.429 -0.5740 -0.4691 -1.1751
  916MPD2    N113418   3.642   0.060  15.804 -0.0856  0.3061  0.6547
  916MPD2    H713419   3.583   0.126  15.854 -2.7105 -0.3530 -1.5708
  917MPD2     C13420   4.497   2.445  11.067  0.3998 -0.1493  0.1506
  917MPD2    C113421   4.517   2.516  11.183 -0.2935 -0.2114  0.0912
  917MPD2    C213422   4.578   2.644  11.166 -0.5609 -0.0441 -0.0540
  917MPD2    C313423   4.636   2.692  11.051 -0.5591 -0.0571  0.7750
  917MPD2    C413424   4.616   2.616  10.938 -0.1123 -0.0399 -0.3660
  917MPD2    C513425   4.548   2.496  10.949  0.3347  0.2527  0.7576
  917MPD2     H13426   4.579   2.719  11.245 -1.0637  0.4970 -0.5665
  917MPD2    H113427   4.671   2.650  10.851  0.5135  0.5242  0.2466
  917MPD2    H213428   4.430   2.361  11.052  2.0605 -1.0557 -2.3166
  917MPD2    H313429   4.534   2.443  10.855 -1.1680  0.0096  1.1065
  917MPD2     N13430   4.693   2.826  11.044 -1.1636 -0.2724  0.0382
  917MPD2    H513431   4.711   2.861  10.950  2.4019  1.2419  1.2955
  917MPD2    N113432   4.457   2.472  11.308 -0.7042  0.2731  0.6787
  917MPD2    H713433   4.415   2.380  11.312 -1.5191  0.6834  1.4817
  918MPD2     C13434   4.391   2.753  12.303 -0.2809  0.7955 -0.7880
  918MPD2    C113435   4.482   2.786  12.208  0.0836 -0.5655  0.6207
  918MPD2    C213436   4.458   2.749  12.079  0.3501  0.0690 -0.2500
  918MPD2    C313437   4.351   2.662  12.041  0.0516 -0.2176 -0.7049
  918MPD2    C413438   4.255   2.629  12.140  0.4256  0.3328 -0.3193
  918MPD2    C513439   4.291   2.672  12.270  0.0231 -0.2682 -0.0192
  918MPD2     H13440   4.519   2.787  11.998  0.1449 -2.0474 -1.3746
  918MPD2    H113441   4.171   2.562  12.120  0.0227  0.6584  0.3113
  918MPD2    H213442   4.418   2.782  12.404  1.1848  1.3981 -1.3450
  918MPD2    H313443   4.219   2.636  12.343 -1.8215  3.8242  0.2115
  918MPD2     N13444   4.347   2.610  11.906 -0.1823 -0.0620 -0.1859
  918MPD2    H513445   4.414   2.652  11.842  0.6610  0.7697  1.2444
  918MPD2    N113446   4.588   2.867  12.257  0.6661  0.2790 -0.5666
  918MPD2    H713447   4.593   2.878  12.358 -4.3707 -0.6181 -0.2082
  919MPD2     C13448   0.487   1.817  11.733  0.2337  0.5933  0.3709
  919MPD2    C113449   0.491   1.683  11.722  0.0404 -0.5164 -0.0017
  919MPD2    C213450   0.518   1.635  11.597  0.4640  0.0297  0.5827
  919MPD2    C313451   0.551   1.713  11.485 -0.4006  1.0047 -0.7286
  919MPD2    C413452   0.551   1.847  11.502  0.2517  0.2279  0.1936
  919MPD2    C513453   0.520   1.895  11.632  0.5302 -0.4940 -0.5900
  919MPD2     H13454   0.496   1.529  11.587 -0.5823  0.2389  0.6520
  919MPD2    H113455   0.573   1.925  11.431  0.1029  0.6394  0.5991
  919MPD2    H213456   0.445   1.869  11.820 -0.8564  1.0939 -0.4537
  919MPD2    H313457   0.506   2.002  11.631 -0.6252 -0.6402 -0.4424
  919MPD2     N13458   0.583   1.667  11.359 -0.0940  0.7424 -0.2448
  919MPD2    H513459   0.595   1.734  11.284  1.9459  0.0230 -0.5385
  919MPD2    N113460   0.453   1.599  11.831  0.0865  0.1827 -0.3858
  919MPD2    H713461   0.450   1.503  11.800 -1.0560 -0.4630  1.6834
  920MPD2     C13462   0.070   1.674  10.562 -0.0175 -0.2940 -0.5209
  920MPD2    C113463   0.121   1.543  10.563 -0.0527  0.1747  0.4249
  920MPD2    C213464   0.231   1.512  10.637  0.3401  0.4854 -0.2573
  920MPD2    C313465   0.301   1.607  10.714  0.0802  0.5458  0.1048
  920MPD2    C413466   0.253   1.738  10.709  0.1240 -0.2451  0.3257
  920MPD2    C513467   0.135   1.762  10.647 -0.3027 -0.3202 -0.5424
  920MPD2     H13468   0.277   1.414  10.633 -0.3092  0.2498 -1.9753
  920MPD2    H113469   0.308   1.819  10.755 -3.2397  0.5532  2.9953
  920MPD2    H213470   4.710   1.712  10.507  1.4936  0.7731 -2.1020
  920MPD2    H313471   0.096   1.862  10.661  2.7439  0.8242 -0.2265
  920MPD2     N13472   0.409   1.558  10.784 -0.4094 -0.2495  0.1345
  920MPD2    H513473   0.418   1.457  10.786 -1.7061 -0.3532  0.9695
  920MPD2    N113474   0.074   1.448  10.474  0.5024 -0.0840  0.2036
  920MPD2    H713475   0.125   1.361  10.487  2.1409  0.7380 -0.6161
  921MPD2     C13476   0.537   0.944  16.517  0.4591 -0.0582  0.1278
  921MPD2    C113477   0.628   0.851  16.477  0.4129 -0.2259  0.5799
  921MPD2    C213478   0.602   0.716  16.504  0.4230  0.9014  0.4789
  921MPD2    C313479   0.492   0.671  16.574  0.0497 -0.0712  0.4545
  921MPD2    C413480   0.403   0.769  16.616 -0.3956 -0.9346  0.3897
  921MPD2    C513481   0.420   0.903  16.582 -0.0244  0.1919  0.3658
  921MPD2     H13482   0.670   0.642  16.464  0.9778  0.4403  2.2976
  921MPD2    H113483   0.308   0.737  16.658 -1.2977 -0.4089 -1.2597
  921MPD2    H213484   0.544   1.052  16.504 -1.9568  0.0717  0.0279
  921MPD2    H313485   0.345   0.970  16.622  0.8550 -1.0069  4.0080
  921MPD2     N13486   0.453   0.537  16.583 -0.1243 -0.0453 -0.7203
  921MPD2    H513487   0.372   0.535  16.644  0.6220 -0.0829  0.2726
  921MPD2    N113488   0.744   0.903  16.412 -0.0609  0.0706 -0.3703
  921MPD2    H713489   0.744   1.003  16.400 -0.8093  0.3494  1.9859
  922MPD2     C13490   1.834   2.933  16.823  0.2762 -0.2311 -0.5037
  922MPD2    C113491   1.877   2.831  16.898 -0.3689 -0.0319  0.2035
  922MPD2    C213492   1.794   2.765  16.988  0.0781  0.0843 -0.5570
  922MPD2    C313493   1.657   2.784  16.988  0.0615 -1.0591  0.1303
  922MPD2    C413494   1.609   2.886  16.900  0.5126  0.1289 -0.2649
  922MPD2    C513495   1.701   2.966  16.832  0.4234  0.7523 -0.4165
  922MPD2     H13496   1.832   2.688  17.054  0.9459  0.6971 -0.3454
  922MPD2    H113497   1.504   2.914  16.904  0.8883  1.6611 -1.1694
  922MPD2    H213498   1.910   2.991  16.772  0.0717  0.1969 -0.3216
  922MPD2    H313499   1.654   3.039  16.767 -1.9207  0.6597  1.1659
  922MPD2     N13500   1.570   2.700  17.057 -0.4475  0.2159  0.0118
  922MPD2    H513501   1.474   2.730  17.043 -1.3140 -2.3871  0.3307
  922MPD2    N113502   2.010   2.789  16.896 -0.5136  0.1664 -0.3550
  922MPD2    H713503   2.041   2.735  16.976 -2.8294  0.7987  0.9738
  923MPD2     C13504   3.380   4.474  10.007 -0.0416  0.6206 -0.1503
  923MPD2    C113505   3.344   4.565   9.906 -0.4519  0.6458 -0.0592
  923MPD2    C213506   3.430   4.671   9.884 -0.0923  0.0762  0.9708
  923MPD2    C313507   3.550   4.696   9.958 -0.0681  0.3753  0.4845
  923MPD2    C413508   3.581   4.603  10.052 -0.0820 -0.3729 -0.0189
  923MPD2    C513509   3.497   4.490  10.074 -0.4611  0.1789 -0.2061
  923MPD2     H13510   3.387   0.014   9.812  0.5546 -1.3547 -0.7730
  923MPD2    H113511   3.674   4.605  10.107 -0.2926 -1.7182  0.3831
  923MPD2    H213512   3.320   4.390  10.038  0.3928 -0.2716 -1.7662
  923MPD2    H313513   3.535   4.424  10.151 -1.4034 -0.8973 -0.6743
  923MPD2     N13514   3.635   0.081   9.947 -0.5708 -0.3872  0.2595
  923MPD2    H513515   3.707   0.090  10.018  0.0443 -0.6359 -0.3386
  923MPD2    N113516   3.222   4.539   9.833 -0.4842 -0.7455  0.2668
  923MPD2    H713517   3.183   4.446   9.849 -0.6536 -0.9576 -1.3592
  924MPD2     C13518   3.579   3.602  15.093 -0.0301 -0.1927  0.0726
  924MPD2    C113519   3.567   3.540  15.212  0.4915 -0.6695  0.4553
  924MPD2    C213520   3.559   3.615  15.329 -0.4280  0.8633  0.0117
  924MPD2    C313521   3.543   3.748  15.322  0.4951 -0.1655 -0.0249
  924MPD2    C413522   3.553   3.810  15.200 -0.0795 -0.3192  0.5770
  924MPD2    C513523   3.584   3.743  15.090 -0.2879 -0.6634  0.1899
  924MPD2     H13524   3.557   3.563  15.425  1.0690 -0.3900 -0.6442
  924MPD2    H113525   3.548   3.919  15.197  0.7429 -0.1951  3.0982
  924MPD2    H213526   3.592   3.554  14.997 -1.7927 -1.7969  0.6624
  924MPD2    H313527   3.593   3.791  14.993 -0.7580 -1.0295 -0.0336
  924MPD2     N13528   3.502   3.827  15.426  0.4477  0.3406 -1.0265
  924MPD2    H513529   3.500   3.927  15.410  3.5710 -0.0322 -3.6645
  924MPD2    N113530   3.567   3.399  15.220  0.1046 -0.0921 -0.5732
  924MPD2    H713531   3.558   3.345  15.135 -0.4046  0.1833 -0.6909
  925MPD2     C13532   1.548   1.688  14.730  0.7659 -0.1932  0.4446
  925MPD2    C113533   1.444   1.643  14.651  0.4885 -0.1132  0.6074
  925MPD2    C213534   1.311   1.663  14.695  0.1241 -0.2998  0.6522
  925MPD2    C313535   1.280   1.716  14.815 -0.3273  0.4870  0.2233
  925MPD2    C413536   1.383   1.768  14.885 -0.8125  0.2665  0.5064
  925MPD2    C513537   1.509   1.758  14.847  0.2994 -0.2125 -0.0563
  925MPD2     H13538   1.236   1.610  14.637 -2.1516  1.8526  1.6013
  925MPD2    H113539   1.353   1.823  14.973 -0.8477  0.1478  0.5690
  925MPD2    H213540   1.653   1.696  14.705  0.2621  0.7817 -1.3537
  925MPD2    H313541   1.585   1.801  14.912 -0.3517 -1.3807  1.4970
  925MPD2     N13542   1.149   1.713  14.863 -0.0900  0.4406  0.0658
  925MPD2    H513543   1.140   1.722  14.963 -0.9921  0.9223 -0.0552
  925MPD2    N113544   1.467   1.582  14.531 -0.4417  0.5821  0.4092
  925MPD2    H713545   1.382   1.549  14.485 -0.0288  0.2400 -0.1156
  926MPD2     C13546   0.676   4.302  12.790 -0.5889 -0.0075  0.1462
  926MPD2    C113547   0.603   4.395  12.861 -0.0286  1.0639 -0.0987
  926MPD2    C213548   0.585   4.520  12.813 -0.0692 -0.4019 -0.2623
  926MPD2    C313549   0.630   4.562  12.684  0.4270 -0.2722  0.3189
  926MPD2    C413550   0.712   4.468  12.622 -0.2745  0.5276 -0.4480
  926MPD2    C513551   0.734   4.345  12.673  0.2571 -0.2153  0.8568
  926MPD2     H13552   0.511   4.575  12.869 -0.3905 -2.8181  1.6744
  926MPD2    H113553   0.758   4.499  12.529  1.4409  0.9438  0.5441
  926MPD2    H213554   0.707   4.203  12.822 -0.9268 -0.4771 -0.9411
  926MPD2    H313555   0.777   4.270  12.607 -0.6909  0.3770 -0.4217
  926MPD2     N13556   0.579   4.674  12.620 -0.1795 -0.3493 -0.5761
  926MPD2    H513557   0.615   4.694  12.527  2.1779 -0.8000  0.2430
  926MPD2    N113558   0.537   4.363  12.980 -0.1436  0.6017 -0.0018
  926MPD2    H713559   0.485   4.442  13.018 -0.8964 -1.0089  2.3635
  927MPD2     C13560   0.360   1.559   0.170 -0.6744 -0.0043  1.0032
  927MPD2    C113561   0.317   1.638   0.070  0.1539 -0.0164 -0.3558
  927MPD2    C213562   0.333   1.603  17.639  0.0153 -0.1067 -0.6765
  927MPD2    C313563   0.393   1.482  17.610 -0.0698 -0.3835 -0.9272
  927MPD2    C413564   0.442   1.405   0.005  0.4463 -0.5562 -0.8239
  927MPD2    C513565   0.429   1.442   0.134 -0.5794 -0.9368 -0.1906
  927MPD2     H13566   0.303   1.672  17.561  0.0175  1.9162  1.0891
  927MPD2    H113567   0.483   1.308  17.685  0.4269 -0.8905  0.5890
  927MPD2    H213568   0.350   1.581   0.275 -0.3470  1.6849  0.6707
  927MPD2    H313569   0.452   1.367   0.208  0.3157 -1.0646 -0.6033
  927MPD2     N13570   0.401   1.449  17.472  0.5689 -0.0098  0.7237
  927MPD2    H513571   0.351   1.506  17.404  1.2920  2.7486  2.4963
  927MPD2    N113572   0.246   1.748   0.113 -0.6435 -0.3441 -1.0077
  927MPD2    H713573   0.237   1.765   0.213 -0.3120 -0.2619 -0.9924
  928MPD2     C13574   1.943   0.513   0.855  0.0872  0.4025  0.8991
  928MPD2    C113575   2.054   0.555   0.930 -0.2426  0.3120  0.0146
  928MPD2    C213576   2.174   0.563   0.865 -0.0835  0.0069 -0.0192
  928MPD2    C313577   2.197   0.528   0.730 -0.0385 -0.1807  0.1638
  928MPD2    C413578   2.083   0.486   0.658  0.5233 -0.1868 -0.2814
  928MPD2    C513579   1.959   0.477   0.722  0.6081 -0.1126 -0.0397
  928MPD2     H13580   2.254   0.608   0.923  0.9674  1.0442 -2.2790
  928MPD2    H113581   2.088   0.470   0.551  0.5464  1.5412 -0.5360
  928MPD2    H213582   1.841   0.508   0.890 -0.1819  1.6822  0.3072
  928MPD2    H313583   1.872   0.456   0.661  0.7147  0.8897 -0.5235
  928MPD2     N13584   2.314   0.518   0.664  0.1097  0.5383 -0.3113
  928MPD2    H513585   2.302   0.510   0.564 -1.5501 -1.7497  0.0648
  928MPD2    N113586   2.026   0.615   1.060 -0.5847  0.3969  0.6730
  928MPD2    H713587   1.932   0.624   1.095 -1.1138 -0.4778 -0.5189
  929MPD2     C13588   3.097   4.660  10.375 -0.1769 -0.1166 -0.9573
  929MPD2    C113589   2.966   4.692  10.404 -0.3784  0.2009  0.0354
  929MPD2    C213590   2.884   0.004  10.300 -0.3964 -0.4717  0.4678
  929MPD2    C313591   2.929   0.018  10.165 -0.1791  0.1203  0.6091
  929MPD2    C413592   3.062   4.716  10.146 -0.0113 -0.2032 -0.5705
  929MPD2    C513593   3.143   4.672  10.247  0.3732  0.0319  0.3468
  929MPD2     H13594   2.784   0.040  10.318 -0.5543  0.0923 -1.4902
  929MPD2    H113595   3.116   0.005  10.053 -1.9403  0.7668 -1.5538
  929MPD2    H213596   3.166   4.634  10.454 -1.0471  1.8783  0.4642
  929MPD2    H313597   3.243   4.645  10.219 -0.5953 -1.6474 -1.4645
  929MPD2     N13598   2.850   0.078  10.064 -0.2780  0.1655 -0.1931
  929MPD2    H513599   2.752   0.083  10.088 -0.3952  2.7630 -1.2450
  929MPD2    N113600   2.922   4.686  10.541  0.0318 -0.6839 -0.3200
  929MPD2    H713601   2.992   4.659  10.609 -0.6863 -2.8878 -0.4588
  930MPD2     C13602   0.437   2.537  14.273  0.0615  0.5485  0.5111
  930MPD2    C113603   0.410   2.671  14.257  0.3844 -0.5175 -0.2415
  930MPD2    C213604   0.363   2.709  14.129  0.1566 -0.0747  0.4500
  930MPD2    C313605   0.355   2.610  14.032  1.0634  0.3818 -0.1545
  930MPD2    C413606   0.385   2.482  14.050 -0.5155  0.1348  0.5708
  930MPD2    C513607   0.427   2.446  14.171  0.0167 -0.4873  0.4190
  930MPD2     H13608   0.346   2.813  14.106 -1.3096 -0.5120 -0.4698
  930MPD2    H113609   0.379   2.411  13.969 -0.7084  0.1139  0.6033
  930MPD2    H213610   0.479   2.503  14.367 -0.0817 -1.4043 -0.1388
  930MPD2    H313611   0.434   2.339  14.181  2.2412 -0.4599 -1.0001
  930MPD2     N13612   0.301   2.646  13.904  0.5583 -0.6787 -0.4219
  930MPD2    H513613   0.316   2.573  13.835 -0.9307 -1.2112 -0.2011
  930MPD2    N113614   0.421   2.764  14.363 -0.0866  1.1762  0.3870
  930MPD2    H713615   0.462   2.722  14.445 -0.5390 -1.8057 -0.9026
  931MPD2     C13616   4.594   2.197   0.709 -0.6178  0.1132 -0.2237
  931MPD2    C113617   4.619   2.077   0.656  0.3219  0.9685  0.0964
  931MPD2    C213618   4.594   1.963   0.729  0.6150 -0.5795  0.1135
  931MPD2    C313619   4.554   1.973   0.857 -0.3380 -0.4403  0.5142
  931MPD2    C413620   4.532   2.095   0.919 -0.0291  0.1016 -0.2887
  931MPD2    C513621   4.560   2.208   0.845 -0.1179  0.1501 -0.0478
  931MPD2     H13622   4.633   1.872   0.686  0.8842  0.4730 -1.8506
  931MPD2    H113623   4.496   2.107   1.020  3.4767  5.1624  0.3263
  931MPD2    H213624   4.593   2.291   0.656 -0.4908 -0.0602 -0.5326
  931MPD2    H313625   4.549   2.301   0.898  1.8522  0.9351 -0.9858
  931MPD2     N13626   4.527   1.856   0.939  0.5134 -0.1490 -0.4086
  931MPD2    H513627   4.502   1.870   1.037  0.7052 -1.9596 -0.1081
  931MPD2    N113628   4.663   2.083   0.522 -0.4262 -0.5528 -0.1094
  931MPD2    H713629   4.657   2.175   0.479  0.5615  1.2979  3.6543
  932MPD2     C13630   2.131   1.337  11.348  0.3792 -0.0710  0.8253
  932MPD2    C113631   2.195   1.286  11.234 -0.1221  0.2425 -0.0650
  932MPD2    C213632   2.184   1.149  11.205 -0.3167 -0.3988  0.0492
  932MPD2    C313633   2.105   1.065  11.284 -0.2006 -0.6028  0.1799
  932MPD2    C413634   2.065   1.114  11.406  0.2693 -0.3098  0.4042
  932MPD2    C513635   2.075   1.248  11.434  0.3440 -0.5702 -0.0837
  932MPD2     H13636   2.231   1.114  11.113  0.7630 -2.0520  1.2428
  932MPD2    H113637   2.018   1.051  11.480  0.2153 -0.7131  0.0297
  932MPD2    H213638   2.134   1.442  11.372  5.1023  0.0198 -0.1147
  932MPD2    H313639   2.037   1.273  11.532  3.4633  0.1600  0.9524
  932MPD2     N13640   2.076   0.926  11.259  0.2088  0.7846  0.3618
  932MPD2    H513641   2.036   0.869  11.332  2.4734 -2.7021 -1.1347
  932MPD2    N113642   2.263   1.384  11.156  0.4109 -0.0585 -0.9325
  932MPD2    H713643   2.250   1.481  11.183  0.2057 -0.1000 -0.8848
  933MPD2     C13644   1.658   1.297   1.388 -0.4536 -0.3889 -0.1561
  933MPD2    C113645   1.674   1.190   1.303  0.1641  0.2659 -0.4499
  933MPD2    C213646   1.563   1.163   1.222 -0.0535  0.3541  0.0777
  933MPD2    C313647   1.450   1.234   1.238 -0.6024 -0.0404 -0.4854
  933MPD2    C413648   1.435   1.325   1.333 -0.1266 -0.0458 -0.3714
  933MPD2    C513649   1.541   1.365   1.407 -0.1521 -0.1689 -0.0200
  933MPD2     H13650   1.550   1.073   1.163 -1.8106  1.0752 -0.6337
  933MPD2    H113651   1.344   1.380   1.351  0.0517 -0.0858  0.6480
  933MPD2    H213652   1.738   1.322   1.456 -2.7855  0.6017  2.2159
  933MPD2    H313653   1.550   1.459   1.460  1.5479  0.2618 -1.0674
  933MPD2     N13654   1.333   1.173   1.181 -0.5083 -0.0157 -0.3390
  933MPD2    H513655   1.357   1.105   1.109 -0.4639 -0.8998  0.5051
  933MPD2    N113656   1.784   1.112   1.314 -0.0437  0.1641  0.5012
  933MPD2    H713657   1.866   1.137   1.369  0.5052  0.2545 -0.3502
  934MPD2     C13658   3.216   3.326   0.961 -0.5479 -0.9776  0.3897
  934MPD2    C113659   3.283   3.231   1.039  0.5646 -0.3789  0.0177
  934MPD2    C213660   3.226   3.104   1.043  0.0390  0.4994  0.2005
  934MPD2    C313661   3.106   3.071   0.980  0.4626 -0.2253  0.0409
  934MPD2    C413662   3.047   3.168   0.906  0.2923  0.4542 -0.1686
  934MPD2    C513663   3.102   3.290   0.889 -0.3210  0.5491 -0.5674
  934MPD2     H13664   3.264   3.020   1.100  1.1751  0.0953 -1.1682
  934MPD2    H113665   2.957   3.147   0.849  0.8427 -0.5666 -0.6624
  934MPD2    H213666   3.233   3.433   0.956 -0.0411 -1.1620 -1.8016
  934MPD2    H313667   3.066   3.367   0.821 -1.2422  2.1195  1.7122
  934MPD2     N13668   3.047   2.937   0.972  0.3342 -0.1004  0.1192
  934MPD2    H513669   2.968   2.929   0.910  0.6994 -1.2489 -0.2089
  934MPD2    N113670   3.401   3.251   1.112  0.2387 -0.3094  0.1398
  934MPD2    H713671   3.454   3.175   1.154 -0.4265  0.0750  1.6461
  935MPD2     C13672   3.318   1.991   1.009 -0.5492 -0.7276 -0.1750
  935MPD2    C113673   3.207   1.999   0.939  0.4613  0.5975  0.1680
  935MPD2    C213674   3.125   2.100   0.954  0.1405  0.1335  0.3625
  935MPD2    C313675   3.159   2.207   1.033  0.0919 -0.2323  0.0048
  935MPD2    C413676   3.276   2.201   1.106 -0.7333 -0.4384 -0.4935
  935MPD2    C513677   3.353   2.095   1.093 -0.5639 -0.1214 -0.3355
  935MPD2     H13678   3.029   2.107   0.906  1.2043  0.8903 -1.6340
  935MPD2    H113679   3.307   2.291   1.158  1.4799 -1.2927 -0.3461
  935MPD2    H213680   3.382   1.905   0.993 -0.6385 -0.9051  0.4420
  935MPD2    H313681   3.443   2.086   1.152 -1.5197 -1.3913  0.9177
  935MPD2     N13682   3.082   2.322   1.051  0.3672 -0.3380 -0.1855
  935MPD2    H513683   3.126   2.398   1.102  0.2797 -0.0926 -0.4701
  935MPD2    N113684   3.169   1.897   0.847 -0.4856  0.5658  0.3847
  935MPD2    H713685   3.084   1.920   0.798 -1.3090  0.8564  1.9708
  936MPD2     C13686   2.880   3.944  12.914 -0.5137  0.0369 -0.2326
  936MPD2    C113687   2.791   4.051  12.911  0.0746 -0.0791  0.1014
  936MPD2    C213688   2.734   4.088  12.794 -0.3957 -0.3968 -0.4691
  936MPD2    C313689   2.775   4.031  12.674  0.4675  0.6596 -0.0409
  936MPD2    C413690   2.864   3.920  12.672  0.5584  0.1284  0.2009
  936MPD2    C513691   2.915   3.882  12.795 -0.2377 -0.0373 -0.0427
  936MPD2     H13692   2.661   4.168  12.799 -0.7625 -0.5777 -2.7605
  936MPD2    H113693   2.894   3.864  12.584 -0.1073 -2.7735  1.8118
  936MPD2    H213694   2.925   3.905  13.004 -0.1615  1.5670  0.2486
  936MPD2    H313695   2.985   3.801  12.806  1.4473  1.2922 -0.9861
  936MPD2     N13696   2.734   4.091  12.554  0.2645  0.1225  0.7496
  936MPD2    H513697   2.665   4.165  12.556  0.1387 -0.0345  1.9489
  936MPD2    N113698   2.749   4.116  13.030 -0.2995 -0.1329 -0.0712
  936MPD2    H713699   2.676   4.186  13.016 -0.3890 -0.5773 -1.8226
  937MPD2     C13700   0.576   0.919  11.881 -0.7327 -0.1744  0.1510
  937MPD2    C113701   0.628   1.047  11.863 -0.4335 -0.3247  0.3558
  937MPD2    C213702   0.746   1.061  11.795  0.3423  0.2616 -0.3063
  937MPD2    C313703   0.803   0.951  11.723 -0.3137  0.9320  0.2128
  937MPD2    C413704   0.735   0.832  11.731  0.0371  0.1909  0.0558
  937MPD2    C513705   0.625   0.816  11.813 -0.0981  0.0891 -0.2044
  937MPD2     H13706   0.796   1.158  11.799 -2.8128  1.9501 -1.5150
  937MPD2    H113707   0.764   0.738  11.686 -1.5314 -1.0225  1.5602
  937MPD2    H213708   0.485   0.902  11.938  0.3451  1.1398  2.2613
  937MPD2    H313709   0.579   0.720  11.832 -1.5971  0.4110 -2.1304
  937MPD2     N13710   0.922   0.966  11.654  0.1258  0.6856 -0.9179
  937MPD2    H513711   0.965   1.058  11.653 -2.1072  1.7235 -1.0750
  937MPD2    N113712   0.578   1.163  11.932 -0.3628 -0.0172 -0.6719
  937MPD2    H713713   0.634   1.246  11.912 -1.5386  1.1059  0.6843
  938MPD2     C13714   2.464   1.901   0.819  0.3287 -0.2975 -0.0776
  938MPD2    C113715   2.461   2.029   0.873  0.3285  0.1132 -0.3695
  938MPD2    C213716   2.424   2.032   1.006 -0.5262  0.1003 -0.2871
  938MPD2    C313717   2.401   1.926   1.092 -0.1826  0.1367 -0.1648
  938MPD2    C413718   2.410   1.798   1.037 -0.1270  0.5743 -0.2277
  938MPD2    C513719   2.440   1.790   0.899  0.2633  0.3684  0.3153
  938MPD2     H13720   2.416   2.129   1.054  1.3132  0.6672 -1.1357
  938MPD2    H113721   2.411   1.701   1.086  1.5819  0.4574 -0.4890
  938MPD2    H213722   2.488   1.888   0.714 -0.7549  1.1171 -0.5145
  938MPD2    H313723   2.450   1.693   0.850  2.5750  1.1427 -0.7558
  938MPD2     N13724   2.385   1.934   1.228  0.4977  0.3082  0.3123
  938MPD2    H513725   2.403   1.853   1.287 -0.5675  0.8661  1.4044
  938MPD2    N113726   2.492   2.152   0.798  0.6655  0.3342 -0.0951
  938MPD2    H713727   2.447   2.238   0.827 -1.5984 -0.1674 -2.1095
  939MPD2     C13728   4.331   3.800   0.831 -0.1012 -0.1605  0.6351
  939MPD2    C113729   4.197   3.771   0.807  0.6444  0.3500  0.1442
  939MPD2    C213730   4.165   3.667   0.716 -0.1933  0.0939  0.4464
  939MPD2    C313731   4.262   3.600   0.649  0.1946  0.6105  0.3587
  939MPD2    C413732   4.392   3.635   0.665  0.1531 -0.1361 -0.2602
  939MPD2    C513733   4.430   3.730   0.764  0.7543  0.7966  0.4374
  939MPD2     H13734   4.065   3.632   0.696 -0.1928 -0.3632  1.2606
  939MPD2    H113735   4.474   3.590   0.610  1.2023  0.1537  1.0711
  939MPD2    H213736   4.360   3.869   0.909 -1.7066  1.3226 -0.0768
  939MPD2    H313737   4.532   3.763   0.776  1.2975 -1.8911  3.0383
  939MPD2     N13738   4.217   3.493   0.570 -0.0184  0.1194  1.4408
  939MPD2    H513739   4.117   3.472   0.575  0.5647 -2.8439  0.3487
  939MPD2    N113740   4.100   3.842   0.875 -0.1001 -0.6796  0.2924
  939MPD2    H713741   4.139   3.919   0.928 -0.9829  0.2161 -0.3534
  940MPD2     C13742   3.013   4.461  12.809 -0.3730  0.0456 -0.1255
  940MPD2    C113743   3.106   4.405  12.896  0.0564 -0.2515  0.5622
  940MPD2    C213744   3.171   4.292  12.854  0.0110 -0.4100 -0.0944
  940MPD2    C313745   3.154   4.238  12.728 -0.6068  0.8142 -0.4635
  940MPD2    C413746   3.052   4.284  12.650 -0.4113 -0.2306 -0.1555
  940MPD2    C513747   2.974   4.391  12.695  0.7520  0.1318 -0.4034
  940MPD2     H13748   3.233   4.238  12.924  0.0719  0.4093  0.4859
  940MPD2    H113749   3.027   4.229  12.560  0.3322 -3.2275  1.4697
  940MPD2    H213750   2.948   4.542  12.838 -0.2674  0.2024 -0.3249
  940MPD2    H313751   2.890   4.427  12.636  0.0297 -0.5978  0.1857
  940MPD2     N13752   3.220   4.122  12.677  0.2448  0.1966 -0.4865
  940MPD2    H513753   3.188   4.090  12.587  0.4329  0.6648 -0.7192
  940MPD2    N113754   3.118   4.461  13.025  0.6857  0.1474 -0.0635
  940MPD2    H713755   3.177   4.406  13.086  0.8667  2.6714  1.9996
  941MPD2     C13756   2.382   3.356   9.183 -0.1965  0.6701  0.2321
  941MPD2    C113757   2.481   3.325   9.268  0.4523 -0.8691 -0.0542
  941MPD2    C213758   2.467   3.227   9.366  0.1854  0.0478 -0.2444
  941MPD2    C313759   2.347   3.150   9.371 -0.0695  0.9465 -0.1838
  941MPD2    C413760   2.244   3.198   9.292  0.5499  0.0598  0.1925
  941MPD2    C513761   2.260   3.300   9.205  0.4864 -0.4170  0.1790
  941MPD2     H13762   2.551   3.208   9.432  1.0127 -0.4927 -1.4558
  941MPD2    H113763   2.150   3.145   9.289  0.4515  0.2846 -0.5373
  941MPD2    H213764   2.383   3.439   9.114  0.8537 -0.4835 -1.1660
  941MPD2    H313765   2.181   3.321   9.133  1.8634  0.4536 -1.1031
  941MPD2     N13766   2.317   3.061   9.479 -0.7544  0.0773  0.0347
  941MPD2    H513767   2.223   3.024   9.470 -0.7913 -0.0791  1.0334
  941MPD2    N113768   2.601   3.397   9.267  0.4829 -0.1679 -0.5910
  941MPD2    H713769   2.676   3.370   9.330 -1.1448  0.4016  1.5730
  942MPD2     C13770   0.557   0.230   9.459  0.4882 -0.4846  0.4320
  942MPD2    C113771   0.679   0.249   9.518 -0.2482  0.6076  0.4479
  942MPD2    C213772   0.775   0.151   9.515 -0.0752 -0.6167  0.3980
  942MPD2    C313773   0.748   0.025   9.454  0.3953 -0.3288  0.3728
  942MPD2    C413774   0.621   0.009   9.408 -0.3642  0.2648  0.1781
  942MPD2    C513775   0.528   0.107   9.408  0.1329  0.4401  0.3025
  942MPD2     H13776   0.873   0.168   9.558 -1.2575 -0.0974  2.8303
  942MPD2    H113777   0.589   4.633   9.386 -0.4468  0.3626 -0.1486
  942MPD2    H213778   0.474   0.301   9.456  1.0018  0.0745 -0.3183
  942MPD2    H313779   0.425   0.087   9.382  1.2898 -2.4531 -2.0638
  942MPD2     N13780   0.837   4.643   9.456 -0.1470 -0.2337 -0.1293
  942MPD2    H513781   0.805   4.550   9.429 -1.2983  0.0295  0.3378
  942MPD2    N113782   0.693   0.366   9.598 -0.6597  0.2946 -0.2206
  942MPD2    H713783   0.789   0.369   9.632 -0.1076  0.8041 -1.8314
  943MPD2     C13784   0.601   2.974   9.413  0.3918  0.0016  0.2200
  943MPD2    C113785   0.516   2.920   9.510 -0.7636 -0.0521 -0.0545
  943MPD2    C213786   0.379   2.931   9.496  0.2488 -0.1945  0.3003
  943MPD2    C313787   0.321   2.976   9.383  0.5607  0.7490  0.0629
  943MPD2    C413788   0.405   3.024   9.283  0.3639  0.4391 -0.1843
  943MPD2    C513789   0.539   3.022   9.299 -0.3931  0.1901  0.4299
  943MPD2     H13790   0.316   2.898   9.578 -1.5707 -1.1194 -1.4521
  943MPD2    H113791   0.362   3.056   9.189 -0.0737  0.0189 -0.1254
  943MPD2    H213792   0.708   2.967   9.423  0.0763 -0.6249  3.1198
  943MPD2    H313793   0.599   3.051   9.214  0.3397 -0.1568  0.8321
  943MPD2     N13794   0.179   3.003   9.366 -0.4169  0.4977 -0.7313
  943MPD2    H513795   0.147   3.037   9.276 -0.9864  2.1004  0.0766
  943MPD2    N113796   0.580   2.888   9.631  0.8875  0.1411 -0.0647
  943MPD2    H713797   0.679   2.908   9.643  0.9168 -1.5083  2.5528
  944MPD2     C13798   1.016   1.823  11.510 -0.2003 -0.4488 -0.6787
  944MPD2    C113799   1.081   1.907  11.419  0.1097 -1.0368  0.4340
  944MPD2    C213800   1.039   2.037  11.408  0.3227 -0.0121 -0.4525
  944MPD2    C313801   0.936   2.090  11.488 -0.4046 -0.1200 -0.1644
  944MPD2    C413802   0.868   1.998  11.574  0.2012  0.5424 -0.8434
  944MPD2    C513803   0.912   1.871  11.581  1.1965 -0.0426  0.7389
  944MPD2     H13804   1.093   2.112  11.352 -0.6469  0.5930 -0.5819
  944MPD2    H113805   0.786   2.034  11.636  0.0125 -1.7221  0.2271
  944MPD2    H213806   1.033   1.717  11.523 -2.2592 -0.8174 -0.8690
  944MPD2    H313807   0.872   1.808  11.660 -0.8822  1.0539  0.5507
  944MPD2     N13808   0.909   2.223  11.468  0.5804 -0.3619  0.2848
  944MPD2    H513809   0.957   2.267  11.390  0.3411 -0.5418  0.0414
  944MPD2    N113810   1.198   1.871  11.347  0.4024 -0.0284 -0.1547
  944MPD2    H713811   1.254   1.791  11.377 -0.6406 -0.7052 -0.0205
    1TCq1    O113812   4.251   3.197  13.979 -0.7810  0.3442 -0.0275
    1TCq1    C113813   4.222   3.202  14.110  0.1184 -0.5146 -0.8967
    1TCq1    O213814   4.110   3.207  14.153  0.1668  0.3109  0.4181
    1TCq1    C213815   4.341   3.230  14.180  0.4338  0.4941  0.5563
    1TCq1    C313816   4.444   3.146  14.157 -0.5213  0.1996  0.1147
    1TCq1    C413817   4.552   3.158  14.240  0.3082 -0.7323 -0.7194
    1TCq1    C513818   4.557   3.247  14.337  0.8208 -0.6845  0.8018
    1TCq1    C613819   4.448   3.335  14.358  0.3899 -0.3264  0.3827
    1TCq1    C713820   4.339   3.325  14.280 -0.9777 -0.3547  0.1408
    1TCq1    C813821   4.461   3.420  14.476  0.2740 -0.2223  0.3650
    1TCq1    O413822   4.557   3.390  14.552  0.2836 -0.1072  0.6118
    1TCq1    C913823   4.663   3.074  14.221 -0.2789 -0.2351 -0.0799
    1TCq1    O513824   0.040   3.099  14.287  0.1400  0.5151  0.5884
    1TCq1    O613825   4.668   2.994  14.126  0.1663  0.4210  0.0716
    1TCq1    H113826   4.343   3.197  13.945 -0.4276  0.3434  0.9369
    1TCq1    H213827   4.436   3.068  14.082 -1.6136  0.9629 -0.5557
    1TCq1    H313828   4.643   3.249  14.403 -0.0439 -1.7384  1.9794
    1TCq1    H413829   4.248   3.384  14.287  0.8091  2.5891 -1.2449
    2MPD2     C13830   4.361   3.843  14.739 -0.1970 -0.6129  0.4777
    2MPD2    C113831   4.267   3.837  14.642 -0.0276 -0.0301 -0.0025
    2MPD2    C213832   4.257   3.718  14.566 -0.7276 -0.2883 -0.1955
    2MPD2    C313833   4.353   3.618  14.581 -0.1231  0.2242  0.3303
    2MPD2    C413834   4.445   3.630  14.683  0.6329  0.0147  0.0397
    2MPD2    C513835   4.448   3.741  14.760 -0.4444  0.2652  0.1386
    2MPD2     H13836   4.176   3.695  14.498 -1.1049 -1.0500  0.5027
    2MPD2    H113837   4.529   3.563  14.696 -0.2880 -0.7536  1.9721
    2MPD2    H213838   4.392   3.921  14.807 -2.0194 -0.9379  1.6914
    2MPD2    H313839   4.540   3.756  14.816  0.2818 -4.5476  0.2537
    2MPD2     N13840   4.366   3.517  14.482 -0.2005 -0.5823  0.2254
    2MPD2    H513841   4.301   3.535  14.406 -1.0073 -3.4559  0.2463
    2MPD2    N113842   4.197   3.953  14.617 -1.4051 -0.2364 -0.0841
    2MPD2    H713843   4.221   4.038  14.666  0.0886 -1.4486  1.3202
    3TMC2    C113844   4.056   4.091  14.507  0.0694  0.9245  0.1214
    3TMC2    C213845   4.075   4.180  14.608  0.8951  0.5167  0.1469
    3TMC2    C313846   4.033   4.308  14.574 -0.7702 -0.2649  0.4185
    3TMC2    C413847   4.018   4.127  14.380 -0.0125 -0.1777  0.6072
    3TMC2    C513848   3.999   4.256  14.351 -0.5380 -0.5359 -0.1645
    3TMC2    C613849   4.004   4.347  14.446 -0.4310  0.3579 -0.1646
    3TMC2     C13850   4.109   3.965  14.515  0.4477  0.4156 -0.4326
    3TMC2     O13851   4.109   3.901  14.413  0.7122 -0.5569 -0.2155
    3TMC2     H13852   4.106   4.158  14.710  0.5726  0.3851  0.2198
    3TMC2    H113853   3.997   4.051  14.306  1.1324 -0.5591  0.6723
    3TMC2    H213854   3.977   4.448  14.419  2.4161  0.9395 -0.7227
    3TMC2    C713855   4.036   4.281  14.213 -0.0965  0.5496 -0.2898
    3TMC2    C813856   4.071   4.412  14.667 -0.6750 -0.4539 -0.0785
    3TMC2    O113857   4.074   4.187  14.142  0.1286 -0.3399 -0.0645
    3TMC2    O213858   4.006   4.511  14.700  0.4818 -0.1093 -0.1661
    3TMC2    O513859   4.194   4.431  14.613  0.6418  0.3845 -0.5085
    3TMC2    H513860   4.241   4.350  14.584 -1.8434 -1.7445  1.4062
    4MPD2     C13861   3.065   0.391  13.826 -0.1798  0.4839 -0.4646
    4MPD2    C113862   3.110   0.436  13.705  0.2049 -0.2511  0.5007
    4MPD2    C213863   3.249   0.456  13.693 -0.3262  0.1341  0.3419
    4MPD2    C313864   3.334   0.416  13.798 -0.1439  0.7333 -0.3298
    4MPD2    C413865   3.280   0.381  13.918  0.1243 -0.3576 -0.1584
    4MPD2    C513866   3.148   0.372  13.936 -0.1137 -0.6195  0.5815
    4MPD2     H13867   3.299   0.492  13.603 -0.6216 -0.0284  0.1106
    4MPD2    H113868   3.337   0.357  14.008  1.9574  0.0145 -1.2095
    4MPD2    H213869   2.960   0.367  13.842  0.1972 -0.2390  0.9015
    4MPD2    H313870   3.102   0.337  14.027 -0.6185  0.9121  0.9222
    4MPD2     N13871   3.475   0.418  13.778  0.0116  0.4637 -0.4740
    4MPD2    H513872   3.511   0.464  13.694  0.8855 -0.8301 -0.8245
    4MPD2    N113873   3.018   0.462  13.607 -0.5456  0.5163 -0.0226
    4MPD2    H713874   2.923   0.436  13.632  0.4834 -2.4358  0.9144
    5TCq2    C113875   3.570   0.347  13.851  0.7410  0.3364 -0.7476
    5TCq2    O213876   3.545   0.257  13.932  0.0580 -0.5818 -0.4145
    5TCq2    C213877   3.705   0.370  13.815 -0.2198 -0.6915  0.3227
    5TCq2    C313878   3.736   0.472  13.728  0.9141 -0.3506 -0.7267
    5TCq2    C413879   3.861   0.469  13.675  0.3523  0.1421  0.4075
    5TCq2    C513880   3.950   0.369  13.709  0.2656  0.1933 -0.3656
    5TCq2    C613881   3.906   0.269  13.789  0.0603  0.1951  0.5188
    5TCq2    C713882   3.781   0.270  13.840 -0.3918  0.4709  0.0147
    5TCq2    C813883   3.977   0.142  13.769 -0.0284 -0.0533  0.2284
    5TCq2    O413884   4.051   0.127  13.669 -0.0080  0.2163  0.1209
    5TCq2    C913885   3.914   0.578  13.592  0.2471  0.1638 -0.1105
    5TCq2    O513886   4.031   0.562  13.546  0.3100 -0.0915 -0.2581
    5TCq2    O613887   3.837   0.677  13.581 -0.6361 -0.1452  0.5067
    5TCq2    H213888   3.675   0.561  13.714  0.3127 -0.7947 -0.9220
    5TCq2    H313889   4.050   0.370  13.666  1.1957  0.8804  1.7668
    5TCq2    H413890   3.749   0.185  13.900  0.0477 -1.1867 -2.1030
    6MPD1     C13891   2.452   1.907  13.254  0.4314 -0.1352  0.1727
    6MPD1    C113892   2.327   1.852  13.235  0.0223  0.1954 -0.5001
    6MPD1    C213893   2.323   1.723  13.195  0.1313 -0.4202  0.2651
    6MPD1    C313894   2.433   1.645  13.208  0.2397  0.0565  0.2586
    6MPD1    C413895   2.554   1.697  13.242 -0.2015  0.2869  0.6453
    6MPD1    C513896   2.562   1.830  13.274 -0.2582  0.5530 -0.7457
    6MPD1     H13897   2.231   1.675  13.164  0.4163  0.5288 -2.0690
    6MPD1    H113898   2.644   1.637  13.241  1.8616  3.4235 -0.1755
    6MPD1    H213899   2.465   2.014  13.257 -2.5242  0.2936 -2.3560
    6MPD1    H313900   2.660   1.872  13.296 -0.9516  2.1788 -0.8084
    6MPD1     N13901   2.436   1.508  13.172 -0.7881  0.3573 -0.7068
    6MPD1    H513902   2.526   1.464  13.155 -0.2107  1.0718  0.5127
    6MPD1    N113903   2.226   1.937  13.202 -0.1207 -0.3961  0.5982
    6MPD1    H613904   2.239   2.024  13.254 -1.6578  0.4316 -0.3925
    6MPD1    H713905   2.134   1.898  13.223  0.3716 -1.5671  0.5491
    7MPD2     C13906   2.181   0.650  13.138  0.3471  0.3072  0.8698
    7MPD2    C113907   2.301   0.718  13.153  0.1798  0.5606  0.6848
    7MPD2    C213908   2.400   0.649  13.217  0.3836 -0.9646  0.3022
    7MPD2    C313909   2.386   0.517  13.251 -0.4896  0.7417  0.5477
    7MPD2    C413910   2.269   0.446  13.226  0.8877 -0.4137  0.4191
    7MPD2    C513911   2.170   0.515  13.166  0.2543  0.8499 -0.4738
    7MPD2     H13912   2.494   0.698  13.239 -0.1980  0.0751  0.4744
    7MPD2    H113913   2.262   0.342  13.256  0.6468  0.3766  3.1000
    7MPD2    H213914   2.097   0.707  13.102  1.3461  2.0189  1.2673
    7MPD2    H313915   2.077   0.462  13.148 -1.1960  3.0606  0.5072
    7MPD2     N13916   2.486   0.444  13.314 -0.3268  0.0120 -0.0024
    7MPD2    H513917   2.494   0.343  13.315 -0.6157 -0.0389 -1.7034
    7MPD2    N113918   2.320   0.855  13.140  0.4967 -0.1446 -0.2261
    7MPD2    H713919   2.416   0.888  13.150  1.2716 -2.4821  0.1120
    8TMC3    C113920   2.705   0.428  13.371 -0.0522 -0.8805 -0.3514
    8TMC3    C213921   2.804   0.476  13.455  0.1088 -0.7720 -0.0780
    8TMC3    C313922   2.925   0.500  13.398  0.1225  0.0286  0.3345
    8TMC3    C413923   2.734   0.393  13.244  0.7554 -0.0337 -0.5457
    8TMC3    C513924   2.842   0.450  13.188 -0.6486  0.3454  0.7245
    8TMC3    C613925   2.948   0.489  13.264  0.5982  0.0213  0.6154
    8TMC3     C13926   2.587   0.508  13.376  0.6303  0.3488 -0.7448
    8TMC3     O13927   2.590   0.612  13.440 -0.1705 -0.1665 -0.3399
    8TMC3     H13928   2.787   0.516  13.554  0.0177  1.1640 -0.8913
    8TMC3    H113929   2.662   0.362  13.169 -0.3504 -1.9521  1.2947
    8TMC3    H213930   3.037   0.534  13.221  0.8573 -0.2516  0.8694
    8TMC3    C713931   2.797   0.549  13.089  0.0492 -0.2304  0.1488
    8TMC3    C813932   3.043   0.501  13.481  0.1276 -0.4395  0.2157
    8TMC3    O113933   2.677   0.560  13.071  0.1882 -0.0969  0.1314
    8TMC3    O213934   3.148   0.523  13.420  0.0085 -0.2193  0.3487
    9TMC3    C113935   2.353   1.294  13.091 -0.2129 -0.8041  0.1779
    9TMC3    C213936   2.468   1.286  13.022  0.2181 -0.0681 -0.7601
    9TMC3    C313937   2.491   1.159  12.971  0.1042 -0.0894 -0.4657
    9TMC3    C413938   2.271   1.188  13.118 -0.2975  0.8996  0.2162
    9TMC3    C513939   2.298   1.066  13.070  0.0898 -0.1952  0.6122
    9TMC3    C613940   2.416   1.050  12.997  0.6096  0.0652 -0.1240
    9TMC3     C13941   2.327   1.421  13.163  0.4892 -0.1519 -0.2953
    9TMC3     O13942   2.209   1.438  13.191 -0.3069  0.6905  0.4675
    9TMC3     H13943   2.536   1.364  12.992 -1.2472  0.5971 -2.3015
    9TMC3    H113944   2.184   1.203  13.181  0.5821 -3.3206  2.3966
    9TMC3    H213945   2.438   0.951  12.959 -1.0539 -0.9783  1.6133
    9TMC3    C713946   2.226   0.949  13.111 -0.0553  0.2938 -0.7605
    9TMC3    C813947   2.622   1.138  12.915 -0.1145 -0.1391 -0.2854
    9TMC3    O113948   2.106   0.927  13.110  0.4580 -0.1294  0.5795
    9TMC3    O213949   2.666   1.210  12.824 -0.1484 -0.3025  0.3851
   10MPD2     C13950   3.002   0.779  12.883  0.1464  0.0818 -0.6085
   10MPD2    C113951   2.899   0.737  12.961  0.3790 -0.9495 -0.2189
   10MPD2    C213952   2.781   0.810  12.967 -0.1669 -0.1917 -0.5301
   10MPD2    C313953   2.773   0.939  12.915  0.3520  0.6729 -0.1028
   10MPD2    C413954   2.868   0.972  12.820 -0.1225  0.4136  0.1452
   10MPD2    C513955   2.987   0.894  12.808 -0.4496  0.2503  0.2351
   10MPD2     H13956   2.693   0.779  13.022 -0.5000 -0.9483 -1.4802
   10MPD2    H113957   2.864   1.065  12.764 -2.2537  0.9551  1.1705
   10MPD2    H213958   3.088   0.714  12.874 -0.4273 -0.4067 -2.6051
   10MPD2    H313959   3.061   0.921  12.734  0.5362 -0.5455  0.9251
   10MPD2     N13960   2.665   1.015  12.961 -0.2381 -0.2707  0.1422
   10MPD2    H513961   2.607   0.990  13.040 -0.6872 -0.7627 -0.3384
   10MPD2    N113962   2.909   0.614  13.032  0.3933 -0.3029  0.5940
   10MPD2    H713963   2.997   0.565  13.043  1.0526  0.4312 -1.4271
   11MPD2     C13964   4.096   4.398  13.944  0.0550  0.0097 -0.3132
   11MPD2    C113965   4.038   4.468  14.048  0.7393 -0.0751  0.5098
   11MPD2    C213966   3.994   4.599  14.024 -0.1133  0.1623 -0.6609
   11MPD2    C313967   4.005   4.654  13.899 -0.0490  0.0545  0.7780
   11MPD2    C413968   4.067   4.584  13.799 -0.0961 -0.7547 -0.1320
   11MPD2    C513969   4.105   4.452  13.816 -0.2444 -0.5237 -0.4518
   11MPD2     H13970   3.951   4.658  14.103  1.6730 -1.5407  1.5684
   11MPD2    H113971   4.083   4.626  13.700 -2.4572  1.7673  0.5594
   11MPD2    H213972   4.130   4.296  13.957  0.4824 -0.0781 -2.0636
   11MPD2    H313973   4.150   4.406  13.729  0.3464 -1.0850  0.1541
   11MPD2     N13974   3.955   0.059  13.877  0.9381 -0.0270  0.9611
   11MPD2    H513975   3.897   0.095  13.952 -0.3917  1.5676 -0.8222
   11MPD2    N113976   4.023   4.414  14.182  0.2202  0.6585  0.1303
   11MPD2    H713977   3.981   4.469  14.257 -1.4745 -0.2453 -0.1729
    1MPD1     C13978   0.711   1.199  16.746  0.1207 -0.4077 -0.7161
    1MPD1    C113979   0.754   1.319  16.691 -0.4208  0.1157 -0.6285
    1MPD1    C213980   0.876   1.322  16.626 -0.2157  0.2745  0.0081
    1MPD1    C313981   0.952   1.210  16.613  0.2944  0.2682 -0.0037
    1MPD1    C413982   0.911   1.093  16.669  0.3194  0.9002 -0.2664
    1MPD1    C513983   0.789   1.089  16.731 -0.0293 -0.3377 -0.3912
    1MPD1     H13984   0.914   1.417  16.589  1.1761 -0.6199 -0.8319
    1MPD1    H113985   0.975   1.008  16.646 -0.5827 -0.3617  1.9571
    1MPD1    H213986   0.624   1.196  16.810 -0.3768  0.5940 -1.3388
    1MPD1    H313987   0.757   0.994  16.772 -2.3269  0.2057 -0.8887
    1MPD1     N13988   1.074   1.209  16.546  0.1894  0.7591  0.9820
    1MPD1    H513989   1.136   1.132  16.566 -1.4679 -0.7947  0.0650
    1MPD1    N113990   0.669   1.432  16.680 -0.6839  0.3450 -0.0910
    1MPD1    H613991   0.723   1.518  16.682 -0.9836  0.5184  0.4430
    1MPD1    H713992   0.596   1.437  16.751  1.4061  1.0617  1.9922
    2MPD1     C13993   1.710   0.913  16.955 -0.5506  0.2548  0.6859
    2MPD1    C113994   1.577   0.888  16.938 -0.6183 -0.0757 -1.3064
    2MPD1    C213995   1.510   0.944  16.827 -0.3108  0.1977 -0.3095
    2MPD1    C313996   1.584   1.014  16.734  0.5121 -0.0186 -0.3674
    2MPD1    C413997   1.718   1.032  16.756  1.0396 -0.1617 -0.5313
    2MPD1    C513998   1.776   0.983  16.861  0.2147 -0.4897  0.0681
    2MPD1     H13999   1.404   0.927  16.811 -0.4949  1.4934 -0.4146
    2MPD1    H114000   1.772   1.090  16.682 -0.1397  2.1763  0.4245
    2MPD1    H214001   1.761   0.884  17.045  0.0519 -1.2306 -0.1378
    2MPD1    H314002   1.882   1.001  16.869 -0.0427  0.8161  0.6637
    2MPD1     N14003   1.520   1.058  16.618 -0.1950  0.7236  0.1438
    2MPD1    H514004   1.420   1.040  16.628 -0.0933 -0.5099 -0.8854
    2MPD1    N114005   1.500   0.836  17.041 -0.3540  0.2771  0.4585
    2MPD1    H614006   1.426   0.784  16.996 -1.8107  1.2053  1.7925
    2MPD1    H714007   1.555   0.773  17.100  1.6654  0.8710 -0.7906
    3TMC3    C114008   1.475   1.208  16.431  0.0869  0.1382  0.4737
    3TMC3    C214009   1.507   1.237  16.303 -0.4793 -0.3419  0.0703
    3TMC3    C314010   1.400   1.283  16.228  0.4834 -0.4077 -0.5387
    3TMC3    C414011   1.347   1.216  16.479 -0.0268 -0.3987 -0.5565
    3TMC3    C514012   1.251   1.274  16.404  0.0069  0.1889  0.2552
    3TMC3    C614013   1.268   1.305  16.277 -0.2570 -0.2264 -0.1985
    3TMC3     C14014   1.578   1.139  16.511  0.0789  0.0247 -0.3205
    3TMC3     O14015   1.695   1.149  16.482 -0.3456 -0.5494 -0.4155
    3TMC3     H14016   1.602   1.208  16.259  0.6707  1.9158  1.0966
    3TMC3    H114017   1.328   1.186  16.581 -1.2765 -0.4253 -0.7977
    3TMC3    H214018   1.183   1.343  16.222 -1.6788  2.0979  3.6672
    3TMC3    C714019   1.118   1.299  16.454  1.0893 -0.7972 -0.7064
    3TMC3    C814020   1.433   1.317  16.088 -0.2525 -1.2595 -0.4825
    3TMC3    O114021   1.060   1.394  16.407 -0.0406  0.1648  0.6328
    3TMC3    O214022   1.554   1.311  16.064  0.7872 -0.5545  0.3432
    4MPD1     C14023   1.356   1.577  15.648  0.1412  0.0375 -0.4266
    4MPD1    C114024   1.234   1.552  15.713 -0.2782  0.4554  0.8104
    4MPD1    C214025   1.228   1.476  15.828 -0.1115  0.6341 -0.5107
    4MPD1    C314026   1.342   1.446  15.891 -0.3835 -0.9421  0.5994
    4MPD1    C414027   1.463   1.483  15.836  0.3347  0.1010 -0.3388
    4MPD1    C514028   1.479   1.545  15.714 -0.6191 -0.0660  0.0471
    4MPD1     H14029   1.139   1.435  15.875  0.6537 -0.5315 -0.0905
    4MPD1    H114030   1.559   1.456  15.880 -0.4665 -0.1307  1.2601
    4MPD1    H214031   1.371   1.637  15.559 -2.6167  0.8534 -0.3412
    4MPD1    H314032   1.576   1.573  15.676 -0.8823  0.5035 -0.2088
    4MPD1     N14033   1.324   1.366  16.010 -0.9595  0.0867 -0.0552
    4MPD1    H514034   1.229   1.340  16.033 -0.4536 -1.4525  0.3172
    4MPD1    N114035   1.118   1.589  15.656 -0.0015  0.0725 -0.0862
    4MPD1    H614036   1.041   1.587  15.722 -0.8434  0.8161 -1.0526
    4MPD1    H714037   1.126   1.688  15.632 -0.6901 -0.1470 -1.2592
    1TCq1    O114038   2.193   0.194  10.828  0.4882 -0.7241 -0.1827
    1TCq1    C114039   2.308   0.250  10.875 -0.6504 -0.1635 -0.1766
    1TCq1    O214040   2.401   0.185  10.927  0.3609  0.1079 -0.5968
    1TCq1    C214041   2.300   0.394  10.873  0.3262 -0.2269 -0.1829
    1TCq1    C314042   2.227   0.451  10.777  0.8094 -0.2036  0.0340
    1TCq1    C414043   2.252   0.582  10.758 -0.4134 -0.2800 -0.5083
    1TCq1    C514044   2.310   0.658  10.852  0.2943  0.3846 -0.1246
    1TCq1    C614045   2.380   0.595  10.949  0.2179  0.3003 -0.0170
    1TCq1    C714046   2.384   0.457  10.962 -0.1693  0.7801 -0.1834
    1TCq1    C814047   2.460   0.662  11.056 -0.2605  0.3963 -0.1833
    1TCq1    O414048   2.502   0.587  11.144  0.0184  0.0210 -0.0766
    1TCq1    C914049   2.160   0.648  10.668  0.0228  0.5323 -0.0415
    1TCq1    O514050   2.124   0.765  10.696 -0.0875 -0.0232 -0.2651
    1TCq1    O614051   2.154   0.595  10.550  0.5669 -0.0118  0.1906
    1TCq1    H114052   2.119   0.259  10.829  0.6592 -0.5290 -0.0677
    1TCq1    H214053   2.182   0.390  10.700 -1.0822  1.4862 -0.1996
    1TCq1    H314054   2.294   0.765  10.850 -1.1125  0.1912  0.6185
    1TCq1    H414055   2.442   0.403  11.035 -0.7594  0.7309  0.2552
    2MPD1     C14056   2.730   1.026  11.279 -0.8323  0.1651  0.4894
    2MPD1    C114057   2.620   1.085  11.221 -0.3869  1.3383  0.4330
    2MPD1    C214058   2.539   1.001  11.145 -0.3223  0.0638  0.1005
    2MPD1    C314059   2.566   0.872  11.127 -0.6259  0.2431  0.3354
    2MPD1    C414060   2.674   0.816  11.187 -0.2663  0.1567  0.2134
    2MPD1    C514061   2.753   0.892  11.267 -0.4803  0.1357 -0.4317
    2MPD1     H14062   2.446   1.038  11.102 -1.3000 -1.5003  0.8986
    2MPD1    H114063   2.695   0.710  11.181  0.1979  0.0807  3.2539
    2MPD1    H214064   2.797   1.086  11.340 -2.9034  0.6268  2.2762
    2MPD1    H314065   2.829   0.860  11.337 -2.0720 -0.1204  1.1822
    2MPD1     N14066   2.475   0.798  11.046  0.2594  0.1246  0.4271
    2MPD1    H514067   2.400   0.839  10.992  0.5058  2.2729  1.7037
    2MPD1    N114068   2.577   1.213  11.256  0.6965  1.0294  0.1993
    2MPD1    H614069   2.638   1.292  11.276  1.3687  0.5835 -0.0909
    2MPD1    H714070   2.519   1.247  11.179 -0.7409 -0.5384  0.5833
    1TCq1    O114071   4.635   1.681   0.156 -0.6203  0.2294  0.5295
    1TCq1    C114072   4.588   1.652   0.038 -0.5263  0.2626 -0.1991
    1TCq1    O214073   4.510   1.724  17.677 -0.2200 -0.0113  0.4796
    1TCq1    C214074   4.676   1.563  17.674  0.1508 -0.4561  0.1354
    1TCq1    C314075   0.014   1.469   0.049  0.7221 -0.2348  0.3929
    1TCq1    C414076   0.089   1.369  17.697 -0.1496 -0.3510  0.4511
    1TCq1    C514077   0.094   1.364  17.556  0.0095 -0.1178  0.4550
    1TCq1    C614078   0.025   1.457  17.478  0.0774 -0.0823 -0.0250
    1TCq1    C714079   4.683   1.557  17.540 -0.3872 -0.1521 -0.1409
    1TCq1    C814080   0.044   1.462  17.332 -0.6212 -0.1480  0.2735
    1TCq1    O414081   0.030   1.570  17.271 -0.2480 -0.3085  0.3520
    1TCq1    C914082   0.089   1.234   0.050 -0.6937 -0.1456  0.0913
    1TCq1    O514083   0.072   1.223   0.172 -0.0393  0.4966  0.1071
    1TCq1    O614084   0.111   1.138  17.679  0.3985  0.1729  0.1779
    1TCq1    H114085   4.720   1.636   0.178 -0.9216 -1.6823 -2.2314
    1TCq1    H214086   4.701   1.450   0.149 -2.3087  1.1808 -0.5046
    1TCq1    H314087   0.146   1.282  17.508 -0.0936  0.0916 -0.0163
    1TCq1    H414088   4.639   1.634  17.478 -1.7649  0.4464  1.5927
    2MPD1     C14089   0.045   1.215  16.882  0.0353  0.2785 -0.2543
    2MPD1    C114090   0.054   1.120  16.981 -0.2007 -0.0904 -0.5713
    2MPD1    C214091   0.050   1.162  17.115  0.2213 -0.5300  0.4388
    2MPD1    C314092   0.063   1.299  17.141  0.4406 -0.0888 -0.6059
    2MPD1    C414093   0.069   1.385  17.038  0.0167  0.5092 -0.1694
    2MPD1    C514094   0.065   1.345  16.909  0.5123 -0.7342 -0.0191
    2MPD1     H14095   0.040   1.084  17.189 -0.5276 -0.4159  0.4595
    2MPD1    H114096   0.084   1.490  17.061 -1.3827  1.0799 -1.8770
    2MPD1    H214097   0.019   1.188  16.780  0.0504  0.9650 -0.4364
    2MPD1    H314098   0.054   1.422  16.834 -4.4425 -0.7983  0.6209
    2MPD1     N14099   0.062   1.332  17.282 -0.1693 -0.5045  0.4895
    2MPD1    H514100   0.049   1.259  17.351 -3.9403 -0.1492  0.1800
    2MPD1    N114101   0.024   0.991  16.950 -0.5078  0.3643 -1.1290
    2MPD1    H614102   0.038   0.965  16.852  1.5453  0.0817 -0.7681
    2MPD1    H714103   0.065   0.920  17.011  0.5744  0.5218 -1.6646
    1MPD1     C14104   3.974   4.367  12.446  0.0919  0.2697 -0.0854
    1MPD1    C114105   4.105   4.384  12.416 -0.3638 -0.4322  0.1006
    1MPD1    C214106   4.153   4.504  12.370 -0.4481  0.6600 -0.3761
    1MPD1    C314107   4.070   4.616  12.339 -0.3671  0.5733  0.1358
    1MPD1    C414108   3.937   4.590  12.364 -0.1795  0.1544  0.7558
    1MPD1    C514109   3.893   4.467  12.401  0.5979 -0.7371  0.4786
    1MPD1     H14110   4.259   4.525  12.361 -0.5368  1.0543 -0.5124
    1MPD1    H114111   3.870   4.657  12.311  0.3184 -0.9355 -1.2403
    1MPD1    H214112   3.936   4.274  12.488 -0.0185  1.4782  2.5145
    1MPD1    H314113   3.786   4.451  12.411  0.3232  1.2304  0.7190
    1MPD1     N14114   4.127   0.012  12.299  0.2700  0.8081 -0.5614
    1MPD1    H514115   4.228   0.014  12.289  0.3363  0.4213  0.0521
    1MPD1    N114116   4.196   4.275  12.427 -0.7443 -0.1659  0.7399
    1MPD1    H614117   4.293   4.296  12.449 -1.2343  1.2332  1.4975
    1MPD1    H714118   4.168   4.207  12.497 -0.7955 -1.5919 -0.6429
    2MPD1     C14119   3.471   1.276  11.139 -0.3699 -0.0423  0.3056
    2MPD1    C114120   3.431   1.248  11.013 -0.0157 -0.6049  0.1784
    2MPD1    C214121   3.496   1.146  10.945  0.7492  0.1484  0.1193
    2MPD1    C314122   3.610   1.095  11.000  0.0625  0.4872  0.3871
    2MPD1    C414123   3.656   1.142  11.114 -0.0125 -0.2734 -0.5091
    2MPD1    C514124   3.579   1.226  11.189 -0.9093 -0.5723 -0.0841
    2MPD1     H14125   3.461   1.129  10.844  1.7766 -0.4337 -0.1328
    2MPD1    H114126   3.753   1.119  11.157  0.7526  2.7024 -0.6741
    2MPD1    H214127   3.418   1.340  11.208  0.7584 -0.4062  1.5219
    2MPD1    H314128   3.609   1.243  11.292 -0.6976  1.6365 -0.5193
    2MPD1     N14129   3.700   1.004  10.939 -0.0045 -0.2239 -0.0887
    2MPD1    H514130   3.783   0.968  10.984 -0.8641 -0.7976  1.0316
    2MPD1    N114131   3.310   1.296  10.963 -0.0746  0.4916  0.0111
    2MPD1    H614132   3.291   1.394  10.982  1.5791  0.4613  1.7976
    2MPD1    H714133   3.297   1.286  10.863 -2.6559  1.2507  0.2812
    3MPD1     C14134   3.538   0.222  10.266 -0.4553 -1.4582  0.3617
    3MPD1    C114135   3.515   0.356  10.229 -0.0670 -0.3702  0.1135
    3MPD1    C214136   3.572   0.455  10.311  0.2971  0.5654  0.0963
    3MPD1    C314137   3.644   0.423  10.427  0.7637  0.5777  0.7433
    3MPD1    C414138   3.645   0.286  10.462  0.1006  0.6483  0.3613
    3MPD1    C514139   3.586   0.189  10.391 -0.4342 -0.3244 -0.5148
    3MPD1     H14140   3.569   0.554  10.266 -4.4551  0.3209 -0.1358
    3MPD1    H114141   3.662   0.260  10.566  2.4644 -1.2203 -0.5037
    3MPD1    H214142   3.508   0.138  10.204 -1.1261 -0.4103 -0.7437
    3MPD1    H314143   3.593   0.087  10.427  1.4172 -0.2137 -0.5458
    3MPD1     N14144   3.689   0.526  10.506 -0.1797  0.4931 -0.3975
    3MPD1    H514145   3.669   0.621  10.478 -0.8150 -0.1960 -2.2804
    3MPD1    N114146   3.469   0.383  10.105 -0.5704  0.0981  0.1813
    3MPD1    H614147   3.424   0.473  10.092 -0.3224  0.5338  2.4215
    3MPD1    H714148   3.408   0.312  10.065  2.0746 -1.7885 -0.4785
    4MPD2     C14149   4.168   0.851  12.125  0.1080 -0.3228  0.4707
    4MPD2    C114150   4.272   0.762  12.120 -0.9588  0.7267  0.4124
    4MPD2    C214151   4.374   0.777  12.023 -0.2143 -0.3473 -0.0631
    4MPD2    C314152   4.365   0.888  11.943  0.1610 -0.5615 -0.4577
    4MPD2    C414153   4.269   0.980  11.955 -0.3035 -0.1809 -0.2165
    4MPD2    C514154   4.170   0.959  12.044  0.2201 -0.4454  0.3599
    4MPD2     H14155   4.452   0.701  12.016 -1.6755 -1.7604 -0.9904
    4MPD2    H114156   4.258   1.072  11.899 -1.4065 -0.4346 -0.4137
    4MPD2    H214157   4.080   0.838  12.187 -0.7907  0.8198 -0.5656
    4MPD2    H314158   4.091   1.033  12.037  1.8784  1.3800  0.7855
    4MPD2     N14159   4.460   0.901  11.845 -0.0034  0.3164 -0.1588
    4MPD2    H514160   4.532   0.830  11.845  0.4134  0.7291 -2.7978
    4MPD2    N114161   4.276   0.637  12.190  0.0412  0.9186 -0.4040
    4MPD2    H714162   4.348   0.567  12.174 -2.4954 -1.8439  0.1836
    5TMC3    C114163   4.217   0.455  12.313 -0.0345 -0.3553 -0.0418
    5TMC3    C214164   4.119   0.367  12.292 -0.0539  0.1493  0.0172
    5TMC3    C314165   4.151   0.242  12.251  0.2148  0.5405 -0.6763
    5TMC3    C414166   4.355   0.424  12.306 -0.1561 -0.8404 -0.2485
    5TMC3    C514167   4.385   0.308  12.241  0.5885  0.3032 -0.5937
    5TMC3    C614168   4.282   0.222  12.209  0.1224  0.0316 -0.4474
    5TMC3     C14169   4.188   0.591  12.284 -0.1915 -0.1751 -0.6692
    5TMC3     O14170   4.095   0.646  12.341  0.3392 -0.3966 -0.3289
    5TMC3     H14171   4.018   0.408  12.300  0.5100  1.0371  2.4768
    5TMC3    H114172   4.423   0.503  12.335  0.2292 -0.9293 -0.8954
    5TMC3    H214173   4.310   0.127  12.165 -1.0885  0.2826 -1.7846
    5TMC3    C714174   4.464   0.336  12.130  0.0722  0.3569 -0.9428
    5TMC3    C814175   4.061   0.127  12.274 -0.6010  0.1704  0.0051
    5TMC3    O114176   4.476   0.451  12.100  0.2321  0.2626 -0.2025
    5TMC3    O214177   3.942   0.149  12.282 -0.2646  0.6401 -0.1310
    6TMC3    C114178   3.776   0.844  10.780 -0.2776 -0.0899  0.4420
    6TMC3    C214179   3.730   0.736  10.702 -0.0016 -0.4446  0.0243
    6TMC3    C314180   3.808   0.619  10.700 -0.2463  0.2770 -0.5326
    6TMC3    C414181   3.890   0.843  10.851 -1.1747 -0.6734  0.6118
    6TMC3    C514182   3.963   0.729  10.842 -0.0990 -0.3512  0.5655
    6TMC3    C614183   3.928   0.619  10.771 -0.3094  0.0953  0.1659
    6TMC3     C14184   3.672   0.941  10.814  0.2463 -0.3280  0.2629
    6TMC3     O14185   3.573   0.954  10.739  0.0641  1.1723  0.6896
    6TMC3     H14186   3.631   0.726  10.658 -0.3039  1.5790  0.2424
    6TMC3    H114187   3.916   0.917  10.926 -0.9563  0.0204 -0.1469
    6TMC3    H214188   3.982   0.527  10.792 -2.1085 -0.8881  0.4784
    6TMC3    C714189   4.075   0.723  10.936  0.5355 -0.4405  0.1610
    6TMC3    C814190   3.768   0.507  10.621 -0.1548 -0.0223 -0.2177
    6TMC3    O114191   4.078   0.800  11.032  0.0357  0.1462  0.2080
    6TMC3    O214192   3.809   0.406  10.676  0.2161  0.3396 -0.6013
    7MPD2     C14193   4.710   0.247  11.686 -0.2805 -0.2321  0.6788
    7MPD2    C114194   4.660   0.364  11.741  0.4664 -0.2928 -0.3038
    7MPD2    C214195   4.610   0.362  11.869  0.2656  0.0202 -0.0263
    7MPD2    C314196   4.610   0.248  11.948  0.2946 -0.0830  0.3018
    7MPD2    C414197   4.674   0.135  11.897 -0.0484 -0.7739 -0.2879
    7MPD2    C514198   4.717   0.138  11.766 -0.0049 -0.2018 -0.3277
    7MPD2     H14199   4.570   0.455  11.906 -2.7740 -1.2326 -0.1451
    7MPD2    H114200   4.675   0.042  11.951  2.1682 -0.4448  0.2530
    7MPD2    H214201   0.030   0.249  11.587  0.5914  1.5606  1.1100
    7MPD2    H314202   0.049   0.053  11.730 -0.6290 -0.7454 -0.0310
    7MPD2     N14203   4.531   0.235  12.072  0.4453 -0.4559  0.2872
    7MPD2    H514204   4.529   0.146  12.122 -0.0086  0.8172  2.5631
    7MPD2    N114205   4.670   0.482  11.667 -0.7369 -0.1897 -0.7976
    7MPD2    H714206   4.698   0.468  11.571  1.5206 -0.9854 -0.0194
    8TMC3    C114207   4.656   0.723  11.624 -0.1519  0.4855  0.6289
    8TMC3    C214208   4.596   0.697  11.508 -0.0163  0.4049 -0.0555
    8TMC3    C314209   4.526   0.805  11.452 -0.4639 -0.4835  0.3891
    8TMC3    C414210   4.645   0.844  11.692 -0.6884  0.2365  0.4390
    8TMC3    C514211   4.552   0.939  11.648 -0.0889 -0.0630 -0.1577
    8TMC3    C614212   4.493   0.917  11.525 -0.3706 -0.6516  0.5285
    8TMC3     C14213   4.668   0.609  11.719  0.3751  0.2525 -0.4042
    8TMC3     O14214   4.673   0.648  11.836  0.2841 -0.7461 -0.0433
    8TMC3     H14215   4.595   0.599  11.463 -1.4918  0.7271 -0.7542
    8TMC3    H114216   4.698   0.860  11.785 -1.6467  0.7626  0.9011
    8TMC3    H214217   4.409   0.982  11.503  1.2423  1.6743  1.2264
    8TMC3    C714218   4.466   0.994  11.745 -0.3000 -0.2992 -0.3632
    8TMC3    C814219   4.450   0.785  11.333  0.2678 -0.3751  0.0725
    8TMC3    O114220   4.394   1.083  11.706 -0.3427  0.0911 -0.2039
    8TMC3    O214221   4.350   0.854  11.316 -0.2080  0.6345  0.1480
    9MPD2     C14222   4.567   0.564  11.052  0.1428  0.1871  0.4061
    9MPD2    C114223   4.470   0.637  11.127  0.1630 -0.4208  0.6488
    9MPD2    C214224   4.345   0.671  11.066  0.1168 -0.4592 -0.7468
    9MPD2    C314225   4.305   0.625  10.947 -0.8419 -0.8845  0.0581
    9MPD2    C414226   4.408   0.554  10.879  0.0081  0.4688 -0.7218
    9MPD2    C514227   4.524   0.518  10.931  0.8980 -0.3372 -0.0683
    9MPD2     H14228   4.271   0.723  11.126  0.8952  1.0811 -1.1342
    9MPD2    H114229   4.387   0.501  10.786 -0.8799 -0.9047  0.2689
    9MPD2    H214230   4.674   0.571  11.073  0.3303  1.0302 -0.8330
    9MPD2    H314231   4.588   0.464  10.862  0.2516 -0.1044 -0.8463
    9MPD2     N14232   4.178   0.642  10.884  0.6903  0.0254 -0.4777
    9MPD2    H514233   4.160   0.587  10.801  1.6811  1.1112 -1.4158
    9MPD2    N114234   4.514   0.692  11.250 -0.7814  0.4734 -0.0427
    9MPD2    H714235   4.609   0.664  11.272 -1.3112 -0.0715  1.5338
    1MPD1     C14236   3.569   0.038  16.743  0.2276 -0.2110 -0.3816
    1MPD1    C114237   3.608   4.725  16.617 -0.2336 -0.1099  0.5525
    1MPD1    C214238   3.553   4.613  16.564 -0.2610 -0.5835  0.9332
    1MPD1    C314239   3.460   4.542  16.637  0.4158  0.2766  0.2535
    1MPD1    C414240   3.431   4.571  16.766 -0.2075  1.1288 -0.2266
    1MPD1    C514241   3.490   4.680  16.819 -0.1556  1.3269 -0.1681
    1MPD1     H14242   3.578   4.572  16.467  1.0840 -0.7760  1.3672
    1MPD1    H114243   3.373   4.499  16.822 -0.1654  1.1687 -0.1308
    1MPD1    H214244   3.619   0.127  16.779  0.4361 -0.5622  0.2071
    1MPD1    H314245   3.464   4.710  16.920  0.3399  1.9203 -0.2164
    1MPD1     N14246   3.401   4.420  16.589 -0.5929  0.0824 -0.3247
    1MPD1    H514247   3.326   4.377  16.643  0.0920 -0.1430  0.4328
    1MPD1    N114248   3.717   0.063  16.548 -1.1444  0.6895 -0.5944
    1MPD1    H614249   3.707   0.065  16.446  0.6909  0.8313 -0.7670
    1MPD1    H714250   3.729   0.160  16.577 -1.5954  0.4723  0.3080
    2MPD1     C14251   3.750   3.746  15.900 -0.0969  0.0103  0.3985
    2MPD1    C114252   3.782   3.878  15.926  0.1353 -0.0103 -0.5532
    2MPD1    C214253   3.715   3.941  16.032 -0.2854 -0.8253  0.3899
    2MPD1    C314254   3.613   3.877  16.097  0.0086  0.6508  0.0712
    2MPD1    C414255   3.581   3.742  16.068 -0.6682 -0.0992 -0.3557
    2MPD1    C514256   3.653   3.681  15.967 -0.4073 -0.0616 -0.1581
    2MPD1     H14257   3.744   4.043  16.055 -1.1971 -0.0424 -1.8799
    2MPD1    H114258   3.490   3.693  16.100 -0.0607 -0.6625  0.4875
    2MPD1    H214259   3.797   3.697  15.815 -1.4355 -1.8064  0.7001
    2MPD1    H314260   3.626   3.579  15.943  1.0907  0.0255 -2.1982
    2MPD1     N14261   3.550   3.946  16.206 -0.0022  0.9780  0.0384
    2MPD1    H514262   3.593   4.036  16.225 -1.0927  1.5077 -0.0159
    2MPD1    N114263   3.871   3.950  15.848 -1.0844  0.2578 -0.2414
    2MPD1    H614264   3.941   3.898  15.795  1.4944  2.0578  1.4100
    2MPD1    H714265   3.922   4.015  15.908 -1.4634 -0.8108  1.2146
    3TCq2    C114266   3.437   3.903  16.275 -0.2086  0.1054 -0.0440
    3TCq2    O214267   3.372   3.802  16.265  0.4640  0.0152  0.2192
    3TCq2    C214268   3.389   3.992  16.379 -0.0418 -0.1260 -0.2568
    3TCq2    C314269   3.333   3.942  16.492  0.3366 -0.8618  1.0610
    3TCq2    C414270   3.317   4.015  16.611 -0.5016  0.6502 -0.1916
    3TCq2    C514271   3.353   4.144  16.610  0.6020  0.8246  0.0241
    3TCq2    C614272   3.401   4.201  16.492  0.1513 -0.1722  0.3017
    3TCq2    C714273   3.432   4.121  16.385  0.2718 -0.1884  0.1916
    3TCq2    C814274   3.460   4.333  16.493 -0.0507  0.7096  0.1250
    3TCq2    O414275   3.545   4.352  16.408 -0.2080  0.0602  0.1970
    3TCq2    C914276   3.258   3.954  16.730  0.6139 -0.0781 -0.3630
    3TCq2    O514277   3.213   3.839  16.729  0.4651  0.3124  0.3608
    3TCq2    O614278   3.242   4.022  16.834 -0.0504 -0.6144 -0.3844
    3TCq2    H214279   3.291   3.842  16.502 -2.4362  0.0843 -1.2518
    3TCq2    H314280   3.342   4.187  16.709 -1.1999 -1.2419  0.7162
    3TCq2    H414281   3.450   4.167  16.288 -0.7781 -0.5084 -0.1507
    1TCq1    O114282   1.147   3.616  13.032  0.2932  0.1643 -0.6067
    1TCq1    C114283   1.229   3.659  12.934 -0.1453 -0.8737  0.0809
    1TCq1    O214284   1.213   3.775  12.898  0.0734 -0.0767  0.0814
    1TCq1    C214285   1.353   3.583  12.904  0.6412 -0.2460  0.2492
    1TCq1    C314286   1.370   3.453  12.937  0.0065  0.6282  0.6125
    1TCq1    C414287   1.496   3.403  12.930 -0.0536 -0.0343  0.9716
    1TCq1    C514288   1.608   3.465  12.881 -0.6896 -0.3127  0.7022
    1TCq1    C614289   1.571   3.589  12.825 -0.0919  0.0911 -0.6478
    1TCq1    C714290   1.446   3.652  12.834  0.4561  0.4281  0.2967
    1TCq1    C814291   1.684   3.682  12.807 -0.3877 -0.3765 -0.1468
    1TCq1    O414292   1.670   3.780  12.737 -0.1955 -0.0027  0.4800
    1TCq1    C914293   1.519   3.277  12.982  1.1719  0.1108  0.2832
    1TCq1    O514294   1.639   3.236  12.991 -0.2787  0.5039  0.1130
    1TCq1    O614295   1.425   3.216  13.040  0.3590  0.2417 -0.0064
    1TCq1    H114296   1.169   3.528  13.070 -0.4092  1.5076  2.8350
    1TCq1    H214297   1.285   3.396  12.973  0.1199  0.7016  0.9983
    1TCq1    H314298   1.700   3.409  12.868  1.0201  2.1807  2.0672
    1TCq1    H414299   1.431   3.757  12.811 -1.4739  0.4115  1.4712
    2MPD2     C14300   1.961   3.790  12.805  0.5525  0.2843  0.0183
    2MPD2    C114301   1.921   3.689  12.889 -0.3971  0.4309  0.4363
    2MPD2    C214302   2.010   3.635  12.980  0.1176  0.1025 -0.5716
    2MPD2    C314303   2.125   3.702  13.012  0.3317 -0.2118  0.4078
    2MPD2    C414304   2.173   3.792  12.919 -0.2011  0.0931 -0.4970
    2MPD2    C514305   2.088   3.836  12.817 -0.2009 -0.4835  0.3002
    2MPD2     H14306   1.986   3.546  13.038  2.0655  0.1198  0.2556
    2MPD2    H114307   2.266   3.847  12.915 -0.0651 -0.0914  0.1088
    2MPD2    H214308   1.912   3.833  12.719  0.1897  2.4313  1.2988
    2MPD2    H314309   2.117   3.916  12.750  0.7095 -0.1070  1.1390
    2MPD2     N14310   2.197   3.649  13.127 -1.2626 -0.3258  0.3433
    2MPD2    H514311   2.158   3.564  13.166  1.1335 -0.5830  2.1999
    2MPD2    N114312   1.797   3.633  12.872  0.1414  0.6154  0.2715
    2MPD2    H714313   1.782   3.553  12.933  0.2946 -1.2725 -2.1511
    3TCq1    O114314   2.695   3.661  13.593  0.6662 -0.4951 -0.0925
    3TCq1    C114315   2.559   3.673  13.596  0.0296  0.7176  0.4017
    3TCq1    O214316   2.510   3.764  13.656 -0.2329 -0.0142  0.1245
    3TCq1    C214317   2.514   3.615  13.464 -0.6026  1.2655  0.2566
    3TCq1    C314318   2.543   3.484  13.430  1.0285 -0.5024  0.3602
    3TCq1    C414319   2.481   3.414  13.330 -0.2427 -0.1084  0.1838
    3TCq1    C514320   2.389   3.486  13.254  0.3862 -0.1517  0.1788
    3TCq1    C614321   2.353   3.614  13.291  0.0840  0.4029 -0.5433
    3TCq1    C714322   2.412   3.682  13.393  0.1467  0.2937  0.5593
    3TCq1    C814323   2.298   3.708  13.191 -0.0049 -0.3973 -0.8123
    3TCq1    O414324   2.316   3.828  13.186 -0.0063  0.0077  0.3829
    3TCq1    C914325   2.518   3.276  13.301  0.2365  0.2759 -0.5062
    3TCq1    O514326   2.465   3.216  13.201  0.7202 -0.0900 -0.0985
    3TCq1    O614327   2.626   3.238  13.356  0.0161  0.0101  0.3627
    3TCq1    H114328   2.716   3.592  13.526  0.3620  0.5857 -1.3129
    3TCq1    H214329   2.615   3.423  13.484  1.2174 -2.2420 -1.8681
    3TCq1    H314330   2.339   3.426  13.178 -3.0698  1.4167  1.2056
    3TCq1    H414331   2.401   3.787  13.419 -0.6415  0.5799 -0.9391
    1MPD2     C14332   2.222   0.076  14.560 -0.6072  0.6290  0.0571
    1MPD2    C114333   2.163   4.698  14.620  0.1966  0.0519 -0.5249
    1MPD2    C214334   2.244   4.621  14.706 -0.9298 -0.0011  0.0989
    1MPD2    C314335   2.360   4.672  14.753  0.3401  0.5011  0.1207
    1MPD2    C414336   2.406   0.071  14.704  0.8599 -0.4135 -0.2524
    1MPD2    C514337   2.345   0.134  14.601  0.2079  0.0889  0.3140
    1MPD2     H14338   2.207   4.530  14.753 -0.6037  0.7931  1.8593
    1MPD2    H114339   2.496   0.117  14.743 -0.0369  1.5320 -0.4670
    1MPD2    H214340   2.186   0.125  14.470 -3.9652 -1.9189  0.0005
    1MPD2    H314341   2.374   0.232  14.565  0.5600  0.2366  0.9866
    1MPD2     N14342   2.427   4.587  14.840  0.2777  0.2133 -0.1408
    1MPD2    H514343   2.372   4.503  14.851  2.4985 -1.3096 -0.6778
    1MPD2    N114344   2.030   4.656  14.581 -0.3440  0.1095  0.4518
    1MPD2    H714345   1.982   4.721  14.519 -0.7662  0.7142  1.4225
    2TMC3    C114346   1.829   4.526  14.586 -0.1820 -0.5637  0.1031
    2TMC3    C214347   1.788   4.398  14.620  0.4276  0.2761  0.2970
    2TMC3    C314348   1.666   4.376  14.675 -0.4225  0.0183  0.1007
    2TMC3    C414349   1.740   4.633  14.603  0.4924 -0.6571 -0.4909
    2TMC3    C514350   1.610   4.607  14.651  0.7929 -0.0666 -0.7318
    2TMC3    C614351   1.572   4.477  14.686 -0.3818  0.1554 -0.0462
    2TMC3     C14352   1.972   4.541  14.617 -0.1323 -0.3661 -0.2715
    2TMC3     O14353   2.018   4.449  14.684  0.1241 -0.0982 -0.2177
    2TMC3     H14354   1.846   4.310  14.594 -0.4336 -0.7856  2.0274
    2TMC3    H114355   1.780   0.007  14.586  0.3932 -0.3530  1.0665
    2TMC3    H214356   1.474   4.455  14.724  0.4301  0.8066  2.4089
    2TMC3    C714357   1.507   4.700  14.640 -0.0942 -0.1692  0.0727
    2TMC3    C814358   1.677   4.294  14.789  0.5604 -0.2986 -0.5801
    2TMC3    O114359   1.398   4.654  14.667  0.3544  0.1533  0.1575
    2TMC3    O214360   1.573   4.258  14.845 -0.1714 -0.4087  0.2384
    3TCq1    O114361   1.334   1.160  14.272 -0.4170  0.2016 -0.3489
    3TCq1    C114362   1.348   1.073  14.166 -0.1320 -0.0161  0.3124
    3TCq1    O214363   1.257   1.036  14.097 -0.0779 -0.0434 -0.5656
    3TCq1    C214364   1.442   0.979  14.218  0.2726 -0.1864 -0.2641
    3TCq1    C314365   1.559   1.019  14.283  0.1837 -0.6042  0.7781
    3TCq1    C414366   1.620   0.924  14.366  0.5236  0.0317 -0.5330
    3TCq1    C514367   1.570   0.800  14.396  0.2364  0.9160 -0.2272
    3TCq1    C614368   1.455   0.772  14.334 -0.4215 -0.1602 -0.0436
    3TCq1    C714369   1.396   0.849  14.238 -0.4349  0.6611  0.0236
    3TCq1    C814370   1.372   0.668  14.395 -0.9782 -0.0025 -0.3701
    3TCq1    O414371   1.254   0.671  14.369 -0.3126  0.2662  0.2741
    3TCq1    C914372   1.744   0.956  14.440  0.0966 -0.1962  0.2801
    3TCq1    O514373   1.793   0.867  14.519  0.5360  0.3795  0.1451
    3TCq1    O614374   1.773   1.081  14.438 -0.0517  0.4748  0.9098
    3TCq1    H114375   1.387   1.123  14.346  0.8495  2.0991 -0.2983
    3TCq1    H214376   1.594   1.121  14.270  2.2692 -1.4020  0.0287
    3TCq1    H314377   1.602   0.755  14.489 -0.3874 -0.6470 -0.7592
    3TCq1    H414378   1.303   0.809  14.199 -1.4791  2.1071  0.9918
    4MPD2     C14379   1.274   0.412  14.510 -0.0725  0.0813  0.3197
    4MPD2    C114380   1.403   0.439  14.496 -0.1388 -0.1424  0.0185
    4MPD2    C214381   1.491   0.341  14.533  0.5024  0.2246 -0.2549
    4MPD2    C314382   1.444   0.215  14.579  0.5529 -0.7360 -0.5083
    4MPD2    C414383   1.306   0.192  14.591  0.6638  0.2368 -0.5051
    4MPD2    C514384   1.226   0.295  14.555  0.4610 -0.2514 -0.7552
    4MPD2     H14385   1.595   0.350  14.503  0.6619 -2.5182 -0.5408
    4MPD2    H114386   1.268   0.104  14.641  0.2754  0.1546 -0.9496
    4MPD2    H214387   1.188   0.476  14.494  0.3066 -0.2728 -3.0954
    4MPD2    H314388   1.120   0.270  14.554 -0.1289  2.0771  4.4624
    4MPD2     N14389   1.535   0.107  14.599 -1.0522 -0.0834 -0.0092
    4MPD2    H514390   1.630   0.143  14.602 -1.6983  1.6846 -0.6774
    4MPD2    N114391   1.452   0.562  14.444  0.5437 -0.1568 -0.6540
    4MPD2    H714392   1.552   0.579  14.437 -0.3293  4.2870 -2.2161
    5TMC2    C114393   2.428   4.309  15.049  0.5592  0.0205 -0.3522
    5TMC2    C214394   2.435   4.346  15.179 -0.3335  0.1049 -0.0292
    5TMC2    C314395   2.518   4.450  15.210 -0.1481  0.0542 -0.1527
    5TMC2    C414396   2.501   4.377  14.954 -1.1447 -0.7678  0.6177
    5TMC2    C514397   2.570   4.490  14.991 -0.4110  0.0223 -0.6348
    5TMC2    C614398   2.582   4.527  15.122 -0.2263 -0.0156 -0.1599
    5TMC2     C14399   2.300   4.275  14.997  0.4451 -0.4241 -0.7726
    5TMC2     O14400   2.281   4.318  14.884 -0.0822  0.5932  0.0102
    5TMC2     H14401   2.378   4.298  15.258  0.0922 -0.2682  0.0511
    5TMC2    H114402   2.499   4.333  14.855 -2.3735  0.1077  0.2540
    5TMC2    H214403   2.647   4.607  15.154  0.7951 -0.4576 -1.1252
    5TMC2    C714404   2.546   4.604  14.906  0.8610 -0.0854 -0.3958
    5TMC2    C814405   2.532   4.486  15.349  0.3873 -0.4314  0.1959
    5TMC2    O114406   2.622   4.702  14.921 -1.2248  0.0540  0.2474
    5TMC2    O214407   2.630   4.542  15.398  0.8309 -0.7611  0.0778
    5TMC2    O514408   2.406   4.487  15.396  0.3949 -0.8475  0.3811
    5TMC2    H514409   2.346   4.465  15.321  0.9070 -2.2969  0.3862
    6MPD2     C14410   1.783   4.180  15.055 -0.4498 -0.2159  0.2825
    6MPD2    C114411   1.858   4.238  14.952  0.1418  0.8337 -0.3880
    6MPD2    C214412   1.997   4.248  14.961  0.1683  0.0793  0.7707
    6MPD2    C314413   2.066   4.208  15.071 -0.3712  0.1924 -0.5523
    6MPD2    C414414   1.988   4.157  15.173 -0.0881 -0.7977 -0.3502
    6MPD2    C514415   1.854   4.144  15.162  0.5838 -0.1386  0.2478
    6MPD2     H14416   2.052   4.299  14.883 -0.5945 -1.3200 -0.6793
    6MPD2    H114417   2.030   4.127  15.268  0.6124  1.2005 -0.0149
    6MPD2    H214418   1.676   4.170  15.048 -0.4075 -2.0085  2.4580
    6MPD2    H314419   1.803   4.102  15.248 -1.3541  1.6909 -0.0000
    6MPD2     N14420   2.211   4.226  15.092 -0.0911 -0.9420  0.0990
    6MPD2    H514421   2.251   4.196  15.181  0.7661  0.2547  0.1319
    6MPD2    N114422   1.806   4.298  14.833  0.1189 -0.0440 -0.0228
    6MPD2    H714423   1.873   4.344  14.772 -1.5754  1.2895 -0.8868
  945NH4     N114424   0.738   1.041  14.146  0.0016  0.3106 -0.4346
  945NH4     H214425   0.672   1.121  14.142 -1.3466 -0.8060 -0.5633
  945NH4     H314426   0.760   1.022  14.046  0.9113  2.2179 -0.5971
  945NH4     H414427   0.679   0.966  14.187  2.7385 -1.8259 -0.3628
  945NH4     H514428   0.820   1.050  14.210 -1.1314 -3.2363  1.4623
  946SOD     NA14429   1.204   2.903   9.791 -0.4545  0.1764  0.3212
  947SOD     NA14430   4.307   4.476   0.661 -0.2381  0.0203  0.2864
  948SOD     NA14431   2.858   1.103   0.642  0.2196 -0.2280  0.2644
  949SOD     NA14432   3.276   3.675  16.846  0.1817 -0.1244  0.4476
  950SOD     NA14433   1.182   0.321   1.549 -0.4319 -0.4116  0.5204
  951SOD     NA14434   3.263   4.369   1.331  0.0548 -0.2318  0.7484
  952SOD     NA14435   0.892   1.596   9.510  0.2634 -0.3893  0.1446
  953SOD     NA14436   1.198   4.342  13.569 -0.1488  0.1719  0.0802
  954SOD     NA14437   3.102   3.662  14.151 -0.3352 -0.3654 -0.1352
  955SOD     NA14438   1.408   2.451  11.123  0.1109 -0.0524  0.2420
  956SOD     NA14439   2.352   3.668  11.482 -0.3705 -0.0400  0.1882
  957SOD     NA14440   3.375   4.586  14.067  0.0962  0.3353 -0.3351
  958SOD     NA14441   3.131   3.340  14.205  0.0802 -0.1037 -0.1330
  959SOD     NA14442   0.656   3.236  11.194  0.1918  0.7574 -0.4707
  960SOD     NA14443   3.426   0.463  12.755  0.1140  0.1498  0.5472
  961SOD     NA14444   3.979   3.342  11.379  0.2468  0.3998  0.3387
  962SOD     NA14445   1.164   4.221   9.858  0.1281  0.1246 -0.6021
  963SOD     NA14446   0.816   0.906  17.195 -0.7106  0.3141  0.1357
  964SOD     NA14447   2.003   0.482  10.447 -0.0797  0.2024 -0.1458
  965SOD     NA14448   3.580   3.227   0.244 -0.0505  0.3046  0.2018
  966SOD     NA14449   0.004   2.490   3.594 -0.2258  0.0432  0.2205
  967SOD     NA14450   2.847   1.311   7.260  0.0253 -0.2106  0.1766
  968SOD     NA14451   1.711   3.921   7.348 -0.5209  0.5155 -1.0047
  969SOD     NA14452   2.686   1.425  16.057  0.0574  0.9464 -0.2561
  970SOD     NA14453   1.754   2.924   9.749 -0.1576 -0.1339  0.2533
  971SOD     NA14454   0.315   3.209  13.141  0.4941  0.2245  0.2264
  972SOD     NA14455   3.430   3.837  14.677 -0.3280 -0.1054  0.2088
  973SOD     NA14456   2.748   3.851   1.765  0.0648  0.4508  0.0339
  974SOD     NA14457   2.301   3.379  11.647  0.4775 -0.2706  0.1375
  975SOD     NA14458   1.769   1.360  11.162  0.3314  0.0736 -0.0586
  976SOD     NA14459   4.322   3.527   9.309  0.3204 -0.0120 -0.1905
  977SOD     NA14460   3.808   2.650  16.641 -0.4929  0.1363  0.3343
  978SOD     NA14461   2.505   3.095  11.715 -0.0462 -0.3325 -0.4176
  979SOD     NA14462   1.377   2.760  12.969 -0.8102 -0.2695 -0.3006
  980SOD     NA14463   3.271   1.688  16.987 -0.5830  0.0397 -0.2351
  981SOD     NA14464   4.282   1.504   2.883  0.3881  0.2430  0.0129
  982SOD     NA14465   0.685   3.768   3.168 -0.5378  0.2358  0.6754
  983SOD     NA14466   3.154   3.577  14.514  0.1570  0.3372  0.3747
  984SOD     NA14467   1.999   2.445   0.221  0.2082  0.4012  0.0228
  985SOD     NA14468   0.330   3.844  10.285 -0.1414 -0.4231  0.3376
  986SOD     NA14469   0.490   3.369  15.388 -0.0726  0.5879 -0.1108
  987SOD     NA14470   1.860   4.131  12.450  0.0800  0.4763 -0.3622
  988SOD     NA14471   3.520   1.133  13.939  0.5063 -0.0599 -0.4040
  989SOD     NA14472   1.735   4.080   8.686  0.4562  0.2245  1.0960
  990SOD     NA14473   3.609   3.253   8.271 -0.5530  0.1730 -0.2830
  991SOD     NA14474   4.194   4.653  14.720  0.0942  0.5727 -0.1570
  992SOD     NA14475   0.146   2.935  14.151 -0.2130  0.0149 -0.7925
  993SOD     NA14476   0.159   3.262  14.243 -0.0150 -0.6932 -0.1880
  994SOD     NA14477   1.423   4.398  15.150  0.1572 -0.3792 -0.1567
  995SOD     NA14478   3.778   2.479   0.496 -0.0555  0.2444 -0.0548
  996SOD     NA14479   2.555   1.101  11.742  0.7815  0.2283  0.0100
  997SOD     NA14480   0.474   2.128   9.383 -0.0615  0.3090  0.7860
  998SOD     NA14481   2.039   2.823   2.076 -0.0054  0.4254  0.0138
  999SOD     NA14482   1.132   4.512  11.044 -0.0091 -0.2792 -0.1796
 1000SOD     NA14483   0.790   0.064   1.831  0.0653  0.0564 -0.4414
 1001SOD     NA14484   2.822   0.041  14.952  0.0008  0.1644 -0.2421
 1002SOD     NA14485   0.107   0.652   7.153 -0.3141 -0.1689 -0.2880
 1003SOD     NA14486   2.127   0.947  10.789  0.1461 -0.3135 -0.4282
 1004SOD     NA14487   0.402   0.642  15.993  0.1159 -0.0408 -0.5445
 1005SOD     NA14488   2.284   0.769   9.716  0.1425 -0.1519  0.3838
 1006SOD     NA14489   2.061   4.615  12.288 -0.4376 -0.0590  0.0512
 1007SOD     NA14490   0.526   2.166   1.220  0.0118  0.0470  0.1703
 1008SOD     NA14491   2.374   2.667  13.065  0.0797 -0.0778  0.5111
 1009SOD     NA14492   3.228   4.379  11.055  0.2438  0.1296  0.0624
 1010SOD     NA14493   1.631   0.503   2.582  0.1010  0.3421  0.2026
 1011SOL     OW14494   2.615   4.008  17.032  0.4025 -0.6868 -0.3620
 1011SOL    HW114495   2.674   4.063  17.085 -0.0901 -0.4033 -0.1067
 1011SOL    HW214496   2.626   4.057  16.950 -1.4207  0.1854 -0.0733
 1012SOL     OW14497   0.130   0.546   5.847 -0.2752 -0.3446 -0.1533
 1012SOL    HW114498   0.050   0.509   5.884  0.1488 -1.3631 -0.2441
 1012SOL    HW214499   0.186   0.470   5.865  1.8929  0.7909 -2.2076
 1013SOL     OW14500   0.790   1.971   3.875 -0.6836  0.4658  0.0288
 1013SOL    HW114501   0.804   1.985   3.781 -3.1243  0.7124 -0.3116
 1013SOL    HW214502   0.701   1.936   3.881  0.4636 -1.6805  3.8614
 1014SOL     OW14503   3.325   3.713   2.377 -0.3067  0.2321 -0.3536
 1014SOL    HW114504   3.415   3.707   2.347 -0.2832  0.5442 -0.3401
 1014SOL    HW214505   3.331   3.736   2.470  2.2815 -0.4615 -0.3508
 1015SOL     OW14506   2.854   3.009   8.486  0.5885 -0.3928 -0.5413
 1015SOL    HW114507   2.875   2.966   8.569 -2.8644 -1.5139 -0.2682
 1015SOL    HW214508   2.863   3.101   8.508 -0.6757 -0.2531 -0.5984
 1016SOL     OW14509   2.361   2.325   9.958 -0.0731  0.2558 -0.1149
 1016SOL    HW114510   2.378   2.413   9.990 -1.5676 -0.1708  1.8464
 1016SOL    HW214511   2.279   2.310  10.005 -2.0017 -0.3327 -3.6860
 1017SOL     OW14512   2.381   3.356   3.085 -0.0593 -0.6672  0.1984
 1017SOL    HW114513   2.395   3.314   3.000 -1.1467  1.9010 -1.2487
 1017SOL    HW214514   2.445   3.426   3.079  0.4245 -1.1919 -0.8960
 1018SOL     OW14515   1.641   0.446  14.794  0.1501  0.6533  1.1124
 1018SOL    HW114516   1.637   0.520  14.734  2.3908 -0.3963 -0.3485
 1018SOL    HW214517   1.556   0.442  14.837 -0.1780  2.2171  0.6071
 1019SOL     OW14518   1.102   3.937  12.457 -0.1547 -0.5204  0.3598
 1019SOL    HW114519   1.142   4.006  12.511  0.2951 -0.5378  0.0511
 1019SOL    HW214520   1.136   3.859  12.500  2.5762  1.0672  1.1228
 1020SOL     OW14521   0.499   3.036  13.304 -0.2565 -0.4717 -0.1742
 1020SOL    HW114522   0.464   3.093  13.372 -0.6348 -2.2829  1.1332
 1020SOL    HW214523   0.521   2.954  13.348  1.0516  1.4103  2.7133
 1021SOL     OW14524   3.535   4.492  15.286  0.7379 -0.5359  0.4406
 1021SOL    HW114525   3.497   4.563  15.336 -0.5968 -2.5072  2.1940
 1021SOL    HW214526   3.485   4.416  15.317 -0.2233  0.6473  1.7382
 1022SOL     OW14527   1.973   0.649   6.676 -0.4655  0.3214 -0.3869
 1022SOL    HW114528   1.945   0.561   6.700 -3.0469  0.3417 -3.2295
 1022SOL    HW214529   2.068   0.653   6.686 -0.0877 -1.8593 -3.1782
 1023SOL     OW14530   4.622   3.885   3.517  0.2236  0.2221  0.6796
 1023SOL    HW114531   4.670   3.814   3.560  0.6966 -0.7157 -1.4305
 1023SOL    HW214532   4.585   3.844   3.440  1.7035 -0.9629  0.5999
 1024SOL     OW14533   4.468   4.692   4.953  0.1098  0.3696  0.6631
 1024SOL    HW114534   4.502   0.015   5.028 -1.1399 -0.9526  2.0929
 1024SOL    HW214535   4.511   0.003   4.876 -2.0058 -0.8922 -1.1353
 1025SOL     OW14536   1.164   1.779   0.615 -0.1022  0.0794  0.3497
 1025SOL    HW114537   1.201   1.764   0.703 -0.0687 -2.7906 -0.1601
 1025SOL    HW214538   1.165   1.875   0.610  0.2217  0.0449 -0.2428
 1026SOL     OW14539   0.706   3.034   7.528  0.2074 -0.3328 -0.2275
 1026SOL    HW114540   0.627   3.061   7.482  0.1879 -1.0923 -0.6356
 1026SOL    HW214541   0.745   2.966   7.473 -0.8035 -0.2990 -0.9684
 1027SOL     OW14542   2.069   3.631   6.415 -0.1066 -0.1068  1.1496
 1027SOL    HW114543   2.050   3.713   6.461  0.1831  1.0887 -0.8640
 1027SOL    HW214544   1.984   3.619   6.372  0.2143 -0.0008  0.4978
 1028SOL     OW14545   0.632   3.936   2.543  0.3663  0.0545 -0.2040
 1028SOL    HW114546   0.710   3.908   2.495 -0.0206 -1.9695  0.3835
 1028SOL    HW214547   0.646   4.031   2.536  0.8776  0.1663  2.1424
 1029SOL     OW14548   3.343   4.458   5.863  0.1470  0.1853  0.0413
 1029SOL    HW114549   3.317   4.540   5.820  0.2067  0.0641 -0.2208
 1029SOL    HW214550   3.427   4.488   5.898  0.1915  0.8003 -0.5875
 1030SOL     OW14551   0.359   0.419  15.690 -0.1483 -0.1914  0.1524
 1030SOL    HW114552   0.415   0.426  15.767  0.1920  1.1636 -0.2102
 1030SOL    HW214553   0.396   0.484  15.629  0.9250  0.7745  1.8318
 1031SOL     OW14554   4.018   0.482  11.619 -0.1221  0.9973  0.2034
 1031SOL    HW114555   3.923   0.466  11.615 -0.1543  1.0531  0.8344
 1031SOL    HW214556   4.052   0.416  11.679 -0.5902  3.1727  2.8646
 1032SOL     OW14557   3.761   2.326   4.467  0.0126 -0.0145  0.3264
 1032SOL    HW114558   3.674   2.295   4.440  0.1663 -0.5317  0.4200
 1032SOL    HW214559   3.821   2.262   4.429  0.3578 -0.1894  1.1642
 1033SOL     OW14560   0.617   1.834   8.564 -0.7065  0.0007 -0.0008
 1033SOL    HW114561   0.548   1.836   8.498  0.1043 -3.6494 -0.9506
 1033SOL    HW214562   0.697   1.858   8.517 -0.1182 -1.4560  0.2616
 1034SOL     OW14563   3.385   0.446   9.645  0.2531  0.2482 -0.1003
 1034SOL    HW114564   3.380   0.356   9.611  2.9334  0.9262 -2.3288
 1034SOL    HW214565   3.304   0.443   9.695  0.9627  0.8301  1.0990
 1035SOL     OW14566   1.847   0.380   6.733 -0.1963  0.1897  0.8010
 1035SOL    HW114567   1.817   0.383   6.642 -0.5280  0.7064  0.9319
 1035SOL    HW214568   1.769   0.393   6.786  0.3018 -0.7978  1.7814
 1036SOL     OW14569   4.271   2.813  16.207 -0.8790 -0.4525  0.1591
 1036SOL    HW114570   4.301   2.818  16.116  0.5269 -3.4283  0.4532
 1036SOL    HW214571   4.352   2.826  16.255 -0.4123  0.2027 -0.8071
 1037SOL     OW14572   0.158   0.522   3.694 -0.1882  0.3251  0.6802
 1037SOL    HW114573   0.227   0.580   3.726  0.4565 -0.2342  0.3057
 1037SOL    HW214574   0.204   0.465   3.633  0.2246  0.3785  0.9473
 1038SOL     OW14575   4.008   1.034   2.890 -0.5137 -0.1500 -0.5627
 1038SOL    HW114576   4.008   0.984   2.972  0.3326  1.6533  0.5497
 1038SOL    HW214577   3.962   0.978   2.828  0.0174 -0.6904 -0.4713
 1039SOL     OW14578   0.103   0.306   4.855  0.4692  0.1995 -0.6008
 1039SOL    HW114579   0.168   0.291   4.787  0.8935  0.4172 -0.2463
 1039SOL    HW214580   0.029   0.347   4.809  0.0524 -1.3134 -1.2640
 1040SOL     OW14581   1.364   3.838   3.536 -0.1771  0.4495 -0.4212
 1040SOL    HW114582   1.376   3.766   3.474  0.1177  0.7919 -0.7603
 1040SOL    HW214583   1.327   3.793   3.612 -1.6191  0.8974 -0.8632
 1041SOL     OW14584   2.956   4.354   5.538 -0.0183  0.0440 -0.0590
 1041SOL    HW114585   2.862   4.349   5.521  0.3220 -2.0853 -1.4291
 1041SOL    HW214586   2.982   4.262   5.536  0.8049  0.2693  0.6453
 1042SOL     OW14587   2.489   2.229   5.755  0.5776 -0.0366 -0.8403
 1042SOL    HW114588   2.421   2.283   5.715 -0.3258 -1.5112 -1.2944
 1042SOL    HW214589   2.517   2.177   5.680  2.5711  0.5141 -0.4824
 1043SOL     OW14590   3.321   0.559  15.991 -0.1573  0.1127 -0.7030
 1043SOL    HW114591   3.318   0.477  15.940  0.2713  0.1092 -0.7238
 1043SOL    HW214592   3.238   0.593  15.956  0.0912 -1.1785 -2.5510
 1044SOL     OW14593   2.864   2.933   8.741 -0.0612  0.1733  0.8502
 1044SOL    HW114594   2.840   3.007   8.797 -0.5935  1.0895 -0.6118
 1044SOL    HW214595   2.958   2.943   8.754  0.0308  0.8873 -0.4549
 1045SOL     OW14596   2.029   4.211   0.810  0.2907  0.3539 -0.5596
 1045SOL    HW114597   1.954   4.175   0.762 -0.0663  1.3168 -0.7181
 1045SOL    HW214598   1.986   4.277   0.865  1.9153  1.8506 -1.0998
 1046SOL     OW14599   2.262   3.262  10.845 -0.2814 -0.3675 -0.2533
 1046SOL    HW114600   2.243   3.180  10.800 -1.1827 -1.0246  1.3673
 1046SOL    HW214601   2.208   3.320  10.790 -2.0573 -1.4083  0.4091
 1047SOL     OW14602   4.240   1.071  13.827 -0.1987 -0.1398 -0.3340
 1047SOL    HW114603   4.281   0.990  13.798 -1.6614 -1.9728  2.7375
 1047SOL    HW214604   4.310   1.136  13.833 -1.2704  0.9767  0.1527
 1048SOL     OW14605   0.718   4.001  11.483  0.0610 -0.0102  0.0912
 1048SOL    HW114606   0.749   3.999  11.574 -1.0861  2.1175  0.5336
 1048SOL    HW214607   0.797   4.022  11.433 -2.3978  2.1754 -2.8685
 1049SOL     OW14608   0.876   3.983  13.075 -0.0801  0.6292  0.9887
 1049SOL    HW114609   0.821   3.956  13.149  1.5460 -0.2223  1.8937
 1049SOL    HW214610   0.846   4.072  13.057 -2.3306 -0.5919 -1.3757
 1050SOL     OW14611   0.187   3.231   7.726  0.0938  0.2192  0.2912
 1050SOL    HW114612   0.170   3.321   7.700  0.2795  0.0953 -0.2590
 1050SOL    HW214613   0.282   3.236   7.738  0.0264 -0.4787  1.1656
 1051SOL     OW14614   2.919   3.759   4.958  0.0887 -0.4916 -0.1148
 1051SOL    HW114615   2.989   3.806   5.003 -1.6396  2.2034 -0.1955
 1051SOL    HW214616   2.897   3.691   5.022  1.7338 -0.5481  0.3859
 1052SOL     OW14617   4.631   4.299   4.485 -0.1833  0.2319  0.4603
 1052SOL    HW114618   4.562   4.364   4.476 -0.8576 -0.7658 -1.6886
 1052SOL    HW214619   4.591   4.237   4.546 -2.1456 -0.1211 -1.1954
 1053SOL     OW14620   4.202   1.953   6.937  0.1466 -0.7209 -0.1658
 1053SOL    HW114621   4.276   1.901   6.906  1.7924  1.7058 -0.2661
 1053SOL    HW214622   4.137   1.895   6.898  0.3079 -0.8582 -0.2304
 1054SOL     OW14623   0.912   3.045   2.495  0.0755 -0.4055 -0.2751
 1054SOL    HW114624   0.932   2.988   2.421  0.6538  0.2577 -0.6332
 1054SOL    HW214625   0.970   3.014   2.565 -1.3649 -1.0774  0.6194
 1055SOL     OW14626   0.802   2.679  13.821  0.3056  0.3097 -0.8269
 1055SOL    HW114627   0.782   2.676  13.915 -2.0162  0.9009 -1.3020
 1055SOL    HW214628   0.859   2.756  13.830  0.4536  0.1962 -0.7846
 1056SOL     OW14629   0.862   2.169   7.177  0.7094 -0.1390 -0.7069
 1056SOL    HW114630   0.801   2.112   7.224 -0.2419  4.1442  3.1974
 1056SOL    HW214631   0.803   2.220   7.123 -0.0706 -1.9737 -1.6013
 1057SOL     OW14632   0.307   4.582  16.003  0.2860  0.1619 -0.3797
 1057SOL    HW114633   0.326   4.624  15.920 -2.8301  0.9386 -0.6688
 1057SOL    HW214634   0.325   4.657  16.059 -1.6134  0.0300  0.4025
 1058SOL     OW14635   3.788   3.998  14.100  0.1491 -0.1403 -0.3343
 1058SOL    HW114636   3.850   4.051  14.049  0.3332  1.0506  1.1304
 1058SOL    HW214637   3.823   3.909  14.112  1.9209  1.0107  3.2425
 1059SOL     OW14638   2.562   3.227   1.039 -0.3307  0.3166  0.4534
 1059SOL    HW114639   2.547   3.212   0.945  0.7634  1.2242  0.1348
 1059SOL    HW214640   2.649   3.188   1.048 -0.9533 -0.6327  2.3623
 1060SOL     OW14641   0.325   2.975   4.770 -0.0444  0.1547 -0.5070
 1060SOL    HW114642   0.361   2.952   4.856  0.3455 -0.6157 -0.8756
 1060SOL    HW214643   0.275   2.897   4.747  0.4134 -0.2367 -0.1967
 1061SOL     OW14644   2.804   1.173   0.862 -0.4060  0.1105  0.2861
 1061SOL    HW114645   2.880   1.213   0.903  1.6084 -0.3437 -3.0063
 1061SOL    HW214646   2.760   1.132   0.936  0.0173 -1.7040 -0.4695
 1062SOL     OW14647   0.143   0.220   4.104 -0.0910  0.4166 -0.1244
 1062SOL    HW114648   0.154   0.309   4.071 -0.6819 -0.5423 -2.8685
 1062SOL    HW214649   0.109   0.232   4.193  2.0612  0.3989  0.7246
 1063SOL     OW14650   0.629   2.318   8.573 -0.2830  0.6042 -0.0363
 1063SOL    HW114651   0.570   2.258   8.527 -0.2576 -2.7928  4.3476
 1063SOL    HW214652   0.629   2.278   8.660 -1.8390  2.4996  0.8517
 1064SOL     OW14653   3.455   1.649   7.634 -0.1785  0.1791  0.6183
 1064SOL    HW114654   3.452   1.573   7.692 -0.0440  1.2635  2.0521
 1064SOL    HW214655   3.470   1.726   7.689 -2.0758  0.2603  1.0400
 1065SOL     OW14656   1.664   1.041   8.554  0.3844  0.1534  0.9105
 1065SOL    HW114657   1.753   1.061   8.584  0.5565  1.4705 -0.4724
 1065SOL    HW214658   1.685   0.958   8.511  0.2825  0.3035  0.5708
 1066SOL     OW14659   3.338   3.502   8.427 -0.4835  0.1541 -0.4826
 1066SOL    HW114660   3.378   3.588   8.440  2.0689 -1.0812 -0.1409
 1066SOL    HW214661   3.378   3.458   8.502 -0.2355 -1.1580 -1.3785
 1067SOL     OW14662   2.430   3.956   2.422 -0.1371 -0.4786 -0.9180
 1067SOL    HW114663   2.465   4.010   2.493 -0.2682  2.1121 -2.8183
 1067SOL    HW214664   2.396   4.033   2.376  1.9138  0.2505 -1.2424
 1068SOL     OW14665   4.309   0.856   3.843  0.0278 -0.4187 -0.0845
 1068SOL    HW114666   4.277   0.946   3.837  0.5340 -0.3048 -1.0481
 1068SOL    HW214667   4.246   0.823   3.779  0.2339  1.4088 -1.2414
 1069SOL     OW14668   0.815   0.894   7.943 -0.1040  0.1161 -0.3627
 1069SOL    HW114669   0.898   0.871   7.984 -1.5717 -1.1033  1.9637
 1069SOL    HW214670   0.755   0.855   8.007 -1.3159  1.1621 -0.8744
 1070SOL     OW14671   2.453   1.166   2.584  0.6105 -0.2253 -0.0735
 1070SOL    HW114672   2.538   1.175   2.627 -0.2815  1.6662  1.2963
 1070SOL    HW214673   2.408   1.241   2.621 -1.8708 -1.6480 -0.2052
 1071SOL     OW14674   1.753   2.469  16.887 -0.4426 -0.6454 -0.2997
 1071SOL    HW114675   1.674   2.514  16.856 -0.6318 -0.4721  0.4256
 1071SOL    HW214676   1.719   2.416  16.959  1.5616  1.2032  1.9983
 1072SOL     OW14677   4.220   1.766   2.016  0.5044  0.0186  0.5076
 1072SOL    HW114678   4.288   1.833   2.029  0.7588 -0.3765  1.1783
 1072SOL    HW214679   4.194   1.779   1.925  3.3725  1.1818 -0.1770
 1073SOL     OW14680   3.870   1.579   8.958  0.4300  0.1569  0.1639
 1073SOL    HW114681   3.818   1.512   8.911  0.5011 -1.2417  2.0890
 1073SOL    HW214682   3.912   1.623   8.884 -0.6693 -2.0169 -1.7926
 1074SOL     OW14683   4.634   4.300   0.348  0.1165 -0.2637  0.4595
 1074SOL    HW114684   4.690   4.377   0.347 -0.2255 -0.0169 -0.0213
 1074SOL    HW214685   4.694   4.226   0.360  1.3050  0.2633 -2.2865
 1075SOL     OW14686   3.186   3.588  16.405  0.3638  0.0986  0.2852
 1075SOL    HW114687   3.226   3.501  16.408  0.2527  0.0743  1.1934
 1075SOL    HW214688   3.238   3.629  16.336 -1.8246  1.2151 -0.6990
 1076SOL     OW14689   1.410   4.470   2.382  0.7740 -0.4358 -0.0172
 1076SOL    HW114690   1.334   4.443   2.330  0.5071 -0.2341  0.2712
 1076SOL    HW214691   1.384   4.560   2.401 -1.8470 -0.9168 -1.1941
 1077SOL     OW14692   0.705   2.568   3.902 -0.0959  0.4984  0.1380
 1077SOL    HW114693   0.700   2.473   3.893 -2.9386  0.8696 -2.3010
 1077SOL    HW214694   0.720   2.577   3.808 -0.1071  2.1128  0.2992
 1078SOL     OW14695   0.915   0.927   7.501 -0.1956 -0.4531 -0.3279
 1078SOL    HW114696   0.890   0.907   7.592  0.1520  0.4278 -0.0357
 1078SOL    HW214697   0.860   0.860   7.460  1.9281 -2.4525  0.0645
 1079SOL     OW14698   1.447   0.169   4.122  0.4840 -0.0838 -0.4385
 1079SOL    HW114699   1.513   0.214   4.174  0.5775 -1.1992  0.3914
 1079SOL    HW214700   1.484   0.168   4.034  4.2122 -0.4471  1.1611
 1080SOL     OW14701   3.877   3.377   7.348  0.3283 -0.5177  0.0248
 1080SOL    HW114702   3.873   3.431   7.427 -1.3118  1.1665 -1.2176
 1080SOL    HW214703   3.870   3.285   7.374  3.5192 -0.2048  2.0041
 1081SOL     OW14704   2.308   0.568   6.041  0.6981 -0.1701  0.0403
 1081SOL    HW114705   2.397   0.534   6.042  0.6606 -0.2660  0.1995
 1081SOL    HW214706   2.262   0.485   6.047 -1.4445  0.9255 -1.1170
 1082SOL     OW14707   4.346   2.281   3.383  0.1411 -0.5799 -0.7400
 1082SOL    HW114708   4.345   2.207   3.322  0.1635 -1.9012  0.8339
 1082SOL    HW214709   4.370   2.346   3.318 -1.4839  1.4463  0.6957
 1083SOL     OW14710   1.966   4.101   1.358 -0.3281  0.1341  0.4496
 1083SOL    HW114711   1.993   4.112   1.267 -0.8604 -0.5249  0.2064
 1083SOL    HW214712   2.020   4.174   1.388  0.4404  0.9351 -2.8110
 1084SOL     OW14713   4.672   4.612   5.695 -0.2673 -0.1846  0.0682
 1084SOL    HW114714   4.650   4.602   5.602  2.6350 -1.4751 -0.4850
 1084SOL    HW214715   4.596   4.661   5.726 -0.7335  0.9746 -2.8580
 1085SOL     OW14716   0.451   0.958  14.036 -0.4282 -0.5130  0.3805
 1085SOL    HW114717   0.425   1.049  14.043  1.0294 -0.0447 -0.2651
 1085SOL    HW214718   0.393   0.929  13.965 -1.3370 -0.9860  1.3230
 1086SOL     OW14719   0.390   1.261   6.678 -0.5891 -0.0358  0.1863
 1086SOL    HW114720   0.397   1.300   6.765  1.7688  0.6305 -0.2830
 1086SOL    HW214721   0.415   1.170   6.695  0.0651 -0.1345 -1.2668
 1087SOL     OW14722   3.741   1.111   8.007 -0.2614  0.2320  0.2554
 1087SOL    HW114723   3.676   1.041   8.012  0.5354 -0.4777  0.7684
 1087SOL    HW214724   3.693   1.170   7.949 -0.2861  0.5218  0.5720
 1088SOL     OW14725   1.460   0.910  12.002  0.3960 -0.2767  0.0185
 1088SOL    HW114726   1.423   0.905  12.090 -0.3689 -0.6488 -0.3247
 1088SOL    HW214727   1.390   0.960  11.960 -0.2866 -1.0265  0.2741
 1089SOL     OW14728   1.667   4.528  15.719  0.2571  0.0312  0.2768
 1089SOL    HW114729   1.598   4.547  15.783 -0.4218 -1.0069 -0.1378
 1089SOL    HW214730   1.674   4.618  15.690  1.1152  0.3602  1.4931
 1090SOL     OW14731   4.387   3.427   2.545  0.0538  0.1435 -0.0914
 1090SOL    HW114732   4.310   3.460   2.499 -0.8511 -0.2425  1.1374
 1090SOL    HW214733   4.355   3.393   2.629 -1.0189  3.0108  0.6557
 1091SOL     OW14734   2.914   2.672   7.777 -0.4710 -0.2297 -0.8184
 1091SOL    HW114735   2.976   2.602   7.755 -0.9497 -0.2638 -2.0835
 1091SOL    HW214736   2.942   2.708   7.861 -0.6543 -0.6857 -0.5637
 1092SOL     OW14737   1.082   2.922   7.533 -0.2107 -0.1590  0.3301
 1092SOL    HW114738   1.173   2.951   7.545 -0.4351  0.5921  0.2298
 1092SOL    HW214739   1.098   2.828   7.524  1.9530  0.2880 -0.4664
 1093SOL     OW14740   0.925   0.352   8.392 -0.4116 -0.0478  0.0155
 1093SOL    HW114741   0.850   0.394   8.435  0.5219 -0.0141  1.5712
 1093SOL    HW214742   0.998   0.356   8.453  0.7968 -0.4458 -1.4017
 1094SOL     OW14743   0.663   1.500   6.744  0.0307 -0.2839 -0.3776
 1094SOL    HW114744   0.699   1.412   6.742  2.3624  0.6920 -2.0114
 1094SOL    HW214745   0.590   1.474   6.800 -1.0807  0.2213 -1.5918
 1095SOL     OW14746   3.594   3.454  15.693  0.2504  0.7338 -0.0120
 1095SOL    HW114747   3.594   3.421  15.604  1.0724  0.8657 -0.0678
 1095SOL    HW214748   3.553   3.540  15.684 -0.8862  0.2647  0.6806
 1096SOL     OW14749   1.913   0.117   2.001  0.1047  0.2133  0.2644
 1096SOL    HW114750   1.855   0.042   1.982  0.7593 -0.9595  2.9630
 1096SOL    HW214751   1.942   0.144   1.913 -0.2074 -0.7753 -0.1481
 1097SOL     OW14752   3.225   0.014   7.764 -0.0487  0.2463 -0.7407
 1097SOL    HW114753   3.302   0.063   7.735 -1.4115  2.8438  0.0389
 1097SOL    HW214754   3.199   4.696   7.683 -0.7926  0.0010 -0.3700
 1098SOL     OW14755   3.203   0.716   6.881 -0.0109 -0.2587 -0.8248
 1098SOL    HW114756   3.288   0.675   6.893 -0.5277 -1.9289 -2.8751
 1098SOL    HW214757   3.146   0.648   6.917 -0.8106  0.6948 -0.2608
 1099SOL     OW14758   0.327   2.004  11.985  0.2471 -0.3182 -0.2771
 1099SOL    HW114759   0.357   1.914  11.998  0.9217 -0.1943 -1.0254
 1099SOL    HW214760   0.249   2.011  12.041 -1.7729 -1.6453 -2.9489
 1100SOL     OW14761   1.656   1.659   4.205  0.2340  0.4617 -0.0227
 1100SOL    HW114762   1.695   1.703   4.129  0.8094  2.4776  1.4658
 1100SOL    HW214763   1.653   1.570   4.167  2.3087 -0.4565  1.9536
 1101SOL     OW14764   4.605   0.344   7.494 -0.3859  0.2746  0.3133
 1101SOL    HW114765   4.521   0.361   7.537 -1.1162 -0.7079 -0.7307
 1101SOL    HW214766   4.658   0.323   7.570 -0.3820 -0.9224 -0.0208
 1102SOL     OW14767   4.145   2.928   6.734 -0.5330 -0.0037 -0.5003
 1102SOL    HW114768   4.181   2.989   6.799  1.0368  0.6059 -1.9506
 1102SOL    HW214769   4.153   2.981   6.655 -0.7401  0.4088 -0.2488
 1103SOL     OW14770   1.014   1.923   4.626 -0.2278  0.1367  0.4236
 1103SOL    HW114771   0.995   1.903   4.718 -1.0576  1.0487  0.4557
 1103SOL    HW214772   1.103   1.958   4.628 -0.1517 -0.1015  1.3894
 1104SOL     OW14773   2.686   0.318  14.021 -0.3713  0.1314 -0.1229
 1104SOL    HW114774   2.640   0.264  14.085 -1.8301 -1.9031 -2.9055
 1104SOL    HW214775   2.662   0.409  14.039 -1.3066  0.0375 -0.9483
 1105SOL     OW14776   0.854   4.199   3.638 -0.5184  0.2487  0.3831
 1105SOL    HW114777   0.945   4.227   3.648 -0.1698 -0.9639  0.5787
 1105SOL    HW214778   0.830   4.166   3.725 -2.1420 -1.7807 -0.8296
 1106SOL     OW14779   2.786   3.864   1.511  0.1769  0.1069 -0.6575
 1106SOL    HW114780   2.857   3.881   1.449  2.8756 -0.0269  2.3811
 1106SOL    HW214781   2.708   3.877   1.457  0.8889  1.4774 -1.3719
 1107SOL     OW14782   2.673   3.248   5.080 -0.0528 -0.0031  0.7686
 1107SOL    HW114783   2.603   3.228   5.142 -2.2364 -1.5955 -2.2126
 1107SOL    HW214784   2.740   3.222   5.143 -0.2189 -1.9091  0.1773
 1108SOL     OW14785   3.439   4.095   5.728  0.0326 -0.0659 -0.4470
 1108SOL    HW114786   3.468   4.125   5.642 -0.7536  1.1547 -0.2841
 1108SOL    HW214787   3.517   4.049   5.759 -0.2681 -0.5377 -0.3954
 1109SOL     OW14788   3.369   3.298   8.185  0.2251  0.1214  0.6248
 1109SOL    HW114789   3.343   3.210   8.158 -1.1624  0.1675  1.8362
 1109SOL    HW214790   3.298   3.336   8.236 -0.2556  0.9351 -0.6392
 1110SOL     OW14791   1.918   4.350   6.255  0.6171 -0.6780 -0.0821
 1110SOL    HW114792   1.959   4.264   6.240 -0.9824 -1.1482 -1.7253
 1110SOL    HW214793   1.831   4.311   6.261 -0.2918  1.5120  1.0444
 1111SOL     OW14794   0.658   2.291   1.066  0.6304 -0.5567 -0.0030
 1111SOL    HW114795   0.710   2.314   0.989  1.1245 -0.0130  0.4890
 1111SOL    HW214796   0.575   2.270   1.024  0.1244  1.6268 -0.0598
 1112SOL     OW14797   1.157   4.498  16.773  0.5831  0.3523 -0.3981
 1112SOL    HW114798   1.119   4.466  16.691  0.3162  0.3991 -0.2927
 1112SOL    HW214799   1.250   4.495  16.752  0.4143 -0.1600 -1.0702
 1113SOL     OW14800   2.410   1.715   6.730  0.0572 -0.0833  0.2919
 1113SOL    HW114801   2.417   1.641   6.790  1.0927 -0.4387 -0.2810
 1113SOL    HW214802   2.470   1.777   6.774 -0.9371  2.1887 -1.5654
 1114SOL     OW14803   0.863   1.527   4.576  0.3434  0.3388 -0.1317
 1114SOL    HW114804   0.875   1.498   4.486  0.4584  2.9976 -0.9477
 1114SOL    HW214805   0.836   1.444   4.616 -2.2853  1.4653  0.3975
 1115SOL     OW14806   3.318   0.797  11.546  0.0016  0.0865  0.3528
 1115SOL    HW114807   3.400   0.782  11.593 -0.6587  0.5148  1.6236
 1115SOL    HW214808   3.308   0.712  11.502 -0.2908 -0.4716  1.4835
 1116SOL     OW14809   0.198   4.336  17.533  0.0991  0.3008  0.3762
 1116SOL    HW114810   0.105   4.332  17.556 -0.0292  0.1922 -0.1594
 1116SOL    HW214811   0.217   4.425  17.563  1.1344 -0.3940  1.7835
 1117SOL     OW14812   1.769   0.260   7.772  0.1751 -0.3357  0.2726
 1117SOL    HW114813   1.825   0.329   7.808  0.5745  0.5682 -2.1068
 1117SOL    HW214814   1.705   0.254   7.843  1.1539  1.9442  1.3514
 1118SOL     OW14815   2.516   1.855   7.335  0.5896  0.1840 -0.1038
 1118SOL    HW114816   2.594   1.809   7.365 -0.4513 -0.8745  1.0170
 1118SOL    HW214817   2.484   1.882   7.422  1.1084 -0.2214  0.2071
 1119SOL     OW14818   2.490   2.175  13.028 -0.6179  0.0777 -0.0580
 1119SOL    HW114819   2.555   2.110  13.054  0.2889  0.3235 -1.7458
 1119SOL    HW214820   2.427   2.120  12.981  0.1580 -2.6189  2.0363
 1120SOL     OW14821   2.645   0.415  12.641 -0.5283  0.1924 -0.3038
 1120SOL    HW114822   2.708   0.483  12.617  2.9072 -2.4568  1.2699
 1120SOL    HW214823   2.688   0.338  12.602 -0.3042  0.7529 -1.1545
 1121SOL     OW14824   3.651   2.855   7.008  0.6955  0.2865 -0.2246
 1121SOL    HW114825   3.581   2.918   7.028 -0.5247 -0.5764 -1.7710
 1121SOL    HW214826   3.678   2.830   7.096 -0.7354  1.9093  0.6908
 1122SOL     OW14827   2.955   1.791  11.888 -0.1098 -0.2015  0.1590
 1122SOL    HW114828   2.885   1.856  11.890 -1.3238 -1.5151  0.6959
 1122SOL    HW214829   2.989   1.794  11.978 -1.3207 -0.2568  0.6174
 1123SOL     OW14830   2.506   4.719   6.414 -0.2645 -0.0359  0.2281
 1123SOL    HW114831   2.442   4.722   6.343  1.9157 -0.1085 -1.7487
 1123SOL    HW214832   2.459   0.031   6.489  0.6760  0.4508  0.5780
 1124SOL     OW14833   1.347   1.335  13.090 -0.0018 -0.0702 -0.3843
 1124SOL    HW114834   1.390   1.375  13.015  0.4100 -0.9642 -0.6214
 1124SOL    HW214835   1.282   1.404  13.103 -0.2283 -0.4001  0.2577
 1125SOL     OW14836   1.512   1.528  11.683 -0.0124 -0.1071 -0.0530
 1125SOL    HW114837   1.569   1.555  11.612  0.8435  0.8143  0.9768
 1125SOL    HW214838   1.537   1.439  11.708 -1.1911  0.1950  2.2306
 1126SOL     OW14839   4.234   2.882  13.507 -0.5705  0.5694 -0.5459
 1126SOL    HW114840   4.308   2.823  13.522 -1.7636 -0.6631  0.4640
 1126SOL    HW214841   4.260   2.960  13.556  1.1895 -0.2220 -0.2164
 1127SOL     OW14842   4.035   0.477   7.915 -0.0762 -0.4900  0.4374
 1127SOL    HW114843   4.099   0.431   7.860  1.8817  1.9126  0.7310
 1127SOL    HW214844   4.007   0.405   7.972 -0.6662 -0.0004  0.7542
 1128SOL     OW14845   0.216   1.333   0.363  0.0942  0.4185  0.0505
 1128SOL    HW114846   0.216   1.263   0.428 -2.0069  0.6619  0.3223
 1128SOL    HW214847   0.191   1.283   0.285  4.8699  1.3193 -2.0980
 1129SOL     OW14848   4.527   4.286   1.823 -0.5792  0.9184 -0.6790
 1129SOL    HW114849   4.503   4.195   1.841 -1.4886  1.5701  1.4315
 1129SOL    HW214850   4.460   4.311   1.760  0.9065  2.0932 -1.8005
 1130SOL     OW14851   0.204   2.946   7.732 -0.6984  0.5412  0.3587
 1130SOL    HW114852   0.163   3.020   7.687 -0.2789 -0.5438 -1.7852
 1130SOL    HW214853   0.260   2.983   7.801  1.6538  1.2141 -1.9031
 1131SOL     OW14854   3.266   3.934   3.845 -0.0980 -0.2881  0.3836
 1131SOL    HW114855   3.318   3.936   3.765 -0.4464 -0.8010  0.1467
 1131SOL    HW214856   3.333   3.898   3.904  1.1814  0.4968 -0.5797
 1132SOL     OW14857   0.760   3.374   7.735  0.4310 -0.1056 -0.4169
 1132SOL    HW114858   0.720   3.398   7.651  1.9310  2.4352 -0.4121
 1132SOL    HW214859   0.727   3.284   7.739  2.4016 -0.6362  3.1665
 1133SOL     OW14860   0.729   3.996   8.445 -0.2979 -0.7537 -0.0631
 1133SOL    HW114861   0.634   4.008   8.449 -0.4167 -1.7876  0.2076
 1133SOL    HW214862   0.753   3.946   8.524 -0.3696  2.0532  1.7200
 1134SOL     OW14863   1.378   4.304   0.239 -0.3908  0.0804 -0.1778
 1134SOL    HW114864   1.407   4.245   0.170  2.1484  1.0738  0.0395
 1134SOL    HW214865   1.463   4.339   0.264 -0.0801 -0.3112 -0.6982
 1135SOL     OW14866   1.351   0.105   1.014  0.0150 -0.7794  0.2029
 1135SOL    HW114867   1.266   0.062   1.000 -0.0899 -0.6594  0.4659
 1135SOL    HW214868   1.321   0.163   1.085  0.5656  0.9353 -0.9471
 1136SOL     OW14869   2.261   4.284   6.277 -0.1917 -0.4860  0.1665
 1136SOL    HW114870   2.315   4.208   6.255 -1.7513 -1.8925  1.1958
 1136SOL    HW214871   2.183   4.238   6.307  0.1381  0.0362  1.8295
 1137SOL     OW14872   3.219   4.409  15.797  0.4747  0.7172  0.3811
 1137SOL    HW114873   3.157   4.341  15.773  0.7867  0.5557  0.0254
 1137SOL    HW214874   3.269   4.367  15.867  1.3384  0.4115 -0.4191
 1138SOL     OW14875   4.291   4.538  16.806  0.1246  0.4433  0.5527
 1138SOL    HW114876   4.372   4.552  16.756 -0.4856 -0.7711 -0.7896
 1138SOL    HW214877   4.252   4.623  16.785 -0.0625 -0.0832 -1.2889
 1139SOL     OW14878   0.069   2.551   2.125 -0.2268  0.0281 -0.2224
 1139SOL    HW114879   0.147   2.592   2.088 -1.1490  1.2859 -0.7905
 1139SOL    HW214880   0.007   2.564   2.053 -0.7938  1.5182  0.5271
 1140SOL     OW14881   0.146   1.067  16.287  0.0617  0.1684  0.0108
 1140SOL    HW114882   0.125   1.035  16.199  1.0294  2.3692 -1.0019
 1140SOL    HW214883   0.065   1.037  16.328  1.1215 -0.4552  1.6501
 1141SOL     OW14884   4.408   1.330   9.558 -0.0351 -0.3451  0.8421
 1141SOL    HW114885   4.343   1.292   9.618 -1.1844  1.3729  0.6737
 1141SOL    HW214886   4.491   1.286   9.579  0.6672  1.0415  0.9549
 1142SOL     OW14887   2.419   1.375   4.972 -0.0429 -0.1342  0.1368
 1142SOL    HW114888   2.344   1.356   4.915 -0.8893  0.0997  1.1704
 1142SOL    HW214889   2.439   1.288   5.007  0.4744 -0.7023 -1.5877
 1143SOL     OW14890   2.450   2.577  12.589  0.1265  0.8415  0.0742
 1143SOL    HW114891   2.487   2.540  12.508  1.0533 -0.6208  1.1538
 1143SOL    HW214892   2.397   2.648  12.553 -1.2604 -0.9847 -1.5149
 1144SOL     OW14893   2.588   3.822   5.712  0.0778  0.0702 -0.3170
 1144SOL    HW114894   2.577   3.915   5.691  0.1296 -0.2640 -1.8612
 1144SOL    HW214895   2.683   3.811   5.718 -0.1943 -1.5385  0.9121
 1145SOL     OW14896   1.900   2.688   2.614 -0.7586  0.2342  0.1508
 1145SOL    HW114897   1.962   2.630   2.571 -2.5759 -1.5915 -0.0277
 1145SOL    HW214898   1.958   2.759   2.641 -0.8930  0.1317  0.7161
 1146SOL     OW14899   1.612   3.133   7.046 -0.4693  0.2209 -0.3072
 1146SOL    HW114900   1.590   3.057   7.099  0.3978  2.0230  2.6537
 1146SOL    HW214901   1.673   3.185   7.098  0.4357 -0.6238 -0.5334
 1147SOL     OW14902   2.068   0.177   7.289 -0.1468 -0.4644 -0.0330
 1147SOL    HW114903   2.034   0.262   7.318  1.4846  0.4631 -0.8342
 1147SOL    HW214904   1.995   0.140   7.239 -0.0595 -0.5312 -0.1098
 1148SOL     OW14905   0.734   1.594  13.207  0.3245  0.2436 -0.1708
 1148SOL    HW114906   0.693   1.574  13.290 -1.5427 -1.7509 -1.6001
 1148SOL    HW214907   0.805   1.530  13.205  1.4127  1.4125  0.3628
 1149SOL     OW14908   4.035   0.467  11.253  0.0886  0.0654 -0.2203
 1149SOL    HW114909   4.120   0.423  11.253  1.9169  3.5765 -1.8055
 1149SOL    HW214910   4.016   0.459  11.347 -0.4097  1.1972 -0.2199
 1150SOL     OW14911   2.659   4.050   6.430  1.3309  0.0556 -0.0706
 1150SOL    HW114912   2.697   3.971   6.390  2.0164  0.9555 -1.1842
 1150SOL    HW214913   2.632   4.016   6.515  1.9280  0.6833  0.3698
 1151SOL     OW14914   2.557   1.206   5.900  0.8459 -0.3628 -0.5605
 1151SOL    HW114915   2.562   1.145   5.826  2.2759 -0.0009 -0.7673
 1151SOL    HW214916   2.471   1.186   5.937  0.2806 -0.7107 -2.0621
 1152SOL     OW14917   3.615   4.528   4.316 -0.0866  0.3970  0.1660
 1152SOL    HW114918   3.683   4.468   4.285 -2.6918 -0.8852 -3.0485
 1152SOL    HW214919   3.538   4.478   4.290  0.7180 -0.7946  0.0804
 1153SOL     OW14920   0.644   3.483   2.678  0.2867  0.3669 -0.0092
 1153SOL    HW114921   0.557   3.474   2.639  1.7306 -3.3228 -2.3189
 1153SOL    HW214922   0.687   3.399   2.664  2.6339  1.2134  2.0952
 1154SOL     OW14923   1.807   2.389   3.959 -0.3300  0.3978  0.1272
 1154SOL    HW114924   1.759   2.470   3.978  0.3663  0.1925  2.7258
 1154SOL    HW214925   1.812   2.351   4.046 -1.7601  1.1384  0.5322
 1155SOL     OW14926   2.279   0.235   3.063 -0.6572  0.0512  0.1676
 1155SOL    HW114927   2.340   0.274   3.000 -1.0170 -1.2306 -0.9679
 1155SOL    HW214928   2.350   0.199   3.115  0.3061 -0.2795 -1.3897
 1156SOL     OW14929   2.686   0.487  14.634  0.4062  0.2290  0.5595
 1156SOL    HW114930   2.736   0.407  14.616  1.5849  1.1515 -0.2451
 1156SOL    HW214931   2.717   0.502  14.723 -0.0756  0.8265  0.6259
 1157SOL     OW14932   3.275   0.211   7.300  0.0513 -0.3633  0.3872
 1157SOL    HW114933   3.193   0.240   7.341  0.6738 -0.2922  1.5926
 1157SOL    HW214934   3.253   0.129   7.256 -3.2030 -0.0976  1.5234
 1158SOL     OW14935   1.917   0.057   2.554  0.0808 -0.2422 -0.6629
 1158SOL    HW114936   1.872   0.007   2.622  0.1894  3.4000  2.1023
 1158SOL    HW214937   1.984   4.725   2.518 -0.1525 -0.4067 -0.8327
 1159SOL     OW14938   4.133   0.146   5.509 -0.0648 -0.4901  0.0524
 1159SOL    HW114939   4.215   0.098   5.499  0.3804  0.3747 -0.4291
 1159SOL    HW214940   4.067   0.085   5.544 -1.1732 -0.6504 -2.3109
 1160SOL     OW14941   3.063   1.810   8.786  0.3886  0.2107  0.1385
 1160SOL    HW114942   2.977   1.846   8.807  0.5642 -0.4595  1.9634
 1160SOL    HW214943   3.054   1.715   8.798  1.2437 -0.0391 -1.1221
 1161SOL     OW14944   1.817   0.372  12.942  0.6343  0.1044  0.3167
 1161SOL    HW114945   1.819   0.325  13.025  2.4589 -0.4503 -0.0233
 1161SOL    HW214946   1.852   0.302  12.887  0.6890  0.4192 -0.0554
 1162SOL     OW14947   2.564   3.271   1.386  0.3162 -0.8136  0.7128
 1162SOL    HW114948   2.608   3.266   1.301 -1.4380 -0.4551 -0.2214
 1162SOL    HW214949   2.470   3.266   1.368  0.3470 -0.4229  0.4269
 1163SOL     OW14950   0.331   0.092   5.304  0.0013 -0.1436 -0.4479
 1163SOL    HW114951   0.317   0.045   5.222 -0.9267 -2.0585  0.8125
 1163SOL    HW214952   0.314   0.181   5.273  3.2702  0.1623 -1.4508
 1164SOL     OW14953   0.969   3.210   2.796  0.2191 -0.3631 -0.2398
 1164SOL    HW114954   0.889   3.165   2.823 -1.2753  0.6987 -2.8975
 1164SOL    HW214955   1.038   3.177   2.853 -1.5130  0.3691  2.2782
 1165SOL     OW14956   1.156   0.549  12.131  0.2166 -0.3772 -0.0207
 1165SOL    HW114957   1.232   0.604  12.147  1.5744 -2.3144  0.2005
 1165SOL    HW214958   1.133   0.563  12.039  1.2431 -0.0428 -0.2166
 1166SOL     OW14959   0.567   0.226  12.026  0.2609  0.5073 -0.0346
 1166SOL    HW114960   0.493   0.285  12.037 -1.7464 -2.4264  1.9930
 1166SOL    HW214961   0.525   0.143  12.046 -0.5267  0.3540 -2.2651
 1167SOL     OW14962   0.813   1.584   3.714 -1.1295  0.1967  0.1495
 1167SOL    HW114963   0.895   1.611   3.756 -0.9345  0.9064 -0.6774
 1167SOL    HW214964   0.813   1.492   3.740  0.7224 -0.4979 -2.2580
 1168SOL     OW14965   2.068   0.249  12.484  0.1995 -0.4027  0.0565
 1168SOL    HW114966   2.106   0.264  12.397  0.8549 -2.4553 -0.0281
 1168SOL    HW214967   2.026   0.333  12.501  0.5404 -0.2353  0.0747
 1169SOL     OW14968   1.322   3.498  16.217  0.4682 -0.3759 -0.2026
 1169SOL    HW114969   1.261   3.444  16.167  0.6169  0.7146 -1.5541
 1169SOL    HW214970   1.257   3.552  16.262  0.9866  0.4696 -0.4662
 1170SOL     OW14971   1.597   4.417   7.799  0.2170  0.2099 -0.1020
 1170SOL    HW114972   1.532   4.422   7.869  0.9406 -0.1446  0.5971
 1170SOL    HW214973   1.630   4.507   7.800 -0.1957  0.3634  0.9038
 1171SOL     OW14974   2.965   0.221   1.824 -0.0071 -0.4258  0.1088
 1171SOL    HW114975   2.898   0.275   1.781 -0.0074 -0.5136 -0.0025
 1171SOL    HW214976   2.921   0.136   1.826  1.0283 -0.9939 -0.7514
 1172SOL     OW14977   1.317   0.732   7.669  0.3308 -0.4938 -0.0031
 1172SOL    HW114978   1.283   0.769   7.588 -0.2889  0.0298  0.5013
 1172SOL    HW214979   1.272   0.648   7.664  0.2354 -0.2815 -2.6760
 1173SOL     OW14980   3.519   3.187   2.954 -0.0165 -0.5795  0.5021
 1173SOL    HW114981   3.484   3.273   2.931 -0.4136 -0.7328  0.5409
 1173SOL    HW214982   3.532   3.148   2.868  1.2854 -0.5362  0.6722
 1174SOL     OW14983   3.904   1.842   4.983 -0.2196 -0.0547  0.4580
 1174SOL    HW114984   3.830   1.782   4.990  0.1196 -0.4012  1.0735
 1174SOL    HW214985   3.873   1.902   4.916 -1.6493 -0.0237  1.1548
 1175SOL     OW14986   4.133   4.503   1.486  0.0520  0.1500 -0.3371
 1175SOL    HW114987   4.169   4.501   1.397  2.0197  1.4714  0.4515
 1175SOL    HW214988   4.127   4.596   1.505 -0.3284  0.4627 -1.9678
 1176SOL     OW14989   3.371   0.527   6.700 -0.0278 -0.1995  0.4371
 1176SOL    HW114990   3.451   0.579   6.703  0.7409 -1.4751  1.9538
 1176SOL    HW214991   3.366   0.504   6.793 -2.2379 -1.0257  0.1102
 1177SOL     OW14992   2.557   1.187  12.338 -0.0313 -0.1292 -0.1579
 1177SOL    HW114993   2.599   1.151  12.416 -2.7690 -0.4516  1.1975
 1177SOL    HW214994   2.603   1.151  12.262 -0.0766  0.9787 -0.7160
 1178SOL     OW14995   4.109   3.230  11.543 -0.5343  0.2223  0.4883
 1178SOL    HW114996   4.154   3.214  11.625 -0.0161  0.1830  0.1955
 1178SOL    HW214997   4.130   3.150  11.496  1.5371  1.1812 -0.2362
 1179SOL     OW14998   1.724   1.615   6.199 -0.1895  0.1823 -0.3162
 1179SOL    HW114999   1.744   1.699   6.240 -0.0371 -0.5194  1.0295
 1179SOL    HW215000   1.713   1.560   6.276  0.5979 -0.4488 -0.6611
 1180SOL     OW15001   4.150   2.356   4.491 -0.1107  0.0987  0.2115
 1180SOL    HW115002   4.116   2.443   4.508 -0.8427 -0.0203 -0.6528
 1180SOL    HW215003   4.154   2.328   4.583  0.0434  0.4474  0.3082
 1181SOL     OW15004   0.770   2.539   1.357  0.5087 -0.0636  0.3808
 1181SOL    HW115005   0.718   2.617   1.335 -0.5442 -0.4811  1.3662
 1181SOL    HW215006   0.806   2.504   1.276  1.1443  0.9753  0.2146
 1182SOL     OW15007   1.547   3.005  15.763 -0.5851  0.1188 -0.0541
 1182SOL    HW115008   1.602   3.021  15.686 -0.8445 -2.6626 -0.8385
 1182SOL    HW215009   1.507   3.091  15.770 -0.3431  0.1821  0.5736
 1183SOL     OW15010   4.089   0.219   4.165  0.1630  0.4478  0.1662
 1183SOL    HW115011   4.028   0.242   4.095  1.3530 -1.7574 -1.6249
 1183SOL    HW215012   4.159   0.274   4.129  0.9008 -0.3182  0.4404
 1184SOL     OW15013   2.625   4.620   2.498 -0.6194  0.2405 -0.1467
 1184SOL    HW115014   2.683   4.653   2.429 -0.9208  1.2564  0.0867
 1184SOL    HW215015   2.538   4.618   2.458 -1.0137 -0.2986  0.7362
 1185SOL     OW15016   3.020   2.037  16.244 -0.3910 -0.0874 -0.0750
 1185SOL    HW115017   3.110   2.023  16.213  0.4904  0.8817  2.0224
 1185SOL    HW215018   3.038   2.013  16.335 -1.6315  0.0314  0.2039
 1186SOL     OW15019   0.541   1.336   6.926 -0.3531 -0.3005 -0.2405
 1186SOL    HW115020   0.461   1.313   6.973 -0.0600 -0.3992  0.2145
 1186SOL    HW215021   0.588   1.253   6.927  1.2103  0.6111  1.8797
 1187SOL     OW15022   0.416   0.988  14.915 -0.2521 -0.5531 -0.0546
 1187SOL    HW115023   0.472   1.007  14.990  0.4793  0.0132 -0.7377
 1187SOL    HW215024   0.362   0.919  14.954  0.8349 -2.1646 -1.4119
 1188SOL     OW15025   0.892   4.190  15.945 -0.5215  0.0942  0.0478
 1188SOL    HW115026   0.987   4.175  15.944 -0.8817 -2.1287  1.1760
 1188SOL    HW215027   0.870   4.104  15.979 -1.0068 -0.3379 -1.3575
 1189SOL     OW15028   0.696   2.807  17.533 -0.3054 -0.2034 -0.4645
 1189SOL    HW115029   0.621   2.769  17.486 -0.5714  0.3442 -0.4840
 1189SOL    HW215030   0.663   2.853  17.609 -1.2945 -1.1961 -0.2794
 1190SOL     OW15031   2.418   3.635  11.006  0.3779  0.2663  0.2171
 1190SOL    HW115032   2.508   3.649  11.035  0.7593 -2.4866  0.3680
 1190SOL    HW215033   2.430   3.578  10.930  1.3145  0.1533  0.4597
 1191SOL     OW15034   1.175   0.455   7.336  0.6074  0.5344  0.5418
 1191SOL    HW115035   1.123   0.375   7.336  0.3699  0.6886 -0.4524
 1191SOL    HW215036   1.184   0.466   7.431 -3.5974  2.9409  0.6702
 1192SOL     OW15037   3.410   0.906   7.604  0.2510 -0.2125  0.1999
 1192SOL    HW115038   3.379   0.961   7.676 -0.3719 -0.0990 -0.1553
 1192SOL    HW215039   3.447   0.837   7.659 -2.7752 -1.2763  0.9213
 1193SOL     OW15040   4.324   2.126  12.754 -0.6869  0.2562  0.2680
 1193SOL    HW115041   4.256   2.153  12.817 -3.3856 -1.7803 -1.7784
 1193SOL    HW215042   4.295   2.151  12.667 -2.1791 -2.4478  0.0150
 1194SOL     OW15043   4.329   0.848   7.740 -0.2404 -0.3852 -0.4032
 1194SOL    HW115044   4.248   0.796   7.740  0.7654 -1.9231  0.6138
 1194SOL    HW215045   4.381   0.818   7.665  0.3349 -0.3677 -0.0026
 1195SOL     OW15046   1.237   2.795  12.551  0.0323 -0.1468 -0.8536
 1195SOL    HW115047   1.284   2.833  12.477 -0.3799  2.1849  0.1012
 1195SOL    HW215048   1.233   2.701  12.531  1.3878 -0.0286 -1.7282
 1196SOL     OW15049   3.245   2.377   3.568 -0.4189  0.8095  0.5904
 1196SOL    HW115050   3.259   2.334   3.484 -4.0451  0.9732 -0.1151
 1196SOL    HW215051   3.149   2.374   3.576 -0.3855  0.0077  0.6949
 1197SOL     OW15052   0.913   2.591   9.411  0.1523  0.0921  0.0328
 1197SOL    HW115053   0.983   2.637   9.458 -1.4551  3.0428 -0.4828
 1197SOL    HW215054   0.956   2.561   9.331  2.3515  1.3086  0.7576
 1198SOL     OW15055   0.327   4.206   9.398 -0.5959  0.0426  0.3421
 1198SOL    HW115056   0.336   4.133   9.337  2.6107  0.9041 -0.2354
 1198SOL    HW215057   0.250   4.177   9.446 -1.1282  0.1332 -0.4548
 1199SOL     OW15058   2.843   0.511   5.980  0.4792  0.3120  0.5248
 1199SOL    HW115059   2.764   0.459   5.964 -0.7633  1.8128  1.7325
 1199SOL    HW215060   2.807   0.589   6.024  0.0112 -0.5598  1.6771
 1200SOL     OW15061   0.258   3.160   1.611  0.4233 -0.8514 -0.0462
 1200SOL    HW115062   0.204   3.126   1.540 -1.5683  2.9116 -0.3383
 1200SOL    HW215063   0.326   3.094   1.606  2.2722  1.1173 -1.1059
 1201SOL     OW15064   1.791   0.764   5.364 -0.3597 -0.1762  0.2876
 1201SOL    HW115065   1.846   0.700   5.408  0.6962  1.4042  1.2800
 1201SOL    HW215066   1.810   0.842   5.417 -0.0321  0.3549 -0.6126
 1202SOL     OW15067   3.105   4.305  17.136  0.2119 -0.0471  0.2106
 1202SOL    HW115068   3.123   4.317  17.229 -1.2413  0.9727  0.3541
 1202SOL    HW215069   3.185   4.265  17.101 -0.8761 -2.3306  0.3662
 1203SOL     OW15070   0.371   4.616   5.904 -0.0014  0.0822  0.2443
 1203SOL    HW115071   0.307   4.662   5.849  0.6812  0.6715 -0.0645
 1203SOL    HW215072   0.321   4.553   5.955  1.2079 -0.6737  0.4950
 1204SOL     OW15073   2.170   1.493   7.001 -0.6196  0.2864  0.0795
 1204SOL    HW115074   2.148   1.525   6.913 -1.0544  1.2064  0.5207
 1204SOL    HW215075   2.117   1.414   7.009 -1.3744  0.7511 -0.2877
 1205SOL     OW15076   0.093   3.948   4.776  0.1750  0.5246 -0.1127
 1205SOL    HW115077   0.030   3.895   4.727  0.9487  0.8844 -1.4758
 1205SOL    HW215078   0.037   3.964   4.853 -1.4540 -1.0290 -0.9876
 1206SOL     OW15079   3.491   0.298   2.830  0.0389  0.3299  0.1998
 1206SOL    HW115080   3.546   0.281   2.754  1.2506 -1.1300  1.3994
 1206SOL    HW215081   3.497   0.393   2.831 -0.8760  0.4037 -1.4485
 1207SOL     OW15082   0.668   1.734  13.939  0.1654 -0.7186  0.5946
 1207SOL    HW115083   0.745   1.733  13.882 -0.2619 -0.6324  0.0275
 1207SOL    HW215084   0.597   1.760  13.882  1.2971  1.4200  0.1621
 1208SOL     OW15085   4.069   3.154   3.893 -0.1533 -0.1705 -0.4442
 1208SOL    HW115086   4.002   3.191   3.949  1.5129  2.2978 -0.1046
 1208SOL    HW215087   4.018   3.116   3.821  0.2308  0.7511 -1.1972
 1209SOL     OW15088   0.026   4.589   4.358 -0.1892  0.2920 -0.1610
 1209SOL    HW115089   4.656   4.602   4.357 -0.4403 -1.7011 -0.9054
 1209SOL    HW215090   0.039   4.580   4.453  0.3264 -2.8382 -0.5528
 1210SOL     OW15091   1.688   4.032   0.064 -0.1308 -0.2242  0.3512
 1210SOL    HW115092   1.603   4.004   0.099  0.2628 -1.1111  0.5783
 1210SOL    HW215093   1.673   4.127   0.068 -2.4902 -0.5374 -0.7106
 1211SOL     OW15094   1.080   2.554   1.324  0.3595 -0.6590 -0.6157
 1211SOL    HW115095   1.088   2.459   1.337  1.2900 -0.5753 -0.5935
 1211SOL    HW215096   1.023   2.560   1.248  0.2082 -2.1586 -0.6335
 1212SOL     OW15097   0.204   2.685  16.151  0.6593 -0.6131  0.0648
 1212SOL    HW115098   0.161   2.606  16.185 -0.5499 -0.1213 -0.3157
 1212SOL    HW215099   0.265   2.694  16.225  0.9575  0.3459 -0.2987
 1213SOL     OW15100   3.748   4.034  13.779  0.7383 -0.3497  0.2478
 1213SOL    HW115101   3.674   4.070  13.826  1.4937 -0.1791  1.3048
 1213SOL    HW215102   3.822   4.050  13.838  0.0111  2.3483  0.4032
 1214SOL     OW15103   0.967   1.792   8.195 -0.5618 -0.0217  0.1700
 1214SOL    HW115104   1.054   1.752   8.203 -0.7852 -0.5410 -0.0067
 1214SOL    HW215105   0.950   1.764   8.105 -0.6990  1.0409 -0.1271
 1215SOL     OW15106   4.669   0.391   5.552 -0.1296  0.7017  0.0638
 1215SOL    HW115107   4.619   0.426   5.626 -1.4790 -1.1281  0.0120
 1215SOL    HW215108   4.692   0.467   5.498  1.7430  0.0523 -0.0810
 1216SOL     OW15109   4.518   4.127   3.579 -0.7419  0.1290  0.4880
 1216SOL    HW115110   4.434   4.127   3.533 -0.3781 -1.2465 -0.1422
 1216SOL    HW215111   4.554   4.039   3.568  0.4663  0.8340 -1.2044
 1217SOL     OW15112   3.468   4.225  14.035 -0.2318 -0.3802  0.3246
 1217SOL    HW115113   3.544   4.283  14.035 -0.3145 -0.2725 -1.4734
 1217SOL    HW215114   3.463   4.202  13.943  1.8820 -0.8600  0.3249
 1218SOL     OW15115   3.763   2.061   6.675  0.5808  0.3596  0.1786
 1218SOL    HW115116   3.716   2.011   6.742  0.2060  1.7668  0.9468
 1218SOL    HW215117   3.849   2.020   6.689 -0.6879 -1.0988  3.6129
 1219SOL     OW15118   2.527   2.405   2.677  0.0355  0.1575  0.5533
 1219SOL    HW115119   2.593   2.358   2.625  0.1819  1.3007 -0.2880
 1219SOL    HW215120   2.548   2.376   2.766  0.5165 -0.1390  0.3464
 1220SOL     OW15121   3.489   1.141   3.978 -0.4474  0.1384  0.4485
 1220SOL    HW115122   3.563   1.134   3.917  0.5761  0.9990  1.6047
 1220SOL    HW215123   3.528   1.119   4.062  1.0948  0.4691 -0.1802
 1221SOL     OW15124   1.953   2.635   3.706 -0.1730 -0.2365 -0.4408
 1221SOL    HW115125   1.958   2.597   3.794 -0.9819  1.6914  0.4328
 1221SOL    HW215126   2.035   2.684   3.700 -0.9052  0.7812 -2.0246
 1222SOL     OW15127   3.839   2.414  15.956  0.2203 -0.4185 -0.0584
 1222SOL    HW115128   3.862   2.429  16.048 -1.6076 -0.2579  0.3715
 1222SOL    HW215129   3.802   2.501  15.944  0.8660 -0.0114  0.8414
 1223SOL     OW15130   0.388   0.831   2.099 -0.6333  0.0370 -0.6064
 1223SOL    HW115131   0.393   0.916   2.055 -2.0893  1.3145  1.6710
 1223SOL    HW215132   0.294   0.830   2.120 -0.0350 -0.0625  2.1116
 1224SOL     OW15133   1.920   2.413   7.413  0.0957  0.4101  0.2393
 1224SOL    HW115134   1.836   2.444   7.380  0.3313 -0.3183 -1.0383
 1224SOL    HW215135   1.969   2.390   7.334  0.0979 -3.3755  1.3312
 1225SOL     OW15136   1.266   2.938  10.715 -0.2314  0.6788 -0.3079
 1225SOL    HW115137   1.215   2.899  10.645  1.4042  0.1804 -1.2295
 1225SOL    HW215138   1.315   2.866  10.753  2.1544  1.7493 -1.3176
 1226SOL     OW15139   4.097   3.839   2.579  0.2847  0.2808 -0.0515
 1226SOL    HW115140   4.032   3.817   2.646  0.0956  1.7374  0.2352
 1226SOL    HW215141   4.058   3.907   2.524  0.2232 -0.0493 -0.4204
 1227SOL     OW15142   3.664   2.691   8.819  0.2597 -0.0190  0.2811
 1227SOL    HW115143   3.575   2.708   8.849 -0.2813  0.7013 -1.7376
 1227SOL    HW215144   3.669   2.762   8.754  1.4237  0.3079  0.7245
 1228SOL     OW15145   1.738   2.866   7.573 -0.1952 -0.0369  0.0123
 1228SOL    HW115146   1.732   2.868   7.668 -0.2929  1.0365 -0.0162
 1228SOL    HW215147   1.776   2.781   7.553  1.0315  0.0646  1.9595
 1229SOL     OW15148   1.121   4.312  10.077  0.5475  0.1508 -0.2509
 1229SOL    HW115149   1.186   4.299  10.146 -0.2361  0.7679  0.5888
 1229SOL    HW215150   1.050   4.356  10.123  2.1430  1.9983  0.4204
 1230SOL     OW15151   2.757   2.881   3.747 -0.2773 -0.1826 -0.6601
 1230SOL    HW115152   2.824   2.950   3.753 -0.2355 -0.4124  1.6023
 1230SOL    HW215153   2.694   2.914   3.811 -2.1804 -0.6711 -2.3200
 1231SOL     OW15154   4.679   2.492   7.016  0.6645  0.3755 -0.2221
 1231SOL    HW115155   4.702   2.400   7.026  1.4027  0.5705 -0.1464
 1231SOL    HW215156   4.723   2.519   6.936  1.1492  4.9476  1.5907
 1232SOL     OW15157   1.705   4.579   8.472  0.6367 -0.3085  0.1165
 1232SOL    HW115158   1.682   4.551   8.384 -0.6966  1.8768 -0.2303
 1232SOL    HW215159   1.693   4.673   8.461 -0.6695 -0.8876 -3.4975
 1233SOL     OW15160   0.436   1.697   7.569 -0.2602  0.2391  0.0694
 1233SOL    HW115161   0.466   1.787   7.561 -1.6925  0.7496  0.4635
 1233SOL    HW215162   0.394   1.702   7.655 -0.4143  2.6413 -0.1462
 1234SOL     OW15163   4.347   1.808   0.587  0.0800  0.4978 -0.1817
 1234SOL    HW115164   4.379   1.746   0.652  1.4354  0.0487 -1.2775
 1234SOL    HW215165   4.398   1.777   0.512  0.3141  0.0299  0.1680
 1235SOL     OW15166   2.388   4.134   5.163 -0.1525 -0.1474 -0.2850
 1235SOL    HW115167   2.379   4.039   5.164  0.0411 -0.1601  0.3419
 1235SOL    HW215168   2.475   4.135   5.123  0.1934 -1.9237  0.4044
 1236SOL     OW15169   0.031   3.540   5.682  0.0749 -0.1302  0.1336
 1236SOL    HW115170   4.722   3.595   5.611 -1.7590 -1.8950 -0.3320
 1236SOL    HW215171   0.121   3.573   5.692 -1.1028  2.5949  1.7646
 1237SOL     OW15172   2.596   4.137   2.627 -0.4019 -0.0983  0.1004
 1237SOL    HW115173   2.656   4.211   2.625 -0.7328  0.1973  0.9673
 1237SOL    HW215174   2.532   4.176   2.687 -0.0738  2.0707 -0.9420
 1238SOL     OW15175   3.895   1.497   0.614 -0.4227  0.5003 -0.2238
 1238SOL    HW115176   3.963   1.552   0.574 -3.2909  2.2599 -2.6624
 1238SOL    HW215177   3.932   1.410   0.598 -2.4821 -0.6842  1.3949
 1239SOL     OW15178   2.709   4.489   1.759 -0.5265 -0.0434  0.0652
 1239SOL    HW115179   2.752   4.409   1.789  0.8274  0.1555 -1.3074
 1239SOL    HW215180   2.675   4.534   1.836  1.9698 -1.6649  2.1093
 1240SOL     OW15181   3.741   3.543   0.571 -0.1884 -0.2748  0.0638
 1240SOL    HW115182   3.761   3.464   0.521  0.4082 -1.4289  2.1097
 1240SOL    HW215183   3.758   3.515   0.661 -0.0046  1.0532  0.4381
 1241SOL     OW15184   2.721   0.033   8.109  0.6801 -0.5630  0.4443
 1241SOL    HW115185   2.671   4.725   8.034 -0.5218  0.0923  0.9496
 1241SOL    HW215186   2.672   4.708   8.174  0.1762  0.8804  1.1935
 1242SOL     OW15187   4.314   2.183  17.428  0.8541  0.3998 -0.4175
 1242SOL    HW115188   4.245   2.249  17.427  1.7390  1.3217  1.0949
 1242SOL    HW215189   4.375   2.218  17.363  2.5334  0.9715  1.4755
 1243SOL     OW15190   3.502   0.246   1.619 -0.0647  0.1505 -0.2585
 1243SOL    HW115191   3.593   0.217   1.632 -0.3456 -0.2657  0.7502
 1243SOL    HW215192   3.509   0.326   1.671 -0.6083  1.0453 -1.5687
 1244SOL     OW15193   0.145   2.490  14.399  0.1637  0.1379  0.8399
 1244SOL    HW115194   0.175   2.533  14.319 -0.6142 -0.3842  0.2553
 1244SOL    HW215195   0.224   2.467  14.447  0.0213 -0.4513  0.8053
 1245SOL     OW15196   2.449   0.756   0.998  0.6190  0.0955 -0.3572
 1245SOL    HW115197   2.469   0.691   0.931  0.3804  1.1140 -1.4134
 1245SOL    HW215198   2.404   0.701   1.063  0.0854  2.1474  0.9987
 1246SOL     OW15199   1.977   1.630   8.706  0.5395  0.2174  0.4748
 1246SOL    HW115200   1.896   1.591   8.673  0.3244  1.1107 -0.0695
 1246SOL    HW215201   1.981   1.600   8.797 -0.0433 -0.5139  0.2565
 1247SOL     OW15202   3.737   4.288   1.405 -0.0386 -0.6699 -0.6771
 1247SOL    HW115203   3.650   4.286   1.367  0.4840  2.9023 -2.0725
 1247SOL    HW215204   3.763   4.196   1.410  1.1785 -0.3748 -1.6194
 1248SOL     OW15205   3.291   4.391  14.164 -0.1123 -0.2848 -0.2701
 1248SOL    HW115206   3.208   4.362  14.126 -1.0030 -0.2732  1.6771
 1248SOL    HW215207   3.338   4.308  14.171 -1.4745 -0.9613  0.6131
 1249SOL     OW15208   4.188   1.129   3.779 -0.0688  0.6773 -0.1967
 1249SOL    HW115209   4.116   1.143   3.718 -1.3983 -0.5836  1.0675
 1249SOL    HW215210   4.165   1.169   3.863  1.3720  0.0221  0.5288
 1250SOL     OW15211   3.322   4.071   2.920 -0.3836 -0.2298  0.6947
 1250SOL    HW115212   3.330   4.066   3.016 -1.6825 -1.8094  0.7046
 1250SOL    HW215213   3.238   4.116   2.913  0.8437  1.7737 -1.2185
 1251SOL     OW15214   0.618   3.387   9.054 -0.3322  1.0613  0.2631
 1251SOL    HW115215   0.637   3.372   9.147  0.9878 -0.5828 -0.2731
 1251SOL    HW215216   0.687   3.450   9.031  1.0388 -0.5591 -0.0242
 1252SOL     OW15217   3.804   4.639   6.087 -0.3943  0.4208  0.4719
 1252SOL    HW115218   3.844   4.655   6.001  0.1175 -0.1305  0.6063
 1252SOL    HW215219   3.870   4.581   6.125  1.8513  2.0008 -1.0060
 1253SOL     OW15220   2.464   0.727   5.166  0.1094 -0.5013 -0.7770
 1253SOL    HW115221   2.558   0.727   5.182  0.1844  1.9073 -1.1700
 1253SOL    HW215222   2.470   0.762   5.077  0.1247 -0.0929 -0.6137
 1254SOL     OW15223   2.511   3.011   6.372  0.1325 -0.6152 -0.2452
 1254SOL    HW115224   2.447   3.002   6.442  0.1164  2.6001  0.1666
 1254SOL    HW215225   2.459   3.072   6.319  0.5583  0.7294  0.8859
 1255SOL     OW15226   2.830   1.832   7.469  0.7858  0.2104  0.3262
 1255SOL    HW115227   2.797   1.922   7.468  0.5313  0.1263  0.9972
 1255SOL    HW215228   2.887   1.821   7.393 -0.7817  1.3950 -1.0195
 1256SOL     OW15229   0.826   1.359   1.260 -0.0122  0.1306  0.1192
 1256SOL    HW115230   0.825   1.281   1.205  0.1857  0.0779  0.1911
 1256SOL    HW215231   0.764   1.330   1.327 -0.9489  1.2399 -0.2756
 1257SOL     OW15232   1.620   1.311   7.780  0.0143 -0.2543  0.3201
 1257SOL    HW115233   1.622   1.407   7.784  1.8953 -0.2474 -0.7735
 1257SOL    HW215234   1.713   1.300   7.762 -0.4372 -2.2735 -0.7536
 1258SOL     OW15235   2.933   0.400  15.932 -0.7041 -0.4679 -0.0428
 1258SOL    HW115236   2.875   0.343  15.881 -2.5934  0.3271  1.2298
 1258SOL    HW215237   2.869   0.442  15.989  0.8422  1.6727  0.1058
 1259SOL     OW15238   2.851   3.852   4.300 -0.2626 -0.4912 -0.2739
 1259SOL    HW115239   2.773   3.859   4.355 -1.0103 -0.6401 -1.3292
 1259SOL    HW215240   2.839   3.767   4.258 -3.5423  0.0242 -0.3344
 1260SOL     OW15241   0.444   4.193   6.967  0.2885 -0.0481  0.9161
 1260SOL    HW115242   0.349   4.203   6.971  0.2476  0.4065 -1.1414
 1260SOL    HW215243   0.449   4.110   7.014  0.3181 -0.4525  0.1917
 1261SOL     OW15244   3.722   2.852   5.168  0.0548  0.2731  0.1394
 1261SOL    HW115245   3.674   2.869   5.249 -1.0584 -1.1996 -0.1983
 1261SOL    HW215246   3.792   2.800   5.208 -0.0126  0.1398  0.0829
 1262SOL     OW15247   4.598   2.556  13.729  0.8020 -0.6894 -0.3921
 1262SOL    HW115248   4.518   2.533  13.777  1.7215  0.4020  1.6182
 1262SOL    HW215249   4.673   2.550  13.788 -0.3237  1.7446  1.2602
 1263SOL     OW15250   3.044   0.308  14.822 -0.3615  0.1095 -0.2385
 1263SOL    HW115251   3.091   0.262  14.752 -0.4326 -0.2169 -0.0698
 1263SOL    HW215252   2.954   0.299  14.790 -0.0855  0.7010 -1.1755
 1264SOL     OW15253   1.809   3.867  15.415 -0.3697  0.5143 -0.1158
 1264SOL    HW115254   1.855   3.946  15.444 -1.4613  1.2779 -0.4813
 1264SOL    HW215255   1.834   3.872  15.323 -1.1146  1.3233 -0.2748
 1265SOL     OW15256   2.765   2.470   6.709 -0.5222 -0.0317 -0.5610
 1265SOL    HW115257   2.703   2.520   6.655 -0.5201 -1.9377 -2.3210
 1265SOL    HW215258   2.771   2.531   6.783 -3.4968 -1.3680  0.7798
 1266SOL     OW15259   0.542   0.378   5.953  0.3140 -0.3746 -0.7394
 1266SOL    HW115260   0.534   0.473   5.947  1.1233 -0.2542 -0.0754
 1266SOL    HW215261   0.602   0.371   6.027  0.9045 -0.1897 -1.1975
 1267SOL     OW15262   0.221   4.696   5.088  0.4134 -0.4741  0.0125
 1267SOL    HW115263   0.145   4.680   5.143  2.1358 -2.6429  1.7896
 1267SOL    HW215264   0.232   4.613   5.041 -1.1857 -0.8691  0.3443
 1268SOL     OW15265   1.558   1.140  15.045  0.8109 -0.5740 -0.1043
 1268SOL    HW115266   1.632   1.139  14.985  0.1456  0.3223 -0.9217
 1268SOL    HW215267   1.589   1.184  15.125 -1.4896  0.5624  0.1685
 1269SOL     OW15268   4.509   3.202   8.737  0.2627  0.0358  0.0409
 1269SOL    HW115269   4.566   3.202   8.813  3.2306 -0.4663 -2.1566
 1269SOL    HW215270   4.483   3.294   8.737 -1.1446 -0.3478 -3.2348
 1270SOL     OW15271   3.108   3.732  15.418  0.1128 -0.3091 -0.1803
 1270SOL    HW115272   3.154   3.815  15.413 -1.0206  0.2446 -1.2589
 1270SOL    HW215273   3.160   3.678  15.358  0.2551 -0.3382 -0.0321
 1271SOL     OW15274   3.936   2.994  17.084  0.1192  0.1582  0.4779
 1271SOL    HW115275   3.887   3.076  17.078 -1.4733 -0.6951  1.7557
 1271SOL    HW215276   3.962   2.992  16.992 -0.4734  0.8682  0.2941
 1272SOL     OW15277   3.429   4.549  14.895  0.2346 -0.4513 -0.1687
 1272SOL    HW115278   3.441   4.643  14.882  3.0924 -1.2621 -3.3383
 1272SOL    HW215279   3.347   4.546  14.945 -0.7202  0.4192 -1.6794
 1273SOL     OW15280   1.509   2.956   4.489 -0.5153 -0.1995  0.0973
 1273SOL    HW115281   1.596   2.941   4.526 -0.0932  0.9389 -0.4336
 1273SOL    HW215282   1.521   2.907   4.408 -1.7112 -2.8952  1.5659
 1274SOL     OW15283   1.320   1.372   9.540 -0.0782  0.4037 -0.3657
 1274SOL    HW115284   1.356   1.340   9.623 -0.4812  2.0229  0.4363
 1274SOL    HW215285   1.231   1.389   9.574  0.5735  2.6952  0.2134
 1275SOL     OW15286   4.611   3.993   4.161  0.0877  0.4466  0.5425
 1275SOL    HW115287   4.533   3.937   4.157 -0.4894  1.2513  0.4315
 1275SOL    HW215288   4.686   3.940   4.187  2.0894  2.2930 -1.4324
 1276SOL     OW15289   1.240   1.876   6.926  0.0633  0.2441 -0.5495
 1276SOL    HW115290   1.278   1.914   7.006  1.3503 -2.1141 -0.0319
 1276SOL    HW215291   1.320   1.837   6.891 -1.3633 -2.4797 -0.8434
 1277SOL     OW15292   3.893   1.896   7.247  0.3028  0.0256  0.0576
 1277SOL    HW115293   3.942   1.977   7.258 -1.6852  1.0327  1.4174
 1277SOL    HW215294   3.896   1.875   7.340  3.5212 -0.1967 -0.1147
 1278SOL     OW15295   0.995   2.338   6.694 -0.0948  0.4521 -0.3034
 1278SOL    HW115296   0.913   2.388   6.695  0.3076  1.0994 -0.0461
 1278SOL    HW215297   1.058   2.409   6.704 -0.7844  1.3799 -2.6871
 1279SOL     OW15298   0.450   0.820   1.159 -0.5162  0.5729 -0.2709
 1279SOL    HW115299   0.446   0.729   1.129 -0.4549 -0.1699  2.0032
 1279SOL    HW215300   0.421   0.860   1.077  0.9041  3.4267  0.6251
 1280SOL     OW15301   0.700   2.967   4.201 -0.5200  0.5349  0.1319
 1280SOL    HW115302   0.662   2.968   4.113  1.2812  1.1961 -0.6393
 1280SOL    HW215303   0.652   3.039   4.242 -0.7721  1.1530 -1.2511
 1281SOL     OW15304   4.281   1.340  10.477  0.1969  0.1180  0.2246
 1281SOL    HW115305   4.293   1.400  10.550 -3.0398 -0.7537  1.4583
 1281SOL    HW215306   4.246   1.405  10.416 -0.9861  0.4774  1.2977
 1282SOL     OW15307   3.308   0.628   2.259 -0.3310 -0.3819  0.3411
 1282SOL    HW115308   3.378   0.564   2.270 -1.1502 -1.3147  0.0942
 1282SOL    HW215309   3.283   0.653   2.348 -1.2861  2.9247 -0.8643
 1283SOL     OW15310   0.309   1.204  14.786 -0.0115  0.4723 -0.1893
 1283SOL    HW115311   0.353   1.133  14.833 -2.0264 -0.6796 -0.0481
 1283SOL    HW215312   0.226   1.199  14.832 -0.2371 -2.0490 -0.8901
 1284SOL     OW15313   3.945   3.224  13.315 -0.4688 -0.9659  0.6267
 1284SOL    HW115314   3.947   3.130  13.334 -1.4317 -0.3563  3.6055
 1284SOL    HW215315   3.991   3.225  13.231  0.0122 -1.5878  0.8779
 1285SOL     OW15316   0.844   3.725  14.766 -0.4700  0.0576 -0.3156
 1285SOL    HW115317   0.926   3.752  14.809 -1.9954  0.2499  2.4564
 1285SOL    HW215318   0.842   3.789  14.695  1.6531 -0.6835 -1.0622
 1286SOL     OW15319   3.502   1.017  14.128  0.1291 -0.3310 -0.2832
 1286SOL    HW115320   3.457   1.022  14.212 -0.3954 -2.8163 -0.4190
 1286SOL    HW215321   3.590   0.990  14.155 -0.4343 -0.3829  1.4882
 1287SOL     OW15322   0.567   3.760  15.303 -0.0551  0.2483 -0.6696
 1287SOL    HW115323   0.606   3.829  15.250  3.1234 -0.6251  0.4918
 1287SOL    HW215324   0.528   3.818  15.369  2.4445  1.5559 -0.3161
 1288SOL     OW15325   2.393   3.303   6.406 -0.3486  0.1007  0.5560
 1288SOL    HW115326   2.317   3.248   6.425 -0.9988  0.5803 -0.6960
 1288SOL    HW215327   2.442   3.305   6.488  0.7620  1.2999 -0.1388
 1289SOL     OW15328   3.908   3.273  13.956 -0.4246  0.1460  0.5104
 1289SOL    HW115329   3.977   3.257  14.020 -0.3336  1.2544  0.6862
 1289SOL    HW215330   3.869   3.186  13.952 -1.7696  0.7078  1.2736
 1290SOL     OW15331   4.087   0.118  14.821  0.5808 -0.2763  0.0293
 1290SOL    HW115332   4.131   0.203  14.820 -0.2089  0.1250 -0.7287
 1290SOL    HW215333   4.015   0.128  14.884  0.4465  0.5222 -0.2530
 1291SOL     OW15334   1.796   2.551   3.085 -0.1398 -0.1093 -0.4583
 1291SOL    HW115335   1.802   2.567   3.179  2.0988 -1.6154 -0.3397
 1291SOL    HW215336   1.701   2.542   3.075 -0.0635 -0.4758 -0.8468
 1292SOL     OW15337   2.606   1.255   6.791  0.2769 -0.2363  0.3382
 1292SOL    HW115338   2.530   1.269   6.734  1.7370  0.6927 -1.3460
 1292SOL    HW215339   2.673   1.316   6.761  2.2357 -2.8070 -0.4290
 1293SOL     OW15340   3.924   2.385   9.273  0.3839 -0.0147 -0.2526
 1293SOL    HW115341   3.938   2.302   9.228 -0.7055  1.6322 -3.6365
 1293SOL    HW215342   3.913   2.448   9.202 -3.0192 -0.0707  0.2180
 1294SOL     OW15343   4.131   2.494   7.883  0.1631 -0.1155 -0.1462
 1294SOL    HW115344   4.179   2.422   7.842  0.6503  0.2293 -0.1795
 1294SOL    HW215345   4.131   2.462   7.973 -0.7019  0.0586 -0.0749
 1295SOL     OW15346   2.150   1.607   6.658 -0.2392 -0.5668 -0.4449
 1295SOL    HW115347   2.109   1.616   6.572 -1.4007 -1.0710  0.0428
 1295SOL    HW215348   2.224   1.550   6.638 -1.1375 -1.3566 -1.5507
 1296SOL     OW15349   0.818   2.981  10.409  0.4167  0.1446  0.3466
 1296SOL    HW115350   0.886   3.047  10.400  1.8833 -1.2830  0.9321
 1296SOL    HW215351   0.864   2.904  10.376 -0.6418  0.5546 -2.0770
 1297SOL     OW15352   1.646   2.635   3.804 -0.7202 -0.5400 -0.1610
 1297SOL    HW115353   1.569   2.686   3.779 -0.2653  1.3599  2.3584
 1297SOL    HW215354   1.709   2.656   3.735 -0.6990 -0.2731 -0.0605
 1298SOL     OW15355   2.153   0.467  12.824  0.1725 -0.2503 -0.6301
 1298SOL    HW115356   2.180   0.416  12.747  3.6952 -3.1239  2.4930
 1298SOL    HW215357   2.241   0.493  12.849 -1.4463  2.4740  2.0932
 1299SOL     OW15358   1.862   3.598   2.091 -0.1176 -0.1006 -0.3096
 1299SOL    HW115359   1.844   3.638   2.006 -1.2820  2.1324  0.9766
 1299SOL    HW215360   1.826   3.657   2.158  1.7277  1.4317 -0.6582
 1300SOL     OW15361   1.422   0.675   2.263 -0.7528 -0.0371 -0.1932
 1300SOL    HW115362   1.407   0.747   2.203 -0.0852 -0.5847 -1.0206
 1300SOL    HW215363   1.373   0.600   2.229 -0.0879 -0.9204  0.7839
 1301SOL     OW15364   2.482   2.826   0.255 -0.2572 -0.1484 -0.6599
 1301SOL    HW115365   2.473   2.801   0.163  0.5411  1.0037 -1.0495
 1301SOL    HW215366   2.494   2.736   0.286 -1.9618 -0.3678 -0.6316
 1302SOL     OW15367   1.944   1.576   1.899  0.0136  0.7941  0.1568
 1302SOL    HW115368   1.920   1.663   1.931  1.6783  1.1941  0.2732
 1302SOL    HW215369   1.873   1.528   1.943 -0.1109  0.5678 -0.2933
 1303SOL     OW15370   2.814   4.520  16.722 -0.3233 -0.1678 -0.0512
 1303SOL    HW115371   2.855   4.565  16.796 -1.8561 -0.1650  0.8008
 1303SOL    HW215372   2.768   4.443  16.756 -1.1366  0.7778  1.0194
 1304SOL     OW15373   0.166   3.385   7.361 -0.3581 -0.0276  0.8363
 1304SOL    HW115374   0.226   3.459   7.372  2.2890 -2.0356 -0.1279
 1304SOL    HW215375   0.157   3.358   7.452 -2.2504  0.0597  0.6763
 1305SOL     OW15376   0.675   3.562   1.059 -0.2637  0.7226 -0.4447
 1305SOL    HW115377   0.611   3.610   1.110  1.3177  1.2729  1.0299
 1305SOL    HW215378   0.741   3.632   1.059  2.4246 -1.8288  1.9587
 1306SOL     OW15379   3.887   1.181   9.891 -0.1252 -0.2688 -0.4141
 1306SOL    HW115380   3.874   1.098   9.845  1.9337  0.0244 -1.5171
 1306SOL    HW215381   3.964   1.166   9.946  0.2325  0.5164 -0.7008
 1307SOL     OW15382   1.514   2.075  15.812  0.2157 -0.0642  0.0209
 1307SOL    HW115383   1.595   2.107  15.853 -0.6223  0.5419  1.2012
 1307SOL    HW215384   1.506   1.999  15.869 -0.0394 -0.8678 -1.0843
 1308SOL     OW15385   3.668   4.119  15.018  0.3869 -0.4494  0.2194
 1308SOL    HW115386   3.676   4.169  14.937 -3.6140  0.5409  0.3967
 1308SOL    HW215387   3.637   4.195  15.068  1.5668  0.2087 -0.0660
 1309SOL     OW15388   1.569   2.750   3.202  0.5125  0.9912  0.4816
 1309SOL    HW115389   1.598   2.841   3.190  0.3715  0.9432 -0.2375
 1309SOL    HW215390   1.640   2.708   3.250  1.0519  0.0371 -1.1364
 1310SOL     OW15391   0.974   3.326  16.667 -0.1379 -0.1614  0.0974
 1310SOL    HW115392   1.049   3.309  16.609  0.9235  0.5765  1.2476
 1310SOL    HW215393   1.011   3.397  16.720  1.3450 -1.2255  0.4827
 1311SOL     OW15394   3.449   1.527   5.138  0.1678  0.0650 -0.4957
 1311SOL    HW115395   3.427   1.471   5.213 -0.8612 -0.2869 -1.0576
 1311SOL    HW215396   3.404   1.481   5.067  0.6513  1.1527 -1.5001
 1312SOL     OW15397   4.236   0.832   2.552 -0.0538  0.2378 -0.2648
 1312SOL    HW115398   4.188   0.765   2.600 -0.1989  0.7468  0.2931
 1312SOL    HW215399   4.326   0.815   2.579  0.1482  1.2623 -0.2655
 1313SOL     OW15400   2.387   0.068   2.669 -0.1748  0.1744  0.9504
 1313SOL    HW115401   2.350   0.051   2.756  0.8254  1.7460  1.6935
 1313SOL    HW215402   2.480   0.070   2.693 -0.5148 -1.9658  2.5000
 1314SOL     OW15403   4.007   2.748  17.165 -0.3518  0.0757  0.6427
 1314SOL    HW115404   4.006   2.839  17.137  0.0538  0.1800  0.9620
 1314SOL    HW215405   4.029   2.717  17.078 -0.6289 -1.5005  1.1367
 1315SOL     OW15406   1.956   2.399   8.824  0.4034 -0.3711  0.3509
 1315SOL    HW115407   2.017   2.455   8.872  0.3023  2.0198 -2.3235
 1315SOL    HW215408   1.921   2.336   8.888  1.1016 -0.8238  0.2864
 1316SOL     OW15409   1.787   2.090   5.693 -0.1175 -0.2931  0.3218
 1316SOL    HW115410   1.847   2.163   5.675  0.2669 -0.7188 -0.0934
 1316SOL    HW215411   1.767   2.074   5.601  0.0917  0.5963  0.1171
 1317SOL     OW15412   2.252   0.727   4.510 -0.3342  0.1888 -0.1232
 1317SOL    HW115413   2.318   0.658   4.494 -0.6742 -0.8477  2.9998
 1317SOL    HW215414   2.303   0.795   4.466  0.4848 -0.3307  0.0138
 1318SOL     OW15415   0.278   3.990   3.269 -0.3391 -0.2696  0.1354
 1318SOL    HW115416   0.269   3.928   3.342 -1.7519 -0.0326  0.1675
 1318SOL    HW215417   0.349   4.044   3.302  1.8408 -3.1621  0.1412
 1319SOL     OW15418   1.363   1.295   7.140  0.3166  0.8850 -0.6249
 1319SOL    HW115419   1.334   1.378   7.175  2.2043  1.2805  0.0413
 1319SOL    HW215420   1.299   1.232   7.172  2.3029 -0.3191  1.0134
 1320SOL     OW15421   3.486   3.728   4.018 -0.1527  0.9109 -0.5519
 1320SOL    HW115422   3.575   3.760   4.005  0.6136 -0.8802  0.4216
 1320SOL    HW215423   3.477   3.765   4.106 -0.9308  2.4943 -1.2930
 1321SOL     OW15424   3.253   1.982   8.378 -0.4661 -0.0999  0.4965
 1321SOL    HW115425   3.180   2.003   8.319  0.4225 -2.2837 -1.3585
 1321SOL    HW215426   3.220   2.003   8.465 -1.1921 -0.2206  0.2480
 1322SOL     OW15427   4.539   2.846   4.318  0.1034  0.4378  0.4514
 1322SOL    HW115428   4.483   2.897   4.376  1.1230  2.2699 -0.1773
 1322SOL    HW215429   4.499   2.868   4.234 -2.5506  1.5583  1.9946
 1323SOL     OW15430   1.387   0.933   6.715 -0.2515 -0.1184 -0.3326
 1323SOL    HW115431   1.460   0.994   6.726  0.2607 -0.5496 -1.4554
 1323SOL    HW215432   1.335   0.952   6.794 -0.3781  1.2686 -0.7470
 1324SOL     OW15433   1.498   1.251   7.512  0.3028  0.6949 -0.2203
 1324SOL    HW115434   1.569   1.256   7.449  0.0986 -2.4096 -0.7237
 1324SOL    HW215435   1.544   1.270   7.593  0.8787  2.5150 -0.9749
 1325SOL     OW15436   4.209   2.670   4.441 -0.3936 -0.3488 -0.5991
 1325SOL    HW115437   4.142   2.733   4.468  0.7929  1.0093 -0.8107
 1325SOL    HW215438   4.159   2.620   4.377 -0.1888 -0.0290 -1.0079
 1326SOL     OW15439   2.023   1.132   3.736 -0.0012  0.3732 -0.0271
 1326SOL    HW115440   2.067   1.072   3.677  0.7042 -0.6668  1.5548
 1326SOL    HW215441   2.098   1.180   3.771  0.1515  1.1085 -1.3632
 1327SOL     OW15442   3.112   3.533   1.235 -0.1483 -0.0851  0.4139
 1327SOL    HW115443   3.194   3.527   1.186 -0.8576  2.3390 -1.0453
 1327SOL    HW215444   3.059   3.583   1.173  0.3154 -1.6140 -1.2184
 1328SOL     OW15445   0.931   1.663   2.363  0.0291  0.1853  0.2573
 1328SOL    HW115446   1.002   1.680   2.301  0.6365  2.1360  1.5064
 1328SOL    HW215447   0.970   1.695   2.444 -2.5894  0.0457  1.5822
 1329SOL     OW15448   1.148   3.771  11.234 -0.0700 -0.1836 -0.7747
 1329SOL    HW115449   1.238   3.751  11.211 -0.4579 -0.8646 -1.7005
 1329SOL    HW215450   1.122   3.829  11.162 -3.0470 -0.1576  0.3003
 1330SOL     OW15451   0.980   3.767   9.676 -0.0501 -0.1990 -0.3217
 1330SOL    HW115452   0.973   3.749   9.770 -0.3043 -0.1550 -0.3307
 1330SOL    HW215453   1.070   3.794   9.660  0.0099  0.2965  0.8229
 1331SOL     OW15454   2.735   2.540  17.341  0.0796  0.1344 -0.0186
 1331SOL    HW115455   2.653   2.563  17.385  0.2354  1.4380 -0.4025
 1331SOL    HW215456   2.759   2.470  17.401  0.4468  1.2916  1.1980
 1332SOL     OW15457   1.652   1.025  12.947  0.8768  0.0260  0.4146
 1332SOL    HW115458   1.716   0.973  12.996 -0.0872 -1.0826  0.4924
 1332SOL    HW215459   1.572   1.018  12.999  0.8116 -0.6029  0.2331
 1333SOL     OW15460   2.617   4.325   3.190  0.7473  0.5720 -0.2635
 1333SOL    HW115461   2.525   4.306   3.209  1.1170  0.7242  1.7645
 1333SOL    HW215462   2.648   4.235   3.188  1.0457  0.7053 -1.6118
 1334SOL     OW15463   3.672   0.438  11.378  0.2744  0.1886  0.1753
 1334SOL    HW115464   3.606   0.375  11.349  0.6741 -0.5113  0.7956
 1334SOL    HW215465   3.750   0.399  11.339  2.0153  0.8609  2.9768
 1335SOL     OW15466   0.529   1.310   8.891 -0.9352  0.4253  0.0144
 1335SOL    HW115467   0.522   1.398   8.928 -1.4085  0.8027 -0.9697
 1335SOL    HW215468   0.621   1.287   8.906 -1.5296 -0.9080  1.4849
 1336SOL     OW15469   0.972   1.749   5.366  0.3222 -0.3103 -0.2161
 1336SOL    HW115470   0.909   1.762   5.438  2.5944  2.9232  1.1429
 1336SOL    HW215471   0.908   1.703   5.311 -1.4949  0.0857  1.5470
 1337SOL     OW15472   1.627   3.265   3.235 -0.0632 -0.2931 -0.5657
 1337SOL    HW115473   1.685   3.292   3.164  1.6544 -0.1903  0.8552
 1337SOL    HW215474   1.543   3.307   3.218  0.1137 -0.2003 -1.1999
 1338SOL     OW15475   3.361   2.716  13.123  0.4014 -0.2966  0.6630
 1338SOL    HW115476   3.443   2.724  13.074  0.6237  1.2181  1.2872
 1338SOL    HW215477   3.364   2.624  13.150 -0.3015  0.1185  2.1696
 1339SOL     OW15478   1.846   3.641   2.462  0.7100  0.2751 -0.0986
 1339SOL    HW115479   1.875   3.676   2.378  1.8066  1.2694  0.6931
 1339SOL    HW215480   1.751   3.643   2.456  0.6729  0.0952  0.4289
 1340SOL     OW15481   3.359   4.158   8.419  0.0759  0.1072 -0.1502
 1340SOL    HW115482   3.436   4.197   8.460 -0.5571  0.6798  0.4799
 1340SOL    HW215483   3.347   4.231   8.359 -0.6708 -0.2655 -0.4476
 1341SOL     OW15484   3.937   1.745  15.864 -0.2008  0.3267 -0.4668
 1341SOL    HW115485   3.960   1.665  15.913 -0.4353 -0.9165 -2.3970
 1341SOL    HW215486   3.916   1.715  15.776  0.5486 -2.1437  0.1671
 1342SOL     OW15487   1.589   2.060   7.598  0.5098  0.5894 -0.0101
 1342SOL    HW115488   1.597   1.989   7.662 -0.0799  0.6042  0.0871
 1342SOL    HW215489   1.511   2.105   7.631  0.6405 -0.0079  1.1046
 1343SOL     OW15490   2.065   3.079   0.494 -0.3642 -0.6453  0.3539
 1343SOL    HW115491   2.012   3.155   0.473  1.5631  0.9684  1.3245
 1343SOL    HW215492   2.101   3.096   0.581  0.1139  0.5687 -0.0944
 1344SOL     OW15493   3.396   1.771   8.233 -0.4889  0.2441 -0.1663
 1344SOL    HW115494   3.326   1.787   8.169 -1.5942  0.6586  1.1558
 1344SOL    HW215495   3.376   1.837   8.299  0.5326  0.4717 -0.0873
 1345SOL     OW15496   1.896   0.717   2.369  0.2761 -0.0496 -0.0043
 1345SOL    HW115497   1.875   0.764   2.288  0.5204  0.2652  0.1186
 1345SOL    HW215498   1.822   0.656   2.373  0.5946 -0.4574 -0.2910
 1346SOL     OW15499   3.210   0.252   6.814 -0.3546 -0.3491 -0.0943
 1346SOL    HW115500   3.204   0.302   6.895  1.1486 -0.6275  0.1895
 1346SOL    HW215501   3.275   0.188   6.843 -1.2104 -1.2498 -0.1588
 1347SOL     OW15502   2.011   0.966   4.741 -0.0222 -0.1587  0.4036
 1347SOL    HW115503   1.950   1.019   4.791 -0.3510 -0.0231 -0.1329
 1347SOL    HW215504   2.057   1.026   4.683 -2.7562  0.3805 -1.2543
 1348SOL     OW15505   2.923   3.736   1.111  0.0834 -0.1346  0.6624
 1348SOL    HW115506   2.904   3.788   1.034  0.4047 -1.6867 -0.4804
 1348SOL    HW215507   2.863   3.787   1.165 -2.0472 -0.7004 -1.2244
 1349SOL     OW15508   0.873   1.539   1.607 -0.0619 -0.4446  0.4499
 1349SOL    HW115509   0.828   1.467   1.652  1.7517 -1.7621  0.1640
 1349SOL    HW215510   0.931   1.486   1.552 -1.4811 -0.2277 -1.2488
 1350SOL     OW15511   2.045   1.519   2.600  0.0744  0.5847  0.1618
 1350SOL    HW115512   2.109   1.535   2.669  0.8848 -1.1415 -0.1918
 1350SOL    HW215513   1.967   1.561   2.635 -0.3485 -0.0732  0.0170
 1351SOL     OW15514   0.498   3.121   4.059 -0.3316 -0.3599 -0.5441
 1351SOL    HW115515   0.441   3.110   3.983 -0.5830 -1.2070 -0.2340
 1351SOL    HW215516   0.456   3.175   4.126  2.3139  0.0355  0.8056
 1352SOL     OW15517   4.543   2.886   8.756 -0.0650 -0.0327 -0.0189
 1352SOL    HW115518   4.529   2.913   8.847  1.6118 -0.6130  0.3971
 1352SOL    HW215519   4.566   2.976   8.730 -0.9581  0.3043  0.3454
 1353SOL     OW15520   1.055   0.976  13.568  0.3838  0.3199  0.1767
 1353SOL    HW115521   1.033   1.046  13.629 -0.2178  0.9939 -0.8108
 1353SOL    HW215522   1.151   0.976  13.574  0.3225  1.7277  1.1276
 1354SOL     OW15523   4.451   1.744   9.647  0.1558 -0.0364 -0.9508
 1354SOL    HW115524   4.425   1.694   9.570 -2.8765  0.9653 -0.5769
 1354SOL    HW215525   4.456   1.678   9.717 -1.1529  0.4228 -0.4235
 1355SOL     OW15526   2.782   2.225   2.255 -0.2929  0.6566 -0.2598
 1355SOL    HW115527   2.862   2.273   2.235  1.3287 -1.3187  1.4844
 1355SOL    HW215528   2.758   2.199   2.166 -0.2074 -0.5891  0.0792
 1356SOL     OW15529   4.428   1.046   6.233 -0.1431 -0.0461 -0.1778
 1356SOL    HW115530   4.365   1.114   6.257  0.3011  0.7527 -1.3077
 1356SOL    HW215531   4.385   0.977   6.284  2.4757 -0.9406  0.8467
 1357SOL     OW15532   1.948   0.421   7.307  0.2628 -0.4283 -0.2843
 1357SOL    HW115533   1.941   0.484   7.236  0.7309  1.5240  1.4165
 1357SOL    HW215534   1.865   0.430   7.353  0.8118 -0.5513  0.7283
 1358SOL     OW15535   3.309   1.414   4.939 -0.2550  0.0524  0.2875
 1358SOL    HW115536   3.286   1.377   4.854 -0.2987  0.7578 -0.0063
 1358SOL    HW215537   3.276   1.339   4.989  0.7676 -0.2097  0.5607
 1359SOL     OW15538   1.787   0.215   4.089  0.1511 -0.0973 -0.0260
 1359SOL    HW115539   1.768   0.307   4.109 -2.2563 -0.4134 -0.8318
 1359SOL    HW215540   1.824   0.216   4.001 -0.1061 -0.4962 -0.1357
 1360SOL     OW15541   2.024   4.026   8.061  0.2209 -0.5012 -0.0360
 1360SOL    HW115542   2.037   4.015   8.155  1.1991  0.5075 -0.0536
 1360SOL    HW215543   1.932   4.048   8.070 -0.1972 -2.4146  0.2518
 1361SOL     OW15544   4.108   4.122   7.540 -0.0200 -0.4593  0.0596
 1361SOL    HW115545   4.100   4.041   7.489  1.2878 -0.1142 -0.6831
 1361SOL    HW215546   4.034   4.118   7.600  1.7599 -0.6610  2.2314
 1362SOL     OW15547   1.913   3.487   1.488  0.2786 -0.0427 -0.1865
 1362SOL    HW115548   1.936   3.537   1.566 -2.2483 -2.1885  1.9102
 1362SOL    HW215549   1.901   3.397   1.518  2.0644 -0.0889  0.3669
 1363SOL     OW15550   0.460   1.899   5.444  0.0410  0.1495 -0.0384
 1363SOL    HW115551   0.436   1.946   5.364 -3.1057 -1.9174 -0.2836
 1363SOL    HW215552   0.380   1.901   5.495 -0.8024 -2.4876 -1.2426
 1364SOL     OW15553   0.927   0.480   4.181  0.4100 -0.2218 -0.0303
 1364SOL    HW115554   1.005   0.426   4.173  1.1477  0.7246  0.7149
 1364SOL    HW215555   0.970   0.564   4.198  0.2701 -0.8941  3.4932
 1365SOL     OW15556   0.926   3.677   8.474 -0.2355  0.5874 -0.0330
 1365SOL    HW115557   0.853   3.735   8.495 -0.1949  0.4540  0.4643
 1365SOL    HW215558   0.926   3.709   8.384  0.6802  1.6530  0.3460
 1366SOL     OW15559   0.406   3.562  15.211  0.2306 -0.1828  0.0770
 1366SOL    HW115560   0.453   3.635  15.249  1.5919 -0.7432 -0.5463
 1366SOL    HW215561   0.467   3.539  15.141  1.7839 -0.4738  1.5323
 1367SOL     OW15562   1.777   0.229   8.286 -0.1215  0.8044  0.3163
 1367SOL    HW115563   1.823   0.294   8.339 -1.8048  2.8150 -0.7073
 1367SOL    HW215564   1.779   0.145   8.332 -0.8065  0.6295  0.0372
 1368SOL     OW15565   1.954   2.287  10.403 -0.5771  0.7910  0.1700
 1368SOL    HW115566   1.863   2.309  10.423 -1.5871 -1.3190 -2.0502
 1368SOL    HW215567   1.987   2.366  10.362 -0.4262  0.0196 -1.1995
 1369SOL     OW15568   0.922   2.646   8.542  0.1000 -0.2294  0.4390
 1369SOL    HW115569   0.884   2.688   8.620  1.1365 -0.9209  1.3193
 1369SOL    HW215570   0.947   2.720   8.487 -1.0932  0.8419  1.3330
 1370SOL     OW15571   1.942   4.578   1.194 -0.1250 -0.2017  0.5089
 1370SOL    HW115572   1.886   4.653   1.213 -4.5894 -2.7420 -2.8043
 1370SOL    HW215573   2.003   4.589   1.267  1.0250 -0.0933 -0.4723
 1371SOL     OW15574   4.493   1.199  13.932  0.0980  0.0399 -0.2613
 1371SOL    HW115575   4.558   1.177  13.866 -0.5471 -0.8203 -0.6149
 1371SOL    HW215576   4.545   1.178  14.009  0.7674  1.3728 -0.3616
 1372SOL     OW15577   4.711   2.608   4.327 -0.4236 -0.1807 -0.3404
 1372SOL    HW115578   4.625   2.593   4.367  0.2559 -2.0724  0.4506
 1372SOL    HW215579   4.703   2.703   4.320 -0.7899 -0.3923 -2.7640
 1373SOL     OW15580   2.735   1.622   8.509 -0.0902 -0.2560 -0.3470
 1373SOL    HW115581   2.795   1.629   8.435 -1.0430 -1.7218 -1.2339
 1373SOL    HW215582   2.707   1.712   8.528 -0.8313 -0.0812 -2.3098
 1374SOL     OW15583   0.478   2.175   5.319  0.1482 -0.0480  0.5371
 1374SOL    HW115584   0.413   2.194   5.251 -1.6314  0.1095  2.2764
 1374SOL    HW215585   0.545   2.241   5.299 -1.8798  1.6868 -0.4692
 1375SOL     OW15586   0.752   0.851   5.868 -0.1998 -0.5822 -0.6577
 1375SOL    HW115587   0.827   0.855   5.926  1.3462  2.0035 -2.8392
 1375SOL    HW215588   0.779   0.896   5.787  1.2381  0.3768  0.3584
 1376SOL     OW15589   3.247   2.301   4.193  0.4076 -0.4551  0.2012
 1376SOL    HW115590   3.313   2.239   4.165 -0.4098 -1.0840 -0.3260
 1376SOL    HW215591   3.224   2.348   4.113 -3.5313 -0.5668  1.2832
 1377SOL     OW15592   1.793   4.421   6.984 -0.0735  0.3201  0.0040
 1377SOL    HW115593   1.882   4.426   7.018  0.1004 -3.4829  0.0717
 1377SOL    HW215594   1.784   4.514   6.963 -0.1294  0.8906  2.5619
 1378SOL     OW15595   0.757   1.970   5.361 -0.1488  0.3259  0.1587
 1378SOL    HW115596   0.713   2.053   5.378 -0.8595  0.4824 -2.4200
 1378SOL    HW215597   0.688   1.906   5.339  1.7274 -1.8940  0.7370
 1379SOL     OW15598   2.682   2.158  12.022 -0.4248  0.5075  0.0717
 1379SOL    HW115599   2.599   2.202  12.041 -1.5677 -0.4975 -2.5954
 1379SOL    HW215600   2.745   2.192  12.085  0.7553  0.8416 -1.2788
 1380SOL     OW15601   1.696   4.702   5.157 -0.5559  0.9766 -0.0256
 1380SOL    HW115602   1.787   0.001   5.167 -0.2014 -0.8941  1.2006
 1380SOL    HW215603   1.678   4.656   5.239  0.7454 -0.7346 -0.7041
 1381SOL     OW15604   1.559   1.114   7.051  0.8668  0.2553 -0.4282
 1381SOL    HW115605   1.540   1.025   7.081 -0.2584  0.2638 -1.1179
 1381SOL    HW215606   1.478   1.158   7.078  1.5838  0.8737  0.7194
 1382SOL     OW15607   3.554   4.094   3.978  0.0483  0.0070 -0.4918
 1382SOL    HW115608   3.570   4.118   3.887  0.6703  0.4657 -0.2549
 1382SOL    HW215609   3.635   4.051   4.008 -0.4875 -0.4053  0.3777
 1383SOL     OW15610   0.140   1.160   8.334  0.0965 -0.4366 -0.4372
 1383SOL    HW115611   0.218   1.139   8.284  2.3615  0.3681  2.7548
 1383SOL    HW215612   0.136   1.253   8.312  1.0562 -0.2065  0.3616
 1384SOL     OW15613   4.135   0.508  16.047  0.3330  0.4928  0.7745
 1384SOL    HW115614   4.152   0.533  15.956 -1.1004  1.3314  0.7306
 1384SOL    HW215615   4.193   0.432  16.049 -0.4525 -0.0847  1.5150
 1385SOL     OW15616   0.550   2.874  13.815  0.2533 -0.0939  0.0923
 1385SOL    HW115617   0.592   2.798  13.855  0.7725  0.7828  1.2276
 1385SOL    HW215618   0.629   2.924  13.794  0.3352 -0.5475 -0.6686
 1386SOL     OW15619   4.196   3.541  10.655 -0.3605  0.0903 -0.1232
 1386SOL    HW115620   4.103   3.519  10.653  0.2577 -2.6923  1.3098
 1386SOL    HW215621   4.242   3.458  10.666 -0.4505 -0.0238 -0.6380
 1387SOL     OW15622   3.883   4.404   4.844 -0.2036 -0.5009 -0.5049
 1387SOL    HW115623   3.798   4.447   4.829 -1.5558 -2.6369  1.1062
 1387SOL    HW215624   3.933   4.478   4.878  0.1254 -0.1469 -1.7770
 1388SOL     OW15625   1.535   3.602   5.573  0.0699 -0.1259 -0.0595
 1388SOL    HW115626   1.519   3.682   5.623  1.3624 -0.9565  1.7105
 1388SOL    HW215627   1.533   3.533   5.640  1.6100  0.5519  0.7056
 1389SOL     OW15628   1.772   0.864  11.167 -0.1363 -0.0660 -0.1382
 1389SOL    HW115629   1.856   0.881  11.124  0.5040  0.6446  1.4000
 1389SOL    HW215630   1.739   0.790  11.117  2.0501  0.6101 -2.5516
 1390SOL     OW15631   4.269   4.083  16.829  0.0151  0.3413  0.2204
 1390SOL    HW115632   4.299   4.151  16.890  2.8132  0.6870 -1.5405
 1390SOL    HW215633   4.174   4.095  16.825  0.0855 -0.0266 -2.3967
 1391SOL     OW15634   1.260   0.955   9.824 -0.2267 -0.2789  0.2168
 1391SOL    HW115635   1.201   0.881   9.821 -0.1419 -0.3256 -0.3795
 1391SOL    HW215636   1.312   0.941   9.903  0.9245 -1.5630 -0.7650
 1392SOL     OW15637   0.528   4.515   4.933  0.6993  0.9268 -0.1613
 1392SOL    HW115638   0.586   4.443   4.961 -0.6032 -0.6027 -1.3828
 1392SOL    HW215639   0.442   4.473   4.923 -0.4684  3.3968 -0.3343
 1393SOL     OW15640   0.620   4.403   6.981  0.4146  0.2808  0.3856
 1393SOL    HW115641   0.690   4.349   7.018 -0.5730 -1.7744 -0.7240
 1393SOL    HW215642   0.546   4.343   6.980  1.1482 -0.6390  0.8616
 1394SOL     OW15643   3.721   2.449   3.778  0.5604 -0.2110 -0.3467
 1394SOL    HW115644   3.643   2.466   3.725 -0.2965  0.4253  1.1019
 1394SOL    HW215645   3.777   2.416   3.708  0.6969  1.5249 -1.0696
 1395SOL     OW15646   4.072   2.873   4.956  0.1363  0.2273 -0.5692
 1395SOL    HW115647   4.126   2.872   5.035  1.1603 -2.2091 -1.2998
 1395SOL    HW215648   4.084   2.781   4.933 -1.5347 -0.0438 -0.3766
 1396SOL     OW15649   2.659   0.274  10.997 -0.2348 -0.3532 -0.3157
 1396SOL    HW115650   2.658   0.339  10.927 -2.9926 -1.3220 -1.1757
 1396SOL    HW215651   2.589   0.215  10.966  0.1410 -0.1233 -1.6119
 1397SOL     OW15652   1.710   1.023   7.600  0.1635  0.3758 -0.1560
 1397SOL    HW115653   1.726   1.083   7.527 -2.1736  2.7629  1.3246
 1397SOL    HW215654   1.750   0.942   7.569 -1.8624 -0.5525 -0.3574
 1398SOL     OW15655   1.377   2.757  11.822 -0.0560  0.4901 -0.1622
 1398SOL    HW115656   1.288   2.761  11.785  1.0401  2.9000 -2.5659
 1398SOL    HW215657   1.355   2.779  11.912 -0.2362 -0.0147 -0.0796
 1399SOL     OW15658   4.504   2.308   4.822  0.0139 -0.0033  0.0689
 1399SOL    HW115659   4.503   2.354   4.738  0.7451  0.3211  0.2384
 1399SOL    HW215660   4.598   2.299   4.840  0.0584 -0.8133 -0.5157
 1400SOL     OW15661   2.232   3.191   3.222  0.5415  0.7875  0.2841
 1400SOL    HW115662   2.283   3.256   3.173  1.3664 -0.1346 -0.0764
 1400SOL    HW215663   2.287   3.113   3.227  0.0420  0.5348  1.9201
 1401SOL     OW15664   4.597   0.786  10.331 -0.0069 -0.2487 -0.2430
 1401SOL    HW115665   4.617   0.876  10.357  0.8469 -0.1509 -1.2370
 1401SOL    HW215666   4.529   0.772  10.396 -1.2499  0.7528 -1.3263
 1402SOL     OW15667   0.027   3.280   1.656 -0.0966  0.2293 -0.3155
 1402SOL    HW115668   0.111   3.234   1.655 -1.0876 -1.5893 -1.1245
 1402SOL    HW215669   4.704   3.214   1.707  0.8476 -0.2044  0.0301
 1403SOL     OW15670   3.630   0.963   6.274  0.3142 -0.3420  0.1949
 1403SOL    HW115671   3.720   0.976   6.243  0.2816 -2.7667 -0.9453
 1403SOL    HW215672   3.579   0.982   6.195 -1.0297 -1.2563  0.8550
 1404SOL     OW15673   4.255   4.689  16.386 -0.7246  0.1854 -0.2633
 1404SOL    HW115674   4.303   4.660  16.309 -0.5300 -0.5438  0.1274
 1404SOL    HW215675   4.213   4.605  16.402 -1.3494  0.2995 -1.3032
 1405SOL     OW15676   1.118   2.450   5.749 -0.4044 -0.0822 -0.0362
 1405SOL    HW115677   1.066   2.440   5.829  2.8222  2.6824  2.4319
 1405SOL    HW215678   1.173   2.372   5.760 -1.2944 -0.7532 -0.3486
 1406SOL     OW15679   3.856   1.705  17.414 -0.4581 -0.3091  0.0861
 1406SOL    HW115680   3.812   1.674  17.334 -0.9865  1.5015 -0.3136
 1406SOL    HW215681   3.880   1.796  17.398 -0.5604 -0.2007  0.5422
 1407SOL     OW15682   0.353   4.013  16.860 -0.1486 -0.2315 -0.0779
 1407SOL    HW115683   0.390   3.959  16.930  0.2219  0.8241  0.5327
 1407SOL    HW215684   0.351   3.943  16.793 -2.4301 -2.1942  2.0473
 1408SOL     OW15685   2.835   3.147   5.281 -0.2368  0.1988 -0.2129
 1408SOL    HW115686   2.879   3.111   5.357 -2.1002  2.3783  1.9070
 1408SOL    HW215687   2.757   3.154   5.336 -1.1006 -0.5030 -1.3281
 1409SOL     OW15688   2.143   1.451   3.731  0.4231  0.1139  0.1260
 1409SOL    HW115689   2.176   1.404   3.654 -0.0339 -0.2996  0.1854
 1409SOL    HW215690   2.179   1.400   3.803 -0.4587  0.4116  0.7780
 1410SOL     OW15691   2.191   1.959   0.280 -0.3078  0.3126 -0.4181
 1410SOL    HW115692   2.135   1.969   0.203 -1.0561 -2.6607 -0.2634
 1410SOL    HW215693   2.268   2.008   0.249  0.4268 -1.7254 -1.8351
 1411SOL     OW15694   3.835   3.177  11.260 -0.1851  0.3263 -0.0324
 1411SOL    HW115695   3.884   3.095  11.259 -1.9230 -0.6688 -2.6354
 1411SOL    HW215696   3.798   3.184  11.172  0.4457  0.0391 -0.3189
 1412SOL     OW15697   0.940   1.433   2.033  0.0729 -0.3795  0.3077
 1412SOL    HW115698   0.895   1.494   2.091  0.2441  1.4601 -1.4933
 1412SOL    HW215699   0.955   1.484   1.953 -1.7881 -1.0555 -0.4548
 1413SOL     OW15700   2.555   4.107   5.994 -0.3783  0.0210  0.4209
 1413SOL    HW115701   2.561   4.203   5.996 -0.6762  0.0376  0.5081
 1413SOL    HW215702   2.511   4.090   5.911 -2.6869  0.3457  1.5680
 1414SOL     OW15703   3.340   4.649  15.756  0.3518 -0.5527 -0.4776
 1414SOL    HW115704   3.257   4.697  15.757  1.0502  0.6649  0.0541
 1414SOL    HW215705   3.313   4.565  15.793 -1.3765  0.0049 -0.4676
 1415SOL     OW15706   1.841   3.649  13.325  0.1831  0.3921 -0.3498
 1415SOL    HW115707   1.800   3.624  13.407 -0.2641 -0.9176 -0.9704
 1415SOL    HW215708   1.770   3.627  13.265  1.4788  0.3057 -1.8578
 1416SOL     OW15709   2.503   1.852  13.659  0.3369 -0.2562  0.0508
 1416SOL    HW115710   2.432   1.819  13.714  0.5799 -0.8817 -0.0090
 1416SOL    HW215711   2.455   1.908  13.598  0.2786  0.2672  0.5701
 1417SOL     OW15712   3.980   3.453   6.909  0.2713 -0.0659 -0.2124
 1417SOL    HW115713   4.011   3.395   6.979  2.0515  1.1968  0.0432
 1417SOL    HW215714   4.039   3.432   6.837  0.6087  0.8473 -0.2077
 1418SOL     OW15715   0.779   2.365   3.437 -0.3085 -0.8447 -0.7923
 1418SOL    HW115716   0.873   2.352   3.445 -0.2162  0.2328 -0.0677
 1418SOL    HW215717   0.739   2.340   3.354  0.8439 -0.5180 -1.4300
 1419SOL     OW15718   0.623   0.766   7.008  0.0061 -1.1228 -0.0724
 1419SOL    HW115719   0.596   0.718   7.086  1.0600 -1.9009 -0.1834
 1419SOL    HW215720   0.543   0.783   6.959  1.0586  0.3210 -1.3039
 1420SOL     OW15721   3.697   3.500   6.641 -0.2560  0.5210 -0.1269
 1420SOL    HW115722   3.771   3.540   6.687 -0.8955 -0.1244  1.4522
 1420SOL    HW215723   3.677   3.432   6.706  0.0263  0.9427  0.4046
 1421SOL     OW15724   0.110   4.601   8.997 -0.3915  0.0677 -0.2546
 1421SOL    HW115725   0.197   4.638   9.013  0.3062 -1.6796 -0.0297
 1421SOL    HW215726   0.051   4.674   9.014  0.3892  0.2392  1.7694
 1422SOL     OW15727   1.304   1.606   3.563 -0.0340 -0.2958  0.8473
 1422SOL    HW115728   1.384   1.599   3.510 -1.1063  2.2882 -1.1114
 1422SOL    HW215729   1.335   1.639   3.647  0.9938  1.2785 -0.1417
 1423SOL     OW15730   3.831   3.381  13.692 -0.4742 -0.1860 -0.3934
 1423SOL    HW115731   3.743   3.358  13.722  0.5210 -2.3923  0.8576
 1423SOL    HW215732   3.883   3.337  13.760 -1.6767 -0.6846  0.2053
 1424SOL     OW15733   3.258   1.494  14.124  0.7299  0.0215  0.5812
 1424SOL    HW115734   3.318   1.436  14.076 -1.7585 -0.4845 -1.9364
 1424SOL    HW215735   3.173   1.455  14.100 -0.7025  2.1151  2.3925
 1425SOL     OW15736   2.524   3.476   8.853 -0.8206  0.1041 -0.3314
 1425SOL    HW115737   2.615   3.470   8.824 -0.9801  1.0376 -1.0249
 1425SOL    HW215738   2.529   3.499   8.946  1.1872 -1.6805  0.0074
 1426SOL     OW15739   2.379   1.946  16.755  0.3332  0.0231 -0.0251
 1426SOL    HW115740   2.294   1.933  16.712 -0.0565 -1.5060  1.1898
 1426SOL    HW215741   2.364   1.881  16.824 -2.7128  1.2817  0.5167
 1427SOL     OW15742   2.717   1.123   7.174  0.3031  0.2801  0.1036
 1427SOL    HW115743   2.687   1.042   7.214  1.2352  0.1520  0.5468
 1427SOL    HW215744   2.702   1.097   7.083  0.6425 -1.4747  0.5634
 1428SOL     OW15745   0.308   0.276   5.582  0.1629 -0.7569 -0.4897
 1428SOL    HW115746   0.286   0.368   5.569  0.6091 -0.4482  0.9869
 1428SOL    HW215747   0.377   0.273   5.515 -0.2330  1.4426 -0.9841
 1429SOL     OW15748   2.790   3.260  13.123 -0.2688 -0.2372  0.6395
 1429SOL    HW115749   2.878   3.253  13.162 -0.1385 -0.6060  0.2812
 1429SOL    HW215750   2.738   3.262  13.203  0.7245 -0.9592  1.3184
 1430SOL     OW15751   0.166   0.302   5.187 -0.7152  0.1754 -0.0895
 1430SOL    HW115752   0.091   0.328   5.134  0.9799  4.2025 -0.5201
 1430SOL    HW215753   0.133   0.246   5.257 -1.2652 -0.2235 -0.6745
 1431SOL     OW15754   3.179   3.625   1.956 -0.6215  0.0290  0.7885
 1431SOL    HW115755   3.263   3.666   1.974  1.2290 -2.5641 -1.9981
 1431SOL    HW215756   3.160   3.648   1.865 -1.6025 -0.5818  0.8398
 1432SOL     OW15757   4.124   2.850   3.979 -0.3696 -0.1232  0.0315
 1432SOL    HW115758   4.120   2.937   4.019 -2.5996 -0.5909  0.8325
 1432SOL    HW215759   4.121   2.802   4.062 -0.4529 -2.3514 -1.2522
 1433SOL     OW15760   1.977   3.762   4.623 -0.1372 -0.3742 -0.5197
 1433SOL    HW115761   1.882   3.770   4.626  0.0082  1.2575 -0.3486
 1433SOL    HW215762   1.991   3.774   4.529  0.4012  1.4600 -0.2147
 1434SOL     OW15763   4.685   1.288   9.202  0.0672 -0.0287  0.0533
 1434SOL    HW115764   4.643   1.328   9.278 -1.2236 -1.9713  0.3662
 1434SOL    HW215765   4.717   1.371   9.167 -2.4789  1.3938  1.1312
 1435SOL     OW15766   2.118   2.460   4.787 -0.2926 -0.2860  0.1343
 1435SOL    HW115767   2.055   2.412   4.733 -0.7193 -1.3852  1.6160
 1435SOL    HW215768   2.179   2.390   4.808  1.3260  1.4731  1.3128
 1436SOL     OW15769   2.498   4.256  12.974 -0.3716  0.4684  0.0931
 1436SOL    HW115770   2.444   4.197  13.027  0.4079  1.7451  2.3071
 1436SOL    HW215771   2.444   4.235  12.898 -0.0408  2.2270 -0.6405
 1437SOL     OW15772   1.314   2.652   5.175 -0.3061 -0.3104  0.3900
 1437SOL    HW115773   1.309   2.658   5.079 -1.8925  1.4579  0.5750
 1437SOL    HW215774   1.272   2.568   5.192  2.1655 -1.5675  0.2598
 1438SOL     OW15775   0.610   4.213   7.741  0.1782  0.3145 -0.2473
 1438SOL    HW115776   0.698   4.182   7.722 -0.9717 -2.3134 -1.3322
 1438SOL    HW215777   0.630   4.302   7.767  1.0239  0.9521 -3.0708
 1439SOL     OW15778   0.590   2.528   5.444 -0.3764 -0.2981 -0.0031
 1439SOL    HW115779   0.651   2.485   5.503  0.8446  0.0631 -0.9923
 1439SOL    HW215780   0.642   2.506   5.366 -1.2783 -0.7374 -0.4857
 1440SOL     OW15781   2.516   4.124   4.400 -1.0724  0.0226 -0.1730
 1440SOL    HW115782   2.484   4.150   4.486  0.9108 -1.1248  0.9235
 1440SOL    HW215783   2.595   4.080   4.432 -0.9580  1.6151  1.7689
 1441SOL     OW15784   0.836   3.176   5.003  0.3240  0.9243 -0.0220
 1441SOL    HW115785   0.772   3.226   4.952  1.5599  1.3545 -1.1596
 1441SOL    HW215786   0.910   3.200   4.948  1.3204 -0.5344  0.6672
 1442SOL     OW15787   1.694   1.959  16.196  0.1635  0.3015  0.2307
 1442SOL    HW115788   1.682   2.039  16.246 -0.9384  0.7945 -0.8255
 1442SOL    HW215789   1.682   1.991  16.106  2.4945  1.1322  0.1989
 1443SOL     OW15790   1.187   2.814   4.162  0.5264  0.1286 -0.0403
 1443SOL    HW115791   1.185   2.908   4.181  1.9707  0.0317  0.5875
 1443SOL    HW215792   1.095   2.803   4.183  0.7338  1.0523  1.3177
 1444SOL     OW15793   2.678   2.227   2.502  0.3911  0.1632 -0.3238
 1444SOL    HW115794   2.703   2.228   2.409  0.2790 -2.4738 -0.3823
 1444SOL    HW215795   2.765   2.205   2.534  0.8241  1.3101 -0.7071
 1445SOL     OW15796   2.908   3.932   7.330  0.0962  0.6263 -0.7681
 1445SOL    HW115797   2.925   4.011   7.382 -2.2733  1.1336 -0.7781
 1445SOL    HW215798   2.888   3.871   7.400 -0.8168 -1.3573 -2.7679
 1446SOL     OW15799   2.709   3.670   5.420  0.4842  0.0159  0.1412
 1446SOL    HW115800   2.780   3.698   5.361  0.7684 -0.4091  0.2756
 1446SOL    HW215801   2.744   3.663   5.509 -0.2616 -0.4598  0.3968
 1447SOL     OW15802   4.479   0.219  13.485 -0.2734 -0.4051  0.0858
 1447SOL    HW115803   4.482   0.126  13.507 -2.0262 -0.6374 -0.5970
 1447SOL    HW215804   4.418   0.252  13.551 -1.1684  1.2224 -1.5443
 1448SOL     OW15805   0.095   2.597   3.418  0.0261 -0.3807 -0.0867
 1448SOL    HW115806   0.062   2.583   3.329  0.3879 -1.4889 -0.0459
 1448SOL    HW215807   0.187   2.575   3.404  0.0335 -0.6485  0.3847
 1449SOL     OW15808   3.520   1.356  12.022  0.0648  0.5127 -0.0671
 1449SOL    HW115809   3.464   1.318  12.090  0.9929 -0.5156  0.1222
 1449SOL    HW215810   3.574   1.281  11.998  0.4664  0.4794  0.9142
 1450SOL     OW15811   1.912   0.498   7.021  0.4730 -0.5091 -0.2101
 1450SOL    HW115812   1.989   0.487   6.965 -0.2501  1.4647 -1.6137
 1450SOL    HW215813   1.837   0.471   6.968  1.5472 -1.5842 -1.1728
 1451SOL     OW15814   1.407   3.331   6.536 -0.1717 -0.0838 -0.2093
 1451SOL    HW115815   1.333   3.341   6.476 -0.0527 -1.7175 -0.6280
 1451SOL    HW215816   1.456   3.261   6.492 -1.6062 -1.3114  0.1439
 1452SOL     OW15817   3.386   2.622   7.091  0.3513 -0.4113  0.1529
 1452SOL    HW115818   3.450   2.595   7.157  0.1298 -0.1725  0.4638
 1452SOL    HW215819   3.312   2.650   7.144  1.4521  3.2834 -0.2941
 1453SOL     OW15820   4.665   2.379  10.173  0.2292 -0.4915 -0.0512
 1453SOL    HW115821   4.690   2.445  10.109 -0.6722  1.5488  1.7182
 1453SOL    HW215822   4.623   2.322  10.108 -1.1141 -1.1568  1.4014
 1454SOL     OW15823   1.128   3.794  11.964  0.1325 -0.0506  0.6976
 1454SOL    HW115824   1.153   3.886  11.972 -0.3232  0.3447 -2.1793
 1454SOL    HW215825   1.192   3.747  12.017  2.2085  3.1372  0.9828
 1455SOL     OW15826   1.339   0.369   2.928 -0.0902 -0.1209 -0.4610
 1455SOL    HW115827   1.355   0.412   3.012  1.0762  0.7037 -1.0978
 1455SOL    HW215828   1.258   0.321   2.941 -0.0289 -0.0251  0.2699
 1456SOL     OW15829   0.725   2.034   1.303  0.8399  0.1600 -0.2011
 1456SOL    HW115830   0.754   2.109   1.355  1.0121 -1.5265  2.1129
 1456SOL    HW215831   0.757   1.957   1.350  1.2333 -0.2281 -1.1056
 1457SOL     OW15832   4.602   2.727   8.257  0.1066 -0.2544  0.6707
 1457SOL    HW115833   4.581   2.767   8.172  1.2304 -0.6402  0.2218
 1457SOL    HW215834   4.520   2.732   8.306  0.4419 -0.0029  1.2016
 1458SOL     OW15835   2.820   1.580  15.916 -0.7036  0.4022  0.4287
 1458SOL    HW115836   2.905   1.623  15.913 -1.6561  2.1280 -1.7034
 1458SOL    HW215837   2.775   1.621  15.842 -0.0462 -1.0528 -0.7794
 1459SOL     OW15838   2.798   2.973   2.608  0.1826  0.2590  0.2067
 1459SOL    HW115839   2.746   2.993   2.686 -2.4654  0.4425 -1.6061
 1459SOL    HW215840   2.743   2.900   2.580 -1.8137  1.7184  0.2728
 1460SOL     OW15841   1.136   3.319   5.617  0.4012 -0.9391 -0.4097
 1460SOL    HW115842   1.149   3.412   5.636 -0.5795 -0.7892 -0.4565
 1460SOL    HW215843   1.167   3.301   5.528  1.2301  0.8253 -0.4821
 1461SOL     OW15844   1.017   3.058   0.755 -0.1638 -0.3912  0.0777
 1461SOL    HW115845   1.057   3.134   0.714 -1.0339  1.6100  2.9430
 1461SOL    HW215846   1.086   3.033   0.816  1.7229  3.6132 -0.4484
 1462SOL     OW15847   3.171   4.595  17.358 -0.0593 -0.2460  0.1949
 1462SOL    HW115848   3.230   4.623  17.427 -0.2835 -2.1776  1.1586
 1462SOL    HW215849   3.197   4.504  17.345  2.0321 -0.1866  4.1795
 1463SOL     OW15850   0.168   0.000   6.666  0.3347  0.3700 -0.0931
 1463SOL    HW115851   0.114   0.028   6.740  0.8891 -2.8707  1.5104
 1463SOL    HW215852   0.224   0.077   6.654  0.2358  0.5565  0.6279
 1464SOL     OW15853   0.448   0.626   4.880  0.2907 -0.1660 -0.4011
 1464SOL    HW115854   0.410   0.712   4.858  1.1769  0.5567  0.8881
 1464SOL    HW215855   0.378   0.598   4.938 -1.8885 -0.3241 -3.0688
 1465SOL     OW15856   0.098   1.695  13.128 -0.2726 -0.3402  0.4132
 1465SOL    HW115857   0.182   1.704  13.082 -0.6625  0.1098 -0.2058
 1465SOL    HW215858   0.033   1.694  13.057 -0.1748 -0.8261  0.3286
 1466SOL     OW15859   0.884   0.882   1.175  0.2581  0.0002 -0.2080
 1466SOL    HW115860   0.961   0.839   1.137  1.6862  0.3521  2.2880
 1466SOL    HW215861   0.820   0.827   1.129 -0.3614  0.8065 -0.3115
 1467SOL     OW15862   2.708   3.009   4.859 -0.3065 -0.5257 -0.4276
 1467SOL    HW115863   2.696   2.915   4.873  0.8044 -0.7852 -1.2515
 1467SOL    HW215864   2.671   3.045   4.940  1.0468  0.0227 -0.0620
 1468SOL     OW15865   0.743   2.919   1.934 -0.1116 -0.0108 -0.4067
 1468SOL    HW115866   0.751   2.824   1.924  3.7539  0.2999 -0.1010
 1468SOL    HW215867   0.788   2.968   1.866  2.2025 -0.0573  1.0972
 1469SOL     OW15868   3.919   4.056   3.598  0.1527  0.0726 -0.1212
 1469SOL    HW115869   3.965   4.129   3.556  2.5095 -1.1599  0.2748
 1469SOL    HW215870   3.988   3.989   3.603  0.4117  0.4105  0.9897
 1470SOL     OW15871   3.624   2.832   9.488 -0.4080 -0.0522  0.2457
 1470SOL    HW115872   3.548   2.890   9.495 -2.0422 -2.2318  0.5220
 1470SOL    HW215873   3.643   2.821   9.581  0.5739 -0.2933  0.0149
 1471SOL     OW15874   1.743   0.520  14.409 -0.2666 -0.2090 -0.0054
 1471SOL    HW115875   1.772   0.544  14.497 -3.0323  2.2256  0.2655
 1471SOL    HW215876   1.814   0.559  14.358 -1.4825  1.7026 -0.2563
 1472SOL     OW15877   3.782   4.467   8.716  0.2683  0.5894 -0.6087
 1472SOL    HW115878   3.850   4.510   8.662  2.0743  0.2227  1.3600
 1472SOL    HW215879   3.805   4.496   8.804  0.0543  0.2080 -0.4315
 1473SOL     OW15880   3.737   2.864   1.188 -0.2641 -0.0496  0.7071
 1473SOL    HW115881   3.734   2.861   1.093 -3.3589  0.3966  0.7787
 1473SOL    HW215882   3.670   2.929   1.210 -1.9074 -1.5601  0.1166
 1474SOL     OW15883   4.194   2.124   8.930 -0.7792 -0.3894  0.2085
 1474SOL    HW115884   4.218   2.102   8.841 -1.1788  3.2286 -0.7830
 1474SOL    HW215885   4.189   2.035   8.965 -2.8503 -0.1227  0.6127
 1475SOL     OW15886   2.200   3.435   1.164  0.2947 -0.2247 -0.2976
 1475SOL    HW115887   2.190   3.440   1.069 -0.2547  0.0928 -0.2245
 1475SOL    HW215888   2.157   3.351   1.180 -1.2085  0.7356  0.7086
 1476SOL     OW15889   2.212   0.780  15.860  0.1144 -0.2514 -0.2857
 1476SOL    HW115890   2.229   0.816  15.947  0.3345  0.8168 -0.7625
 1476SOL    HW215891   2.217   0.865  15.816  1.3799 -1.1317 -1.8004
 1477SOL     OW15892   2.383   3.653   5.644 -0.3933  0.1645  0.3645
 1477SOL    HW115893   2.425   3.711   5.709  0.5767  0.6142 -0.6581
 1477SOL    HW215894   2.296   3.631   5.677 -1.0489  1.1171 -0.7642
 1478SOL     OW15895   0.388   2.937   1.848  0.1764  0.1136 -0.6736
 1478SOL    HW115896   0.377   2.949   1.754 -1.6378 -0.0077 -0.4783
 1478SOL    HW215897   0.306   2.969   1.885  0.1540  1.2573 -1.7068
 1479SOL     OW15898   4.123   3.101   5.370  0.0707  0.1349  0.2649
 1479SOL    HW115899   4.048   3.090   5.430  0.8475 -2.3124  0.7611
 1479SOL    HW215900   4.146   3.009   5.358  0.8853  0.2103  1.2788
 1480SOL     OW15901   1.349   1.356  12.430 -0.0773 -0.1310 -0.3600
 1480SOL    HW115902   1.304   1.324  12.509 -1.0241  0.9141 -0.4766
 1480SOL    HW215903   1.344   1.277  12.376  1.6065 -1.2460  1.0872
 1481SOL     OW15904   3.066   0.048   3.454 -0.3165  0.3692 -0.3233
 1481SOL    HW115905   3.062   4.702   3.517 -0.4477 -0.0140 -0.7636
 1481SOL    HW215906   3.114   0.009   3.381 -1.8368 -0.5204 -0.8512
 1482SOL     OW15907   3.918   3.135   4.365  0.3141  0.0555  0.3355
 1482SOL    HW115908   3.871   3.071   4.419  1.0674 -2.0984 -1.5676
 1482SOL    HW215909   3.914   3.210   4.424  0.5727  1.2641 -1.2056
 1483SOL     OW15910   3.838   4.335  10.488  0.5986  0.3128 -0.0210
 1483SOL    HW115911   3.931   4.353  10.502  0.8571 -0.9435 -0.1180
 1483SOL    HW215912   3.831   4.240  10.499 -2.9624  0.4409 -1.1606
 1484SOL     OW15913   2.898   2.661   4.128 -0.4529 -0.3445 -0.0920
 1484SOL    HW115914   2.966   2.692   4.068  0.1335  0.2203  0.8676
 1484SOL    HW215915   2.826   2.712   4.090  0.9668  0.8887 -1.1359
 1485SOL     OW15916   1.790   4.170   5.810  0.1492 -0.1580  0.5007
 1485SOL    HW115917   1.780   4.093   5.754  1.0919 -2.3731  3.3840
 1485SOL    HW215918   1.878   4.197   5.783 -0.3224  1.2750  0.4140
 1486SOL     OW15919   2.639   1.127   6.153 -0.3899  0.2606 -0.4666
 1486SOL    HW115920   2.716   1.149   6.206 -1.3828  0.4851  0.9145
 1486SOL    HW215921   2.637   1.181   6.074 -1.0463  2.0065  0.7158
 1487SOL     OW15922   1.029   1.345   5.716  0.3272  0.0489 -0.0451
 1487SOL    HW115923   0.959   1.307   5.768  1.5581 -1.2172  0.6854
 1487SOL    HW215924   1.096   1.317   5.779  1.4136  1.8412 -0.4006
 1488SOL     OW15925   0.282   1.393  12.835 -0.5298 -0.1616  0.2756
 1488SOL    HW115926   0.216   1.462  12.824  0.5055  1.2989  3.3342
 1488SOL    HW215927   0.254   1.334  12.764 -0.3831  0.3441 -0.2016
 1489SOL     OW15928   3.452   2.793   7.812 -0.0336 -0.0791  0.0079
 1489SOL    HW115929   3.421   2.804   7.722 -1.2982  0.7948  0.5527
 1489SOL    HW215930   3.481   2.883   7.826 -0.5389  0.4631 -2.3164
 1490SOL     OW15931   0.680   0.287   4.253 -0.0037 -0.4774  0.4085
 1490SOL    HW115932   0.773   0.265   4.263  0.8110  2.1815 -1.3669
 1490SOL    HW215933   0.684   0.369   4.204  1.6436  0.6691  2.4483
 1491SOL     OW15934   2.767   1.654  15.418 -0.4470 -0.0390 -0.1209
 1491SOL    HW115935   2.828   1.582  15.427 -0.6454 -0.1880  0.0385
 1491SOL    HW215936   2.806   1.693  15.340 -2.6297  1.3831 -0.5031
 1492SOL     OW15937   3.114   1.483   8.269  0.1372  0.6207 -0.1407
 1492SOL    HW115938   3.094   1.411   8.329 -2.3345  1.9608  0.6547
 1492SOL    HW215939   3.062   1.454   8.194 -0.9489 -0.3850  0.9863
 1493SOL     OW15940   0.626   1.003   2.583 -0.6167  0.3207 -0.2239
 1493SOL    HW115941   0.608   1.062   2.655 -2.0702 -0.9401  0.4426
 1493SOL    HW215942   0.715   1.033   2.564 -0.0457 -1.9951 -1.2294
 1494SOL     OW15943   0.254   3.611   2.363 -0.0339  0.2269 -0.6223
 1494SOL    HW115944   0.301   3.681   2.409 -0.8848  0.7723 -0.5600
 1494SOL    HW215945   0.163   3.637   2.380 -0.3238  0.3263 -2.2756
 1495SOL     OW15946   3.862   1.145  12.812 -0.4600  0.2076 -0.3511
 1495SOL    HW115947   3.907   1.147  12.728 -0.8503 -0.8461 -0.5813
 1495SOL    HW215948   3.920   1.095  12.868  0.8366  0.5526 -1.3935
 1496SOL     OW15949   4.133   4.339   6.483  0.6232 -0.0845  0.1793
 1496SOL    HW115950   4.134   4.410   6.418 -1.5527 -0.9361 -0.7767
 1496SOL    HW215951   4.131   4.392   6.563 -0.3572 -0.7481  0.5970
 1497SOL     OW15952   3.823   0.728   3.215  0.4842  0.2119  0.2923
 1497SOL    HW115953   3.793   0.759   3.300 -0.1890 -0.4235  0.2878
 1497SOL    HW215954   3.750   0.747   3.157  1.4775 -1.9046 -1.6651
 1498SOL     OW15955   2.186   1.569   7.885  0.8415  0.4991 -0.0611
 1498SOL    HW115956   2.121   1.639   7.873  1.4858  1.4673  2.0288
 1498SOL    HW215957   2.254   1.617   7.931  1.2310  1.7096 -1.8765
 1499SOL     OW15958   4.566   3.613   6.188 -0.3895  0.5822 -0.2925
 1499SOL    HW115959   4.545   3.641   6.277 -1.6832 -2.9185  0.4768
 1499SOL    HW215960   4.569   3.518   6.196 -0.5823  0.6286  0.3286
 1500SOL     OW15961   1.603   3.933  10.808 -0.5514 -0.2609  0.3743
 1500SOL    HW115962   1.679   3.983  10.778 -1.3916  1.1326  0.5733
 1500SOL    HW215963   1.639   3.909  10.894 -0.2760  1.1838  0.6590
 1501SOL     OW15964   2.809   4.559   4.992  0.4613 -0.3397 -0.2606
 1501SOL    HW115965   2.802   4.651   4.967  1.7950 -0.8860 -2.6917
 1501SOL    HW215966   2.898   4.560   5.028 -1.1270  1.2141  3.5537
 1502SOL     OW15967   3.250   3.207   2.117 -0.0305  0.1447 -0.5139
 1502SOL    HW115968   3.251   3.253   2.201  0.9904 -0.3306 -0.2754
 1502SOL    HW215969   3.297   3.127   2.139  0.8978  1.1484  1.1525
 1503SOL     OW15970   3.904   1.434   4.928 -0.2045 -0.0484  0.2769
 1503SOL    HW115971   3.852   1.400   5.000 -0.9533 -1.7955 -1.0840
 1503SOL    HW215972   3.915   1.524   4.956  2.0569 -0.3662  0.4656
 1504SOL     OW15973   3.141   1.398   5.546 -0.4252  0.3674 -0.2250
 1504SOL    HW115974   3.190   1.317   5.532 -1.7628 -0.2396 -1.4288
 1504SOL    HW215975   3.218   1.450   5.568 -0.3708  1.6121 -3.3294
 1505SOL     OW15976   4.707   0.557  12.203  0.0835 -0.3803 -0.2987
 1505SOL    HW115977   0.024   0.611  12.136 -1.0071  1.3568  0.3970
 1505SOL    HW215978   4.633   0.524  12.152  1.8597 -2.2006 -1.6409
 1506SOL     OW15979   4.313   0.493   7.330  0.1644  0.4157 -0.3001
 1506SOL    HW115980   4.235   0.438   7.322 -0.4290  1.4768 -1.7505
 1506SOL    HW215981   4.384   0.429   7.327  0.1769  0.4026  0.2802
 1507SOL     OW15982   0.249   1.842   3.372 -0.2660  0.7852 -0.0861
 1507SOL    HW115983   0.273   1.791   3.449 -0.2828  1.5408  0.4094
 1507SOL    HW215984   0.220   1.924   3.411 -1.8243  1.2054 -2.1075
 1508SOL     OW15985   4.258   4.563   8.553 -0.8968  0.3375 -0.1542
 1508SOL    HW115986   4.212   4.639   8.518  1.1047  1.8516  0.5358
 1508SOL    HW215987   4.305   4.517   8.483  0.2524  1.7485 -0.3192
 1509SOL     OW15988   3.560   3.433   3.298  0.2410 -0.6883  0.0298
 1509SOL    HW115989   3.599   3.357   3.341 -0.3718  0.0785  1.9380
 1509SOL    HW215990   3.629   3.460   3.237  0.8830 -3.1789 -0.3691
 1510SOL     OW15991   0.593   1.291  15.525 -0.1793  0.5900  0.2423
 1510SOL    HW115992   0.569   1.218  15.467  0.7063  0.7986 -0.3839
 1510SOL    HW215993   0.526   1.298  15.593 -1.7172  1.8694 -1.3967
 1511SOL     OW15994   1.711   3.578  14.284 -0.1969  0.3793 -0.2570
 1511SOL    HW115995   1.639   3.533  14.241 -0.3167  0.9851 -0.6853
 1511SOL    HW215996   1.676   3.573  14.373 -0.4208 -0.0271 -0.3688
 1512SOL     OW15997   2.489   3.484   1.893  0.0576  0.4505 -0.4410
 1512SOL    HW115998   2.512   3.391   1.895 -1.3049  0.1220 -0.3465
 1512SOL    HW215999   2.524   3.532   1.969  0.7039 -0.5767 -0.0910
 1513SOL     OW16000   2.172   3.879   5.836 -0.0191  0.2395  0.4564
 1513SOL    HW116001   2.252   3.845   5.876  0.1423  0.1852  0.0837
 1513SOL    HW216002   2.174   3.962   5.885 -1.7840  0.0832  0.7880
 1514SOL     OW16003   1.417   4.674  17.005  0.1277  0.0727  0.2853
 1514SOL    HW116004   1.371   0.008  16.946  1.0614  1.9559  1.4368
 1514SOL    HW216005   1.505   4.677  16.967 -0.3178  1.6182 -0.6185
 1515SOL     OW16006   2.017   1.212   8.529  0.5440 -0.4085  0.9294
 1515SOL    HW116007   1.953   1.255   8.472  2.1069 -0.4759 -0.9034
 1515SOL    HW216008   1.967   1.180   8.604 -1.1061  1.7113  0.7334
 1516SOL     OW16009   3.102   3.431   8.657 -0.5467  0.0667  0.6606
 1516SOL    HW116010   3.145   3.348   8.679 -2.1171 -0.2336  2.6342
 1516SOL    HW216011   3.166   3.497   8.683 -1.5188  1.4940 -0.6079
 1517SOL     OW16012   1.780   4.565   3.290 -0.3458  0.9261 -0.1468
 1517SOL    HW116013   1.745   4.478   3.270  1.0293  0.6246 -1.2353
 1517SOL    HW216014   1.785   4.617   3.210  0.3989  0.9743 -0.0710
 1518SOL     OW16015   2.610   2.124   5.979  0.6620  0.7057  1.1184
 1518SOL    HW116016   2.563   2.157   5.902  0.8707  1.0868  1.1558
 1518SOL    HW216017   2.676   2.061   5.949 -1.6498 -0.5292 -1.3798
 1519SOL     OW16018   0.288   1.550   0.666 -0.8030  0.2791 -0.4405
 1519SOL    HW116019   0.313   1.638   0.693 -0.5737 -0.4083  1.5488
 1519SOL    HW216020   0.214   1.559   0.606 -0.6982  3.1075 -0.1232
 1520SOL     OW16021   0.379   1.252  10.787 -0.2495  0.3395  0.3278
 1520SOL    HW116022   0.353   1.218  10.701 -0.1873 -0.5448  0.6646
 1520SOL    HW216023   0.323   1.212  10.853 -0.4179  0.4953  0.2775
 1521SOL     OW16024   0.307   3.876  16.641 -0.0066 -0.1803  0.8041
 1521SOL    HW116025   0.225   3.898  16.597  0.6649  0.8306  0.0819
 1521SOL    HW216026   0.318   3.786  16.609 -0.8643 -0.6339  1.7689
 1522SOL     OW16027   4.101   4.084  16.159  0.1179  0.1476 -0.0541
 1522SOL    HW116028   4.051   4.118  16.085 -0.4553  1.1346  0.7865
 1522SOL    HW216029   4.115   3.991  16.139 -1.9879 -0.2168  0.1473
 1523SOL     OW16030   3.246   1.996   7.787 -0.3765 -0.7650  0.0184
 1523SOL    HW116031   3.176   1.952   7.738  0.2105 -2.3205  0.5831
 1523SOL    HW216032   3.197   2.071   7.820 -1.3573  0.0336 -3.2333
 1524SOL     OW16033   2.959   3.477  14.167  0.0077  0.7869 -0.1464
 1524SOL    HW116034   2.921   3.416  14.104 -0.4149 -2.4932  3.2197
 1524SOL    HW216035   2.878   3.515  14.200  0.4987  0.5235  1.3977
 1525SOL     OW16036   3.657   2.459   0.866  0.0690  0.2545  0.3064
 1525SOL    HW116037   3.676   2.372   0.900 -0.0972  0.2911  0.4979
 1525SOL    HW216038   3.644   2.439   0.773  0.0783 -0.0170  0.3647
 1526SOL     OW16039   0.025   2.979   5.618 -0.0927 -0.4221 -0.5576
 1526SOL    HW116040   4.665   3.000   5.580 -0.2511  0.7782  0.4577
 1526SOL    HW216041   0.022   3.046   5.687 -1.0926 -0.9142 -0.1100
 1527SOL     OW16042   1.641   2.169   8.466  0.2397  0.0525 -0.0134
 1527SOL    HW116043   1.696   2.090   8.469 -0.3704 -0.2647  2.7222
 1527SOL    HW216044   1.580   2.144   8.396 -1.1097  0.2191  1.1043
 1528SOL     OW16045   4.191   0.348  16.950 -0.7401  0.0657 -0.2289
 1528SOL    HW116046   4.185   0.441  16.969 -2.1922 -0.5075  2.0136
 1528SOL    HW216047   4.108   0.323  16.990 -0.3402 -2.3870 -0.9007
 1529SOL     OW16048   2.889   4.596   6.237 -0.7025 -0.2475 -0.8017
 1529SOL    HW116049   2.925   4.604   6.325  1.2734 -0.0321 -1.6351
 1529SOL    HW216050   2.830   4.671   6.247  0.5588  0.8466 -1.5687
 1530SOL     OW16051   3.588   2.866   4.912 -0.3590  0.2436 -0.2016
 1530SOL    HW116052   3.624   2.852   4.999 -0.2400 -0.2044 -0.3249
 1530SOL    HW216053   3.496   2.840   4.916 -0.3844  0.3257 -0.2450
 1531SOL     OW16054   2.747   3.278   4.515  0.4285  0.4506 -0.0755
 1531SOL    HW116055   2.739   3.327   4.433 -1.2548 -2.1244 -1.4574
 1531SOL    HW216056   2.676   3.313   4.569  1.8367  0.3048  1.8592
 1532SOL     OW16057   1.058   1.159   7.842  0.3565  0.2347  0.3050
 1532SOL    HW116058   1.138   1.116   7.812 -1.3449 -3.6180  1.1884
 1532SOL    HW216059   1.022   1.179   7.756  1.5271  1.1683  0.0405
 1533SOL     OW16060   2.048   4.165   4.870  0.0042 -0.3047  0.4122
 1533SOL    HW116061   1.964   4.187   4.831  1.6886  1.3536 -2.2259
 1533SOL    HW216062   2.083   4.093   4.818  0.2575  0.1376 -0.0260
 1534SOL     OW16063   4.075   1.403  13.827  0.1251 -0.1726 -0.4218
 1534SOL    HW116064   4.046   1.481  13.874  1.6319 -0.2120  0.5910
 1534SOL    HW216065   4.010   1.335  13.842  0.4981 -0.4882 -0.2297
 1535SOL     OW16066   1.771   2.165  12.368 -0.1090 -0.4287 -0.3989
 1535SOL    HW116067   1.866   2.155  12.367 -0.0452 -0.0671  2.5805
 1535SOL    HW216068   1.728   2.082  12.386 -0.8251  0.0161 -0.0519
 1536SOL     OW16069   1.346   1.977  17.454 -0.1048 -0.1232 -0.2539
 1536SOL    HW116070   1.276   2.040  17.438 -0.1424  0.9814  4.3334
 1536SOL    HW216071   1.368   1.989  17.546 -0.8607  0.3892 -0.1416
 1537SOL     OW16072   2.090   1.417   6.289  0.3803  0.3880  0.5774
 1537SOL    HW116073   2.098   1.461   6.204  0.0699  0.2556  0.4831
 1537SOL    HW216074   2.068   1.500   6.333 -0.8029  0.6437 -0.4924
 1538SOL     OW16075   4.122   1.263   3.459  0.2256  0.6535  0.0924
 1538SOL    HW116076   4.122   1.208   3.380 -2.1744 -0.2271  0.7111
 1538SOL    HW216077   4.209   1.253   3.497  0.6900 -1.6269 -1.5431
 1539SOL     OW16078   1.397   3.623   2.946  0.2007 -0.1621  0.1268
 1539SOL    HW116079   1.448   3.658   2.873  1.5614 -1.9345  0.2189
 1539SOL    HW216080   1.373   3.699   2.998 -2.9615 -0.5333 -0.8095
 1540SOL     OW16081   4.556   1.053   5.114 -0.7513 -0.1945  0.3181
 1540SOL    HW116082   4.530   1.021   5.028 -0.7599 -0.7512  0.5297
 1540SOL    HW216083   4.557   1.147   5.097  0.3446 -0.0889  0.9887
 1541SOL     OW16084   0.827   3.692  15.070 -0.2145  0.5355  0.4425
 1541SOL    HW116085   0.823   3.713  14.977 -1.2509  2.5725  0.9547
 1541SOL    HW216086   0.746   3.641  15.077  0.7305 -0.8862  1.1806
 1542SOL     OW16087   2.365   4.387   7.828  0.3207  0.7654 -0.5042
 1542SOL    HW116088   2.317   4.328   7.885  0.8276  4.0888  3.3410
 1542SOL    HW216089   2.310   4.465   7.825  0.2794  0.7106 -1.2283
 1543SOL     OW16090   2.395   0.814   8.380  0.3026 -0.4898  0.3066
 1543SOL    HW116091   2.321   0.834   8.438  0.9063 -0.1330  0.9581
 1543SOL    HW216092   2.373   0.725   8.353  0.5001 -0.2515 -0.6357
 1544SOL     OW16093   4.473   1.137   5.845 -0.4366  0.4569  0.8824
 1544SOL    HW116094   4.563   1.165   5.829  0.2694 -2.6440 -0.5928
 1544SOL    HW216095   4.439   1.212   5.894  2.7205  0.5515  2.9099
 1545SOL     OW16096   4.521   0.250   6.409  0.3943  0.4532 -0.3181
 1545SOL    HW116097   4.598   0.283   6.363 -0.2716  0.6151 -1.3004
 1545SOL    HW216098   4.451   0.230   6.346  0.8090  0.0848 -0.6662
 1546SOL     OW16099   0.168   0.426  14.337 -0.1000 -0.4896  0.6350
 1546SOL    HW116100   0.217   0.382  14.407  0.7750 -0.0893  0.2769
 1546SOL    HW216101   0.230   0.405  14.267 -2.1486  1.4258 -1.7228
 1547SOL     OW16102   2.018   0.107   8.628 -0.3264 -1.2122 -0.3172
 1547SOL    HW116103   2.093   0.165   8.642 -0.0832 -1.6316  0.0873
 1547SOL    HW216104   2.028   0.041   8.697  0.6407  0.0138  0.7351
 1548SOL     OW16105   3.166   3.598   4.501  0.1057  0.1655  0.2720
 1548SOL    HW116106   3.122   3.515   4.519  1.9258 -0.9697 -0.4812
 1548SOL    HW216107   3.095   3.661   4.485 -0.3300 -0.2045  0.7395
 1549SOL     OW16108   0.725   3.337  16.354 -0.0989 -0.4348  0.0296
 1549SOL    HW116109   0.679   3.255  16.372 -0.3051 -0.7304 -1.8474
 1549SOL    HW216110   0.717   3.388  16.435  2.5700 -1.0715  0.7032
 1550SOL     OW16111   2.910   0.020  13.839 -0.3949 -0.7179  0.2124
 1550SOL    HW116112   2.993   0.057  13.806 -1.0523  0.9884  0.4608
 1550SOL    HW216113   2.866   0.005  13.756  1.1491 -1.9710 -0.3839
 1551SOL     OW16114   3.728   2.194   3.065  0.0813 -0.1011  0.1668
 1551SOL    HW116115   3.681   2.134   3.008  0.3017 -0.6990  0.6121
 1551SOL    HW216116   3.777   2.127   3.114 -1.8902  0.2160  2.5986
 1552SOL     OW16117   1.580   0.775   8.239  0.1705  0.6282  0.0694
 1552SOL    HW116118   1.668   0.800   8.210 -0.6659  2.6826 -0.6394
 1552SOL    HW216119   1.525   0.842   8.200 -0.7738 -0.1315  0.1025
 1553SOL     OW16120   0.515   1.359  14.681  0.2722  0.4112 -0.1852
 1553SOL    HW116121   0.445   1.298  14.708 -0.5355  1.5712  0.3378
 1553SOL    HW216122   0.584   1.315  14.731  0.0329  0.6244  0.3306
 1554SOL     OW16123   0.168   4.166   6.943 -0.0413  0.6133 -0.5727
 1554SOL    HW116124   0.132   4.251   6.919 -0.7074  0.9369  1.6585
 1554SOL    HW216125   0.087   4.120   6.964  1.0658 -0.1590  2.0042
 1555SOL     OW16126   4.239   3.826  17.115  0.0257 -0.6821 -0.4821
 1555SOL    HW116127   4.153   3.845  17.078  0.2359 -1.2581 -1.2795
 1555SOL    HW216128   4.210   3.778  17.193  2.6603 -1.1610  0.1920
 1556SOL     OW16129   2.935   3.902  16.892  0.1622 -0.0597  0.2371
 1556SOL    HW116130   3.018   3.943  16.867  1.3345 -1.1163  2.4831
 1556SOL    HW216131   2.891   3.899  16.806  1.4892 -2.2742 -0.3517
 1557SOL     OW16132   0.964   2.769   5.616 -0.3728 -0.5055  0.2795
 1557SOL    HW116133   0.980   2.847   5.668 -1.4206  0.9643 -1.6091
 1557SOL    HW216134   1.035   2.767   5.552 -1.6988 -0.5828 -1.1914
 1558SOL     OW16135   0.043   3.940   1.293 -0.2669  0.3447  0.5050
 1558SOL    HW116136   0.078   3.968   1.208 -0.6793  0.0812  0.2461
 1558SOL    HW216137   4.678   3.970   1.285  0.6607  2.9194 -0.2707
 1559SOL     OW16138   1.036   2.294  13.587  0.4060 -0.6569  0.2171
 1559SOL    HW116139   0.968   2.245  13.540 -0.2914  0.1684  0.3650
 1559SOL    HW216140   0.982   2.355  13.637 -1.2267 -1.1408 -0.9675
 1560SOL     OW16141   2.669   2.243   6.803 -0.1799 -0.2092  0.8688
 1560SOL    HW116142   2.689   2.330   6.766 -0.8096  0.8098  2.9323
 1560SOL    HW216143   2.700   2.256   6.892  0.8836  0.2964  0.4281
 1561SOL     OW16144   1.887   1.274   3.438 -0.1141  0.4523  0.1083
 1561SOL    HW116145   1.939   1.245   3.513 -1.6231 -1.9233  0.2247
 1561SOL    HW216146   1.799   1.287   3.473  0.7737 -1.5361  3.0435
 1562SOL     OW16147   4.213   3.614   7.202  0.2718 -0.0701 -0.1935
 1562SOL    HW116148   4.281   3.620   7.135 -2.2120  1.0012 -2.6112
 1562SOL    HW216149   4.194   3.522   7.185 -0.9270  0.6234 -2.5792
 1563SOL     OW16150   1.690   3.108   9.894 -0.2391 -0.0417  0.1640
 1563SOL    HW116151   1.598   3.132   9.903 -0.2777  0.7837 -2.4044
 1563SOL    HW216152   1.727   3.118   9.982  0.5819  0.3743 -0.2295
 1564SOL     OW16153   1.049   2.017   7.661  0.1503  0.2334  0.1952
 1564SOL    HW116154   1.101   2.010   7.741  0.0417  4.5954  0.6080
 1564SOL    HW216155   0.965   2.050   7.691 -1.5428 -1.2686 -2.8772
 1565SOL     OW16156   3.133   2.696   7.230 -0.0395 -0.2218 -0.3411
 1565SOL    HW116157   3.107   2.662   7.316 -0.2908  2.9940  0.8344
 1565SOL    HW216158   3.084   2.642   7.168  0.4545  1.2726 -2.0281
 1566SOL     OW16159   1.573   2.923  14.507 -0.2424 -0.0183 -0.1393
 1566SOL    HW116160   1.595   2.923  14.414 -3.3891 -0.1785 -0.8954
 1566SOL    HW216161   1.485   2.887  14.514 -0.3880  0.6285  1.4396
 1567SOL     OW16162   2.727   0.090   6.238  0.1745  0.4421  0.0678
 1567SOL    HW116163   2.663   0.078   6.168  0.4626 -3.6977  0.5149
 1567SOL    HW216164   2.666   0.081   6.310  1.2585  3.0647  1.3093
 1568SOL     OW16165   2.880   0.830   8.211  0.6338 -0.2042 -0.1625
 1568SOL    HW116166   2.882   0.921   8.241  0.9825 -0.1363 -0.3974
 1568SOL    HW216167   2.790   0.800   8.226  1.2419 -2.3572 -0.8868
 1569SOL     OW16168   0.687   1.302   3.304  0.2410  0.3436  0.4264
 1569SOL    HW116169   0.759   1.300   3.367  0.2290  1.9802  0.5180
 1569SOL    HW216170   0.688   1.396   3.282 -0.6476  0.0500 -0.8534
 1570SOL     OW16171   4.222   4.359   2.730  0.0212  0.0748  0.4347
 1570SOL    HW116172   4.234   4.384   2.638  1.3158  0.0358  0.5959
 1570SOL    HW216173   4.155   4.291   2.726 -0.5304  0.7647 -2.0808
 1571SOL     OW16174   3.181   3.183   8.765  0.0594  0.2421  0.2040
 1571SOL    HW116175   3.198   3.209   8.856 -1.3086  1.7935  0.0033
 1571SOL    HW216176   3.177   3.088   8.775  0.5562  0.2695  0.7154
 1572SOL     OW16177   1.842   3.341   5.045  0.0267 -0.2437  0.0606
 1572SOL    HW116178   1.751   3.339   5.073  0.1892  1.0554  0.6656
 1572SOL    HW216179   1.850   3.426   5.001  0.1065 -1.3177 -1.9897
 1573SOL     OW16180   3.954   0.502   3.300  0.5743 -0.0750 -0.4824
 1573SOL    HW116181   3.924   0.580   3.254 -0.3538  0.3741  0.8916
 1573SOL    HW216182   3.872   0.487   3.348  0.0612  0.8576 -1.0663
 1574SOL     OW16183   2.417   1.800   4.032 -0.1139 -0.4112 -0.0907
 1574SOL    HW116184   2.340   1.832   3.986  0.1698  0.0631 -0.2463
 1574SOL    HW216185   2.394   1.753   4.112 -2.2130  1.1790  0.2256
 1575SOL     OW16186   4.128   1.271  16.594 -0.4123 -0.0727  0.1208
 1575SOL    HW116187   4.145   1.179  16.616  2.2059  0.2563 -0.5611
 1575SOL    HW216188   4.073   1.299  16.668 -0.5610  1.1131 -0.4410
 1576SOL     OW16189   2.986   0.754   8.474 -0.4709  0.2989  0.3401
 1576SOL    HW116190   2.978   0.659   8.483  0.9241  0.3674  2.2962
 1576SOL    HW216191   2.931   0.772   8.398  1.1082 -0.1670 -0.9151
 1577SOL     OW16192   0.870   0.742  11.151 -0.0099 -0.5830  0.2321
 1577SOL    HW116193   0.868   0.835  11.175  0.1314 -0.1855 -1.2788
 1577SOL    HW216194   0.819   0.704  11.223 -1.0907  2.2602  0.9925
 1578SOL     OW16195   0.425   3.079   4.368 -0.1189  0.1525  0.2495
 1578SOL    HW116196   0.380   3.144   4.314 -2.4800 -0.5277  1.3861
 1578SOL    HW216197   0.436   3.121   4.453  0.0802  0.6748 -0.0368
 1579SOL     OW16198   2.071   3.058  11.909  0.0141  0.1479  0.3034
 1579SOL    HW116199   1.980   3.081  11.891 -0.4508 -1.2861  0.8139
 1579SOL    HW216200   2.055   3.001  11.984 -0.8123 -0.3293 -0.2297
 1580SOL     OW16201   3.167   2.472   9.151 -0.5139  0.3087 -0.5659
 1580SOL    HW116202   3.088   2.440   9.108  0.0179 -0.7702 -0.7128
 1580SOL    HW216203   3.199   2.385   9.175  2.2471  1.9094  1.5818
 1581SOL     OW16204   4.491   1.423   2.829 -0.0481 -0.4403 -0.5731
 1581SOL    HW116205   4.497   1.465   2.743 -0.7020  0.7170 -0.0498
 1581SOL    HW216206   4.584   1.431   2.851 -0.3399 -1.1550  0.9068
 1582SOL     OW16207   3.825   2.964   0.097  0.4953 -0.2854 -0.0643
 1582SOL    HW116208   3.837   2.919   0.181  2.6918  2.0212  0.8660
 1582SOL    HW216209   3.816   3.054   0.130  1.1528 -0.2782  0.0926
 1583SOL     OW16210   0.186   1.426   7.226 -0.1105 -0.2509 -0.7850
 1583SOL    HW116211   0.200   1.488   7.155  0.5901  0.0466 -0.3924
 1583SOL    HW216212   0.272   1.383   7.234 -0.8175 -0.9518  3.1643
 1584SOL     OW16213   2.775   1.929  12.692  0.3101  0.0150  0.0408
 1584SOL    HW116214   2.818   1.917  12.776 -1.2470  0.6435  0.9133
 1584SOL    HW216215   2.743   2.019  12.694  0.3271 -0.0301  2.1108
 1585SOL     OW16216   1.183   0.416   5.733  0.5423  0.3678 -0.4379
 1585SOL    HW116217   1.152   0.339   5.686 -0.1623  1.6713 -2.0840
 1585SOL    HW216218   1.257   0.436   5.676  1.3335 -0.3280  0.3564
 1586SOL     OW16219   4.593   3.717   5.023  0.0709 -0.4532  0.2186
 1586SOL    HW116220   4.598   3.810   5.002  1.0773 -0.6991 -0.6348
 1586SOL    HW216221   4.683   3.693   5.045  0.3619 -1.4248 -2.0154
 1587SOL     OW16222   1.178   1.791   6.486  0.4906  0.0342 -0.2429
 1587SOL    HW116223   1.208   1.735   6.415  1.4296  1.7512 -1.2044
 1587SOL    HW216224   1.159   1.729   6.557 -0.7700  2.0259  1.1824
 1588SOL     OW16225   3.747   1.083  16.422 -0.0186  0.2500 -0.5516
 1588SOL    HW116226   3.756   0.992  16.393 -1.4307  0.2116 -0.9069
 1588SOL    HW216227   3.653   1.097  16.408  0.0825  0.0321 -1.4379
 1589SOL     OW16228   4.088   4.071   7.086 -0.0372 -0.2617 -0.6425
 1589SOL    HW116229   4.097   4.038   6.996 -0.3842  0.4837 -0.9505
 1589SOL    HW216230   4.034   4.008   7.132 -1.2509  1.7966  0.7228
 1590SOL     OW16231   0.394   1.370   3.011  0.5017 -0.1138  0.4509
 1590SOL    HW116232   0.361   1.286   3.045  1.3481 -1.2190 -1.4545
 1590SOL    HW216233   0.438   1.410   3.086 -0.0585  0.4154  0.5023
 1591SOL     OW16234   4.656   3.454   8.127 -0.0824  0.2001 -0.4155
 1591SOL    HW116235   4.626   3.467   8.217  0.1697 -0.3948 -0.2414
 1591SOL    HW216236   0.000   3.520   8.124 -0.0464  0.1131 -1.4090
 1592SOL     OW16237   2.370   4.677   3.152  0.0946  0.3717  0.5063
 1592SOL    HW116238   2.458   4.714   3.155  0.6599 -0.7877 -1.4137
 1592SOL    HW216239   2.381   4.594   3.105 -1.3239  1.3731 -1.6107
 1593SOL     OW16240   0.436   4.146   4.137 -0.4892 -0.1423  0.0045
 1593SOL    HW116241   0.452   4.222   4.193  0.7995  0.8870 -1.7830
 1593SOL    HW216242   0.345   4.129   4.162 -0.5856  0.8471  0.3068
 1594SOL     OW16243   1.381   3.554   9.787  0.5690  0.2635  0.3683
 1594SOL    HW116244   1.427   3.496   9.847  0.4713 -0.2189 -0.0212
 1594SOL    HW216245   1.451   3.571   9.724 -0.3148  3.0037  0.1283
 1595SOL     OW16246   3.232   4.258   1.836  0.0816  0.6185 -0.2609
 1595SOL    HW116247   3.295   4.238   1.768 -1.5274 -4.7096 -0.2184
 1595SOL    HW216248   3.289   4.221   1.904 -0.6836 -0.1752 -0.0494
 1596SOL     OW16249   0.381   0.886   4.866  0.3803  0.4671  0.1836
 1596SOL    HW116250   0.468   0.908   4.900  0.6100 -0.5739  0.2968
 1596SOL    HW216251   0.329   0.916   4.940 -2.4259  0.7574 -1.9089
 1597SOL     OW16252   0.922   3.684   6.868  0.1469 -0.0757 -0.3871
 1597SOL    HW116253   0.892   3.752   6.929 -2.1743 -0.7860 -0.7175
 1597SOL    HW216254   0.931   3.727   6.783 -0.4823 -0.2816 -0.5541
 1598SOL     OW16255   3.948   0.549   2.076 -0.3799 -0.0755  0.0394
 1598SOL    HW116256   4.019   0.594   2.122  1.5754 -1.7411 -1.2963
 1598SOL    HW216257   3.943   0.599   1.994 -0.8330  1.1755  0.8289
 1599SOL     OW16258   1.473   2.004   6.414 -0.0332 -0.0323  0.2183
 1599SOL    HW116259   1.385   2.000   6.376 -0.8593  0.1173  2.1127
 1599SOL    HW216260   1.530   2.029   6.342  2.1711  1.3962  2.4599
 1600SOL     OW16261   1.559   1.832   4.628  0.0098  0.3777 -0.0226
 1600SOL    HW116262   1.596   1.895   4.689  0.4497  0.5721 -0.4906
 1600SOL    HW216263   1.628   1.766   4.623  1.9187  2.1771  2.9233
 1601SOL     OW16264   3.516   2.201   4.514 -0.3405  0.5079 -0.3510
 1601SOL    HW116265   3.492   2.113   4.542  1.0543 -0.1072 -1.1023
 1601SOL    HW216266   3.485   2.195   4.424  1.0330 -1.0952 -0.7087
 1602SOL     OW16267   3.896   0.673   4.771  0.4011 -0.0632 -0.0950
 1602SOL    HW116268   3.880   0.680   4.677 -0.2240 -0.5235 -0.0165
 1602SOL    HW216269   3.847   0.747   4.809  1.1881  0.3937  0.0481
 1603SOL     OW16270   3.136   2.157   5.645 -0.2228 -0.1075 -0.3504
 1603SOL    HW116271   3.197   2.139   5.572 -1.3630 -2.6019 -0.6892
 1603SOL    HW216272   3.128   2.069   5.681  0.4050  0.6025  1.5254
 1604SOL     OW16273   0.342   0.338   6.255  0.3511 -0.0579 -0.1860
 1604SOL    HW116274   0.334   0.244   6.272  1.0532 -0.0424  0.2504
 1604SOL    HW216275   0.274   0.369   6.315 -0.8393 -0.0949 -1.5277
 1605SOL     OW16276   1.236   0.249   2.421 -0.4767  0.0307 -0.7076
 1605SOL    HW116277   1.223   0.253   2.326 -0.6816  0.4375 -0.6655
 1605SOL    HW216278   1.165   0.309   2.445  0.5688  0.5661  1.0007
 1606SOL     OW16279   0.731   3.429   4.662  0.6026 -0.1495 -0.3955
 1606SOL    HW116280   0.666   3.499   4.670  1.7990  1.0348 -1.1725
 1606SOL    HW216281   0.706   3.374   4.736 -0.5455  2.2689  0.9856
 1607SOL     OW16282   3.305   4.286   3.862  0.1934  0.3330 -0.1984
 1607SOL    HW116283   3.224   4.295   3.812  0.2202 -0.8694 -0.4512
 1607SOL    HW216284   3.281   4.221   3.928  1.5877 -1.9893 -2.0073
 1608SOL     OW16285   3.942   2.983   1.732 -0.2274 -0.0817  0.3600
 1608SOL    HW116286   3.988   3.066   1.721  0.3179 -0.7352 -2.0877
 1608SOL    HW216287   3.856   3.016   1.760 -1.0883 -0.2013 -2.1913
 1609SOL     OW16288   2.602   1.720   1.277 -0.1344  0.2083  0.0526
 1609SOL    HW116289   2.587   1.629   1.304 -0.5416 -0.0430 -0.9999
 1609SOL    HW216290   2.669   1.708   1.210 -0.8482  0.8332 -0.7719
 1610SOL     OW16291   4.475   2.472   9.824  0.1822 -0.1523  0.3947
 1610SOL    HW116292   4.490   2.396   9.880 -2.3541 -0.8914  0.0716
 1610SOL    HW216293   4.524   2.541   9.870  4.0129 -3.0701  0.7008
 1611SOL     OW16294   0.471   3.227   2.142 -0.5827  0.0244 -0.0528
 1611SOL    HW116295   0.523   3.232   2.061  0.8963  1.7269  1.0057
 1611SOL    HW216296   0.393   3.273   2.110  0.3273  1.2768 -0.4586
 1612SOL     OW16297   1.211   4.543   8.181 -0.7154  0.1320 -0.0898
 1612SOL    HW116298   1.129   4.533   8.133 -0.4905 -1.6526 -0.0864
 1612SOL    HW216299   1.189   4.490   8.258 -1.8420 -0.1953 -0.6455
 1613SOL     OW16300   4.053   0.710   6.477 -0.1069  0.3514  0.2877
 1613SOL    HW116301   4.059   0.800   6.507 -1.2279  1.1111 -1.7499
 1613SOL    HW216302   4.020   0.677   6.561  1.2246 -0.3771  0.5210
 1614SOL     OW16303   0.473   3.176   7.400 -0.3767  0.1589  0.0632
 1614SOL    HW116304   0.456   3.172   7.306 -1.3393  0.8587  0.2031
 1614SOL    HW216305   0.423   3.098   7.424 -0.4532  0.1412 -0.1506
 1615SOL     OW16306   4.699   1.761  13.404 -0.1504 -0.1290 -0.4503
 1615SOL    HW116307   4.685   1.668  13.387 -0.4719 -0.3159  0.8785
 1615SOL    HW216308   0.006   1.802  13.323  2.2570 -0.0620  0.5350
 1616SOL     OW16309   1.353   0.691  12.823 -0.7859  0.1988  0.1892
 1616SOL    HW116310   1.440   0.656  12.842 -0.4133  0.6586 -0.6544
 1616SOL    HW216311   1.302   0.610  12.827 -0.7637  0.1859  0.2128
 1617SOL     OW16312   1.779   2.850  17.550  0.0435  0.0744 -0.4477
 1617SOL    HW116313   1.822   2.865  17.634 -2.2354 -0.2051  0.7870
 1617SOL    HW216314   1.802   2.934  17.512  0.6301 -0.0342 -0.3224
 1618SOL     OW16315   2.190   3.568   2.307 -0.4982  0.2649 -0.3470
 1618SOL    HW116316   2.136   3.504   2.260  0.3430 -0.8597  0.2413
 1618SOL    HW216317   2.183   3.644   2.249  0.8618 -0.0476 -0.9150
 1619SOL     OW16318   0.593   1.283  14.096  0.4867  0.3645 -0.1525
 1619SOL    HW116319   0.597   1.378  14.085  2.0605  0.5091  1.7790
 1619SOL    HW216320   0.513   1.260  14.050  1.2453  0.9643 -1.7995
 1620SOL     OW16321   2.427   0.283  12.957  0.6230  0.1584  0.0742
 1620SOL    HW116322   2.387   0.198  12.939 -0.0349  0.1240  1.7544
 1620SOL    HW216323   2.452   0.266  13.048 -0.2248 -2.2908 -0.1661
 1621SOL     OW16324   0.737   3.291   9.289  0.0017 -0.1892 -0.4509
 1621SOL    HW116325   0.725   3.226   9.358  0.2591  1.2469  0.9515
 1621SOL    HW216326   0.726   3.370   9.343  1.4742 -0.2624 -0.0585
 1622SOL     OW16327   0.490   0.057  10.190  0.1167 -0.1241  0.9617
 1622SOL    HW116328   0.521   4.693  10.177 -1.3541 -0.8884  2.8831
 1622SOL    HW216329   0.405   0.062  10.145  0.6152  2.4709  0.3056
 1623SOL     OW16330   1.863   0.223   6.407 -1.0118 -0.0277 -0.8563
 1623SOL    HW116331   1.828   0.206   6.319 -3.9331  0.4065  0.2218
 1623SOL    HW216332   1.795   0.281   6.442 -1.0994 -1.8903  2.1151
 1624SOL     OW16333   0.296   1.104   1.222 -0.3004  0.3263  0.0042
 1624SOL    HW116334   0.234   1.085   1.152  1.2174 -2.8904 -0.4463
 1624SOL    HW216335   0.300   1.195   1.194 -1.4154  0.8060  1.3547
 1625SOL     OW16336   3.987   0.611   7.026  0.0389 -0.2554 -0.1803
 1625SOL    HW116337   3.985   0.584   7.118 -0.4062 -0.0570 -0.1341
 1625SOL    HW216338   3.901   0.650   7.014  0.8565  1.7315  0.2948
 1626SOL     OW16339   4.446   4.286  16.008 -0.1232 -0.3375 -0.6592
 1626SOL    HW116340   4.383   4.264  15.938 -2.7865 -0.4537  1.7840
 1626SOL    HW216341   4.461   4.380  16.002 -4.1397  0.2195 -1.8430
 1627SOL     OW16342   4.060   0.879  11.342 -0.4693 -0.4242 -0.2683
 1627SOL    HW116343   4.041   0.788  11.320 -3.0727  0.4116 -1.3584
 1627SOL    HW216344   4.154   0.865  11.358 -0.3539  0.8591  0.1539
 1628SOL     OW16345   3.118   4.192  10.933  0.1342 -0.4105 -0.3499
 1628SOL    HW116346   3.170   4.139  10.872  1.4603  1.5753 -0.9467
 1628SOL    HW216347   3.142   4.136  11.006  0.4893 -1.0762 -0.9733
 1629SOL     OW16348   4.180   4.038   5.212 -0.0016 -0.2213 -0.0521
 1629SOL    HW116349   4.118   4.100   5.250  0.3499  0.0032  0.1605
 1629SOL    HW216350   4.171   3.967   5.276 -1.5218  1.5710  1.6910
 1630SOL     OW16351   3.921   3.096  12.460 -0.1915  0.2796 -0.3914
 1630SOL    HW116352   3.885   3.184  12.470 -0.8435  0.1155 -1.4050
 1630SOL    HW216353   3.865   3.041  12.515 -1.0136  0.6076 -0.9049
 1631SOL     OW16354   0.364   0.100  17.367  0.0552 -0.3834  0.4411
 1631SOL    HW116355   0.398   0.170  17.422  1.3433  0.0488 -0.8956
 1631SOL    HW216356   0.270   0.102  17.384  0.0263  0.1425  0.2037
 1632SOL     OW16357   3.035   1.570   8.969  0.5837 -0.5048  0.2430
 1632SOL    HW116358   3.115   1.573   8.917  0.6323  0.6502  0.3736
 1632SOL    HW216359   2.978   1.540   8.898 -1.1766 -1.2401  1.9717
 1633SOL     OW16360   4.471   0.571   2.775  0.6116 -0.3379 -0.6810
 1633SOL    HW116361   4.563   0.570   2.748  0.5812 -0.1789 -0.7864
 1633SOL    HW216362   4.425   0.521   2.708 -1.1680 -0.1180  0.3628
 1634SOL     OW16363   1.432   1.159   6.197 -0.0365  0.2708  0.0257
 1634SOL    HW116364   1.435   1.102   6.274  1.1297  0.5148  0.1503
 1634SOL    HW216365   1.379   1.099   6.144 -1.3190  1.5089 -0.1031
 1635SOL     OW16366   0.568   0.600   2.685  0.5367 -0.3446  0.1176
 1635SOL    HW116367   0.476   0.613   2.709  0.2993 -2.9878  0.6420
 1635SOL    HW216368   0.570   0.583   2.591  2.2915  0.2652  0.0418
 1636SOL     OW16369   0.960   0.517  12.858 -0.1975 -0.5136  0.0863
 1636SOL    HW116370   0.923   0.605  12.865 -1.8078 -0.9924 -2.1876
 1636SOL    HW216371   1.015   0.533  12.782 -1.6093  0.0811 -0.8225
 1637SOL     OW16372   2.873   3.387  13.722 -0.1193  0.0218  0.2776
 1637SOL    HW116373   2.927   3.428  13.654 -2.2800 -0.7382 -1.9065
 1637SOL    HW216374   2.813   3.328  13.677 -1.4535  0.0387  2.0079
 1638SOL     OW16375   1.338   0.848   8.385 -0.4505 -0.4745 -0.3185
 1638SOL    HW116376   1.319   0.878   8.295 -0.0187 -0.5306 -0.4265
 1638SOL    HW216377   1.422   0.804   8.373 -0.6849 -0.5341 -1.7935
 1639SOL     OW16378   4.580   3.825   8.475  0.3742  0.1647 -0.4745
 1639SOL    HW116379   4.635   3.902   8.461  0.8532 -0.4651 -2.0429
 1639SOL    HW216380   4.493   3.862   8.460 -0.0605 -0.4828  0.4704
 1640SOL     OW16381   3.673   1.978  12.853 -0.4138  0.6511  0.4711
 1640SOL    HW116382   3.688   2.034  12.929  1.2436 -0.6680  1.1065
 1640SOL    HW216383   3.593   2.017  12.817 -0.5457  1.2170  1.3724
 1641SOL     OW16384   1.673   3.707   5.825  0.0817  0.6924  0.5108
 1641SOL    HW116385   1.714   3.767   5.763 -0.2528 -1.3262 -1.6783
 1641SOL    HW216386   1.645   3.762   5.898  2.0988 -0.1948  1.9552
 1642SOL     OW16387   1.749   1.725   6.581 -0.0649 -0.2932 -0.4133
 1642SOL    HW116388   1.669   1.677   6.603  0.5612 -0.3003  1.8988
 1642SOL    HW216389   1.775   1.743   6.671  0.5853 -2.9239 -0.0653
 1643SOL     OW16390   0.481   1.915   3.213 -1.2132 -0.1866 -0.0690
 1643SOL    HW116391   0.449   1.830   3.182  0.2269  0.0843 -2.3354
 1643SOL    HW216392   0.420   1.934   3.284 -1.3624 -1.6261  0.2022
 1644SOL     OW16393   0.993   4.339   2.881 -0.0376 -0.5308 -0.1886
 1644SOL    HW116394   0.912   4.390   2.892  1.8897  2.7221 -1.2406
 1644SOL    HW216395   0.970   4.273   2.817  1.1273 -0.4548 -0.6742
 1645SOL     OW16396   0.204   1.094   4.739  0.0037  0.0458  0.4130
 1645SOL    HW116397   0.260   1.110   4.663 -0.7576 -0.2244 -0.2060
 1645SOL    HW216398   0.264   1.039   4.790  0.3320 -0.2751 -0.3175
 1646SOL     OW16399   1.902   0.659   6.080 -0.3994  0.2232  0.2809
 1646SOL    HW116400   1.905   0.567   6.056 -1.7463  0.6791 -1.6413
 1646SOL    HW216401   1.856   0.690   6.002  1.0694 -1.3036 -1.1876
 1647SOL     OW16402   1.428   4.292   3.880 -0.2594 -0.2191 -0.0395
 1647SOL    HW116403   1.424   4.274   3.974 -0.8118  0.1332  0.0011
 1647SOL    HW216404   1.431   4.387   3.886 -0.7343 -0.1373 -1.0266
 1648SOL     OW16405   2.064   0.909   2.527  0.1781 -0.2137  1.0163
 1648SOL    HW116406   2.158   0.890   2.519  0.3611  2.3936 -3.1639
 1648SOL    HW216407   2.031   0.877   2.443 -2.2734  2.3861  0.9880
 1649SOL     OW16408   0.362   2.105  11.274  0.3320  0.4581 -0.9373
 1649SOL    HW116409   0.310   2.087  11.352  1.0506  0.8013 -0.3810
 1649SOL    HW216410   0.318   2.051  11.208  2.9534 -1.4365 -1.1600
 1650SOL     OW16411   0.677   1.674   6.230  0.3136 -0.1909 -0.1897
 1650SOL    HW116412   0.753   1.644   6.181 -0.5652  1.0271 -2.3100
 1650SOL    HW216413   0.715   1.674   6.318  0.4041  1.4701 -0.2357
 1651SOL     OW16414   4.411   1.608   6.517  0.1755 -0.5243 -0.3493
 1651SOL    HW116415   4.463   1.532   6.542  1.9046  0.3821 -1.1901
 1651SOL    HW216416   4.371   1.583   6.434  0.0222 -3.0746  0.4876
 1652SOL     OW16417   4.382   2.368   8.688 -0.3196  0.4057 -0.3792
 1652SOL    HW116418   4.455   2.307   8.701  0.7699  1.9084  0.5184
 1652SOL    HW216419   4.413   2.454   8.662  0.6886  0.2606  0.3368
 1653SOL     OW16420   3.087   1.555   7.775 -0.3950  0.2743  0.0807
 1653SOL    HW116421   3.144   1.554   7.852  1.6317 -1.5013 -1.4254
 1653SOL    HW216422   3.123   1.480   7.727  2.8128  0.8671  1.5355
 1654SOL     OW16423   3.656   3.292  13.289 -0.1972  0.4501 -0.1722
 1654SOL    HW116424   3.751   3.291  13.280 -0.4378  0.6028 -2.7083
 1654SOL    HW216425   3.637   3.202  13.314 -0.9520 -0.4194 -3.8201
 1655SOL     OW16426   1.587   0.291   1.966 -0.3603  0.9774 -0.3440
 1655SOL    HW116427   1.613   0.293   1.873 -0.1263  2.4365 -0.2479
 1655SOL    HW216428   1.548   0.204   1.977 -3.3720  1.9625 -3.0630
 1656SOL     OW16429   4.722   2.784   4.038  0.1659  0.6143 -0.2324
 1656SOL    HW116430   4.645   2.736   4.008  0.5777 -2.0013  2.9986
 1656SOL    HW216431   4.711   2.763   4.130 -1.1282 -1.1766 -0.7886
 1657SOL     OW16432   2.533   1.340   2.218  0.4086  0.1244 -0.0470
 1657SOL    HW116433   2.589   1.334   2.141  1.9885  0.8837  1.0349
 1657SOL    HW216434   2.556   1.257   2.260  0.8674 -0.7529 -2.0496
 1658SOL     OW16435   1.868   3.180   2.188  0.3021 -0.4735 -0.0804
 1658SOL    HW116436   1.814   3.205   2.264 -1.4529  0.9727 -1.8051
 1658SOL    HW216437   1.928   3.255   2.183 -2.1945  1.4535 -1.2712
 1659SOL     OW16438   3.310   4.341   6.448 -0.4768  0.5798 -0.1364
 1659SOL    HW116439   3.285   4.364   6.358  0.3277  1.5201 -0.1174
 1659SOL    HW216440   3.371   4.269   6.432  0.6616  1.2083  1.5092
 1660SOL     OW16441   4.536   1.667  17.152 -0.5423 -0.3358  0.4185
 1660SOL    HW116442   4.587   1.741  17.121 -0.3919  0.3312  2.2729
 1660SOL    HW216443   4.590   1.637  17.225  0.6906  2.3145  0.5933
 1661SOL     OW16444   2.385   2.406   6.013  0.9213  0.1208  0.1995
 1661SOL    HW116445   2.316   2.388   5.950  1.7722 -1.4061 -0.2887
 1661SOL    HW216446   2.391   2.501   6.005 -1.3298  0.1302 -1.4096
 1662SOL     OW16447   1.770   0.765  12.710 -0.2287 -0.4567  0.0501
 1662SOL    HW116448   1.688   0.717  12.722 -1.4044  2.0372  1.8137
 1662SOL    HW216449   1.832   0.707  12.756  0.7900  1.5627  1.2255
 1663SOL     OW16450   1.627   3.645  10.954  0.1932  0.3878 -0.3985
 1663SOL    HW116451   1.649   3.556  10.981 -0.2299  0.8830  1.5133
 1663SOL    HW216452   1.682   3.700  11.010  2.2703 -0.6422 -1.3926
 1664SOL     OW16453   1.592   2.856  12.731 -0.4074 -0.0893  0.3935
 1664SOL    HW116454   1.581   2.837  12.638  1.8253  1.6819 -0.2262
 1664SOL    HW216455   1.604   2.951  12.737  2.9127 -0.5649  1.2415
 1665SOL     OW16456   3.851   1.090  16.721  0.5807  0.3094 -0.4411
 1665SOL    HW116457   3.822   1.059  16.635 -1.5956  1.8282 -0.2490
 1665SOL    HW216458   3.783   1.056  16.778 -0.7298  0.7460 -1.7464
 1666SOL     OW16459   2.101   3.038  16.079 -0.4431 -0.3326  0.6585
 1666SOL    HW116460   2.048   3.019  16.156 -0.6981  0.8229  0.7683
 1666SOL    HW216461   2.039   3.041  16.007 -1.2365  0.4467  1.3697
 1667SOL     OW16462   2.748   2.207   3.837  0.2638 -0.1855 -0.9872
 1667SOL    HW116463   2.755   2.217   3.931  1.3885 -0.0090 -1.0989
 1667SOL    HW216464   2.716   2.117   3.838 -2.9165  0.9166 -1.5048
 1668SOL     OW16465   2.963   2.893   0.447  0.1651 -0.0507 -0.1147
 1668SOL    HW116466   2.876   2.879   0.410 -0.7255 -0.5552  2.1566
 1668SOL    HW216467   2.956   2.980   0.488 -1.5422 -0.3617  0.2528
 1669SOL     OW16468   4.483   2.875  11.754  0.3380  0.0859  0.3551
 1669SOL    HW116469   4.514   2.891  11.665  0.5655 -1.7130  0.1052
 1669SOL    HW216470   4.503   2.953  11.805  2.0450  0.4568 -0.8575
 1670SOL     OW16471   0.646   3.494  16.582 -0.9156 -0.2741 -0.5518
 1670SOL    HW116472   0.649   3.422  16.645 -1.4946 -0.2544 -0.4996
 1670SOL    HW216473   0.551   3.509  16.580 -0.4037  2.7962 -1.4181
 1671SOL     OW16474   2.435   4.082   6.235  0.3532 -0.2783 -0.2012
 1671SOL    HW116475   2.526   4.098   6.262  0.2171  1.2619 -0.6337
 1671SOL    HW216476   2.456   4.090   6.142  0.9325 -2.9102 -0.2883
 1672SOL     OW16477   1.612   3.850  12.161  0.7494  0.4806 -0.3642
 1672SOL    HW116478   1.520   3.864  12.185  0.6875  0.9379 -0.8612
 1672SOL    HW216479   1.628   3.797  12.239 -0.7258  0.7952  0.1480
 1673SOL     OW16480   0.636   2.144  12.716  0.0984  0.1999 -0.1389
 1673SOL    HW116481   0.558   2.096  12.686  2.0267 -0.9845 -3.1806
 1673SOL    HW216482   0.708   2.114  12.661 -1.6125 -1.0335 -1.7202
 1674SOL     OW16483   3.833   0.489  15.745  0.7651 -0.3208 -0.2117
 1674SOL    HW116484   3.882   0.410  15.723  1.9257 -0.5770  3.3373
 1674SOL    HW216485   3.889   0.566  15.750  0.8466 -0.3211 -1.0537
 1675SOL     OW16486   1.292   4.339   7.302 -0.2857 -0.1809  0.1856
 1675SOL    HW116487   1.381   4.305   7.292  0.2914  0.7772  2.1656
 1675SOL    HW216488   1.312   4.433   7.301  1.4841 -0.5111  3.2341
 1676SOL     OW16489   0.164   2.267  16.393  0.3034  0.2053  0.3608
 1676SOL    HW116490   0.182   2.176  16.367 -0.0765  0.4902 -0.9094
 1676SOL    HW216491   0.123   2.259  16.479  0.1434 -0.3053  0.2374
 1677SOL     OW16492   0.565   2.395   6.269 -0.4484 -0.4592 -0.1047
 1677SOL    HW116493   0.653   2.432   6.269 -0.9579  0.7695 -1.2423
 1677SOL    HW216494   0.518   2.453   6.208 -0.2504  0.4484  0.6080
 1678SOL     OW16495   3.307   2.844   8.123  0.0746  0.0042 -0.4186
 1678SOL    HW116496   3.284   2.757   8.090 -0.8023 -0.3645  1.2209
 1678SOL    HW216497   3.305   2.820   8.215  0.1036 -2.8915 -1.1746
 1679SOL     OW16498   4.163   4.643   3.724 -0.2865 -0.5714  0.0379
 1679SOL    HW116499   4.162   4.561   3.774 -1.4494  0.1598  1.2167
 1679SOL    HW216500   4.253   4.670   3.740 -0.1756 -0.8137 -0.1725
 1680SOL     OW16501   0.021   3.719   6.000 -0.4146  0.5849 -0.2924
 1680SOL    HW116502   4.682   3.682   6.062  0.7446  1.7625  1.6173
 1680SOL    HW216503   0.066   3.645   5.959  0.9741  0.3654  1.6095
 1681SOL     OW16504   4.349   3.221  13.410  0.4072 -0.1914  0.5602
 1681SOL    HW116505   4.297   3.293  13.447 -1.2138 -0.8935 -0.3231
 1681SOL    HW216506   4.292   3.193  13.337 -0.5053 -0.7749  1.4968
 1682SOL     OW16507   3.594   3.624   5.541  0.2091 -0.1314 -0.7511
 1682SOL    HW116508   3.652   3.699   5.554 -0.1135  0.2658 -1.6805
 1682SOL    HW216509   3.644   3.580   5.472  1.6983 -1.4185  1.1375
 1683SOL     OW16510   1.088   2.760  17.695  0.5524 -0.2327  0.1658
 1683SOL    HW116511   1.140   2.746   0.072  2.0603 -0.4558 -0.8699
 1683SOL    HW216512   1.151   2.810  17.643  0.1497  0.9198  0.7890
 1684SOL     OW16513   4.622   1.806   5.780  0.1672 -0.6880  0.0535
 1684SOL    HW116514   4.690   1.808   5.847  0.8390 -0.1476 -0.6310
 1684SOL    HW216515   4.627   1.897   5.751 -3.1633 -0.3021  0.7493
 1685SOL     OW16516   3.530   0.058   0.701  0.7132 -0.3970  0.7860
 1685SOL    HW116517   3.476   0.030   0.628  3.3098 -3.4740  0.0369
 1685SOL    HW216518   3.481   4.725   0.760 -1.6812 -0.5563 -1.3954
 1686SOL     OW16519   3.989   1.452   3.921 -0.1779 -0.6093  0.1978
 1686SOL    HW116520   4.070   1.492   3.890 -1.2997 -0.0123 -1.9085
 1686SOL    HW216521   4.024   1.364   3.940 -1.0055 -0.8650  0.5484
 1687SOL     OW16522   1.266   0.168   9.423  0.4263 -0.6471  0.6420
 1687SOL    HW116523   1.340   0.139   9.476  0.2173 -1.0441  0.7155
 1687SOL    HW216524   1.191   0.135   9.473  0.2388 -0.4244  0.5063
 1688SOL     OW16525   0.247   3.213   2.666  0.0874  0.1907 -0.4090
 1688SOL    HW116526   0.272   3.260   2.586 -0.2465 -1.4251 -1.4728
 1688SOL    HW216527   0.322   3.221   2.725  0.9731  1.2451 -1.6745
 1689SOL     OW16528   1.676   3.196   1.378  0.0250 -0.5200  0.0773
 1689SOL    HW116529   1.722   3.172   1.297  0.0239  4.0136 -1.2615
 1689SOL    HW216530   1.599   3.242   1.343  1.2903  0.5197 -1.3253
 1690SOL     OW16531   1.944   1.134   9.565 -0.3543  0.9501 -0.4466
 1690SOL    HW116532   1.867   1.172   9.608  0.0299  0.7337  0.4462
 1690SOL    HW216533   1.939   1.043   9.594 -0.1364  1.2907  0.6727
 1691SOL     OW16534   3.654   1.860   8.098 -0.2035  0.0686  0.0726
 1691SOL    HW116535   3.644   1.775   8.056 -0.3102  0.1891 -0.1460
 1691SOL    HW216536   3.567   1.873   8.135  0.3161  1.1868  0.8908
 1692SOL     OW16537   1.689   4.578   6.399  0.0432  0.1952  0.4415
 1692SOL    HW116538   1.727   4.501   6.442  1.4616  1.8752  2.2239
 1692SOL    HW216539   1.684   4.647   6.465 -1.7667  0.1249  0.3796
 1693SOL     OW16540   1.851   1.250   6.408  0.0251  0.2299  0.1265
 1693SOL    HW116541   1.861   1.281   6.498  0.5915  0.5674 -0.0559
 1693SOL    HW216542   1.926   1.305   6.384 -0.6316  0.5073 -1.2854
 1694SOL     OW16543   3.457   4.618   3.270  0.1774 -0.0697  0.4766
 1694SOL    HW116544   3.441   4.672   3.348  0.8857  1.3352 -0.3314
 1694SOL    HW216545   3.551   4.629   3.281  0.3707 -1.2745 -0.0509
 1695SOL     OW16546   2.417   3.939   4.824  0.3267 -0.5588  0.1374
 1695SOL    HW116547   2.335   3.988   4.834  1.8158  1.9869 -0.1198
 1695SOL    HW216548   2.476   4.013   4.840 -0.1775 -0.5918  2.2695
 1696SOL     OW16549   2.009   4.473   9.221  0.0644 -0.0076 -0.0892
 1696SOL    HW116550   2.079   4.455   9.284 -1.9703 -2.4265  1.4573
 1696SOL    HW216551   1.944   4.465   9.291 -0.5946 -0.8810 -0.7961
 1697SOL     OW16552   3.944   4.000   8.444 -0.5186 -0.0118  0.1214
 1697SOL    HW116553   3.884   4.041   8.506 -0.2874 -0.8118  0.8799
 1697SOL    HW216554   4.024   4.048   8.462 -0.6271  1.0752 -2.4304
 1698SOL     OW16555   4.699   1.452  13.303 -0.0397 -0.6422  0.3043
 1698SOL    HW116556   4.693   1.425  13.211 -1.3077 -1.2411  0.5674
 1698SOL    HW216557   0.065   1.438  13.328 -0.2779  0.4933  1.8172
 1699SOL     OW16558   2.728   2.213   8.590  0.4918 -0.2233 -0.0918
 1699SOL    HW116559   2.774   2.215   8.674  0.4120 -1.4130 -0.0141
 1699SOL    HW216560   2.721   2.308   8.589 -0.3358 -0.2969 -0.7875
 1700SOL     OW16561   4.512   4.166   1.547 -0.7845  0.4908 -0.4333
 1700SOL    HW116562   4.488   4.083   1.589 -0.5843 -0.3161 -1.9169
 1700SOL    HW216563   4.435   4.222   1.560 -0.7024  0.2618  1.0614
 1701SOL     OW16564   1.093   0.496  12.624 -0.1417  0.0184  0.0457
 1701SOL    HW116565   1.165   0.453  12.670 -1.1568 -0.1078  1.5392
 1701SOL    HW216566   1.134   0.526  12.543 -1.7444  1.0700 -0.3608
 1702SOL     OW16567   1.100   2.278   6.205  0.3651 -0.5542 -0.2166
 1702SOL    HW116568   1.073   2.282   6.296  3.4477  0.2466  0.6522
 1702SOL    HW216569   1.143   2.363   6.190 -1.1295  0.1719 -0.3560
 1703SOL     OW16570   3.526   2.509   2.035  0.0594  0.1850 -0.0305
 1703SOL    HW116571   3.519   2.539   2.126  0.5217  0.6689 -0.1561
 1703SOL    HW216572   3.485   2.579   1.985 -1.2470  0.6002  1.6384
 1704SOL     OW16573   0.937   0.590   1.984  0.8805 -0.0058  0.0637
 1704SOL    HW116574   0.945   0.684   1.997 -0.5138 -0.1917  2.1934
 1704SOL    HW216575   0.850   0.581   1.945  0.0567  1.6975  1.5349
 1705SOL     OW16576   2.708   1.742   3.546 -0.1102 -0.7740  0.7303
 1705SOL    HW116577   2.794   1.717   3.579  0.6354 -1.3451 -1.7029
 1705SOL    HW216578   2.678   1.670   3.491  1.1216 -1.2535  0.7020
 1706SOL     OW16579   0.934   1.657   4.199 -0.0646 -0.0155 -0.2220
 1706SOL    HW116580   0.950   1.751   4.209 -0.4283  0.1210 -0.8698
 1706SOL    HW216581   0.839   1.660   4.182 -0.2630 -3.9487  0.3119
 1707SOL     OW16582   1.319   3.694   2.526 -0.3326 -0.3425 -0.2917
 1707SOL    HW116583   1.268   3.736   2.456  1.6593  2.0415 -0.3090
 1707SOL    HW216584   1.252   3.646   2.575 -1.6452 -0.1970 -1.8993
 1708SOL     OW16585   3.001   0.017   2.177  0.0204  0.5262  0.2203
 1708SOL    HW116586   2.979   4.712   2.089 -2.1336  2.0161  0.2453
 1708SOL    HW216587   3.075   0.073   2.153  0.9493 -0.7697 -0.0075
 1709SOL     OW16588   2.104   1.438   8.114 -0.1354  0.3044 -0.4718
 1709SOL    HW116589   2.197   1.414   8.119  0.2570  2.3899  1.9377
 1709SOL    HW216590   2.098   1.486   8.032  1.4031  1.0734 -0.1314
 1710SOL     OW16591   2.894   4.553  15.012 -0.3478  0.5366 -0.8723
 1710SOL    HW116592   2.886   4.463  14.981  2.4331  0.5329 -1.4844
 1710SOL    HW216593   2.986   4.560  15.036 -0.6440  1.1404  0.0745
 1711SOL     OW16594   1.186   0.243   2.149  0.1235  0.0807  0.2487
 1711SOL    HW116595   1.118   0.186   2.114  0.1101  0.7592 -0.8450
 1711SOL    HW216596   1.265   0.209   2.108  0.3109  2.5978 -1.4767
 1712SOL     OW16597   1.015   4.325   4.441 -0.4135 -0.1173  0.1724
 1712SOL    HW116598   0.977   4.257   4.385  0.1472 -1.0836  0.9573
 1712SOL    HW216599   1.012   4.277   4.524 -2.9038 -0.4609 -0.1039
 1713SOL     OW16600   3.889   2.544  12.953  0.2644 -0.7895  0.5058
 1713SOL    HW116601   3.938   2.625  12.938 -2.0166  0.7123  1.2596
 1713SOL    HW216602   3.853   2.511  12.870 -2.2806 -1.2871  1.8288
 1714SOL     OW16603   0.850   2.020   6.051  0.0180 -0.1584 -0.0929
 1714SOL    HW116604   0.843   2.088   6.117 -2.3122  0.1118 -0.6242
 1714SOL    HW216605   0.832   2.073   5.973  0.8470  1.0132  0.5236
 1715SOL     OW16606   4.398   0.403  16.069 -0.6740 -0.2928  0.2182
 1715SOL    HW116607   4.480   0.405  16.118  0.4247 -2.9915 -1.4784
 1715SOL    HW216608   4.364   0.317  16.094 -0.6603 -0.5618 -0.6814
 1716SOL     OW16609   1.796   0.037   3.676 -0.2537  0.0955 -0.0393
 1716SOL    HW116610   1.860   4.703   3.635 -1.8772  0.2385 -2.7715
 1716SOL    HW216611   1.769   0.085   3.598  2.3977  3.2831  0.9922
 1717SOL     OW16612   0.065   3.203   0.346  0.1689  0.0724 -0.2176
 1717SOL    HW116613   0.102   3.206   0.258  1.9451 -0.7624  0.5002
 1717SOL    HW216614   0.032   3.293   0.345  1.3685  0.5211  0.3954
 1718SOL     OW16615   1.299   2.262   5.746  0.5306  0.3856 -0.5187
 1718SOL    HW116616   1.281   2.210   5.667 -2.3200  0.2147  0.2346
 1718SOL    HW216617   1.374   2.221   5.790 -0.2403 -0.4811 -0.0070
 1719SOL     OW16618   2.615   1.763   5.162  0.2007  0.4249 -0.3083
 1719SOL    HW116619   2.662   1.837   5.124 -0.6062  0.4500 -1.2560
 1719SOL    HW216620   2.574   1.808   5.236 -0.9574  0.2694 -0.8536
 1720SOL     OW16621   4.708   4.074   0.479 -0.0645  0.2555 -0.3916
 1720SOL    HW116622   0.019   4.031   0.556 -3.0559 -0.7575  0.4213
 1720SOL    HW216623   4.623   4.100   0.515 -1.5217 -3.3056 -1.2485
 1721SOL     OW16624   0.692   0.160   7.936 -0.2316  0.2131  0.1774
 1721SOL    HW116625   0.726   0.212   8.009 -0.0320  1.5427 -0.8648
 1721SOL    HW216626   0.634   0.109   7.991  0.8318 -0.7805  0.3645
 1722SOL     OW16627   2.585   0.350   6.999  0.1450  0.2798  0.3626
 1722SOL    HW116628   2.587   0.365   6.905 -0.7837  1.9459  0.6312
 1722SOL    HW216629   2.672   0.309   6.994 -0.8143 -1.5424 -1.2942
 1723SOL     OW16630   0.411   2.414   3.167 -0.1663  0.4993  0.8647
 1723SOL    HW116631   0.428   2.453   3.081 -1.2257 -0.5996  0.1658
 1723SOL    HW216632   0.495   2.376   3.191 -1.4050 -1.3792  2.2331
 1724SOL     OW16633   1.650   4.520   8.729  0.5736  0.1695  0.3684
 1724SOL    HW116634   1.622   4.606   8.758 -1.4448 -0.9388  1.6926
 1724SOL    HW216635   1.660   4.538   8.635  1.0323  1.3428  0.6369
 1725SOL     OW16636   1.228   0.426   0.102  0.6719  0.3683 -0.0356
 1725SOL    HW116637   1.161   0.494   0.102 -0.7921 -1.1148  2.8546
 1725SOL    HW216638   1.203   0.390   0.187  0.4981  1.2091  0.2662
 1726SOL     OW16639   3.774   2.643   6.907 -0.1699 -0.4558  0.0448
 1726SOL    HW116640   3.810   2.683   6.828 -0.4908  1.0922  0.6853
 1726SOL    HW216641   3.727   2.722   6.933  1.6556  0.5385  0.3056
 1727SOL     OW16642   1.848   1.336   8.381  0.4024  0.2462  0.3170
 1727SOL    HW116643   1.773   1.367   8.432 -0.8566 -1.1439 -0.6949
 1727SOL    HW216644   1.847   1.411   8.322  1.0964  0.7683  0.9714
 1728SOL     OW16645   2.016   2.808  10.140 -0.4738 -0.2330  0.4045
 1728SOL    HW116646   1.988   2.718  10.150 -0.3967 -0.3164 -0.1265
 1728SOL    HW216647   2.001   2.817  10.046  3.0060  0.1119 -0.1337
 1729SOL     OW16648   1.988   0.834   9.163 -0.3496  0.8306 -0.5996
 1729SOL    HW116649   2.004   0.811   9.255  1.0635 -0.0708 -1.0778
 1729SOL    HW216650   2.023   0.923   9.165  1.7685 -0.0307  1.8077
 1730SOL     OW16651   2.487   1.509  15.943 -0.0826  0.3992  0.2280
 1730SOL    HW116652   2.440   1.576  15.894  1.1081 -0.2462 -1.8103
 1730SOL    HW216653   2.435   1.510  16.024 -0.4403  0.8769 -0.0119
 1731SOL     OW16654   1.755   3.829  10.084  0.0450  0.1562 -0.3234
 1731SOL    HW116655   1.850   3.820  10.076  0.0339  3.5144 -4.4035
 1731SOL    HW216656   1.753   3.922  10.106 -0.2547 -0.0991  0.7597
 1732SOL     OW16657   1.985   2.684   4.311  0.6599 -0.2755 -0.1606
 1732SOL    HW116658   2.009   2.697   4.402  3.9512 -1.7395 -0.8009
 1732SOL    HW216659   2.020   2.764   4.271 -0.4165  0.7545  0.9906
 1733SOL     OW16660   4.099   3.938   3.234  0.3575  0.3695 -0.1541
 1733SOL    HW116661   4.016   3.920   3.278 -0.7924  2.7906 -1.3882
 1733SOL    HW216662   4.090   3.866   3.172 -0.7602 -0.5342  1.0525
 1734SOL     OW16663   2.527   3.339   0.255 -0.5399  0.1590 -0.8128
 1734SOL    HW116664   2.462   3.304   0.317 -1.1414  2.6353 -0.0425
 1734SOL    HW216665   2.508   3.433   0.255  1.4454  0.5434 -0.6779
 1735SOL     OW16666   0.733   4.450   2.938  0.1889 -0.0959 -1.4516
 1735SOL    HW116667   0.752   4.533   2.894  0.2322  0.7259  0.1286
 1735SOL    HW216668   0.647   4.458   2.979  1.8542 -0.2922  2.0553
 1736SOL     OW16669   3.314   3.106   3.409 -0.2307 -0.2295 -0.1460
 1736SOL    HW116670   3.397   3.120   3.363 -0.1101 -0.4427  0.0098
 1736SOL    HW216671   3.310   3.011   3.400 -0.3941 -0.2721  0.3766
 1737SOL     OW16672   0.663   0.641  12.693 -0.1271 -0.1067  1.0350
 1737SOL    HW116673   0.676   0.648  12.599  0.3455  0.5079  1.1478
 1737SOL    HW216674   0.584   0.586  12.690  1.1395 -1.8119 -1.0503
 1738SOL     OW16675   0.058   2.405  17.488 -0.5091  0.4108 -0.4952
 1738SOL    HW116676   4.708   2.362  17.528 -0.2072  0.6666  0.3511
 1738SOL    HW216677   0.121   2.333  17.497 -1.3185 -0.2447 -0.0887
 1739SOL     OW16678   2.441   3.740   5.392  0.0438  0.0431 -0.0818
 1739SOL    HW116679   2.403   3.705   5.472 -0.1207  0.5369  0.0593
 1739SOL    HW216680   2.533   3.744   5.416  0.3959 -0.2066 -1.3758
 1740SOL     OW16681   0.757   1.149  17.106  0.6826  0.0759 -0.5940
 1740SOL    HW116682   0.767   1.241  17.083  1.0126  0.6586  1.9261
 1740SOL    HW216683   0.836   1.120  17.059  0.4058 -1.4960 -0.0967
 1741SOL     OW16684   3.699   4.205  16.225 -0.5244 -0.3119  0.0221
 1741SOL    HW116685   3.647   4.266  16.277 -2.9902 -2.3223 -0.1033
 1741SOL    HW216686   3.762   4.257  16.175 -0.1725  0.2756  1.0835
 1742SOL     OW16687   0.026   1.669   1.713 -0.1991  0.1021  0.1165
 1742SOL    HW116688   4.680   1.634   1.659  1.4175 -2.2981 -0.4408
 1742SOL    HW216689   0.097   1.666   1.649 -1.3823  0.3415 -1.2195
 1743SOL     OW16690   1.001   4.067  11.412 -0.4216 -0.0030  0.5231
 1743SOL    HW116691   1.034   4.157  11.418  0.1788 -0.0322 -2.5391
 1743SOL    HW216692   0.989   4.058  11.318  0.7238 -1.1261  0.4959
 1744SOL     OW16693   3.823   2.437   7.148 -0.3721  0.1324  0.4786
 1744SOL    HW116694   3.882   2.500   7.105 -1.9036  0.3022 -1.3520
 1744SOL    HW216695   3.754   2.429   7.082  1.5477 -1.2437 -1.3589
 1745SOL     OW16696   1.308   0.521   0.440 -0.4997 -0.1365 -0.0919
 1745SOL    HW116697   1.220   0.557   0.427 -1.0466 -1.9956 -1.6616
 1745SOL    HW216698   1.279   0.446   0.492  1.6819  0.3063  1.7224
 1746SOL     OW16699   3.464   3.005  11.624 -0.2918  0.1632 -0.4609
 1746SOL    HW116700   3.496   2.920  11.654 -2.0593  0.2280  1.6208
 1746SOL    HW216701   3.523   3.029  11.552 -1.2255 -1.2459 -1.6869
 1747SOL     OW16702   2.585   1.534   8.214 -0.1240 -0.3922  0.0009
 1747SOL    HW116703   2.522   1.599   8.246  1.0356  0.5762  0.3391
 1747SOL    HW216704   2.538   1.451   8.222  1.7053 -1.3367  0.9675
 1748SOL     OW16705   3.212   2.876   0.307  0.1611 -0.1974 -0.6488
 1748SOL    HW116706   3.200   2.924   0.225  3.0348  1.7433  0.0863
 1748SOL    HW216707   3.131   2.897   0.354 -0.0704  0.3071 -1.2828
 1749SOL     OW16708   1.697   1.409  14.789  0.4881 -0.1069  0.2992
 1749SOL    HW116709   1.679   1.478  14.725  1.0351 -1.2510 -1.0802
 1749SOL    HW216710   1.789   1.423  14.810 -0.8599  5.9319  2.2293
 1750SOL     OW16711   3.496   2.454   2.884 -0.3191  0.5934  0.2396
 1750SOL    HW116712   3.511   2.409   2.800  0.3163  0.1776  0.5719
 1750SOL    HW216713   3.537   2.387   2.939 -0.3158  1.3359  1.1329
 1751SOL     OW16714   2.068   4.270   3.003  0.2270 -0.0962  0.1295
 1751SOL    HW116715   2.014   4.191   2.991  1.9454 -1.2581  0.1195
 1751SOL    HW216716   2.156   4.234   3.008  0.2004 -0.1184  0.4259
 1752SOL     OW16717   1.670   2.679   6.266 -0.0088  0.5320  0.1163
 1752SOL    HW116718   1.628   2.606   6.312 -1.6077  0.8122 -0.9336
 1752SOL    HW216719   1.718   2.633   6.197 -0.7822  0.4845 -0.3899
 1753SOL     OW16720   1.211   0.272   3.629  0.3883  0.6978  0.2780
 1753SOL    HW116721   1.232   0.318   3.547  2.8138 -0.5567  0.1835
 1753SOL    HW216722   1.252   0.320   3.701 -1.0869 -0.3969  1.8433
 1754SOL     OW16723   1.131   2.280   7.481  0.5720  0.0977  0.0113
 1754SOL    HW116724   1.208   2.257   7.429  1.7829  1.2094  1.3043
 1754SOL    HW216725   1.113   2.190   7.506  1.5593  0.4072  1.8881
 1755SOL     OW16726   2.362   0.322   6.416 -0.5463  0.4931 -0.5985
 1755SOL    HW116727   2.424   0.352   6.349 -0.3568 -0.9361 -1.0598
 1755SOL    HW216728   2.281   0.288   6.377 -1.8286  1.1392  1.5034
 1756SOL     OW16729   1.782   3.056   5.017 -0.0822 -0.0250 -0.7766
 1756SOL    HW116730   1.723   3.067   4.942  0.9935  1.1128 -1.4604
 1756SOL    HW216731   1.809   3.148   5.029 -1.6092  0.0846  1.7564
 1757SOL     OW16732   3.522   1.663   6.755  0.5073 -0.4263  0.6220
 1757SOL    HW116733   3.607   1.631   6.727  0.6942 -1.1188  1.9891
 1757SOL    HW216734   3.469   1.593   6.716  0.4871 -0.1449  0.1453
 1758SOL     OW16735   3.314   0.162   2.645  0.0881  0.3359 -0.2177
 1758SOL    HW116736   3.243   0.164   2.709  0.0511 -0.3947 -0.2351
 1758SOL    HW216737   3.340   0.254   2.642 -1.3424  0.6450 -2.9423
 1759SOL     OW16738   3.692   1.814   1.832  0.2125  0.0494  0.1663
 1759SOL    HW116739   3.640   1.737   1.855 -1.1557  0.8450 -0.2554
 1759SOL    HW216740   3.778   1.776   1.820 -0.0547 -0.4432 -0.1871
 1760SOL     OW16741   4.221   0.627   4.512  0.1863  0.1977 -0.1212
 1760SOL    HW116742   4.280   0.606   4.439  0.1444  1.0565 -0.3978
 1760SOL    HW216743   4.174   0.544   4.525 -0.7039  0.6556 -0.4624
 1761SOL     OW16744   3.096   1.899   7.594  0.5740 -0.3046 -0.0244
 1761SOL    HW116745   3.042   1.882   7.517 -0.1917  1.0018  0.2185
 1761SOL    HW216746   3.073   1.990   7.614 -0.6752 -0.3772 -1.1756
 1762SOL     OW16747   4.233   0.064   4.966  0.2894  0.1522 -0.5998
 1762SOL    HW116748   4.305   0.018   4.924 -0.6617  0.0669 -2.1560
 1762SOL    HW216749   4.247   0.051   5.060 -1.1000  1.4544 -0.2048
 1763SOL     OW16750   4.692   0.704  15.827  0.0467  0.2025 -0.1050
 1763SOL    HW116751   4.700   0.668  15.915 -0.4962 -0.0427 -0.1589
 1763SOL    HW216752   0.046   0.757  15.834  0.5287 -0.5169 -0.1028
 1764SOL     OW16753   2.034   4.278   6.711 -0.1004  0.3589 -0.3721
 1764SOL    HW116754   2.056   4.280   6.618 -1.7134  0.6063 -0.7531
 1764SOL    HW216755   2.000   4.363   6.738  1.3122  0.1596  2.0800
 1765SOL     OW16756   0.210   4.627   5.448 -0.0088 -0.3439 -0.4437
 1765SOL    HW116757   0.251   4.683   5.383  0.7241 -0.5073 -0.1258
 1765SOL    HW216758   0.157   4.566   5.396 -0.8596  1.7392 -2.0065
 1766SOL     OW16759   1.205   3.027   5.175 -0.3496  0.0864  0.4651
 1766SOL    HW116760   1.181   2.967   5.105  2.0178 -0.3734  0.0325
 1766SOL    HW216761   1.199   3.114   5.135  0.2439  0.5164  1.3048
 1767SOL     OW16762   3.926   1.447  14.515  0.2143  0.3833  0.4670
 1767SOL    HW116763   3.962   1.404  14.438 -0.4949 -0.1195  0.4206
 1767SOL    HW216764   3.844   1.398  14.519  0.9982 -0.9213  0.3048
 1768SOL     OW16765   1.206   4.178   9.633 -0.1639  0.0457 -0.2342
 1768SOL    HW116766   1.169   4.130   9.559 -1.6096 -0.3748  0.7573
 1768SOL    HW216767   1.298   4.175   9.608 -0.1874 -4.2895  0.1926
 1769SOL     OW16768   0.580   2.061   8.724  0.1833  0.5772 -0.2923
 1769SOL    HW116769   0.514   2.078   8.657 -0.3566  2.6510  0.7844
 1769SOL    HW216770   0.617   1.978   8.694 -0.3485  0.8053 -1.5714
 1770SOL     OW16771   0.055   1.744   6.001 -0.5912 -0.1555 -0.2094
 1770SOL    HW116772   0.131   1.717   6.054  0.5806  0.2332 -1.6729
 1770SOL    HW216773   0.032   1.828   6.039 -1.0320 -0.9708  1.3433
 1771SOL     OW16774   2.596   0.456   4.686 -0.0067 -0.3365  0.4039
 1771SOL    HW116775   2.560   0.531   4.733 -0.0333  0.2154 -0.4938
 1771SOL    HW216776   2.520   0.425   4.636  0.3198  0.7545 -0.7756
 1772SOL     OW16777   0.749   1.095   1.838  0.1472  0.6510  0.0783
 1772SOL    HW116778   0.659   1.124   1.823  0.8534  1.5563 -2.4729
 1772SOL    HW216779   0.767   1.031   1.769 -0.5455  0.9550 -0.3879
 1773SOL     OW16780   1.676   0.659   2.990 -0.4309 -0.0220 -0.0928
 1773SOL    HW116781   1.595   0.710   2.986 -0.2980  0.0986 -1.1038
 1773SOL    HW216782   1.643   0.577   2.953  0.0618 -0.1975 -0.1490
 1774SOL     OW16783   3.680   0.673   4.445  0.3379 -0.2737 -0.0459
 1774SOL    HW116784   3.722   0.678   4.359  0.9186  0.6434  0.2913
 1774SOL    HW216785   3.743   0.723   4.495 -1.4313  2.0171 -0.1139
 1775SOL     OW16786   1.553   0.493   6.045 -0.3176 -0.5688 -0.6463
 1775SOL    HW116787   1.641   0.503   6.010  0.0445 -0.7492  0.2051
 1775SOL    HW216788   1.500   0.555   5.995  0.2016  1.4458  1.3059
 1776SOL     OW16789   4.074   3.695   8.212 -0.2361 -0.2818 -0.1500
 1776SOL    HW116790   4.109   3.649   8.136  0.2136 -3.3313  1.9011
 1776SOL    HW216791   4.031   3.769   8.170  1.4356  0.6254 -0.2724
 1777SOL     OW16792   3.593   0.107  15.190  0.0759  0.7910 -0.3249
 1777SOL    HW116793   3.689   0.110  15.191  0.1597 -0.8247 -1.4273
 1777SOL    HW216794   3.564   0.055  15.264  1.2099  0.8728  0.1802
 1778SOL     OW16795   3.444   0.540   0.273  0.3053  0.1152  0.7946
 1778SOL    HW116796   3.461   0.574   0.185 -1.6043  1.4143  0.9277
 1778SOL    HW216797   3.395   0.616   0.302 -1.5349 -0.6513 -0.3010
 1779SOL     OW16798   3.394   0.043   4.572 -0.7736 -0.5240  0.3430
 1779SOL    HW116799   3.384   0.012   4.482  0.1277 -0.4651  0.2213
 1779SOL    HW216800   3.410   4.685   4.618  0.6473 -0.5751 -0.2522
 1780SOL     OW16801   4.382   2.291   3.955  0.5633 -0.3547 -0.1953
 1780SOL    HW116802   4.375   2.281   3.860  1.4800  0.6659 -0.3709
 1780SOL    HW216803   4.303   2.242   3.977  0.2276 -0.0481 -0.7059
 1781SOL     OW16804   2.072   3.162  10.422  0.1126 -0.3461 -0.7580
 1781SOL    HW116805   2.013   3.087  10.437 -1.7849  2.0105  3.6931
 1781SOL    HW216806   2.077   3.162  10.327  0.0356 -1.2196 -0.7627
 1782SOL     OW16807   2.233   3.106   1.468  0.0804  0.4185  0.0895
 1782SOL    HW116808   2.310   3.055   1.494  0.8985  2.1394  1.0122
 1782SOL    HW216809   2.171   3.090   1.539  1.1504  1.1981  1.1893
 1783SOL     OW16810   3.258   2.219   3.362 -0.2535  0.2456 -0.3378
 1783SOL    HW116811   3.259   2.172   3.279  0.4072 -0.3741  0.0196
 1783SOL    HW216812   3.231   2.152   3.425 -1.1695 -1.3492 -2.4390
 1784SOL     OW16813   1.242   2.707   2.358 -0.0438 -0.7997  0.1971
 1784SOL    HW116814   1.273   2.623   2.391  0.0943 -0.3591  1.2268
 1784SOL    HW216815   1.325   2.755   2.358 -0.3274 -0.3070  0.6103
 1785SOL     OW16816   0.189   3.013   1.386 -0.2102 -0.0578  0.3324
 1785SOL    HW116817   0.249   2.945   1.356 -0.0816 -0.2818  1.0946
 1785SOL    HW216818   0.182   3.059   1.302  1.3700  0.8767  0.7045
 1786SOL     OW16819   0.861   3.831  14.248 -0.4383  0.2919 -0.3403
 1786SOL    HW116820   0.940   3.779  14.234 -0.7402 -0.0262 -0.8967
 1786SOL    HW216821   0.794   3.763  14.245  0.0712 -0.2847  1.4986
 1787SOL     OW16822   0.699   3.985  10.853  0.4614 -0.0956 -0.3059
 1787SOL    HW116823   0.629   3.926  10.879  3.1793 -2.3627  1.8864
 1787SOL    HW216824   0.743   3.939  10.781 -0.9168  0.0933 -1.2709
 1788SOL     OW16825   0.808   0.260  12.801  0.4753 -0.6695  0.2144
 1788SOL    HW116826   0.848   0.347  12.801 -1.0932  0.0701 -3.0205
 1788SOL    HW216827   0.822   0.231  12.711 -1.5817  0.3707 -0.4651
 1789SOL     OW16828   1.306   0.388  12.382  0.2186 -0.1645  0.7101
 1789SOL    HW116829   1.347   0.421  12.302  1.7623 -1.8840  0.7863
 1789SOL    HW216830   1.217   0.404  12.350  1.1641 -0.8619 -2.3268
 1790SOL     OW16831   3.533   0.540   7.205  0.6222 -0.6027 -0.1216
 1790SOL    HW116832   3.574   0.626   7.217  0.1363 -0.4380  0.3514
 1790SOL    HW216833   3.533   0.494   7.289 -0.4628 -2.3926 -1.1016
 1791SOL     OW16834   1.942   0.260   0.363  0.1941  0.2832  0.1593
 1791SOL    HW116835   1.921   0.193   0.297  0.4680  0.0922  0.2711
 1791SOL    HW216836   2.025   0.225   0.395  0.5302 -0.9362 -2.0786
 1792SOL     OW16837   1.228   2.307  11.187 -0.4191 -0.2100  0.0598
 1792SOL    HW116838   1.145   2.344  11.217 -0.8310 -1.4134  0.3863
 1792SOL    HW216839   1.225   2.214  11.209 -4.6262 -0.3638 -1.2307
 1793SOL     OW16840   0.846   4.571  12.999  0.5422 -0.6420  0.6248
 1793SOL    HW116841   0.789   4.648  12.989  0.2573 -1.1187 -1.2268
 1793SOL    HW216842   0.903   4.589  12.925  0.3724  1.2812  0.9354
 1794SOL     OW16843   1.239   3.377   7.822  0.1071 -0.0879  0.0147
 1794SOL    HW116844   1.173   3.310   7.839  0.1767 -0.0661  0.3640
 1794SOL    HW216845   1.187   3.430   7.762  0.4899 -1.9716 -1.9941
 1795SOL     OW16846   2.923   1.734  11.332 -0.0364  0.0607 -0.3682
 1795SOL    HW116847   2.878   1.684  11.400  0.5333 -0.4211 -0.3449
 1795SOL    HW216848   2.924   1.821  11.373  0.5198  0.6199 -1.5510
 1796SOL     OW16849   4.660   0.322  10.693 -0.5064  0.3262  0.3729
 1796SOL    HW116850   4.617   0.392  10.645 -3.7743 -1.8662  0.1258
 1796SOL    HW216851   4.717   0.279  10.629 -0.0680  2.3891 -0.6130
 1797SOL     OW16852   4.178   2.495   6.769 -0.2687 -0.2144 -0.4878
 1797SOL    HW116853   4.258   2.444   6.753  1.3025  2.2652 -0.4302
 1797SOL    HW216854   4.167   2.555   6.695  1.2155 -3.2806 -3.2275
 1798SOL     OW16855   1.346   1.463   8.420 -0.3441 -0.1822 -0.6838
 1798SOL    HW116856   1.262   1.461   8.466  0.4282 -0.3230  0.7079
 1798SOL    HW216857   1.395   1.389   8.456  2.5672  1.6658 -0.8872
 1799SOL     OW16858   0.034   0.889   9.298 -0.0032  0.0006  0.1392
 1799SOL    HW116859   0.085   0.937   9.363 -0.3447  0.8475 -0.2140
 1799SOL    HW216860   0.100   0.824   9.272  0.5053  1.1174 -1.3526
 1800SOL     OW16861   2.400   0.906   4.377 -0.7486  0.8007  0.2314
 1800SOL    HW116862   2.340   0.963   4.329  0.9736  1.9593 -0.5677
 1800SOL    HW216863   2.482   0.943   4.342  0.0618 -2.0399 -0.8469
 1801SOL     OW16864   4.464   1.542   8.652  0.0036  0.3742  0.1388
 1801SOL    HW116865   4.396   1.482   8.682 -1.6747  2.0539 -0.2868
 1801SOL    HW216866   4.428   1.560   8.566  0.1479  0.0509  0.0105
 1802SOL     OW16867   4.601   4.169   5.724  0.8960 -0.2187 -0.4143
 1802SOL    HW116868   4.537   4.099   5.729  1.3689 -0.5927  0.4163
 1802SOL    HW216869   4.664   4.147   5.793  0.9005 -0.8126 -0.6101
 1803SOL     OW16870   4.022   0.043   7.304 -0.5279  0.0580  0.3162
 1803SOL    HW116871   3.976   4.685   7.306 -0.5700  0.0747  0.1101
 1803SOL    HW216872   3.971   0.085   7.235  1.0534  0.4183 -0.6451
 1804SOL     OW16873   2.189   2.820  15.955 -0.4650 -0.0299  0.6501
 1804SOL    HW116874   2.180   2.894  16.015 -0.6584 -0.0208  0.6084
 1804SOL    HW216875   2.267   2.786  16.000 -1.7656 -1.1605  2.0125
 1805SOL     OW16876   2.598   1.189  10.320  0.3006  0.1171 -0.3352
 1805SOL    HW116877   2.615   1.096  10.307 -1.2030 -0.3287  0.8513
 1805SOL    HW216878   2.673   1.226  10.274  0.6312 -1.5922 -1.1593
 1806SOL     OW16879   0.004   2.299   5.656  0.1447 -0.1878  0.2226
 1806SOL    HW116880   0.079   2.282   5.598  1.3938  2.7917  0.9413
 1806SOL    HW216881   4.678   2.219   5.656 -0.2774  0.0963 -1.7308
 1807SOL     OW16882   2.858   2.457   1.939 -0.5098  0.5666 -0.3261
 1807SOL    HW116883   2.885   2.492   2.024  1.1412 -2.2422  0.2943
 1807SOL    HW216884   2.935   2.403   1.923 -1.4737 -2.0057  3.7045
 1808SOL     OW16885   2.026   3.014   3.795 -0.2189  0.2448  0.1715
 1808SOL    HW116886   2.076   2.955   3.738 -1.6509  0.2957 -1.1427
 1808SOL    HW216887   1.945   3.034   3.748 -0.0009 -1.6070 -0.9934
 1809SOL     OW16888   0.264   0.090  10.833 -0.1996 -0.5906 -0.2475
 1809SOL    HW116889   0.216   0.053  10.906 -1.4461  1.2735 -0.1283
 1809SOL    HW216890   0.248   0.024  10.766  1.6925  0.5456 -1.8251
 1810SOL     OW16891   4.008   0.232   5.037 -0.0264  0.1163 -0.2157
 1810SOL    HW116892   3.927   0.202   4.995 -0.7676  1.2310  0.4131
 1810SOL    HW216893   4.067   0.164   5.004  1.2105  0.9639  0.2614
 1811SOL     OW16894   3.569   0.128   6.437  0.3914 -0.5879  0.1185
 1811SOL    HW116895   3.633   0.182   6.483  0.1440 -1.3119  1.2881
 1811SOL    HW216896   3.489   0.165   6.474  1.1574  2.1435 -0.9218
 1812SOL     OW16897   3.255   2.028   1.739 -0.3100 -0.2336  0.4499
 1812SOL    HW116898   3.232   2.027   1.832 -1.0020 -0.6396  0.2764
 1812SOL    HW216899   3.337   1.981   1.724 -1.3025 -2.1461  1.0194
 1813SOL     OW16900   0.375   4.169   5.720  0.0558  0.4292 -0.4434
 1813SOL    HW116901   0.368   4.264   5.718  0.4166  0.4345 -1.6933
 1813SOL    HW216902   0.290   4.135   5.691  0.9105  0.2905 -2.8230
 1814SOL     OW16903   0.871   3.604   8.024 -0.0714 -0.1851 -0.4242
 1814SOL    HW116904   0.868   3.660   8.102 -0.2755  0.2979 -0.7711
 1814SOL    HW216905   0.965   3.606   8.007 -0.0454 -0.4665 -0.3009
 1815SOL     OW16906   1.822   2.304   4.248 -0.9023  0.2082 -0.1608
 1815SOL    HW116907   1.902   2.306   4.300 -1.7189  1.2674  1.0588
 1815SOL    HW216908   1.754   2.346   4.301 -2.1193 -0.0044 -1.5417
 1816SOL     OW16909   0.082   2.039   2.816 -0.2736 -0.0731  0.0534
 1816SOL    HW116910   0.130   1.985   2.753  1.5465  1.0464  0.4843
 1816SOL    HW216911   4.723   2.063   2.779 -0.5373 -0.6627  0.2647
 1817SOL     OW16912   2.283   4.466   1.458  0.2737 -0.4671  0.2225
 1817SOL    HW116913   2.315   4.435   1.542 -1.1968 -0.2492  0.8563
 1817SOL    HW216914   2.363   4.463   1.406 -0.2958 -0.1457 -0.6942
 1818SOL     OW16915   4.316   1.124   7.744  0.1072 -0.2650  0.0741
 1818SOL    HW116916   4.321   1.030   7.724  0.5168 -0.3284  0.4992
 1818SOL    HW216917   4.363   1.135   7.826  0.1913  0.4382 -0.0643
 1819SOL     OW16918   4.706   3.682   5.439 -0.0783 -0.3630 -0.3882
 1819SOL    HW116919   4.711   3.627   5.361  1.2038 -0.6393 -0.1199
 1819SOL    HW216920   4.645   3.749   5.409 -0.3819 -0.3639  0.2231
 1820SOL     OW16921   0.277   1.496   4.052  0.5226 -0.6421 -0.3876
 1820SOL    HW116922   0.226   1.433   4.001 -0.5747 -1.1391  1.2842
 1820SOL    HW216923   0.359   1.488   4.004  1.4453 -0.6813  1.1782
 1821SOL     OW16924   3.305   3.801  14.114  0.3193  0.6185 -0.3758
 1821SOL    HW116925   3.367   3.855  14.163  0.6216  1.2033 -1.4102
 1821SOL    HW216926   3.351   3.792  14.031  1.0507  1.7300 -0.0988
 1822SOL     OW16927   0.843   4.126   3.019  0.2136  0.2281  0.3014
 1822SOL    HW116928   0.902   4.097   2.950  0.8125  2.7887 -0.2696
 1822SOL    HW216929   0.900   4.185   3.067  2.2114 -1.4863  0.0375
 1823SOL     OW16930   2.366   3.526   1.382  0.2200  0.3327  0.1455
 1823SOL    HW116931   2.312   3.505   1.305 -4.2641  1.5735  2.9688
 1823SOL    HW216932   2.450   3.555   1.346 -0.3123 -0.1833 -1.5186
 1824SOL     OW16933   2.248   2.652  10.230  0.8421 -0.2140  0.6238
 1824SOL    HW116934   2.311   2.593  10.272  0.6647 -1.0651 -0.3186
 1824SOL    HW216935   2.251   2.630  10.137  2.3147  0.6333  0.4720
 1825SOL     OW16936   1.855   0.798  10.119 -0.6637  0.0371 -0.0104
 1825SOL    HW116937   1.871   0.705  10.138  2.6518  0.6459  0.2031
 1825SOL    HW216938   1.870   0.827  10.209 -0.3653 -0.3777  0.0777
 1826SOL     OW16939   3.717   0.132   8.184  0.1597 -0.1979 -0.1258
 1826SOL    HW116940   3.730   0.045   8.146  0.8501  0.4287 -1.3424
 1826SOL    HW216941   3.627   0.125   8.216 -0.2277 -0.0955 -1.2081
 1827SOL     OW16942   2.953   1.300  14.898 -0.4116  0.3890  0.2220
 1827SOL    HW116943   3.048   1.299  14.889 -0.5142 -1.3588 -0.6640
 1827SOL    HW216944   2.935   1.212  14.864 -0.1885 -0.1460  1.5021
 1828SOL     OW16945   0.880   2.528   4.343  0.0284 -0.3271  0.1828
 1828SOL    HW116946   0.885   2.623   4.340  4.4717 -0.5455  1.4912
 1828SOL    HW216947   0.902   2.519   4.250 -0.0467  1.7734 -0.0227
 1829SOL     OW16948   1.586   4.351   2.754  0.0400  0.1007  0.2345
 1829SOL    HW116949   1.527   4.316   2.688 -1.1427  0.6975  0.9830
 1829SOL    HW216950   1.516   4.383   2.811  1.4563 -0.1521  2.1043
 1830SOL     OW16951   4.418   0.529   4.343 -0.1019 -0.3588 -0.4628
 1830SOL    HW116952   4.501   0.525   4.391  0.3510 -0.7055 -1.2812
 1830SOL    HW216953   4.433   0.610   4.294  0.4783 -0.7783 -0.9713
 1831SOL     OW16954   3.103   2.223   5.006  0.2868 -0.5308  0.1764
 1831SOL    HW116955   3.052   2.232   4.925 -1.2209  4.8133  1.7091
 1831SOL    HW216956   3.035   2.209   5.072 -0.7159 -1.7537 -1.1141
 1832SOL     OW16957   3.677   2.864   6.548  0.0738 -0.3978  0.1751
 1832SOL    HW116958   3.770   2.855   6.571 -0.6420 -2.6643  2.2960
 1832SOL    HW216959   3.659   2.771   6.535  0.3477 -0.4990  0.5192
 1833SOL     OW16960   0.988   1.982   6.463 -0.3202 -0.0627 -0.1017
 1833SOL    HW116961   0.968   1.912   6.401 -3.8198  1.1751 -0.3381
 1833SOL    HW216962   1.081   1.963   6.474 -0.0452  1.6194  0.3416
 1834SOL     OW16963   3.066   0.503   5.355 -0.0115  0.3866 -0.5893
 1834SOL    HW116964   3.151   0.467   5.330  0.7392  1.8279 -0.0584
 1834SOL    HW216965   3.080   0.595   5.334  0.7725 -0.1809 -2.5338
 1835SOL     OW16966   2.735   4.098   0.759  0.8752  0.0410  0.5705
 1835SOL    HW116967   2.710   4.019   0.712  0.2554  1.4304 -1.4606
 1835SOL    HW216968   2.769   4.148   0.684 -0.6185  1.3997  0.7873
 1836SOL     OW16969   2.543   1.203   5.179 -0.1641  0.2598  0.4507
 1836SOL    HW116970   2.551   1.108   5.173  3.4045  0.5831  0.3481
 1836SOL    HW216971   2.634   1.230   5.189  0.6060 -2.2492  0.2236
 1837SOL     OW16972   2.028   2.720   5.589 -0.5291  0.3996  0.3544
 1837SOL    HW116973   1.945   2.768   5.595  0.3632  2.1041 -0.7715
 1837SOL    HW216974   2.047   2.765   5.506  2.3080 -3.1651 -0.9126
 1838SOL     OW16975   3.968   3.804   2.930 -0.0688 -0.2586 -0.9642
 1838SOL    HW116976   4.016   3.875   2.886  1.4724 -0.7582 -0.0647
 1838SOL    HW216977   3.892   3.854   2.960 -0.7707 -1.8873 -0.0787
 1839SOL     OW16978   0.858   2.094   3.594 -0.3410  0.2914  0.0872
 1839SOL    HW116979   0.902   2.174   3.565 -0.2710 -0.2056 -1.1914
 1839SOL    HW216980   0.805   2.063   3.520 -1.4661  0.8917  0.6347
 1840SOL     OW16981   1.397   1.920   2.254  0.4184  0.2171 -0.4119
 1840SOL    HW116982   1.309   1.954   2.272 -0.3852  0.5974 -4.9092
 1840SOL    HW216983   1.384   1.916   2.159 -1.8030  0.0774 -0.0994
 1841SOL     OW16984   2.647   3.530   4.732  0.0821 -0.0891  0.7519
 1841SOL    HW116985   2.642   3.448   4.782 -0.7732  0.3408  1.3712
 1841SOL    HW216986   2.590   3.512   4.657  1.5575 -0.2625 -0.3155
 1842SOL     OW16987   2.320   0.722   3.445 -0.6968 -0.3542 -0.3437
 1842SOL    HW116988   2.258   0.651   3.432  1.0667 -1.8171 -0.7824
 1842SOL    HW216989   2.267   0.778   3.502  0.9870  0.9821 -0.1064
 1843SOL     OW16990   3.325   0.825   7.934 -0.0347  0.0012  0.8353
 1843SOL    HW116991   3.275   0.758   7.980 -0.8823  0.4554  0.5919
 1843SOL    HW216992   3.258   0.828   7.865  0.6523  0.1099  0.1691
 1844SOL     OW16993   4.402   0.271   6.992 -0.4367 -0.7935  0.2612
 1844SOL    HW116994   4.430   0.243   7.079 -0.8326 -1.7061  0.0936
 1844SOL    HW216995   4.388   0.363   7.014  0.7368 -0.9444  1.6732
 1845SOL     OW16996   0.550   2.125   6.209 -0.3409 -0.4563 -0.5215
 1845SOL    HW116997   0.623   2.102   6.267 -1.6977 -0.8102  1.0503
 1845SOL    HW216998   0.558   2.219   6.228 -1.8828 -0.6852  1.2907
 1846SOL     OW16999   2.173   1.901   6.750  0.3660  0.1827  0.4885
 1846SOL    HW117000   2.169   1.806   6.758 -0.5849 -0.0099 -2.1926
 1846SOL    HW217001   2.268   1.902   6.745  0.3659 -1.8127  0.0301
 1847SOL     OW17002   3.863   0.518   8.498  0.6027  0.5910 -0.2586
 1847SOL    HW117003   3.828   0.435   8.467 -1.0076  2.0509 -2.3766
 1847SOL    HW217004   3.925   0.486   8.564  0.1513 -0.1288 -0.1904
 1848SOL     OW17005   1.702   1.794   3.493  0.9312  0.1279 -0.4210
 1848SOL    HW117006   1.771   1.764   3.552  1.9180 -0.4798 -1.8862
 1848SOL    HW217007   1.673   1.878   3.528 -0.2555 -1.3427  2.1537
 1849SOL     OW17008   4.499   1.860  17.443 -0.4959 -0.5360  0.6741
 1849SOL    HW117009   4.432   1.802  17.407 -1.9957  1.5733  0.0820
 1849SOL    HW217010   4.516   1.822  17.529 -0.6840 -2.2588 -0.0511
 1850SOL     OW17011   3.644   0.989  13.817 -0.5720  0.0751  0.2639
 1850SOL    HW117012   3.727   0.952  13.847 -0.5320 -0.6526 -0.7650
 1850SOL    HW217013   3.658   0.992  13.723  0.5161 -0.0648  0.4256
 1851SOL     OW17014   2.684   3.793  12.055 -0.6569 -0.3459  0.0387
 1851SOL    HW117015   2.632   3.789  11.974 -0.1935 -0.5670 -0.2490
 1851SOL    HW217016   2.613   3.817  12.115  1.2207  1.1066  1.6733
 1852SOL     OW17017   0.132   0.829  12.195  0.0049 -0.2691 -0.2340
 1852SOL    HW117018   0.113   0.903  12.254 -0.8266 -0.6453 -0.0366
 1852SOL    HW217019   0.148   0.758  12.257 -0.6259  0.7423  1.1009
 1853SOL     OW17020   2.340   0.815   1.928  0.2036 -0.0291 -0.0194
 1853SOL    HW117021   2.307   0.732   1.963  1.7587 -2.5649 -4.4237
 1853SOL    HW217022   2.283   0.880   1.969 -0.0850 -0.0424 -0.3993
 1854SOL     OW17023   3.947   0.781   3.849 -0.3589 -0.0992  0.5188
 1854SOL    HW117024   3.988   0.795   3.764 -3.3090 -0.2933 -0.9585
 1854SOL    HW217025   4.008   0.716   3.883 -2.0851 -1.2990  1.3194
 1855SOL     OW17026   2.574   2.832   7.091  0.1931  0.3241  0.2824
 1855SOL    HW117027   2.616   2.905   7.046  0.9425 -1.6942 -2.3204
 1855SOL    HW217028   2.573   2.856   7.184  1.7231  0.9977  0.1146
 1856SOL     OW17029   2.867   3.416   7.878  0.5236 -0.1406  0.0963
 1856SOL    HW117030   2.912   3.336   7.849 -2.6272 -1.5331 -1.0273
 1856SOL    HW217031   2.929   3.444   7.945 -0.6447 -0.9147  1.5095
 1857SOL     OW17032   3.636   0.846   3.056  0.2434  0.0347  0.1385
 1857SOL    HW117033   3.551   0.871   3.090 -0.4690  0.6179 -2.0851
 1857SOL    HW217034   3.621   0.810   2.969  3.5870  2.0568 -1.2710
 1858SOL     OW17035   0.227   2.427   2.756 -0.3677 -0.1514  1.1456
 1858SOL    HW117036   0.276   2.346   2.742 -0.0364  0.5452 -1.5871
 1858SOL    HW217037   0.185   2.444   2.672  0.9417  1.4465  0.8082
 1859SOL     OW17038   3.783   4.191  16.965  0.4155  0.4305  0.1547
 1859SOL    HW117039   3.846   4.168  16.897  1.0888  1.0940  0.5494
 1859SOL    HW217040   3.846   4.228  17.027  1.9760 -0.7380 -0.7219
 1860SOL     OW17041   0.025   2.416   7.912 -0.4706  0.0264  0.4512
 1860SOL    HW117042   0.008   2.367   7.832  0.4787  0.4349 -0.0059
 1860SOL    HW217043   4.699   2.496   7.899  1.0979  1.1322  0.9051
 1861SOL     OW17044   0.181   2.861  12.833  0.1948 -0.3207 -0.3148
 1861SOL    HW117045   0.096   2.824  12.806 -0.3122  0.6958 -0.1072
 1861SOL    HW217046   0.228   2.862  12.750  0.5412 -0.0421 -0.1150
 1862SOL     OW17047   2.741   2.676   6.920 -0.1450  0.1650 -0.1985
 1862SOL    HW117048   2.664   2.687   6.864 -0.2931  0.4893  0.0681
 1862SOL    HW217049   2.697   2.705   7.000  1.4529  0.9133  0.4085
 1863SOL     OW17050   3.192   0.054   5.736 -1.0040  0.3291  0.3867
 1863SOL    HW117051   3.180   0.044   5.830 -1.1802  1.4917  0.4802
 1863SOL    HW217052   3.150   0.139   5.725  0.6223  1.2125  1.0347
 1864SOL     OW17053   1.757   2.722   9.075 -0.2939  0.0000  0.2351
 1864SOL    HW117054   1.848   2.697   9.090 -0.5913  0.5358  2.9772
 1864SOL    HW217055   1.716   2.726   9.162 -0.8881 -1.0165 -0.0052
 1865SOL     OW17056   4.649   1.093   3.118 -0.7258 -0.6757 -0.1450
 1865SOL    HW117057   4.629   1.115   3.027  3.1204 -0.3080 -0.9052
 1865SOL    HW217058   4.663   0.999   3.113 -2.9336 -1.0427  0.7957
 1866SOL     OW17059   0.867   4.371  12.371 -0.5769 -0.1530  0.1427
 1866SOL    HW117060   0.897   4.431  12.302 -2.4068  1.1191  0.4636
 1866SOL    HW217061   0.773   4.380  12.355 -0.0520  1.5357 -2.0129
 1867SOL     OW17062   3.569   1.054   7.445  0.1351  0.4741 -0.1817
 1867SOL    HW117063   3.513   0.993   7.492  0.8898  0.1588  0.3046
 1867SOL    HW217064   3.636   0.993   7.412  2.1325  0.8083  3.3207
 1868SOL     OW17065   0.644   0.816  14.311 -0.1733 -0.3367 -0.5820
 1868SOL    HW117066   0.567   0.768  14.280 -1.3849  1.0249  0.3067
 1868SOL    HW217067   0.718   0.756  14.312  1.2212  1.2679 -3.7184
 1869SOL     OW17068   4.622   3.037   1.736  0.5556  0.3004  0.2330
 1869SOL    HW117069   4.605   2.955   1.689  2.3983 -0.2160  0.4306
 1869SOL    HW217070   4.567   3.013   1.810 -0.7344 -0.6636 -1.0311
 1870SOL     OW17071   3.502   2.700   4.385 -0.6796  0.3250  0.0160
 1870SOL    HW117072   3.485   2.747   4.467 -1.4803 -0.2757  0.1968
 1870SOL    HW217073   3.415   2.664   4.370  0.2669 -2.6976  1.6475
 1871SOL     OW17074   4.271   2.704   3.320 -0.3284  0.1056  0.3863
 1871SOL    HW117075   4.250   2.797   3.326 -0.2024  0.2889 -2.0183
 1871SOL    HW217076   4.336   2.697   3.250  0.2191 -0.7614  0.9789
 1872SOL     OW17077   1.274   0.990   5.012 -0.5976  0.6545 -0.2561
 1872SOL    HW117078   1.257   0.897   4.998  0.3733  0.3303  0.6870
 1872SOL    HW217079   1.189   1.032   5.021  0.8101  3.4107  0.0983
 1873SOL     OW17080   0.668   3.381  13.014  0.5311  0.2235  0.2792
 1873SOL    HW117081   0.716   3.368  12.931  1.1637  0.8116  0.5509
 1873SOL    HW217082   0.748   3.379  13.067  0.1434 -1.1314  0.7921
 1874SOL     OW17083   0.598   3.115   2.381  0.1925 -0.3710 -0.6531
 1874SOL    HW117084   0.633   3.044   2.327  0.9927 -0.1623 -0.4172
 1874SOL    HW217085   0.552   3.162   2.312  1.4797  4.2923  1.6592
 1875SOL     OW17086   2.191   4.203   0.594  0.1037 -0.6951 -0.3044
 1875SOL    HW117087   2.136   4.191   0.672 -0.8787  0.3641 -0.8331
 1875SOL    HW217088   2.278   4.194   0.632  1.2373  1.4075 -2.4301
 1876SOL     OW17089   2.245   4.048   0.867  0.2652  0.0937 -0.3288
 1876SOL    HW117090   2.188   4.125   0.865 -0.5154 -0.5102 -1.2103
 1876SOL    HW217091   2.209   4.007   0.946  0.6399  1.3730  0.5149
 1877SOL     OW17092   2.066   4.124   1.085 -0.6630 -1.0920  0.2557
 1877SOL    HW117093   1.993   4.104   1.026  0.1519 -1.1834 -0.7175
 1877SOL    HW217094   2.050   4.218   1.089 -0.0348 -0.9677 -0.2552
 1878SOL     OW17095   4.165   4.222   3.216 -0.2162  0.5797  0.1102
 1878SOL    HW117096   4.146   4.132   3.242  0.8091  0.0410 -1.0423
 1878SOL    HW217097   4.250   4.215   3.174 -1.1576 -0.4770 -1.5924
 1879SOL     OW17098   3.683   2.957  12.543 -0.6267 -0.4474  0.0308
 1879SOL    HW117099   3.612   2.919  12.594 -1.1742 -0.5527 -0.8190
 1879SOL    HW217100   3.650   3.044  12.520 -2.5904 -1.6999 -1.8545
 1880SOL     OW17101   3.235   0.086   1.912  0.1884  0.0381  0.8207
 1880SOL    HW117102   3.251   0.005   1.865  0.2790 -0.0483  1.0021
 1880SOL    HW217103   3.140   0.098   1.917 -0.1874 -3.8641  2.5102
 1881SOL     OW17104   4.365   4.723   5.473 -0.2375  0.0688  0.5277
 1881SOL    HW117105   4.420   4.655   5.435  0.4538  1.4925 -0.9914
 1881SOL    HW217106   4.389   4.711   5.565  0.9886  2.2704  0.4921
 1882SOL     OW17107   4.365   2.765   8.445  0.4165  0.7798 -0.8827
 1882SOL    HW117108   4.353   2.679   8.486 -1.8822  2.2699  1.5941
 1882SOL    HW217109   4.330   2.829   8.508 -1.0214  0.3306 -1.2323
 1883SOL     OW17110   1.608   0.446  14.120 -0.1910 -0.2160  0.3281
 1883SOL    HW117111   1.595   0.351  14.116  1.3410 -0.2892 -2.7462
 1883SOL    HW217112   1.639   0.451  14.210  0.9389  0.4677 -0.1085
 1884SOL     OW17113   3.915   1.889   7.523  0.1791  0.2133 -0.8803
 1884SOL    HW117114   3.860   1.872   7.599  1.3815 -0.9485 -0.2750
 1884SOL    HW217115   3.989   1.832   7.543 -0.4649 -0.9411 -1.7525
 1885SOL     OW17116   3.328   4.165  17.028  0.3536 -0.2152 -0.3270
 1885SOL    HW117117   3.306   4.110  16.952 -0.5132 -2.2010  1.3720
 1885SOL    HW217118   3.368   4.231  16.971 -1.4316  0.1647 -1.1584
 1886SOL     OW17119   1.687   2.064   6.248 -0.0050  0.1509  0.2768
 1886SOL    HW117120   1.691   2.107   6.162  0.3488  1.6463  1.0388
 1886SOL    HW217121   1.729   2.128   6.306  1.1141 -0.2083 -0.1376
 1887SOL     OW17122   3.643   0.662   6.709  0.0538  0.0803 -0.1693
 1887SOL    HW117123   3.603   0.748   6.692 -1.8152 -0.9343 -0.9283
 1887SOL    HW217124   3.711   0.657   6.642 -0.9911  0.9643 -1.3188
 1888SOL     OW17125   3.382   3.849   7.444 -0.5166 -0.3178  0.6582
 1888SOL    HW117126   3.362   3.856   7.351 -0.1808 -0.4117  0.5778
 1888SOL    HW217127   3.384   3.754   7.442 -0.2170 -0.3076  0.4400
 1889SOL     OW17128   3.796   1.971  14.264 -0.3731 -0.3354 -0.2588
 1889SOL    HW117129   3.861   2.002  14.326  0.2764 -1.6015 -0.3121
 1889SOL    HW217130   3.716   1.967  14.317 -0.4085  1.7944 -0.1595
 1890SOL     OW17131   4.198   1.148   6.306  0.2034 -0.3728 -0.3170
 1890SOL    HW117132   4.136   1.096   6.357  0.5884 -1.0769 -0.5606
 1890SOL    HW217133   4.179   1.238   6.331 -0.5203 -0.5101 -0.3831
 1891SOL     OW17134   1.213   2.404   7.901  0.1260  0.7338 -0.3243
 1891SOL    HW117135   1.244   2.413   7.812  0.3397  2.8611 -0.0223
 1891SOL    HW217136   1.283   2.457   7.938 -1.1022  2.3359 -0.2838
 1892SOL     OW17137   0.123   0.774   6.949  0.5628  0.4831 -0.0300
 1892SOL    HW117138   0.087   0.852   6.992 -0.4126  0.9097 -1.6031
 1892SOL    HW217139   0.056   0.762   6.881  0.7870  0.7294 -0.2983
 1893SOL     OW17140   1.791   0.968   3.814  0.1487 -0.1160 -0.0710
 1893SOL    HW117141   1.868   1.023   3.799  1.7866 -1.8801  1.9772
 1893SOL    HW217142   1.766   0.969   3.721 -1.5694  0.5909  0.4074
 1894SOL     OW17143   3.268   1.285   3.500 -0.2118  0.1337 -0.0104
 1894SOL    HW117144   3.347   1.240   3.529 -0.9147  0.3766  2.2982
 1894SOL    HW217145   3.300   1.374   3.482  0.4154 -0.1654 -0.3576
 1895SOL     OW17146   0.762   2.128   6.721 -0.5672  0.7851 -0.1371
 1895SOL    HW117147   0.839   2.185   6.728 -0.3669  0.2872  1.6613
 1895SOL    HW217148   0.790   2.061   6.783 -0.7862  0.9885  0.1825
 1896SOL     OW17149   3.773   1.360   8.834  0.1136  0.6097 -0.1254
 1896SOL    HW117150   3.774   1.350   8.738 -1.0177  0.9063 -0.1700
 1896SOL    HW217151   3.807   1.274   8.855  2.7910  2.0547  1.3473
 1897SOL     OW17152   3.326   3.508   3.396  0.1298 -0.6462 -0.1110
 1897SOL    HW117153   3.403   3.512   3.339 -0.6802 -0.1051 -1.1565
 1897SOL    HW217154   3.362   3.479   3.480 -0.6901 -0.2383  0.3775
 1898SOL     OW17155   2.581   0.433   5.614  0.1350 -0.4990 -0.0960
 1898SOL    HW117156   2.660   0.461   5.569  0.4473 -2.1572 -0.5820
 1898SOL    HW217157   2.609   0.410   5.703  1.2668  0.2906 -0.2474
 1899SOL     OW17158   4.433   3.191   4.500  0.5917 -0.3055  0.8265
 1899SOL    HW117159   4.500   3.204   4.568  0.0234 -0.9313  1.5094
 1899SOL    HW217160   4.402   3.101   4.513  1.3924 -1.1108 -3.0525
 1900SOL     OW17161   1.777   0.479  13.232 -0.8678  0.2544 -0.3752
 1900SOL    HW117162   1.830   0.400  13.245  1.1910  1.8866  1.1966
 1900SOL    HW217163   1.713   0.443  13.171  0.3169  0.0187 -1.4666
 1901SOL     OW17164   2.346   0.368   4.241  0.4158 -0.2326  0.5302
 1901SOL    HW117165   2.356   0.437   4.176  0.9364 -1.8403 -1.0932
 1901SOL    HW217166   2.346   0.288   4.189  0.2557 -0.9654  1.6507
 1902SOL     OW17167   0.079   0.993   6.423  0.1953  0.2660  0.1919
 1902SOL    HW117168   0.087   1.052   6.347 -0.4066 -0.6103 -0.5531
 1902SOL    HW217169   0.006   0.942   6.388 -0.5022  0.2805  1.6625
 1903SOL     OW17170   3.821   2.345   2.126  0.1127 -0.7067  0.0347
 1903SOL    HW117171   3.824   2.376   2.216  0.7007  1.0727 -0.5907
 1903SOL    HW217172   3.739   2.382   2.094 -1.2763 -2.3096  1.7449
 1904SOL     OW17173   1.795   3.743   1.845 -0.2968 -0.3895 -0.2965
 1904SOL    HW117174   1.739   3.811   1.808 -0.6576 -1.1277 -1.1037
 1904SOL    HW217175   1.745   3.665   1.820  1.4777 -1.0005 -1.8730
 1905SOL     OW17176   3.435   3.214   6.137  0.3326 -0.2882 -0.1087
 1905SOL    HW117177   3.365   3.152   6.116 -0.3804  0.5583 -0.2508
 1905SOL    HW217178   3.476   3.172   6.213  1.5185  0.7568 -0.1722
 1906SOL     OW17179   0.492   0.013   8.079 -0.2758 -0.8147 -0.1769
 1906SOL    HW117180   0.484   4.645   8.057  4.1927 -1.2646  0.1817
 1906SOL    HW217181   0.420   0.023   8.140 -0.9934  0.4035 -1.2164
 1907SOL     OW17182   2.354   2.406   7.016  0.4417 -0.2872 -0.1886
 1907SOL    HW117183   2.394   2.491   7.034  2.0291 -0.8967 -0.7757
 1907SOL    HW217184   2.344   2.411   6.921 -0.5715 -2.9610 -0.2402
 1908SOL     OW17185   4.620   0.673   6.793 -0.5395 -0.1647  0.0910
 1908SOL    HW117186   4.657   0.649   6.708 -2.1665 -0.8886 -0.4072
 1908SOL    HW217187   4.537   0.717   6.772  0.3579  1.3794 -0.2330
 1909SOL     OW17188   3.012   1.798   7.276  0.4877  0.5772 -0.1111
 1909SOL    HW117189   2.995   1.797   7.182  0.1096 -1.6865 -0.0136
 1909SOL    HW217190   3.108   1.800   7.280  0.4632 -0.2623  0.8403
 1910SOL     OW17191   3.241   3.507  15.515  0.1188  0.3518 -0.0679
 1910SOL    HW117192   3.313   3.568  15.529  1.8391 -0.8689 -3.6891
 1910SOL    HW217193   3.174   3.575  15.503  0.5005  0.6919 -0.2835
 1911SOL     OW17194   1.149   2.721   6.994 -0.1666  0.4803  0.6856
 1911SOL    HW117195   1.172   2.660   7.064 -1.1906 -1.9278 -1.0822
 1911SOL    HW217196   1.220   2.784   7.007  0.0957  0.6626 -1.6001
 1912SOL     OW17197   2.395   2.275   0.092 -0.2352  0.0055  0.3002
 1912SOL    HW117198   2.405   2.189   0.132 -0.9265 -0.5277 -0.6737
 1912SOL    HW217199   2.327   2.314   0.148  0.1572 -1.9438  2.1632
 1913SOL     OW17200   3.821   2.828   4.182  0.0359 -0.2610  0.0297
 1913SOL    HW117201   3.808   2.910   4.133 -0.9876 -1.3178 -1.4586
 1913SOL    HW217202   3.824   2.763   4.112 -4.4013 -0.5055  0.0118
 1914SOL     OW17203   4.162   2.418   5.923 -0.1431  0.2748  0.6763
 1914SOL    HW117204   4.143   2.489   5.862  0.7796 -1.0747 -1.2179
 1914SOL    HW217205   4.242   2.454   5.962 -0.8161  4.0163 -1.4494
 1915SOL     OW17206   2.544   0.943  11.900  0.7412 -0.1047  0.0261
 1915SOL    HW117207   2.483   0.927  11.972 -2.0352 -1.2743 -2.5840
 1915SOL    HW217208   2.589   0.859  11.906  1.2265  0.2613  1.6443
 1916SOL     OW17209   2.203   4.507   4.212 -0.1584  0.9467  0.4606
 1916SOL    HW117210   2.138   4.512   4.282  1.8010  1.7069  2.2169
 1916SOL    HW217211   2.210   4.412   4.206 -0.7753  0.9425 -0.1954
 1917SOL     OW17212   4.001   1.762  15.089  0.0590  0.1617  0.7040
 1917SOL    HW117213   4.073   1.705  15.063 -1.7060 -2.2633  1.1044
 1917SOL    HW217214   3.971   1.779  14.999  2.5388 -2.0952 -0.5297
 1918SOL     OW17215   1.761   3.574   6.840 -0.1794  0.0920 -0.7558
 1918SOL    HW117216   1.666   3.563   6.836 -0.2070 -0.4628  1.7248
 1918SOL    HW217217   1.786   3.548   6.929 -1.2603 -0.6351 -0.6572
 1919SOL     OW17218   1.726   4.540   3.834  0.2934 -0.2661 -0.5297
 1919SOL    HW117219   1.745   4.601   3.762  0.6392 -2.5311 -2.3645
 1919SOL    HW217220   1.696   4.458   3.795 -0.0001 -0.3409 -0.1467
 1920SOL     OW17221   0.272   0.962   9.496 -0.2169 -0.2877 -0.1243
 1920SOL    HW117222   0.238   0.929   9.580  2.6241 -2.1699  0.2636
 1920SOL    HW217223   0.354   1.004   9.522  0.2075 -1.3935  0.3248
 1921SOL     OW17224   3.049   4.040   2.667  0.2429  0.2925 -0.3854
 1921SOL    HW117225   3.001   4.112   2.625 -3.7693 -1.6153  0.9245
 1921SOL    HW217226   3.058   4.087   2.750  0.0435 -0.0539 -0.1663
 1922SOL     OW17227   3.192   2.329  14.497  0.5761 -0.5441 -0.6907
 1922SOL    HW117228   3.191   2.343  14.403 -1.0846 -0.0292 -0.5832
 1922SOL    HW217229   3.103   2.354  14.519 -0.3650 -0.8177 -4.3435
 1923SOL     OW17230   1.034   4.088   8.518 -0.2368  0.2675 -0.5481
 1923SOL    HW117231   1.091   4.044   8.456  0.0994 -0.7535  0.4978
 1923SOL    HW217232   0.947   4.074   8.480 -0.6094 -1.9638  1.1223
 1924SOL     OW17233   0.982   2.446   4.573 -0.2980  0.2602 -0.4588
 1924SOL    HW117234   1.071   2.429   4.541 -1.2851 -2.8134 -1.5361
 1924SOL    HW217235   0.946   2.501   4.504 -1.9779 -2.5955 -1.8127
 1925SOL     OW17236   2.007   1.130   2.651 -0.4397  0.2700  0.1166
 1925SOL    HW117237   2.034   1.053   2.601  1.0840  0.9304 -0.0652
 1925SOL    HW217238   1.972   1.093   2.732  0.0728 -0.9943 -0.2267
 1926SOL     OW17239   4.308   2.812   2.594  0.1466  0.0257 -0.3557
 1926SOL    HW117240   4.235   2.797   2.534  0.1398 -0.4429 -0.2271
 1926SOL    HW217241   4.374   2.753   2.558  0.7911  0.2460  0.4483
 1927SOL     OW17242   4.520   4.297  14.168  0.1236  0.1188  0.2945
 1927SOL    HW117243   4.565   4.341  14.239  1.2130  2.1404 -1.6579
 1927SOL    HW217244   4.442   4.268  14.215  0.5310  1.7512  1.9653
 1928SOL     OW17245   4.322   4.554   0.887 -0.3822  0.5011 -0.1424
 1928SOL    HW117246   4.400   4.512   0.923 -1.0397  0.0835  0.7940
 1928SOL    HW217247   4.262   4.541   0.961 -0.4599 -0.5736 -0.3930
 1929SOL     OW17248   2.730   3.033  16.392 -0.6360 -1.5099  0.1293
 1929SOL    HW117249   2.682   2.969  16.444  1.5454 -0.8853  2.8897
 1929SOL    HW217250   2.692   3.116  16.420  2.5938  0.4941 -1.4253
 1930SOL     OW17251   3.821   2.004   1.198  0.4488  1.0481  0.2889
 1930SOL    HW117252   3.912   2.006   1.168 -0.0643  0.1616 -1.3034
 1930SOL    HW217253   3.841   1.995   1.292 -0.3218 -1.6294  0.2003
 1931SOL     OW17254   1.198   2.240   4.538  0.1769  0.1284 -0.1719
 1931SOL    HW117255   1.223   2.268   4.627  1.4600 -0.2281 -0.4195
 1931SOL    HW217256   1.279   2.200   4.506 -0.0562 -0.1410 -0.4145
 1932SOL     OW17257   1.257   1.540   8.013 -0.1401  0.7237  0.8908
 1932SOL    HW117258   1.264   1.572   7.923  1.0889  0.5309  0.9133
 1932SOL    HW217259   1.164   1.516   8.011  0.2290 -0.9465  3.3758
 1933SOL     OW17260   3.453   3.199   6.568  0.2055 -0.8273 -0.4306
 1933SOL    HW117261   3.382   3.240   6.519 -1.0363 -0.2084  1.8608
 1933SOL    HW217262   3.407   3.115   6.571  1.4906 -1.4635  1.7790
 1934SOL     OW17263   3.746   0.743   6.983 -0.2767  0.1844 -0.5216
 1934SOL    HW117264   3.685   0.817   6.991 -1.7150 -1.1305  0.7441
 1934SOL    HW217265   3.713   0.699   6.905  2.1246  1.8617 -2.4941
 1935SOL     OW17266   0.228   3.734   7.024 -0.4592  0.4030 -0.1543
 1935SOL    HW117267   0.147   3.764   6.984 -0.6842 -0.5133 -0.3906
 1935SOL    HW217268   0.262   3.685   6.949 -0.8753  2.2872 -1.5535
 1936SOL     OW17269   1.515   4.224   6.603 -0.3103  0.5121 -0.6995
 1936SOL    HW117270   1.422   4.242   6.596 -0.8356 -1.4137  1.2627
 1936SOL    HW217271   1.535   4.159   6.535 -0.5836  0.0469 -0.3382
 1937SOL     OW17272   0.903   3.564   4.071  0.6156  0.2303  0.2859
 1937SOL    HW117273   0.871   3.547   3.982  0.5348  2.5217 -0.1380
 1937SOL    HW217274   0.987   3.604   4.050  0.2752  0.3824 -0.7941
 1938SOL     OW17275   0.280   1.676   6.767 -0.3303 -0.8540  0.5478
 1938SOL    HW117276   0.236   1.757   6.741  1.1895  0.5517  2.3798
 1938SOL    HW217277   0.315   1.647   6.682  1.7976 -0.7519  1.3713
 1939SOL     OW17278   3.548   2.822   1.531 -0.3593 -0.4308 -0.2694
 1939SOL    HW117279   3.475   2.760   1.529 -0.8058  0.1304 -1.7238
 1939SOL    HW217280   3.613   2.777   1.477  2.3657  0.8442  1.9495
 1940SOL     OW17281   2.484   1.244  14.811  0.3387  0.3777  0.4383
 1940SOL    HW117282   2.520   1.157  14.823  0.3918  0.7559  3.1945
 1940SOL    HW217283   2.552   1.310  14.825  0.5327  0.7229 -2.1255
 1941SOL     OW17284   1.254   0.500  17.243  0.3246  0.3445  0.1603
 1941SOL    HW117285   1.224   0.590  17.255 -1.1944 -0.1596  0.1205
 1941SOL    HW217286   1.343   0.500  17.280  0.1166  1.0709  0.6675
 1942SOL     OW17287   0.343   1.111   8.512 -0.6047  0.3400 -0.3689
 1942SOL    HW117288   0.380   1.194   8.541 -2.2766  1.0256 -0.2113
 1942SOL    HW217289   0.261   1.138   8.472 -0.1289  1.7280 -0.4266
 1943SOL     OW17290   1.852   1.268   6.065  0.0183  0.3523  0.0197
 1943SOL    HW117291   1.820   1.277   6.155 -0.5317  0.1635 -0.1514
 1943SOL    HW217292   1.811   1.347   6.029 -0.5440 -0.5391 -1.2977
 1944SOL     OW17293   0.329   4.313  14.682 -0.0270 -0.0663 -0.1648
 1944SOL    HW117294   0.424   4.326  14.684  0.2676 -2.3214  0.1407
 1944SOL    HW217295   0.308   4.405  14.696  1.3913 -0.0640  1.8724
 1945SOL     OW17296   3.014   4.423   4.198  0.1020  0.2802 -0.2751
 1945SOL    HW117297   3.046   4.357   4.260  0.6031  0.2684 -0.5461
 1945SOL    HW217298   3.032   4.383   4.112  3.0041  1.8172 -0.4059
 1946SOL     OW17299   3.246   4.570   3.871  0.0837 -0.3630  0.0522
 1946SOL    HW117300   3.286   4.651   3.903 -0.7066  0.8035 -1.9152
 1946SOL    HW217301   3.294   4.495   3.905  0.6203 -0.4502 -0.9176
 1947SOL     OW17302   4.440   1.492   6.971 -0.2078  0.1435 -0.3496
 1947SOL    HW117303   4.360   1.521   7.015  0.1778  1.1380 -0.3128
 1947SOL    HW217304   4.403   1.444   6.897  0.1342  1.7558 -1.5391
 1948SOL     OW17305   1.141   2.998   5.683  0.4166 -0.1646 -0.4489
 1948SOL    HW117306   1.114   3.059   5.615  0.9160 -1.8496 -2.1428
 1948SOL    HW217307   1.089   3.031   5.757  0.4776 -2.0262  0.4469
 1949SOL     OW17308   1.819   4.705   7.032  0.0035  0.7199  0.0555
 1949SOL    HW117309   1.808   0.039   7.105 -1.3256  1.1973 -0.5476
 1949SOL    HW217310   1.850   0.041   6.965  1.3634  0.3142  0.3147
 1950SOL     OW17311   4.458   0.195  16.333 -0.2215 -0.5871  0.6599
 1950SOL    HW117312   4.468   0.107  16.372  0.3919  0.2878  2.4787
 1950SOL    HW217313   4.379   0.188  16.279 -1.2389 -2.4693  2.3775
 1951SOL     OW17314   0.123   2.141   8.463  0.3580  0.6761 -0.0798
 1951SOL    HW117315   0.101   2.213   8.523  0.3528 -0.1695  0.9272
 1951SOL    HW217316   0.077   2.074   8.513  1.3721  0.1113  0.0739
 1952SOL     OW17317   2.864   3.853   7.627  0.2168 -0.7711 -0.1758
 1952SOL    HW117318   2.948   3.839   7.671  0.7980 -1.2491 -1.4495
 1952SOL    HW217319   2.801   3.865   7.698 -0.6673 -0.7780 -0.9600
 1953SOL     OW17320   3.112   3.383   8.330 -0.0882 -0.6205 -0.3339
 1953SOL    HW117321   3.129   3.307   8.386  0.2968 -1.4652 -1.6144
 1953SOL    HW217322   3.174   3.444   8.370  2.0200 -1.8797 -1.6917
 1954SOL     OW17323   2.222   1.179   8.374 -0.5911 -0.3886 -0.1530
 1954SOL    HW117324   2.144   1.213   8.418  1.1165  3.3717 -0.0457
 1954SOL    HW217325   2.283   1.181   8.448  0.9191  0.8694 -1.4105
 1955SOL     OW17326   2.838   3.589   5.719 -0.1302 -0.7476 -0.9513
 1955SOL    HW117327   2.757   3.549   5.750 -0.4450 -0.3793 -1.2994
 1955SOL    HW217328   2.856   3.649   5.792 -0.1174 -2.2689  0.2770
 1956SOL     OW17329   1.404   2.079   5.388 -0.5524 -0.4877  0.1262
 1956SOL    HW117330   1.430   2.008   5.447 -0.7010  0.1394  0.9485
 1956SOL    HW217331   1.337   2.034   5.337  0.0767 -0.2114 -0.9471
 1957SOL     OW17332   3.648   3.121   5.770  0.3165  0.9023 -0.5332
 1957SOL    HW117333   3.650   3.066   5.848 -0.3196  1.9388  0.2095
 1957SOL    HW217334   3.556   3.107   5.745  0.3416  0.2176 -0.2285
 1958SOL     OW17335   4.318   3.601   7.952 -0.5707  0.8339  0.0783
 1958SOL    HW117336   4.335   3.648   8.033 -1.4821 -1.2960  1.5163
 1958SOL    HW217337   4.403   3.559   7.939 -1.0485 -0.3006  0.6542
 1959SOL     OW17338   3.644   1.882   6.835  0.1275 -0.5129 -0.2769
 1959SOL    HW117339   3.638   1.873   6.930 -0.3092 -1.4904 -0.3983
 1959SOL    HW217340   3.583   1.816   6.801  0.0207 -0.7078  0.2850
 1960SOL     OW17341   0.680   0.635  13.221  0.0466  0.4187 -0.0133
 1960SOL    HW117342   0.732   0.590  13.154  2.1466 -0.1743  2.0083
 1960SOL    HW217343   0.743   0.624  13.293  1.0526  2.5332 -0.5574
 1961SOL     OW17344   3.488   1.758  12.615  0.6089 -0.4473  0.6586
 1961SOL    HW117345   3.477   1.853  12.606 -0.1624 -0.3168  2.7970
 1961SOL    HW217346   3.430   1.742  12.690  0.5714 -4.4478 -0.2431
 1962SOL     OW17347   4.688   2.269  14.455  0.0748  0.3767  0.1650
 1962SOL    HW117348   0.010   2.324  14.393  0.2572  0.2942  0.2317
 1962SOL    HW217349   0.006   2.305  14.532  0.6687  1.0321 -0.4736
 1963SOL     OW17350   1.351   1.244  11.463 -0.4997  0.1540 -0.3915
 1963SOL    HW117351   1.294   1.201  11.399 -1.1547 -2.2816  1.8955
 1963SOL    HW217352   1.418   1.278  11.403  0.0480  0.1721  0.2420
 1964SOL     OW17353   2.972   1.813   5.496  0.2660  0.7963 -0.5377
 1964SOL    HW117354   3.018   1.833   5.578 -0.4497  0.2428 -0.0040
 1964SOL    HW217355   2.917   1.744   5.533 -0.1159  1.7912  0.7594
 1965SOL     OW17356   4.322   2.180   9.510 -0.0980 -0.2010 -0.5094
 1965SOL    HW117357   4.282   2.258   9.473  0.9577  1.4711  1.8676
 1965SOL    HW217358   4.269   2.109   9.475 -1.3963 -0.2644  1.5499
 1966SOL     OW17359   1.245   3.501   8.350 -0.7020 -0.0199 -0.3561
 1966SOL    HW117360   1.290   3.503   8.265 -0.0121 -1.0325 -0.0120
 1966SOL    HW217361   1.171   3.445   8.331 -0.6722  0.0645 -0.7227
 1967SOL     OW17362   2.217   2.664   1.632 -0.0294  0.0829  0.4448
 1967SOL    HW117363   2.271   2.602   1.682  1.2343 -0.1145 -1.1747
 1967SOL    HW217364   2.129   2.647   1.667 -0.9983  1.3828 -1.3264
 1968SOL     OW17365   1.486   1.576  17.656  0.2562 -0.4280 -0.1125
 1968SOL    HW117366   1.527   1.654  17.618  1.8356 -0.2253  2.0227
 1968SOL    HW217367   1.393   1.600  17.653  0.1089 -0.8626  0.8842
 1969SOL     OW17368   0.684   0.180   8.205  0.1376 -0.5079 -0.1117
 1969SOL    HW117369   0.594   0.179   8.240  0.5279  3.5606  0.9600
 1969SOL    HW217370   0.730   0.101   8.235 -0.0363 -0.1509  1.1114
 1970SOL     OW17371   0.199   4.422   5.009 -0.1310  0.2539 -0.4854
 1970SOL    HW117372   0.265   4.355   5.026  0.6596  0.8504 -1.2070
 1970SOL    HW217373   0.151   4.397   4.930  0.0874 -0.9458 -0.2249
 1971SOL     OW17374   2.152   0.557   2.000  0.1611 -0.1189 -0.5842
 1971SOL    HW117375   2.176   0.608   2.077  1.6463  1.5185 -2.1222
 1971SOL    HW217376   2.082   0.504   2.039  0.4104  0.4699  0.6729
 1972SOL     OW17377   2.728   2.578  11.063  0.5363 -0.1047 -0.6701
 1972SOL    HW117378   2.766   2.518  11.000 -0.1057 -0.0240 -1.1312
 1972SOL    HW217379   2.742   2.524  11.141 -0.9381 -1.3056 -1.2450
 1973SOL     OW17380   2.861   2.422  14.341  0.1809  0.1229 -0.3197
 1973SOL    HW117381   2.915   2.372  14.403  2.6314  1.1787 -1.6372
 1973SOL    HW217382   2.911   2.502  14.357  0.4956 -0.2601  0.6577
 1974SOL     OW17383   3.087   2.199   0.569 -0.0553 -0.0547  0.2201
 1974SOL    HW117384   3.099   2.220   0.476  1.4046  2.3629  0.9583
 1974SOL    HW217385   3.174   2.165   0.591  0.4470  1.6078  0.8281
 1975SOL     OW17386   4.551   3.178   2.121 -0.0919 -0.3128 -0.2312
 1975SOL    HW117387   4.553   3.260   2.072 -1.4915  1.4294  2.5955
 1975SOL    HW217388   4.500   3.197   2.200  2.2039  2.6332  0.5524
 1976SOL     OW17389   4.448   1.002  11.127  0.3678  0.1348  0.1172
 1976SOL    HW117390   4.398   0.939  11.179 -1.4274 -0.6415 -2.5446
 1976SOL    HW217391   4.454   1.076  11.187 -2.3803 -0.2146  0.8337
 1977SOL     OW17392   0.636   3.049  11.579 -0.5683 -0.2680 -0.0637
 1977SOL    HW117393   0.585   3.129  11.592  1.4123  1.0418 -0.3528
 1977SOL    HW217394   0.586   2.998  11.516 -2.2038 -0.4465  1.3773
 1978SOL     OW17395   0.478   2.527   5.092  0.0142 -0.1676 -0.5077
 1978SOL    HW117396   0.399   2.477   5.072 -0.8154  1.1084 -0.3989
 1978SOL    HW217397   0.537   2.463   5.132  0.1656 -0.1199 -0.6592
 1979SOL     OW17398   1.903   0.098   0.150  0.1018 -0.0759 -0.1982
 1979SOL    HW117399   1.826   0.087   0.095  0.3905 -1.3684 -0.3605
 1979SOL    HW217400   1.923   0.006   0.171 -2.2694 -0.3896  0.7224
 1980SOL     OW17401   3.202   0.698   4.691  0.1281 -0.2184 -0.8451
 1980SOL    HW117402   3.126   0.744   4.655 -0.2830 -0.4553 -0.2819
 1980SOL    HW217403   3.179   0.688   4.784 -1.3820  0.1015 -1.1889
 1981SOL     OW17404   1.020   0.405  12.299 -0.0398 -0.7043  0.1186
 1981SOL    HW117405   0.945   0.366  12.254  0.9086 -1.6206 -0.6554
 1981SOL    HW217406   1.057   0.456  12.228 -3.6505  0.5645 -0.8262
 1982SOL     OW17407   1.038   2.777  12.216  0.0444 -0.1741  0.2297
 1982SOL    HW117408   0.989   2.788  12.297 -2.4535  1.9067 -1.5587
 1982SOL    HW217409   1.008   2.845  12.156  0.9974  0.4701  0.4875
 1983SOL     OW17410   2.045   2.648   2.227 -0.3951  0.0800 -0.0054
 1983SOL    HW117411   2.104   2.717   2.258 -2.3355  0.9670  1.6469
 1983SOL    HW217412   2.046   2.594   2.306  1.2020  1.3781  0.8576
 1984SOL     OW17413   1.270   4.419  14.013  0.0610  0.4790 -0.5018
 1984SOL    HW117414   1.235   4.363  13.944  0.6714 -0.4600 -0.0453
 1984SOL    HW217415   1.257   4.357  14.085  2.2265 -0.5452 -1.0126
 1985SOL     OW17416   2.932   0.604   7.405  0.3279 -0.2255 -0.4298
 1985SOL    HW117417   2.872   0.530   7.411  1.2563 -0.9447 -0.0222
 1985SOL    HW217418   2.889   0.674   7.455  0.3067 -1.5527  1.4096
 1986SOL     OW17419   2.052   2.957   4.062  0.0370 -0.3381  0.9436
 1986SOL    HW117420   2.148   2.953   4.068  0.2057  1.5284 -0.3812
 1986SOL    HW217421   2.039   3.010   3.983  1.5433  0.2271  1.0607
 1987SOL     OW17422   1.888   4.252   8.767  0.2443 -0.0732  0.5570
 1987SOL    HW117423   1.978   4.233   8.742  0.1153 -1.3192  1.0831
 1987SOL    HW217424   1.896   4.300   8.849  1.4273  2.0153 -0.7795
 1988SOL     OW17425   1.501   3.747   5.198  0.0930 -0.5383  0.3921
 1988SOL    HW117426   1.535   3.669   5.242 -2.7688 -2.1892 -0.2981
 1988SOL    HW217427   1.541   3.740   5.112 -1.2360  0.5745 -0.3190
 1989SOL     OW17428   2.474   3.867   8.669 -0.1993 -0.0564  0.4134
 1989SOL    HW117429   2.558   3.876   8.623 -0.7957 -0.0109 -0.6663
 1989SOL    HW217430   2.456   3.778   8.639 -1.8042  0.9416 -1.6002
 1990SOL     OW17431   0.818   1.770   9.633 -0.0510 -0.0280  0.1286
 1990SOL    HW117432   0.849   1.822   9.559 -1.9112  1.5651  0.4944
 1990SOL    HW217433   0.787   1.828   9.702  1.0456  1.7453 -0.8572
 1991SOL     OW17434   3.423   2.545   5.118  0.3430  0.0997  0.7877
 1991SOL    HW117435   3.472   2.576   5.041 -2.0351  0.8299 -0.4375
 1991SOL    HW217436   3.334   2.575   5.102  1.5322  3.4630  0.3930
 1992SOL     OW17437   2.574   2.577   7.313 -0.4479 -0.1875 -0.8905
 1992SOL    HW117438   2.610   2.661   7.284  1.6187  0.3000  3.0120
 1992SOL    HW217439   2.657   2.530   7.321 -0.3590  0.2101  0.5217
 1993SOL     OW17440   3.803   3.191  11.712 -0.3093  0.2313 -0.0616
 1993SOL    HW117441   3.800   3.284  11.693  1.1081  0.5644  1.3730
 1993SOL    HW217442   3.783   3.159  11.624 -0.7548 -2.0150  0.8451
 1994SOL     OW17443   2.086   0.296   4.362  0.3995  0.4144  0.4307
 1994SOL    HW117444   2.173   0.274   4.329  0.1807  0.6012 -0.2822
 1994SOL    HW217445   2.088   0.282   4.457  0.5322  1.3058  0.5571
 1995SOL     OW17446   3.141   1.287   6.376  0.0622  0.6978 -0.4264
 1995SOL    HW117447   3.150   1.326   6.289  0.4779 -0.5570 -0.9441
 1995SOL    HW217448   3.120   1.359   6.435 -0.3507  0.9336 -0.8642
 1996SOL     OW17449   1.149   2.174   2.132  0.0757 -0.4960  0.1172
 1996SOL    HW117450   1.168   2.124   2.211  0.4376 -0.8086 -0.1697
 1996SOL    HW217451   1.180   2.127   2.055  0.2911 -1.5153  0.8359
 1997SOL     OW17452   2.939   2.140   1.851 -0.1624 -0.0644  0.2940
 1997SOL    HW117453   2.906   2.080   1.784  1.1229  0.7072 -1.0702
 1997SOL    HW217454   2.982   2.206   1.796  0.9576 -1.4861 -0.5456
 1998SOL     OW17455   0.839   3.444   3.488 -0.5173 -0.8045 -0.2499
 1998SOL    HW117456   0.859   3.351   3.498  2.9541  0.3927  4.0512
 1998SOL    HW217457   0.922   3.477   3.525  0.5432 -1.8486 -1.7061
 1999SOL     OW17458   1.038   4.685  14.707  0.3615  0.5521  0.6978
 1999SOL    HW117459   1.046   4.620  14.777 -0.3467  0.1641  0.4228
 1999SOL    HW217460   0.995   4.640  14.634 -0.2215  1.4882  0.4587
 2000SOL     OW17461   4.480   2.320  15.280  0.4702  0.2837  0.3218
 2000SOL    HW117462   4.443   2.237  15.251  0.1680  1.3377 -2.3243
 2000SOL    HW217463   4.410   2.355  15.335  0.0397  0.5539 -0.4077
 2001SOL     OW17464   0.053   2.740   1.789 -0.0852 -0.9068 -0.2250
 2001SOL    HW117465   0.031   2.706   1.702  2.1716  0.5262 -1.3792
 2001SOL    HW217466   0.137   2.784   1.770 -0.6637  0.3663  0.1361
 2002SOL     OW17467   1.488   3.322   6.168 -0.5394 -0.0466  0.3013
 2002SOL    HW117468   1.490   3.269   6.248  0.4261  1.7122  1.4490
 2002SOL    HW217469   1.568   3.286   6.130 -0.8643  0.7446 -1.1027
 2003SOL     OW17470   3.776   2.265   5.648 -0.4048 -0.7835  1.3088
 2003SOL    HW117471   3.765   2.337   5.709 -1.6113  0.7507 -0.7385
 2003SOL    HW217472   3.751   2.304   5.564 -0.3142 -0.7066  1.3175
 2004SOL     OW17473   0.960   0.850  13.325 -0.3264 -0.1669 -0.5799
 2004SOL    HW117474   0.982   0.879  13.414 -0.3887 -0.2258 -0.5447
 2004SOL    HW217475   0.951   0.756  13.342  0.3768 -0.2847 -0.8777
 2005SOL     OW17476   0.694   1.290   5.113  0.6409 -0.0552 -0.1297
 2005SOL    HW117477   0.742   1.214   5.147 -0.8675 -1.0094 -0.1469
 2005SOL    HW217478   0.688   1.333   5.199  0.0261 -0.7618  0.1840
 2006SOL     OW17479   1.850   4.672  10.765 -0.3808  0.1741 -0.3446
 2006SOL    HW117480   1.914   0.007  10.803 -1.0427 -0.1450  1.2803
 2006SOL    HW217481   1.785   4.721  10.715 -2.0727 -1.6629  0.0732
 2007SOL     OW17482   0.949   0.852   2.042 -0.3957  0.1038  0.1086
 2007SOL    HW117483   0.929   0.940   2.073 -0.8306 -0.4126  1.2796
 2007SOL    HW217484   0.973   0.875   1.952  3.3874  0.0094  1.1108
 2008SOL     OW17485   0.411   4.648   6.421  0.8312 -0.2041  0.0781
 2008SOL    HW117486   0.491   4.695   6.443 -0.0639  1.0419  0.6702
 2008SOL    HW217487   0.351   4.722   6.408  0.3982 -0.3827  1.0801
 2009SOL     OW17488   0.367   2.369  14.561  0.0323 -0.4189 -0.1131
 2009SOL    HW117489   0.283   2.328  14.583  0.1388  1.2054  3.2734
 2009SOL    HW217490   0.431   2.331  14.620 -0.9136 -1.2614  0.3748
 2010SOL     OW17491   2.947   2.154   5.330  0.1151  0.6843 -0.3662
 2010SOL    HW117492   2.871   2.205   5.302 -1.5269 -1.7438 -0.3220
 2010SOL    HW217493   3.010   2.222   5.353  0.2161  1.0152 -1.5856
 2011SOL     OW17494   2.981   2.781   8.023 -0.1319 -0.1153  0.1364
 2011SOL    HW117495   2.907   2.840   8.011 -0.6436 -0.7841 -0.0164
 2011SOL    HW217496   2.962   2.745   8.109 -1.8104  0.6311  0.0645
 2012SOL     OW17497   1.230   4.037   0.717 -0.5640 -0.2889 -0.3304
 2012SOL    HW117498   1.166   4.091   0.671  0.5958  0.1620 -1.4024
 2012SOL    HW217499   1.205   4.067   0.805  0.0560  3.2946 -1.3741
 2013SOL     OW17500   0.983   1.974   1.885 -1.0410 -0.3121  0.2078
 2013SOL    HW117501   0.946   1.890   1.911 -0.8396 -0.6417 -0.5953
 2013SOL    HW217502   1.072   1.943   1.906 -0.6641  0.5521 -0.1084
 2014SOL     OW17503   3.002   3.653   3.652  0.4320 -0.1735 -0.2363
 2014SOL    HW117504   3.046   3.610   3.726 -1.0170 -2.9380 -0.9523
 2014SOL    HW217505   2.912   3.624   3.667  0.4223 -1.5933 -3.0167
 2015SOL     OW17506   2.287   2.544  13.241  0.1571 -0.1784 -0.3535
 2015SOL    HW117507   2.299   2.452  13.266 -2.2287 -0.6293 -0.9386
 2015SOL    HW217508   2.210   2.562  13.295  0.4572 -1.8725  0.6605
 2016SOL     OW17509   0.369   1.347   8.197  0.6229  0.2193 -0.0122
 2016SOL    HW117510   0.289   1.386   8.230  0.1006 -1.5170  0.7994
 2016SOL    HW217511   0.415   1.424   8.164  3.5105 -0.6432  1.9390
 2017SOL     OW17512   4.221   4.534   7.394  0.3686 -0.1048  0.3417
 2017SOL    HW117513   4.223   4.451   7.346 -0.3140  1.4482 -2.3671
 2017SOL    HW217514   4.129   4.557   7.404  0.7976  2.0625 -0.6942
 2018SOL     OW17515   0.942   4.693   5.122  0.3050 -0.2457  0.2399
 2018SOL    HW117516   0.964   0.028   5.194  2.0454  1.4055 -1.6882
 2018SOL    HW217517   0.885   4.631   5.167  2.3190 -4.2389 -2.7638
 2019SOL     OW17518   3.940   0.784   4.236  0.0638  0.8345 -0.8047
 2019SOL    HW117519   3.987   0.825   4.309 -0.3254  2.0282 -1.2188
 2019SOL    HW217520   3.965   0.693   4.254  2.4054  1.8894  1.4418
 2020SOL     OW17521   2.626   2.929   2.318 -0.0929  0.0501  0.1518
 2020SOL    HW117522   2.611   2.995   2.250 -3.6571  0.3045  1.2239
 2020SOL    HW217523   2.598   2.976   2.397 -0.0779  0.2711  0.0255
 2021SOL     OW17524   2.154   3.961   4.726  0.5457 -0.5745  0.4548
 2021SOL    HW117525   2.162   3.964   4.631 -0.2231 -3.4652  0.3211
 2021SOL    HW217526   2.091   3.890   4.722 -0.5576  0.3866  0.6266
 2022SOL     OW17527   3.187   0.378   5.095 -0.5887 -0.1864  0.5412
 2022SOL    HW117528   3.103   0.341   5.069 -0.5103  0.0049  0.0106
 2022SOL    HW217529   3.220   0.318   5.162 -1.1694  0.3258  1.2774
 2023SOL     OW17530   3.496   0.459   5.890 -0.4059 -0.0546  0.7532
 2023SOL    HW117531   3.547   0.386   5.857 -0.0610  0.2495  0.6117
 2023SOL    HW217532   3.499   0.525   5.821 -0.4654  0.6054  1.3826
 2024SOL     OW17533   0.062   0.549   9.501 -0.0999 -0.3354 -0.6023
 2024SOL    HW117534   4.716   0.506   9.549  0.4929  0.5208  1.0227
 2024SOL    HW217535   0.132   0.499   9.541  1.4169  1.1907 -1.3573
 2025SOL     OW17536   0.432   1.988   6.827 -0.1367  0.3790  0.4262
 2025SOL    HW117537   0.463   1.901   6.852  5.6924  1.4425 -2.9977
 2025SOL    HW217538   0.444   1.978   6.732  0.3187  0.7717  0.4458
 2026SOL     OW17539   4.604   3.058   7.548  0.4120 -0.7429  0.0059
 2026SOL    HW117540   4.616   3.087   7.458 -1.6922  2.0719  0.6685
 2026SOL    HW217541   4.667   2.986   7.540  0.5544 -0.7094  0.8003
 2027SOL     OW17542   1.785   4.330  12.533  0.1294 -0.0952 -0.5644
 2027SOL    HW117543   1.733   4.410  12.524 -1.8286 -1.3172  0.0715
 2027SOL    HW217544   1.763   4.306  12.623 -2.2550  0.7126 -0.9229
 2028SOL     OW17545   2.360   3.728   6.295  0.4629 -0.2839  0.3388
 2028SOL    HW117546   2.278   3.695   6.332 -0.1914  1.4319  0.4321
 2028SOL    HW217547   2.326   3.814   6.269  2.2692  0.7491  1.4262
 2029SOL     OW17548   3.344   1.133   8.223 -0.2522 -0.5847 -0.0025
 2029SOL    HW117549   3.298   1.065   8.272  0.2363 -0.9528 -0.0505
 2029SOL    HW217550   3.421   1.091   8.184  0.9094  1.8345 -0.3648
 2030SOL     OW17551   0.654   1.317   9.697 -0.8406  0.2271 -0.1475
 2030SOL    HW117552   0.700   1.234   9.683 -0.8288  0.4465 -1.4134
 2030SOL    HW217553   0.663   1.329   9.792  1.6945  1.8272 -0.5872
 2031SOL     OW17554   2.996   2.620   5.901  0.2100 -0.4614 -0.1688
 2031SOL    HW117555   3.048   2.579   5.832  1.2501 -2.3515  1.7472
 2031SOL    HW217556   2.986   2.549   5.964  2.1647 -0.2295  0.4206
 2032SOL     OW17557   3.729   1.382   3.977 -0.7735 -0.0468 -0.5168
 2032SOL    HW117558   3.718   1.308   3.917  0.7113 -2.3491  2.0484
 2032SOL    HW217559   3.816   1.413   3.951 -1.7190  0.7210 -2.7619
 2033SOL     OW17560   3.340   0.697  11.976  0.4627  0.1484 -0.3461
 2033SOL    HW117561   3.363   0.789  11.958  2.7625 -0.4835 -0.7139
 2033SOL    HW217562   3.429   0.665  11.958  1.3043  2.5526 -0.5499
 2034SOL     OW17563   2.699   3.806   6.080  0.1054  0.3804  0.0083
 2034SOL    HW117564   2.778   3.795   6.026 -0.0437  3.0230 -0.7441
 2034SOL    HW217565   2.675   3.893   6.048 -1.3157 -0.5046 -1.3096
 2035SOL     OW17566   3.678   1.509  12.307  0.5827  0.0853 -0.5491
 2035SOL    HW117567   3.592   1.469  12.317  2.9970 -4.6977  0.8490
 2035SOL    HW217568   3.685   1.550  12.393 -0.6104  1.0326 -0.9106
 2036SOL     OW17569   2.901   1.324   4.710  0.1033 -0.3001  0.2838
 2036SOL    HW117570   2.833   1.321   4.641 -0.0315 -1.0663  0.4479
 2036SOL    HW217571   2.849   1.358   4.782 -0.5467 -1.9017  0.5646
 2037SOL     OW17572   1.389   4.223  13.158 -0.1046  0.2005 -0.2273
 2037SOL    HW117573   1.390   4.285  13.231  1.6587 -0.6638  0.5177
 2037SOL    HW217574   1.295   4.205  13.156  0.0565 -1.0370  3.8210
 2038SOL     OW17575   1.643   0.319   1.714 -0.2757 -0.3685  0.2646
 2038SOL    HW117576   1.700   0.265   1.659  2.1119  2.9841 -0.5606
 2038SOL    HW217577   1.653   0.408   1.679 -3.2637  0.2181  0.8826
 2039SOL     OW17578   3.156   3.577  13.689 -0.8645  0.1281  0.1153
 2039SOL    HW117579   3.168   3.672  13.686 -2.9802  0.3410 -1.9434
 2039SOL    HW217580   3.246   3.550  13.672 -1.4605 -2.3879  0.9610
 2040SOL     OW17581   1.927   3.747   2.756 -0.1713  0.3091  0.2437
 2040SOL    HW117582   2.021   3.729   2.744 -0.3227  0.0572 -0.5517
 2040SOL    HW217583   1.919   3.763   2.663  0.5300 -0.1886  0.0947
 2041SOL     OW17584   3.676   4.675   5.129  0.0960 -0.9244  0.6733
 2041SOL    HW117585   3.582   4.683   5.119  0.3002 -1.9138 -2.1893
 2041SOL    HW217586   3.702   0.041   5.137  1.3833 -1.2838  0.6723
 2042SOL     OW17587   3.339   0.359  14.239 -0.2807  0.1767 -0.1877
 2042SOL    HW117588   3.334   0.452  14.216 -0.8576  0.1998  0.0269
 2042SOL    HW217589   3.287   0.355  14.319 -1.4475  2.3245 -0.8366
 2043SOL     OW17590   3.207   1.834   8.038  0.1096 -0.2480  0.3379
 2043SOL    HW117591   3.213   1.885   7.957  1.7172 -1.0894 -0.0862
 2043SOL    HW217592   3.151   1.894   8.088  0.4480 -0.1748  0.6302
 2044SOL     OW17593   4.425   0.260  11.054  0.5549  0.2204 -0.3720
 2044SOL    HW117594   4.512   0.270  11.091  0.2209 -0.3507  0.5735
 2044SOL    HW217595   4.443   0.220  10.969  1.3049 -1.8300  0.7427
 2045SOL     OW17596   4.049   4.147   2.668 -0.3645 -0.8068  0.7202
 2045SOL    HW117597   3.992   4.208   2.621 -0.0057 -1.3281 -0.3873
 2045SOL    HW217598   3.988   4.091   2.716  0.3443 -1.5286  0.7896
 2046SOL     OW17599   0.795   2.264   8.291  0.3766 -0.3088 -0.0480
 2046SOL    HW117600   0.716   2.218   8.317  1.5732 -1.5154  1.4414
 2046SOL    HW217601   0.775   2.284   8.199  0.7585  0.1662 -0.0314
 2047SOL     OW17602   2.841   1.771   6.374  0.4496 -0.2781 -0.0611
 2047SOL    HW117603   2.813   1.854   6.336 -1.1020 -1.1346 -0.7863
 2047SOL    HW217604   2.764   1.749   6.426 -0.6368  1.1605 -1.0492
 2048SOL     OW17605   0.835   1.730   9.317 -0.4940  0.0551  0.4065
 2048SOL    HW117606   0.813   1.684   9.236  0.8868  2.9425 -1.5963
 2048SOL    HW217607   0.894   1.798   9.286 -0.3695  0.2371  1.0329
 2049SOL     OW17608   1.129   3.301   9.461  0.0874 -0.1631 -0.0940
 2049SOL    HW117609   1.066   3.366   9.492  1.5252  1.2910 -0.2647
 2049SOL    HW217610   1.112   3.304   9.367 -0.6201 -1.5033 -0.0235
 2050SOL     OW17611   3.490   1.047   1.909  0.3411 -0.6632  0.0653
 2050SOL    HW117612   3.425   0.983   1.940  0.8163 -1.0901  0.1960
 2050SOL    HW217613   3.429   1.097   1.855  0.9933  0.9816  0.8685
 2051SOL     OW17614   0.030   3.277   5.313  0.0169 -0.0403  0.1047
 2051SOL    HW117615   0.066   3.221   5.382  3.9124  1.3719 -0.7456
 2051SOL    HW217616   4.668   3.241   5.302 -0.5250  1.5156 -0.6265
 2052SOL     OW17617   2.841   0.839   6.778 -0.0220  0.6794  0.2539
 2052SOL    HW117618   2.870   0.805   6.863  1.7117  0.6016 -0.3727
 2052SOL    HW217619   2.923   0.855   6.730 -0.6065 -0.3096 -1.0794
 2053SOL     OW17620   3.440   4.143   6.267 -0.3553 -0.5720 -0.0016
 2053SOL    HW117621   3.358   4.142   6.219 -0.0887 -1.5807 -0.4368
 2053SOL    HW217622   3.469   4.052   6.255 -1.6137 -1.0081  0.3314
 2054SOL     OW17623   1.976   3.789   0.189 -0.0064  0.0609  0.3734
 2054SOL    HW117624   2.053   3.794   0.132 -1.5919  1.3704 -1.6334
 2054SOL    HW217625   1.978   3.871   0.238 -1.1307 -0.8391  1.9130
 2055SOL     OW17626   3.169   1.085   4.495  0.3405 -0.0046  0.3531
 2055SOL    HW117627   3.247   1.134   4.467  0.3395  0.3367  0.9435
 2055SOL    HW217628   3.096   1.128   4.451  0.1369 -0.5100  0.1886
 2056SOL     OW17629   0.521   2.583   9.367  0.3285 -0.2430 -0.1343
 2056SOL    HW117630   0.558   2.599   9.280  0.0805  0.8585 -0.0420
 2056SOL    HW217631   0.429   2.610   9.359  0.0910  0.1727  3.8433
 2057SOL     OW17632   2.206   3.031  10.636 -0.1097 -0.0181 -0.2449
 2057SOL    HW117633   2.150   3.099  10.598  2.2908  1.0074 -1.9671
 2057SOL    HW217634   2.204   2.956  10.577 -0.1257  0.7480 -1.2226
 2058SOL     OW17635   1.786   1.211  13.634  0.4169 -0.0582  0.0105
 2058SOL    HW117636   1.744   1.144  13.580  0.6533  0.2578 -0.5528
 2058SOL    HW217637   1.712   1.237  13.689  1.3404  1.1783  0.6705
 2059SOL     OW17638   2.302   3.214   0.779 -0.3532  0.8140 -0.0201
 2059SOL    HW117639   2.268   3.164   0.854  1.9961 -2.2700 -1.0266
 2059SOL    HW217640   2.393   3.186   0.777 -0.0582  1.8244 -0.8584
 2060SOL     OW17641   0.893   3.923   3.184  0.2808  0.3877  0.5017
 2060SOL    HW117642   0.890   3.978   3.106  1.5257  0.7417  0.7071
 2060SOL    HW217643   0.878   3.994   3.248 -0.1603 -0.9991  1.9442
 2061SOL     OW17644   0.003   3.518   5.180  0.2163 -0.3828 -0.2084
 2061SOL    HW117645   0.012   3.440   5.235 -0.7973 -0.5954 -0.3497
 2061SOL    HW217646   0.092   3.521   5.143 -0.1851  1.7506 -1.0102
 2062SOL     OW17647   2.900   0.836   6.364  0.1637 -0.1034  0.7559
 2062SOL    HW117648   2.869   0.844   6.454  3.0147  0.6222  1.6639
 2062SOL    HW217649   2.916   0.930   6.363 -1.1993  0.1179 -1.1874
 2063SOL     OW17650   1.523   0.048   7.832 -0.1534  0.2305  0.2553
 2063SOL    HW117651   1.610   0.045   7.791 -0.2198 -0.0036  0.1319
 2063SOL    HW217652   1.544   0.102   7.909  1.2902  1.1403 -0.7757
 2064SOL     OW17653   1.493   0.339   2.527  0.5525 -0.3577  0.0359
 2064SOL    HW117654   1.416   0.323   2.472 -0.7044 -2.2858  2.3538
 2064SOL    HW217655   1.524   0.249   2.540 -1.0702 -0.8222  0.7407
 2065SOL     OW17656   1.080   0.353  15.052 -0.4250  0.2295  0.5800
 2065SOL    HW117657   1.102   0.269  15.012  0.2478  0.4036  0.5863
 2065SOL    HW217658   1.112   0.344  15.142  0.7361 -0.2375  0.1132
 2066SOL     OW17659   4.669   1.375   8.580 -0.5705 -0.2982 -0.8280
 2066SOL    HW117660   0.029   1.406   8.612 -1.0136  0.1941 -0.1399
 2066SOL    HW217661   4.611   1.428   8.634  0.9965 -0.1892  0.7608
 2067SOL     OW17662   0.894   2.403   8.634  0.6094  0.0531  0.0795
 2067SOL    HW117663   0.911   2.489   8.596 -0.0123  0.5455  0.9212
 2067SOL    HW217664   0.804   2.393   8.603  0.4793 -0.3777  0.5838
 2068SOL     OW17665   2.680   2.619   1.786 -0.2886 -0.7485  0.3126
 2068SOL    HW117666   2.738   2.544   1.804  0.3921 -0.2060  0.3792
 2068SOL    HW217667   2.664   2.646   1.877 -0.5744 -0.3389  0.1393
 2069SOL     OW17668   1.260   3.443   6.110  0.3276 -0.1647 -0.0094
 2069SOL    HW117669   1.284   3.481   6.025  1.3599  0.0946  0.3951
 2069SOL    HW217670   1.342   3.395   6.126 -0.0167 -1.1764 -1.2578
 2070SOL     OW17671   0.330   0.957   1.685 -0.6631  0.0686  0.6579
 2070SOL    HW117672   0.251   0.946   1.739 -0.6670  0.9431  0.8181
 2070SOL    HW217673   0.292   0.955   1.597  0.6180  1.8464  0.0731
 2071SOL     OW17674   4.059   0.819   9.966 -0.0343  0.1001  0.1813
 2071SOL    HW117675   3.970   0.837   9.937 -0.0346  1.4234  1.0030
 2071SOL    HW217676   4.086   0.904  10.000  0.3190  0.5326 -1.2116
 2072SOL     OW17677   0.501   0.453   6.509  0.1333 -0.3924  0.1973
 2072SOL    HW117678   0.587   0.420   6.484 -0.0772  0.1740 -1.2357
 2072SOL    HW217679   0.479   0.510   6.436 -0.0943  1.0279  1.3630
 2073SOL     OW17680   2.444   1.193  10.615  0.1554 -0.0196  0.4620
 2073SOL    HW117681   2.462   1.287  10.620  2.3213 -0.3797 -0.2346
 2073SOL    HW217682   2.501   1.176  10.540  0.3473  0.4047  0.5125
 2074SOL     OW17683   2.841   0.933   3.591  0.2679 -0.4630  0.1263
 2074SOL    HW117684   2.766   0.898   3.544  1.9306 -0.4836 -2.5277
 2074SOL    HW217685   2.805   1.010   3.636 -0.7354 -0.5392 -0.5507
 2075SOL     OW17686   3.759   4.553   3.638  0.8130 -0.2496  0.8990
 2075SOL    HW117687   3.670   4.523   3.624  0.3309  1.5970 -0.0530
 2075SOL    HW217688   3.754   4.621   3.705  1.9090  1.3982 -0.6829
 2076SOL     OW17689   0.031   2.728   2.685 -0.4452  0.5878 -0.4083
 2076SOL    HW117690   0.069   2.663   2.626  1.4676  1.1259  0.2265
 2076SOL    HW217691   0.087   2.806   2.681 -0.3728  0.6294  1.4341
 2077SOL     OW17692   4.537   4.710  12.237 -0.1331 -0.5635 -0.0687
 2077SOL    HW117693   4.495   4.631  12.203 -0.0575  0.1635 -1.8438
 2077SOL    HW217694   4.609   4.671  12.286  0.3662  0.6529  0.1506
 2078SOL     OW17695   2.480   1.029  15.905 -0.3632 -0.3044  0.6277
 2078SOL    HW117696   2.484   0.966  15.833  1.6655 -0.4883  0.8981
 2078SOL    HW217697   2.485   0.975  15.984 -0.9607  0.9716  1.5409
 2079SOL     OW17698   1.244   2.098   4.191  0.5112 -0.2013 -0.2563
 2079SOL    HW117699   1.281   2.101   4.279 -1.1980  1.0287  0.4128
 2079SOL    HW217700   1.290   2.166   4.142 -0.1730  0.1814 -0.3700
 2080SOL     OW17701   4.610   3.978  16.656  0.0422  0.0680  0.2507
 2080SOL    HW117702   4.636   4.068  16.638  0.4340  0.0380  0.6691
 2080SOL    HW217703   4.523   3.988  16.617  0.2660  0.0488 -0.2526
 2081SOL     OW17704   0.555   0.376   4.867  0.1658  0.3413 -0.6663
 2081SOL    HW117705   0.522   0.466   4.865 -2.2920 -0.4976  2.0575
 2081SOL    HW217706   0.531   0.338   4.783 -1.6154 -1.1887  0.5567
 2082SOL     OW17707   0.341   2.295   8.259  0.2151  0.0097 -0.5146
 2082SOL    HW117708   0.311   2.258   8.342  0.2146  1.8125  0.2873
 2082SOL    HW217709   0.435   2.309   8.271  0.5734 -1.0143 -2.1711
 2083SOL     OW17710   0.509   1.991   9.218  0.6138 -0.0585  0.3565
 2083SOL    HW117711   0.572   1.999   9.147  0.1572  0.6918  0.0331
 2083SOL    HW217712   0.531   1.907   9.256 -1.3457 -0.5869  0.3161
 2084SOL     OW17713   3.367   0.744  13.471  0.4313 -0.3200  0.3305
 2084SOL    HW117714   3.462   0.739  13.465  0.4884  1.9774 -1.0297
 2084SOL    HW217715   3.333   0.727  13.383  0.8700  0.0239  0.0902
 2085SOL     OW17716   2.591   4.026   1.703 -0.0448 -0.4645  0.0510
 2085SOL    HW117717   2.521   4.052   1.643  0.8926  3.7609  0.7595
 2085SOL    HW217718   2.549   4.049   1.787 -0.1705  0.1714 -0.1838
 2086SOL     OW17719   0.299   1.575   4.706 -0.1899 -0.4838  0.1552
 2086SOL    HW117720   0.313   1.667   4.687  1.3765 -0.3581  1.9012
 2086SOL    HW217721   0.206   1.575   4.728 -0.2638 -1.5728 -0.1429
 2087SOL     OW17722   2.718   2.074  10.581 -0.0003  0.2149 -0.0100
 2087SOL    HW117723   2.659   2.063  10.507 -0.2669 -0.9999  0.3886
 2087SOL    HW217724   2.655   2.036  10.643 -0.7596  1.1783 -0.1769
 2088SOL     OW17725   4.481   2.782   5.092  0.1487  0.2691  0.1038
 2088SOL    HW117726   4.492   2.807   5.000 -0.9337 -2.6355 -0.8120
 2088SOL    HW217727   4.555   2.834   5.125 -0.4534  0.6676  0.8284
 2089SOL     OW17728   4.411   0.054   3.816  0.8350 -0.3436  0.4711
 2089SOL    HW117729   4.462   0.122   3.861  0.0275  0.0639  0.7576
 2089SOL    HW217730   4.489   0.009   3.783  1.5155 -0.9747  2.9363
 2090SOL     OW17731   0.497   0.681  14.602 -0.0752 -0.5413  0.3979
 2090SOL    HW117732   0.496   0.739  14.527 -0.3186 -2.6047 -1.1981
 2090SOL    HW217733   0.537   0.741  14.664 -1.4696 -0.1419  0.9264
 2091SOL     OW17734   2.998   4.275   7.883 -0.1257  0.4505 -0.2303
 2091SOL    HW117735   3.029   4.185   7.893  0.3537  0.8255  1.6343
 2091SOL    HW217736   3.005   4.298   7.791  3.0426 -2.3842 -0.6990
 2092SOL     OW17737   2.927   0.250  11.000 -0.2850 -0.1319 -0.4106
 2092SOL    HW117738   2.843   0.288  10.973 -0.2085  0.1254 -0.2901
 2092SOL    HW217739   2.974   0.322  11.043  1.4522 -1.9635  0.7042
 2093SOL     OW17740   4.677   4.300  12.824 -0.0695  0.3861 -0.3615
 2093SOL    HW117741   4.648   4.303  12.733  0.6814  1.6981 -0.5646
 2093SOL    HW217742   0.034   4.255  12.806  0.0570  0.4943 -0.0652
 2094SOL     OW17743   1.605   2.247   9.015  0.0321 -0.4711 -0.2732
 2094SOL    HW117744   1.601   2.281   9.104 -3.4985 -1.2353 -0.1693
 2094SOL    HW217745   1.533   2.185   9.014  0.7098 -1.2974  1.6430
 2095SOL     OW17746   0.519   2.945  15.250  0.7041  0.5568 -0.3308
 2095SOL    HW117747   0.582   3.001  15.204 -0.8151  2.0532 -0.5934
 2095SOL    HW217748   0.432   2.983  15.237  0.2964  0.3256  1.6655
 2096SOL     OW17749   4.419   0.415   9.312 -0.2797 -0.2169  0.1190
 2096SOL    HW117750   4.471   0.489   9.279 -2.0060  0.4830 -1.0146
 2096SOL    HW217751   4.328   0.436   9.293  0.1020  1.3079 -0.0206
 2097SOL     OW17752   4.440   0.493  14.605  0.4470 -0.6009 -0.3115
 2097SOL    HW117753   4.471   0.403  14.608 -1.3797 -1.1407  2.0505
 2097SOL    HW217754   4.348   0.491  14.580  0.5048  0.6957 -0.6715
 2098SOL     OW17755   3.540   1.603   1.892  0.5360 -0.4736 -0.3672
 2098SOL    HW117756   3.590   1.544   1.948  0.1083 -0.0482  0.4558
 2098SOL    HW217757   3.512   1.542   1.823  1.3209 -0.5963 -0.5711
 2099SOL     OW17758   0.786   0.487  11.890 -0.2064  0.1401 -0.1355
 2099SOL    HW117759   0.699   0.481  11.850 -1.3188  0.3248  2.2448
 2099SOL    HW217760   0.797   0.413  11.950  2.5443  2.5432  2.2821
 2100SOL     OW17761   2.005   1.880   8.639 -0.3667  0.5863  0.4104
 2100SOL    HW117762   1.947   1.921   8.703  1.0717 -0.2705  2.2359
 2100SOL    HW217763   1.985   1.788   8.651  0.4578  0.4817  0.9447
 2101SOL     OW17764   1.108   4.143  12.724  0.4812  0.1183 -0.3183
 2101SOL    HW117765   1.118   4.238  12.713  0.8712  0.1054 -0.0671
 2101SOL    HW217766   1.015   4.125  12.708  0.1033  2.1785 -0.4636
 2102SOL     OW17767   0.849   2.357   0.888 -0.1916 -0.0946  0.7647
 2102SOL    HW117768   0.921   2.297   0.906  1.1131  1.3167  0.2375
 2102SOL    HW217769   0.863   2.386   0.798  2.0230 -0.8508  0.8573
 2103SOL     OW17770   3.756   4.348  17.456 -0.2114 -0.1365 -0.3532
 2103SOL    HW117771   3.770   4.298  17.375  1.2870 -2.7445  1.4895
 2103SOL    HW217772   3.693   4.416  17.432  2.1200  1.2994 -2.5061
 2104SOL     OW17773   1.886   3.410  12.617  0.9826 -0.2225  0.0428
 2104SOL    HW117774   1.922   3.343  12.559  1.6969 -0.4701  0.7800
 2104SOL    HW217775   1.892   3.369  12.703 -0.0037  0.1707  0.2985
 2105SOL     OW17776   0.043   1.610   8.810 -0.7022  0.1299 -0.5533
 2105SOL    HW117777   0.102   1.536   8.794  2.7126  2.7182  0.2720
 2105SOL    HW217778   0.099   1.682   8.783  1.1492 -0.6247  1.2661
 2106SOL     OW17779   2.484   0.593  12.880 -0.0610 -0.2049 -0.5853
 2106SOL    HW117780   2.515   0.593  12.971 -0.7528 -1.7671 -0.3443
 2106SOL    HW217781   2.509   0.501  12.867  1.4070  0.1772 -0.4203
 2107SOL     OW17782   2.847   4.574   7.110 -0.2543 -0.3431 -0.1298
 2107SOL    HW117783   2.874   4.632   7.181 -1.1750  0.5882 -0.5490
 2107SOL    HW217784   2.773   4.521   7.140  0.6332 -1.7927 -0.4607
 2108SOL     OW17785   1.442   3.656   3.345  0.3418 -0.0328  0.4187
 2108SOL    HW117786   1.428   3.566   3.314 -0.9963 -0.6141  2.7500
 2108SOL    HW217787   1.528   3.673   3.305  0.8075 -1.9088  0.6156
 2109SOL     OW17788   0.893   4.345   4.999  0.3244  0.3341  0.3613
 2109SOL    HW117789   0.864   4.386   5.081  0.2659  0.0561  0.4775
 2109SOL    HW217790   0.983   4.314   5.015  0.2862  0.3837  0.6839
 2110SOL     OW17791   0.145   4.283   1.123 -0.6819 -0.4446  0.4051
 2110SOL    HW117792   0.055   4.285   1.154 -1.6285 -1.9311 -2.3036
 2110SOL    HW217793   0.150   4.189   1.106 -0.7149 -0.8420  2.5335
 2111SOL     OW17794   1.585   3.879   6.028  0.6462 -0.1935 -0.5954
 2111SOL    HW117795   1.586   3.826   6.108 -1.3317  0.7430  0.0601
 2111SOL    HW217796   1.612   3.966   6.058  1.6836 -0.6581 -0.1955
 2112SOL     OW17797   2.296   4.368   3.360 -0.1108  0.0805 -0.5438
 2112SOL    HW117798   2.326   4.370   3.451 -2.5246 -1.2635  0.2856
 2112SOL    HW217799   2.339   4.286   3.333  0.2782  0.6620 -1.6875
 2113SOL     OW17800   2.963   3.678  11.432  0.5316 -0.2486  0.2255
 2113SOL    HW117801   2.962   3.612  11.502 -0.5161  0.7239  1.1123
 2113SOL    HW217802   2.998   3.753  11.479 -0.5792 -1.6849  3.3957
 2114SOL     OW17803   2.212   2.583   6.825  0.0769 -0.8104 -0.1881
 2114SOL    HW117804   2.245   2.611   6.910  0.7343 -1.2393 -0.3006
 2114SOL    HW217805   2.124   2.558   6.853 -0.3839 -1.1389 -1.9254
 2115SOL     OW17806   2.260   2.770  16.307  0.7593  0.2787 -0.0843
 2115SOL    HW117807   2.326   2.751  16.240  0.3981  0.1423 -0.3961
 2115SOL    HW217808   2.212   2.688  16.303 -0.7284  0.9846  3.4928
 2116SOL     OW17809   2.588   1.245  13.299  0.0900 -0.3235  0.3166
 2116SOL    HW117810   2.677   1.276  13.282 -0.1396 -0.2461 -0.7150
 2116SOL    HW217811   2.587   1.222  13.392 -0.1365  2.3818  1.0053
 2117SOL     OW17812   0.159   0.366  16.282  0.2677 -0.2514  0.4223
 2117SOL    HW117813   0.132   0.319  16.361  1.1454 -2.3160 -0.5152
 2117SOL    HW217814   0.183   0.295  16.223  1.6188  0.0277  0.6437
 2118SOL     OW17815   4.390   0.493   3.079 -0.0301  0.2354  0.1790
 2118SOL    HW117816   4.444   0.424   3.119 -0.6049 -0.1479  0.2933
 2118SOL    HW217817   4.400   0.465   2.988  1.1252 -0.5388  0.5451
 2119SOL     OW17818   0.344   2.074   7.469  0.3056 -0.0600 -0.3350
 2119SOL    HW117819   0.361   2.168   7.461 -0.5343  0.1749  0.6747
 2119SOL    HW217820   0.344   2.061   7.374 -1.1486 -0.3024 -0.3031
 2120SOL     OW17821   1.754   4.020   1.038 -0.0304 -0.2421 -0.2867
 2120SOL    HW117822   1.766   3.939   1.088 -1.7473 -1.0099 -1.1326
 2120SOL    HW217823   1.713   3.986   0.959 -1.4498  0.1035  0.3083
 2121SOL     OW17824   4.025   1.474  10.972 -0.2809 -0.2989  0.4937
 2121SOL    HW117825   3.965   1.545  10.994  0.2903 -0.1927  1.7124
 2121SOL    HW217826   4.007   1.417  11.047 -1.4574  1.1860  1.3589
 2122SOL     OW17827   3.560   4.294  17.220  0.3061  0.4272 -0.1384
 2122SOL    HW117828   3.630   4.229  17.232 -2.8534 -2.3255  3.1544
 2122SOL    HW217829   3.531   4.273  17.131 -0.5211  1.2294 -0.0546
 2123SOL     OW17830   4.032   1.631   7.271  0.5952 -0.4460  0.3574
 2123SOL    HW117831   3.975   1.708   7.267  0.4821 -0.5777 -0.5775
 2123SOL    HW217832   4.084   1.652   7.193 -0.5467  1.7316  0.1738
 2124SOL     OW17833   2.176   1.688   3.484 -0.5226  0.0822  0.0180
 2124SOL    HW117834   2.228   1.676   3.563  2.1854  3.0666 -1.2923
 2124SOL    HW217835   2.190   1.780   3.461 -1.3947  0.1914 -0.0603
 2125SOL     OW17836   3.412   4.466  12.847 -0.0221  0.2861 -0.3822
 2125SOL    HW117837   3.382   4.382  12.881  1.3417  0.5687  1.5623
 2125SOL    HW217838   3.395   4.452  12.754 -1.6764  1.8584 -0.3111
 2126SOL     OW17839   2.513   3.729  16.829 -0.3301 -0.3341 -0.0463
 2126SOL    HW117840   2.477   3.793  16.768  0.8610  0.7018  0.3528
 2126SOL    HW217841   2.599   3.713  16.790  0.7439  1.6108  1.5180
 2127SOL     OW17842   4.518   2.347  13.565  0.2237  0.3418 -0.9253
 2127SOL    HW117843   4.529   2.408  13.638  0.8234 -0.8364 -0.0191
 2127SOL    HW217844   4.546   2.406  13.495 -0.5809 -2.4149 -3.6101
 2128SOL     OW17845   0.221   3.093   8.195  0.9552  0.5783 -0.5054
 2128SOL    HW117846   0.159   3.084   8.267  1.2482 -0.0585 -0.3358
 2128SOL    HW217847   0.166   3.143   8.135  1.8692  3.2629  0.9126
 2129SOL     OW17848   1.915   3.778   5.029  0.3879  0.4242  0.6088
 2129SOL    HW117849   1.967   3.705   5.063 -0.4597 -0.2618  0.4621
 2129SOL    HW217850   1.932   3.851   5.088 -0.3128  1.0482  0.0344
 2130SOL     OW17851   0.421   0.311   2.196  0.3260  0.2612 -0.3567
 2130SOL    HW117852   0.451   0.252   2.265 -0.4555  2.5605  1.9349
 2130SOL    HW217853   0.336   0.273   2.172 -0.2941  0.3161  1.6937
 2131SOL     OW17854   2.043   3.634   1.286 -0.5848  0.1917  0.1682
 2131SOL    HW117855   1.987   3.580   1.341 -3.3927  1.9629 -0.9757
 2131SOL    HW217856   2.082   3.563   1.235 -1.5495  0.0766 -0.4010
 2132SOL     OW17857   2.210   3.244   2.423  0.6874 -0.3247  0.3996
 2132SOL    HW117858   2.144   3.312   2.438 -1.9189 -2.3953 -1.7362
 2132SOL    HW217859   2.252   3.282   2.347  1.3072 -0.1695  0.8229
 2133SOL     OW17860   3.952   3.458   9.164 -0.4096  0.1168  0.0018
 2133SOL    HW117861   3.864   3.447   9.199 -0.2236  0.7769  0.6876
 2133SOL    HW217862   3.985   3.369   9.172 -2.6864 -0.5780  1.8361
 2134SOL     OW17863   2.780   3.417   6.678  0.5292  0.2438 -0.6966
 2134SOL    HW117864   2.839   3.419   6.603 -1.3992 -0.5825 -2.2200
 2134SOL    HW217865   2.705   3.466   6.645 -1.1045  0.0723  2.7061
 2135SOL     OW17866   2.885   0.763   3.817 -0.2224 -0.4090  0.4817
 2135SOL    HW117867   2.949   0.818   3.864 -0.4392 -0.5068  0.8865
 2135SOL    HW217868   2.868   0.812   3.737  0.4100  0.1564  0.6870
 2136SOL     OW17869   3.204   0.478   3.879 -0.1079 -0.4531 -0.3752
 2136SOL    HW117870   3.273   0.533   3.842  0.9343 -2.0708 -0.8422
 2136SOL    HW217871   3.241   0.464   3.967  0.1288  0.1595 -0.3760
 2137SOL     OW17872   3.279   0.714   1.451 -0.0413  0.3757 -0.1312
 2137SOL    HW117873   3.315   0.630   1.479 -0.2347  0.5537  0.6731
 2137SOL    HW217874   3.328   0.728   1.371 -1.4779 -0.0756 -1.0891
 2138SOL     OW17875   2.501   3.832  11.848 -0.0070 -0.1777 -0.6130
 2138SOL    HW117876   2.420   3.791  11.818 -1.0893  1.2007  0.4115
 2138SOL    HW217877   2.524   3.886  11.772  0.7421 -0.8250 -0.8455
 2139SOL     OW17878   4.375   2.492   7.545 -0.4518  0.2669 -0.7082
 2139SOL    HW117879   4.413   2.567   7.499 -1.6136  0.7079 -0.9569
 2139SOL    HW217880   4.445   2.428   7.530 -0.2131  0.0412  1.4813
 2140SOL     OW17881   2.536   2.666   6.759  0.4155  0.1949 -0.4626
 2140SOL    HW117882   2.443   2.679   6.779  0.7291  1.6621 -0.0035
 2140SOL    HW217883   2.546   2.673   6.664  0.8422  2.6007 -0.2374
 2141SOL     OW17884   2.801   3.221   5.661  0.3132 -0.3849 -0.0344
 2141SOL    HW117885   2.765   3.133   5.666  0.2482 -0.4006 -0.8157
 2141SOL    HW217886   2.723   3.274   5.681  2.0782  2.2174 -0.0804
 2142SOL     OW17887   3.379   2.337  16.819  0.5271  0.7507 -0.0456
 2142SOL    HW117888   3.388   2.419  16.770 -1.6684  0.7129 -0.5545
 2142SOL    HW217889   3.470   2.310  16.812  0.4287  1.2830 -3.2657
 2143SOL     OW17890   2.536   2.795  15.894  0.5157  0.2978  0.3494
 2143SOL    HW117891   2.569   2.852  15.964  1.9233 -0.6936  0.4934
 2143SOL    HW217892   2.508   2.858  15.828 -0.8978 -0.2454  0.4419
 2144SOL     OW17893   4.047   3.709   1.413  0.0742 -0.2980 -0.2979
 2144SOL    HW117894   3.957   3.690   1.439 -0.7707  0.9889 -2.2749
 2144SOL    HW217895   4.032   3.798   1.380 -1.1141 -0.4553 -0.1656
 2145SOL     OW17896   4.325   3.833   3.899  0.1807  0.0357 -0.2505
 2145SOL    HW117897   4.263   3.761   3.913  2.5248 -2.0894 -0.9255
 2145SOL    HW217898   4.352   3.839   3.990  2.2592  1.1799 -0.9621
 2146SOL     OW17899   0.570   0.593   3.038  0.4293  0.2907 -0.1482
 2146SOL    HW117900   0.582   0.551   2.953  1.3572 -0.0833  0.1586
 2146SOL    HW217901   0.626   0.668   3.020  3.0436 -1.9443 -1.4767
 2147SOL     OW17902   0.573   4.554   8.561  0.2023  0.1247 -0.0052
 2147SOL    HW117903   0.514   4.490   8.519  1.0607 -0.2900 -0.5903
 2147SOL    HW217904   0.533   4.553   8.648  1.0870  0.4994  0.4029
 2148SOL     OW17905   0.733   1.370   7.786 -0.0038 -0.7830 -0.6599
 2148SOL    HW117906   0.743   1.278   7.764 -0.9946 -0.9397 -0.4233
 2148SOL    HW217907   0.640   1.388   7.794  0.4361  1.7717 -1.0135
 2149SOL     OW17908   1.635   3.038  15.504  0.7191 -0.4822 -0.0343
 2149SOL    HW117909   1.662   2.948  15.484  1.4152 -0.2901  0.0601
 2149SOL    HW217910   1.700   3.086  15.453 -0.3983 -1.3255 -2.2585
 2150SOL     OW17911   1.253   4.296   6.571 -0.0403 -0.3885 -0.2081
 2150SOL    HW117912   1.254   4.391   6.558 -1.4810 -0.3414  0.0465
 2150SOL    HW217913   1.195   4.275   6.498  0.9403 -3.2497 -0.1870
 2151SOL     OW17914   4.679   2.758   6.387 -0.9507 -0.3891  0.3959
 2151SOL    HW117915   0.011   2.721   6.320 -1.1584  0.6615 -0.3685
 2151SOL    HW217916   4.606   2.696   6.383 -0.9562 -0.3131 -0.7708
 2152SOL     OW17917   2.606   1.609   8.820 -0.3977  0.8539  0.0091
 2152SOL    HW117918   2.576   1.612   8.729 -1.7103 -0.5690  0.3968
 2152SOL    HW217919   2.540   1.658   8.870 -1.0999 -0.8885  0.7872
 2153SOL     OW17920   2.190   1.817   1.995  0.2904  0.4875  0.2108
 2153SOL    HW117921   2.243   1.890   2.028  0.9270  0.2396 -0.2726
 2153SOL    HW217922   2.101   1.844   2.018 -0.1565  0.1467 -1.1301
 2154SOL     OW17923   2.699   2.962   5.638  0.1121  0.3124 -0.1617
 2154SOL    HW117924   2.748   2.900   5.691  0.3223  0.2986 -0.3714
 2154SOL    HW217925   2.703   2.911   5.557  0.7409 -0.4913  0.3880
 2155SOL     OW17926   3.041   1.208   7.127 -0.2725 -0.1791 -0.2270
 2155SOL    HW117927   3.080   1.174   7.046  1.6606  0.9274  0.2404
 2155SOL    HW217928   3.108   1.272   7.147  0.3369 -0.8534 -0.0975
 2156SOL     OW17929   1.945   3.318   0.489 -0.6178  0.1648  0.3276
 2156SOL    HW117930   1.953   3.383   0.419 -0.7853 -0.0768  0.0806
 2156SOL    HW217931   1.849   3.322   0.493 -0.6894 -1.6072  0.1552
 2157SOL     OW17932   3.773   2.094   2.458 -0.5441  1.0773  0.0724
 2157SOL    HW117933   3.821   2.060   2.382  0.4321 -0.1104  1.2350
 2157SOL    HW217934   3.785   2.013   2.507  2.8112  1.1424 -0.6346
 2158SOL     OW17935   0.515   0.640   7.739  0.2392  0.0502  0.2205
 2158SOL    HW117936   0.551   0.557   7.773  1.2672  0.4548  0.1272
 2158SOL    HW217937   0.522   0.680   7.826 -1.6524  1.1227 -0.1171
 2159SOL     OW17938   1.273   1.223   1.663 -0.5654 -0.9052  0.1494
 2159SOL    HW117939   1.312   1.148   1.618 -1.7017 -0.4715 -1.5637
 2159SOL    HW217940   1.355   1.266   1.687  0.2446 -1.9300 -0.7475
 2160SOL     OW17941   3.007   1.236   2.262 -0.1779 -0.3096 -0.6470
 2160SOL    HW117942   2.985   1.154   2.307 -2.5925  0.3593 -0.5669
 2160SOL    HW217943   3.096   1.217   2.233 -1.1075 -0.9998 -3.0947
 2161SOL     OW17944   1.919   3.030  11.172  0.1175 -0.4600  0.4076
 2161SOL    HW117945   2.000   3.020  11.123  1.1837  0.8913  1.9197
 2161SOL    HW217946   1.937   3.082  11.250  0.2839 -0.0046  0.0591
 2162SOL     OW17947   4.099   0.469   8.672  0.1276  0.3668  0.1774
 2162SOL    HW117948   4.132   0.406   8.736  0.1416 -0.7358 -0.8981
 2162SOL    HW217949   4.055   0.527   8.733 -0.1609 -0.1052  0.4165
 2163SOL     OW17950   2.283   3.750   7.976  0.1749  0.3435 -0.0333
 2163SOL    HW117951   2.229   3.673   7.955  0.5612  0.1144 -0.1881
 2163SOL    HW217952   2.324   3.719   8.057  1.8154  1.7255 -0.3513
 2164SOL     OW17953   3.271   1.651   5.405  0.4832  0.0748 -0.0047
 2164SOL    HW117954   3.197   1.619   5.354 -0.7627  1.9760  0.5896
 2164SOL    HW217955   3.341   1.591   5.379 -0.6118 -0.6633 -1.2280
 2165SOL     OW17956   2.992   1.546  17.642 -0.2384  0.2017 -0.2199
 2165SOL    HW117957   3.036   1.506   0.015  1.0408  0.5449 -0.7770
 2165SOL    HW217958   2.915   1.489  17.640  0.8162 -1.2093 -0.1102
 2166SOL     OW17959   3.509   4.219   5.490 -0.4173 -0.8328 -0.5265
 2166SOL    HW117960   3.520   4.311   5.512 -1.2416 -0.7751 -0.3466
 2166SOL    HW217961   3.423   4.212   5.448 -1.2906 -1.1136  1.3073
 2167SOL     OW17962   1.199   4.706   2.826 -0.7080 -0.3229  0.6663
 2167SOL    HW117963   1.136   0.046   2.794  0.9559  1.3812  0.8625
 2167SOL    HW217964   1.158   4.627   2.792  0.8321 -1.3802  1.2880
 2168SOL     OW17965   2.924   3.611  14.492 -0.0231  0.8334  0.2352
 2168SOL    HW117966   2.968   3.664  14.425  0.9661 -0.2432  0.0346
 2168SOL    HW217967   2.842   3.659  14.501 -0.7593  0.0314 -2.0876
 2169SOL     OW17968   1.320   4.508   6.234  0.1460 -0.0522  0.3902
 2169SOL    HW117969   1.313   4.546   6.322  1.6932 -0.3957  0.6681
 2169SOL    HW217970   1.327   4.413   6.244 -1.3967 -0.0708  1.1820
 2170SOL     OW17971   2.565   1.841   8.303 -0.0935 -0.1043  0.0342
 2170SOL    HW117972   2.479   1.881   8.315 -0.7023 -0.7414 -2.4173
 2170SOL    HW217973   2.599   1.904   8.240 -2.3883  0.1494 -0.9630
 2171SOL     OW17974   1.836   1.485  11.608 -0.0875 -0.3733 -0.4006
 2171SOL    HW117975   1.890   1.465  11.685 -0.1940  2.6636  0.4814
 2171SOL    HW217976   1.823   1.580  11.606 -0.9493 -0.5065 -1.0309
 2172SOL     OW17977   3.436   4.575  13.224  0.2112  0.0066 -0.1313
 2172SOL    HW117978   3.528   4.565  13.248  0.0001 -2.5205 -0.4030
 2172SOL    HW217979   3.431   4.529  13.141 -0.5517 -2.9783  1.5954
 2173SOL     OW17980   1.203   2.766   3.161  0.4688  0.7165 -0.0601
 2173SOL    HW117981   1.206   2.846   3.213  0.3617  1.0618 -0.5871
 2173SOL    HW217982   1.157   2.791   3.081  1.9760 -1.1613 -1.5137
 2174SOL     OW17983   0.793   3.323   0.939  0.1889 -0.0985 -0.3003
 2174SOL    HW117984   0.879   3.355   0.969  0.0548  1.6252 -1.7455
 2174SOL    HW217985   0.733   3.396   0.955 -1.0830 -1.1887 -0.1705
 2175SOL     OW17986   1.635   4.580   9.207  0.5452  0.1523  0.1499
 2175SOL    HW117987   1.705   4.545   9.262  1.5356  1.9222  0.0140
 2175SOL    HW217988   1.628   4.513   9.138 -1.6237 -0.9197  1.4108
 2176SOL     OW17989   3.131   3.479   7.152 -0.2375  0.0664 -0.1903
 2176SOL    HW117990   3.180   3.558   7.131  2.4554 -1.5214  0.1643
 2176SOL    HW217991   3.042   3.510   7.137 -0.7558 -0.9610  0.7883
 2177SOL     OW17992   2.186   1.314   3.504  0.6383  0.4644  0.2247
 2177SOL    HW117993   2.138   1.258   3.443  0.8858  1.1051 -0.5620
 2177SOL    HW217994   2.271   1.270   3.498 -1.3070 -2.7555 -3.7182
 2178SOL     OW17995   0.750   2.346   5.553  0.1772  0.4292 -0.2067
 2178SOL    HW117996   0.832   2.322   5.511  0.2096  1.2826 -0.6374
 2178SOL    HW217997   0.693   2.275   5.523 -1.1902  1.5404 -0.2505
 2179SOL     OW17998   3.897   3.826   5.010  0.0510 -0.5078 -0.0314
 2179SOL    HW117999   3.876   3.781   4.929  1.8926 -0.9544 -0.2573
 2179SOL    HW218000   3.991   3.812   5.004  0.0873 -0.3815  0.2022
 2180SOL     OW18001   3.638   3.798   0.703  0.3366 -0.7131 -0.0018
 2180SOL    HW118002   3.732   3.798   0.719  0.7918 -3.3745 -2.7599
 2180SOL    HW218003   3.632   3.730   0.636 -2.0970  1.1875 -1.6830
 2181SOL     OW18004   2.132   4.514   6.187  0.0600  0.0992  0.1720
 2181SOL    HW118005   2.176   4.431   6.203  0.7549  1.0569  3.1139
 2181SOL    HW218006   2.047   4.481   6.217  0.9511 -1.2047  1.2318
 2182SOL     OW18007   4.211   1.464   9.165 -0.1767  0.0151 -0.2887
 2182SOL    HW118008   4.170   1.430   9.085 -0.1573 -0.9435  0.1094
 2182SOL    HW218009   4.155   1.536   9.193 -2.0940 -1.0052 -1.5101
 2183SOL     OW18010   1.212   0.765  17.305 -0.5155  0.6821  0.7788
 2183SOL    HW118011   1.217   0.773  17.400 -3.3287  1.1059  0.8800
 2183SOL    HW218012   1.232   0.850  17.265 -0.1681 -0.5129 -1.6241
 2184SOL     OW18013   4.199   1.537   5.254  0.2127 -0.0076  0.3231
 2184SOL    HW118014   4.231   1.577   5.335 -0.1834 -0.5496  0.7465
 2184SOL    HW218015   4.155   1.612   5.214  0.4893 -0.1527 -0.2566
 2185SOL     OW18016   1.625   1.646  12.478  0.1092  0.3888 -0.0640
 2185SOL    HW118017   1.718   1.630  12.489 -0.4169 -2.3593  0.4012
 2185SOL    HW218018   1.604   1.564  12.522 -0.1106  0.7088  0.4345
 2186SOL     OW18019   1.894   3.192   7.167  0.1545  0.1870 -0.3857
 2186SOL    HW118020   1.872   3.161   7.255 -0.6953  2.1849  0.1088
 2186SOL    HW218021   1.977   3.235   7.185  0.2020 -0.2892  0.5327
 2187SOL     OW18022   3.450   4.038   7.638  0.3015  0.3680  0.2005
 2187SOL    HW118023   3.458   3.975   7.566  0.6230  1.1662 -0.4633
 2187SOL    HW218024   3.356   4.053   7.645 -0.1975 -1.9806 -1.3391
 2188SOL     OW18025   4.108   1.809  12.924  0.2742  0.1217 -0.1676
 2188SOL    HW118026   4.022   1.788  12.960  0.4924 -3.7764 -1.8623
 2188SOL    HW218027   4.099   1.903  12.909 -1.0074 -0.2754 -1.8554
 2189SOL     OW18028   0.552   3.453   3.879 -0.2131  0.0267  0.5637
 2189SOL    HW118029   0.564   3.461   3.974  1.0789  1.2770  0.3044
 2189SOL    HW218030   0.628   3.504   3.850  0.3774  0.2044  2.3965
 2190SOL     OW18031   4.212   3.727   3.039 -0.0900 -0.1580 -0.3750
 2190SOL    HW118032   4.142   3.761   2.984  1.8503  0.2998 -2.5485
 2190SOL    HW218033   4.264   3.671   2.982  0.6636  1.4443 -1.2530
 2191SOL     OW18034   3.610   3.751   3.045 -0.0446  0.1137  0.4657
 2191SOL    HW118035   3.540   3.787   2.989  1.8583  1.1666 -1.2330
 2191SOL    HW218036   3.688   3.784   3.000 -1.6855  0.7593 -1.9596
 2192SOL     OW18037   4.230   3.584  16.261 -0.1339 -0.1340 -0.2898
 2192SOL    HW118038   4.322   3.558  16.265 -0.4691 -1.0092  1.9992
 2192SOL    HW218039   4.209   3.573  16.168 -0.9104 -0.1993 -0.1115
 2193SOL     OW18040   1.224   1.572   4.868 -0.1876 -0.2687  0.2921
 2193SOL    HW118041   1.195   1.580   4.778 -1.1396 -1.2276  0.5167
 2193SOL    HW218042   1.316   1.597   4.856 -0.6711  1.0006 -0.8019
 2194SOL     OW18043   1.702   0.922   3.275  0.3102 -0.1400 -0.2970
 2194SOL    HW118044   1.609   0.940   3.263  0.9242  2.7109 -0.7051
 2194SOL    HW218045   1.743   1.001   3.241  0.3386 -0.0644 -0.0876
 2195SOL     OW18046   0.012   0.364   6.278 -0.4168 -0.1956  0.0677
 2195SOL    HW118047   4.716   0.378   6.185  0.3893  0.6998  0.0203
 2195SOL    HW218048   0.070   0.434   6.308 -1.0842  0.3686  0.0477
 2196SOL     OW18049   1.209   0.917   2.919  0.8554 -0.2128  0.1258
 2196SOL    HW118050   1.169   0.917   3.007 -1.5978  0.6169 -0.9645
 2196SOL    HW218051   1.193   1.008   2.893  1.4613 -0.4302 -1.0000
 2197SOL     OW18052   3.648   0.118   4.065  0.3838  0.0183  0.0929
 2197SOL    HW118053   3.659   0.032   4.106 -1.4072  0.2892  1.1685
 2197SOL    HW218054   3.738   0.135   4.039  0.4125  1.1195  0.8897
 2198SOL     OW18055   4.394   0.190   7.658  0.1218 -0.1538  0.4307
 2198SOL    HW118056   4.412   0.140   7.737 -0.8532 -1.0966  0.0629
 2198SOL    HW218057   4.399   0.129   7.585  2.8451 -0.2541  0.7241
 2199SOL     OW18058   2.941   2.166   2.518 -0.2125  0.2614 -0.1397
 2199SOL    HW118059   3.002   2.209   2.459 -2.1330  1.5424 -1.2059
 2199SOL    HW218060   2.964   2.076   2.495  3.1541  1.5983 -1.9045
 2200SOL     OW18061   3.381   1.658   6.384 -0.1886 -0.3825 -0.7206
 2200SOL    HW118062   3.292   1.692   6.378 -0.6908 -1.8227 -1.4366
 2200SOL    HW218063   3.421   1.658   6.298  2.6651  0.9876  0.6079
 2201SOL     OW18064   1.429   0.773   5.495  0.0849  0.2074  0.4546
 2201SOL    HW118065   1.431   0.695   5.439 -1.5555 -0.2468  1.0055
 2201SOL    HW218066   1.350   0.756   5.547 -0.0967  1.6670  0.6514
 2202SOL     OW18067   3.400   3.502   8.034  0.4460  0.7095  0.7277
 2202SOL    HW118068   3.351   3.427   8.066  1.4428 -0.8356 -1.4195
 2202SOL    HW218069   3.462   3.494   8.107 -0.3443 -0.3349  1.2804
 2203SOL     OW18070   0.649   1.092   6.942  0.6363  0.1524 -0.1522
 2203SOL    HW118071   0.634   1.090   7.037 -0.1823  0.2593 -0.2851
 2203SOL    HW218072   0.711   1.021   6.925  0.9544  0.1772  0.8746
 2204SOL     OW18073   4.552   3.055   3.064  0.3347  0.3742  0.1515
 2204SOL    HW118074   4.516   3.144   3.065 -2.8128 -0.8921  0.0792
 2204SOL    HW218075   4.596   3.055   2.979 -0.7111  0.4009 -0.4014
 2205SOL     OW18076   1.393   0.058   9.730 -0.4396  0.5006  0.5269
 2205SOL    HW118077   1.409   4.705   9.784 -0.2660  1.3410  1.6967
 2205SOL    HW218078   1.485   0.077   9.713 -0.5733  1.5137  0.9385
 2206SOL     OW18079   2.463   2.228   8.545 -0.4772 -0.0415  0.1538
 2206SOL    HW118080   2.428   2.140   8.556 -1.3137 -0.0295 -2.3176
 2206SOL    HW218081   2.555   2.211   8.563 -0.3279  1.0211  0.3927
 2207SOL     OW18082   1.171   1.578  11.848  0.2908  0.1324  0.5362
 2207SOL    HW118083   1.207   1.517  11.784 -1.5923 -2.6076  2.0592
 2207SOL    HW218084   1.245   1.636  11.865 -0.1483  0.6399  0.7134
 2208SOL     OW18085   3.873   0.722  11.778  0.2344  0.4257 -0.3323
 2208SOL    HW118086   3.962   0.743  11.748 -1.6224  1.8789 -4.8903
 2208SOL    HW218087   3.881   0.633  11.743  0.9991  0.4593 -0.2482
 2209SOL     OW18088   3.682   4.662   7.494 -0.1842  0.6802  0.1812
 2209SOL    HW118089   3.651   0.023   7.467  1.3631  2.0248  2.7344
 2209SOL    HW218090   3.595   4.625   7.510 -0.6431  1.6780 -0.0313
 2210SOL     OW18091   2.319   2.752   5.417 -0.0449  0.1195 -0.0660
 2210SOL    HW118092   2.336   2.747   5.511  0.0777  1.1160 -0.0321
 2210SOL    HW218093   2.272   2.669   5.422  0.9892 -0.7038 -3.5347
 2211SOL     OW18094   0.831   2.450   1.591  0.7621  0.2081  0.0961
 2211SOL    HW118095   0.830   2.484   1.501  1.9602 -0.8104 -0.3142
 2211SOL    HW218096   0.738   2.450   1.613  0.5082  4.6073 -1.0021
 2212SOL     OW18097   3.707   0.802   3.445  0.0589  0.1033  0.4290
 2212SOL    HW118098   3.675   0.820   3.534  0.2714  1.0446  0.3144
 2212SOL    HW218099   3.634   0.832   3.391  0.4457  0.7372  0.2525
 2213SOL     OW18100   1.271   3.403   4.318 -0.7049 -0.3239 -0.3569
 2213SOL    HW118101   1.321   3.407   4.236  0.5819 -2.2285  0.3259
 2213SOL    HW218102   1.338   3.411   4.387  0.1332  0.1932 -1.2216
 2214SOL     OW18103   1.431   0.202   0.090  0.3324 -0.2947 -0.6315
 2214SOL    HW118104   1.482   0.282   0.101  0.5240 -0.4528 -0.3891
 2214SOL    HW218105   1.350   0.238   0.052 -0.4249 -0.9572  0.3445
 2215SOL     OW18106   2.950   4.284   2.585 -0.1559 -0.4682  0.2381
 2215SOL    HW118107   2.879   4.345   2.606 -0.9663 -1.2295 -0.3293
 2215SOL    HW218108   3.021   4.349   2.585  1.3682 -2.1355  1.3183
 2216SOL     OW18109   2.125   2.592   0.329 -0.4371 -0.3774 -0.2956
 2216SOL    HW118110   2.187   2.549   0.389  0.9456  1.6740 -0.2601
 2216SOL    HW218111   2.159   2.682   0.333  2.4109 -1.4410 -0.3369
 2217SOL     OW18112   4.539   1.486   2.072  0.0457  0.1958 -0.9561
 2217SOL    HW118113   4.633   1.472   2.079 -0.0084 -0.7974 -2.3560
 2217SOL    HW218114   4.511   1.395   2.060 -1.9962  0.6654  0.2571
 2218SOL     OW18115   3.650   4.371  13.080  0.1090 -0.2267 -0.1776
 2218SOL    HW118116   3.724   4.370  13.019 -0.9432  0.4993 -1.4733
 2218SOL    HW218117   3.697   4.329  13.151  1.3042  0.0065 -0.8254
 2219SOL     OW18118   0.019   1.786   7.791 -0.2655  0.6346 -0.5213
 2219SOL    HW118119   4.652   1.765   7.801  0.1123 -0.1253  1.3852
 2219SOL    HW218120   0.034   1.771   7.698  0.6331 -1.2943 -0.0580
 2220SOL     OW18121   3.614   3.927  10.650 -0.1102 -0.5728 -1.2196
 2220SOL    HW118122   3.549   3.903  10.584 -0.5662 -0.2024 -0.9113
 2220SOL    HW218123   3.681   3.964  10.593 -1.9424  0.2991 -2.8130
 2221SOL     OW18124   2.730   4.301   5.832  0.5085 -0.1902 -0.0813
 2221SOL    HW118125   2.760   4.306   5.922 -2.6211  1.1428  0.8868
 2221SOL    HW218126   2.763   4.385   5.802  2.1327 -1.2622 -1.3183
 2222SOL     OW18127   0.858   0.544   7.915 -0.0204  0.0506  0.1471
 2222SOL    HW118128   0.764   0.522   7.911 -0.0719  0.2028  0.4806
 2222SOL    HW218129   0.860   0.629   7.872  1.0311  0.8837  1.8230
 2223SOL     OW18130   4.013   4.214   0.902 -0.2251  0.2202  0.0927
 2223SOL    HW118131   4.062   4.139   0.935 -1.8192 -0.8390  0.0626
 2223SOL    HW218132   4.001   4.253   0.989 -5.1053  0.8309 -0.8654
 2224SOL     OW18133   3.999   4.639   4.911 -0.2551  0.4813 -0.0546
 2224SOL    HW118134   3.964   4.712   4.860 -0.5548 -0.7638 -1.6469
 2224SOL    HW218135   4.090   4.662   4.928 -0.7542  2.5411 -0.1472
 2225SOL     OW18136   2.315   3.121   7.676  0.2385 -0.7316 -0.0607
 2225SOL    HW118137   2.222   3.112   7.695 -0.0018  2.8398  0.4107
 2225SOL    HW218138   2.336   3.207   7.711 -2.8129  1.0103 -2.6461
 2226SOL     OW18139   2.614   3.464   3.948 -0.4397  0.2673  0.3611
 2226SOL    HW118140   2.547   3.449   4.014 -1.1014 -1.9489 -0.8213
 2226SOL    HW218141   2.587   3.394   3.889  2.1322  0.6215 -1.2195
 2227SOL     OW18142   1.772   3.456   8.380  0.8562 -0.2494  0.1170
 2227SOL    HW118143   1.702   3.517   8.403  0.5708 -1.2293  1.8026
 2227SOL    HW218144   1.777   3.389   8.447  0.9734  0.1135  0.4703
 2228SOL     OW18145   2.764   0.060   7.484  0.6434  0.2480  0.0939
 2228SOL    HW118146   2.764   0.087   7.392 -3.3495  0.1056  0.0688
 2228SOL    HW218147   2.851   0.095   7.508  0.3509  0.5012  0.7838
 2229SOL     OW18148   4.411   4.317   8.782 -0.4683  0.0917 -0.0637
 2229SOL    HW118149   4.439   4.347   8.869  0.6846 -2.0238  0.2968
 2229SOL    HW218150   4.485   4.349   8.731  1.1960 -2.2924  0.8513
 2230SOL     OW18151   0.711   1.314  13.753 -0.0288 -0.1373  0.9735
 2230SOL    HW118152   0.754   1.314  13.667 -0.1819 -1.0704  0.8963
 2230SOL    HW218153   0.635   1.371  13.740 -1.2273 -1.8634  0.4428
 2231SOL     OW18154   1.680   0.816  11.420  0.6007 -0.0457 -0.6048
 2231SOL    HW118155   1.732   0.833  11.341  0.9437  0.5063 -0.2584
 2231SOL    HW218156   1.635   0.738  11.387 -1.3439  0.7723  0.0707
 2232SOL     OW18157   1.834   2.620   7.604 -0.0148 -0.4673 -0.6579
 2232SOL    HW118158   1.784   2.586   7.679  2.4238  0.5310  1.4048
 2232SOL    HW218159   1.860   2.540   7.558 -1.1876 -2.4022  1.9757
 2233SOL     OW18160   1.529   1.718   3.190  0.1505  0.2045  0.7586
 2233SOL    HW118161   1.567   1.785   3.134  1.6873  0.9409  2.6570
 2233SOL    HW218162   1.439   1.718   3.158  0.8846 -2.2819 -1.2769
 2234SOL     OW18163   1.193   1.071   9.491  0.7159  0.0589 -0.3022
 2234SOL    HW118164   1.239   1.137   9.542  0.0511 -0.9546  1.5919
 2234SOL    HW218165   1.267   1.022   9.455  1.5032  0.7509  0.3885
 2235SOL     OW18166   0.755   1.145   4.862  0.0266  0.2513  0.0763
 2235SOL    HW118167   0.789   1.200   4.933  1.1960  2.0703 -1.9139
 2235SOL    HW218168   0.834   1.120   4.816 -0.6389  1.4618 -1.6890
 2236SOL     OW18169   3.714   3.726   5.181 -0.2947 -0.4692  0.5104
 2236SOL    HW118170   3.774   3.773   5.124 -0.0812 -1.3598 -0.0023
 2236SOL    HW218171   3.765   3.671   5.240  2.4993  1.5038 -0.0814
 2237SOL     OW18172   0.564   4.409   0.989  0.0656  0.0858  0.1976
 2237SOL    HW118173   0.536   4.500   0.980 -1.0111 -0.2678 -0.0643
 2237SOL    HW218174   0.618   4.401   0.911  1.4275  1.9819  0.9614
 2238SOL     OW18175   1.722   0.913   2.740 -0.1030 -0.1132 -0.7718
 2238SOL    HW118176   1.769   0.830   2.738 -1.5046 -0.9011 -1.4512
 2238SOL    HW218177   1.660   0.902   2.668 -0.6324  3.1149 -0.8246
 2239SOL     OW18178   2.768   3.776   8.763  0.4976  0.0541  0.8447
 2239SOL    HW118179   2.805   3.689   8.745  0.8483  0.6782 -1.4459
 2239SOL    HW218180   2.759   3.825   8.681  1.4543 -0.1641  0.6012
 2240SOL     OW18181   1.811   3.462  10.653 -0.1827 -0.0851 -0.0278
 2240SOL    HW118182   1.801   3.423  10.566  0.0376  3.9766 -1.9143
 2240SOL    HW218183   1.791   3.555  10.638  1.8508  0.2331 -0.7373
 2241SOL     OW18184   0.315   1.482   3.567 -0.6181 -0.2571  0.3395
 2241SOL    HW118185   0.293   1.573   3.589  2.2381  0.6591 -0.6891
 2241SOL    HW218186   0.338   1.493   3.475 -0.0271 -1.9252  0.2852
 2242SOL     OW18187   2.475   4.700   1.666 -0.2133 -0.0998 -0.0420
 2242SOL    HW118188   2.458   4.694   1.760 -0.8876 -2.3576 -0.3020
 2242SOL    HW218189   2.498   4.610   1.643 -0.3464  0.2916 -1.6840
 2243SOL     OW18190   1.000   3.277  16.264 -0.1012 -0.2154  0.2254
 2243SOL    HW118191   1.004   3.185  16.237  1.8573 -0.1292  0.2088
 2243SOL    HW218192   0.906   3.282  16.282  0.1221 -1.4825  1.7858
 2244SOL     OW18193   2.462   4.691   0.788  0.4298  0.4855  0.6372
 2244SOL    HW118194   2.554   4.669   0.772 -0.1615 -1.1054 -0.6016
 2244SOL    HW218195   2.412   4.614   0.760  1.4616 -0.0936  0.3976
 2245SOL     OW18196   3.962   3.069   8.081  0.2235  0.7074  0.5531
 2245SOL    HW118197   4.049   3.108   8.073  1.0425 -1.3148 -0.3906
 2245SOL    HW218198   3.914   3.124   8.019 -0.2228  0.5557  0.7672
 2246SOL     OW18199   4.031   0.348  13.366  0.3302  0.9681 -0.2675
 2246SOL    HW118200   4.016   0.419  13.428 -1.5022  1.8516 -1.7155
 2246SOL    HW218201   4.057   0.402  13.292  1.4825  1.4957  0.5213
 2247SOL     OW18202   4.396   2.624   4.620 -0.6865  0.1797  0.1217
 2247SOL    HW118203   4.335   2.639   4.548 -0.7653 -1.2229 -0.0987
 2247SOL    HW218204   4.445   2.547   4.592 -1.5334 -0.4463  0.3685
 2248SOL     OW18205   4.013   3.980   1.738  0.4361  0.4066 -0.3950
 2248SOL    HW118206   4.064   3.901   1.722  1.6205  1.0257  0.2913
 2248SOL    HW218207   3.953   3.980   1.663 -1.3083  0.9650  1.0022
 2249SOL     OW18208   4.711   1.994  14.537 -0.1870  0.1692  0.2935
 2249SOL    HW118209   0.011   1.997  14.630 -3.9531 -1.9842  1.3851
 2249SOL    HW218210   4.708   2.087  14.513  4.7453  0.3705  0.5346
 2250SOL     OW18211   0.910   2.194  14.318 -0.3284  0.3553  0.5823
 2250SOL    HW118212   0.989   2.157  14.358 -1.2643  0.0298  2.1372
 2250SOL    HW218213   0.852   2.124  14.289 -0.0055 -0.0883  1.0028
 2251SOL     OW18214   0.939   1.911  12.975 -0.4610 -0.0372  0.7467
 2251SOL    HW118215   0.955   1.905  12.881  0.2393  0.2919  0.8450
 2251SOL    HW218216   0.858   1.860  12.971  0.0334 -0.6170 -1.6078
 2252SOL     OW18217   4.090   2.424   1.705  0.0402  0.3228 -0.1072
 2252SOL    HW118218   4.103   2.475   1.625 -2.9889  1.2563  0.0218
 2252SOL    HW218219   4.022   2.474   1.750 -0.5909 -0.1951 -0.4891
 2253SOL     OW18220   3.954   2.433   6.161  0.0146 -0.6770 -0.4611
 2253SOL    HW118221   4.006   2.375   6.106  2.1767 -0.4477  1.3307
 2253SOL    HW218222   3.938   2.392   6.245  0.5613 -1.0957 -0.5603
 2254SOL     OW18223   4.554   2.507   5.719  0.4788 -0.0644  0.2963
 2254SOL    HW118224   4.592   2.593   5.738  1.8483 -0.8846  1.3141
 2254SOL    HW218225   4.626   2.463   5.674 -0.4155 -1.3543  0.1264
 2255SOL     OW18226   2.073   3.333   6.355 -0.3493 -0.0622  0.7066
 2255SOL    HW118227   2.108   3.419   6.378  0.4774 -0.7910  2.1239
 2255SOL    HW218228   2.041   3.361   6.268 -0.2891  0.3370  0.8120
 2256SOL     OW18229   4.180   3.256   2.062  0.0244  0.2045 -0.0044
 2256SOL    HW118230   4.190   3.240   2.156 -0.8868  0.5360  0.1455
 2256SOL    HW218231   4.104   3.198   2.060 -1.3580  2.0001  0.1036
 2257SOL     OW18232   0.359   4.074   8.225  0.2816  0.1419 -0.3959
 2257SOL    HW118233   0.383   3.983   8.207 -1.9765 -0.4659 -0.2700
 2257SOL    HW218234   0.268   4.070   8.197  0.5269  0.2067 -1.2137
 2258SOL     OW18235   3.088   4.170   1.437 -0.3002  0.2141  0.2733
 2258SOL    HW118236   3.104   4.088   1.388  0.4142 -0.6503  1.9493
 2258SOL    HW218237   2.995   4.174   1.415  0.3379 -0.5618 -2.6006
 2259SOL     OW18238   3.744   1.142   4.137  0.0950 -0.2553  0.2701
 2259SOL    HW118239   3.816   1.094   4.096  0.3844  1.4306 -1.2191
 2259SOL    HW218240   3.771   1.233   4.144 -2.1157  0.3237  1.2977
 2260SOL     OW18241   1.653   3.698   7.423 -0.1739 -0.2421 -0.6178
 2260SOL    HW118242   1.706   3.641   7.477  1.3766  1.9956  0.2291
 2260SOL    HW218243   1.594   3.636   7.379 -1.1247 -0.4478  0.9439
 2261SOL     OW18244   2.942   1.697   3.665  0.2471  0.4490 -0.5142
 2261SOL    HW118245   2.991   1.631   3.714 -0.3762  1.2296  1.1795
 2261SOL    HW218246   2.957   1.783   3.706  1.4313  0.7341 -1.5734
 2262SOL     OW18247   2.489   0.442   1.981 -0.3298  0.4194  0.2990
 2262SOL    HW118248   2.451   0.428   2.068  0.8189  0.3903  0.7943
 2262SOL    HW218249   2.413   0.433   1.924  2.3861 -1.0644 -3.0898
 2263SOL     OW18250   3.320   0.495  14.523 -0.2628  0.0310  0.3911
 2263SOL    HW118251   3.298   0.549  14.447 -0.7869 -1.8379 -0.7736
 2263SOL    HW218252   3.414   0.513  14.526 -0.1313 -0.4065 -1.2481
 2264SOL     OW18253   0.844   4.320  13.447 -0.0807 -0.0790  0.2921
 2264SOL    HW118254   0.847   4.343  13.354 -0.2265  1.5076  0.6692
 2264SOL    HW218255   0.849   4.225  13.440 -0.2448 -0.0869  0.2930
 2265SOL     OW18256   3.499   1.809   2.425  0.2437  0.4300 -0.0189
 2265SOL    HW118257   3.506   1.808   2.330  0.2884  0.9664 -0.0213
 2265SOL    HW218258   3.585   1.770   2.439  0.3082  0.5981  0.0444
 2266SOL     OW18259   1.062   0.326   9.374 -0.6564  0.5140 -1.2233
 2266SOL    HW118260   1.044   0.365   9.460 -0.1191  0.4316 -1.0760
 2266SOL    HW218261   1.153   0.301   9.387 -0.9597 -0.9589 -2.0055
 2267SOL     OW18262   0.003   2.081   4.921  0.4257  0.3188  0.2798
 2267SOL    HW118263   4.725   2.144   4.850 -0.9748  1.1029  1.0462
 2267SOL    HW218264   4.672   2.008   4.896  0.2017  0.2016  1.1069
 2268SOL     OW18265   0.878   0.596   3.807 -0.4396  0.4959 -0.3326
 2268SOL    HW118266   0.911   0.507   3.794 -1.0430  0.0425  1.2138
 2268SOL    HW218267   0.784   0.581   3.791 -0.4170 -0.9708  0.8367
 2269SOL     OW18268   2.836   2.048   3.448  0.2672 -0.9068  0.4015
 2269SOL    HW118269   2.881   2.039   3.363 -1.8496 -3.8811 -0.3869
 2269SOL    HW218270   2.820   1.954   3.456 -1.5956 -0.8039 -2.0776
 2270SOL     OW18271   2.160   4.690   0.260  0.8093  0.3890  0.2060
 2270SOL    HW118272   2.178   0.020   0.336  0.7487 -1.0717  1.2803
 2270SOL    HW218273   2.090   4.643   0.306  0.3766 -0.4607 -1.3405
 2271SOL     OW18274   3.486   2.109   8.349  0.0687 -0.0929 -0.2513
 2271SOL    HW118275   3.551   2.053   8.391  0.3220  0.9568  0.7713
 2271SOL    HW218276   3.414   2.046   8.357  0.9083 -1.2781 -2.0905
 2272SOL     OW18277   2.787   0.445   3.430  1.1348 -0.3771  0.1881
 2272SOL    HW118278   2.778   0.537   3.406 -0.3468 -0.1697  1.5573
 2272SOL    HW218279   2.882   0.449   3.423  1.1445  0.6108  0.9597
 2273SOL     OW18280   3.246   0.435  12.603 -0.2003 -0.5566 -0.0154
 2273SOL    HW118281   3.193   0.456  12.526  0.5598 -1.3331 -0.7531
 2273SOL    HW218282   3.205   0.352  12.627 -1.4598 -0.2278 -1.0126
 2274SOL     OW18283   2.147   4.038   5.597 -0.7595 -0.0856 -0.3128
 2274SOL    HW118284   2.162   3.993   5.680 -0.1233 -0.8066 -0.8232
 2274SOL    HW218285   2.182   3.978   5.531 -0.2994 -0.9771  0.7579
 2275SOL     OW18286   0.866   4.075  10.215 -0.5072  0.3312 -0.3145
 2275SOL    HW118287   0.846   3.981  10.215  1.0157  0.0169 -0.9580
 2275SOL    HW218288   0.792   4.107  10.164 -0.3547  0.3714 -0.5095
 2276SOL     OW18289   0.199   3.512   1.649  0.4135 -0.0052 -0.2632
 2276SOL    HW118290   0.142   3.588   1.663  0.1356 -0.4246  0.8376
 2276SOL    HW218291   0.145   3.433   1.645  0.7317 -0.2152 -0.4485
 2277SOL     OW18292   2.906   2.698  11.389 -0.6160 -0.1106 -0.6575
 2277SOL    HW118293   2.981   2.680  11.332  0.8923 -0.6384  1.5227
 2277SOL    HW218294   2.848   2.622  11.388  1.1863 -1.5240  1.9073
 2278SOL     OW18295   2.025   2.135  12.414 -0.0610 -0.0712 -0.2763
 2278SOL    HW118296   2.093   2.195  12.384 -1.6205  0.9906 -1.6555
 2278SOL    HW218297   2.038   2.063  12.353  2.1473  0.6609 -0.6417
 2279SOL     OW18298   0.829   0.970   5.649  0.1276  0.2540  0.1608
 2279SOL    HW118299   0.892   1.039   5.671  0.1172  0.4673 -0.4711
 2279SOL    HW218300   0.773   1.014   5.585 -0.9690  0.9498  1.5953
 2280SOL     OW18301   1.781   2.618   3.364  0.2886  0.0310 -0.3980
 2280SOL    HW118302   1.800   2.692   3.422  0.2597 -1.4058  1.4218
 2280SOL    HW218303   1.841   2.548   3.390  0.1307  0.5037  1.2087
 2281SOL     OW18304   0.265   2.450   6.637 -0.1007 -0.2948 -0.3768
 2281SOL    HW118305   0.251   2.362   6.672 -0.0029  1.1979  3.4186
 2281SOL    HW218306   0.359   2.467   6.646 -0.2941  1.8228 -2.3234
 2282SOL     OW18307   2.376   4.709   4.314 -0.3048  0.0912  0.1026
 2282SOL    HW118308   2.322   4.633   4.293  0.2128 -0.6690  1.5037
 2282SOL    HW218309   2.342   0.047   4.250  1.5364  1.2891  0.3155
 2283SOL     OW18310   0.635   2.816   6.898 -0.3840  0.2464  0.2982
 2283SOL    HW118311   0.642   2.904   6.935 -0.8001  0.2509  0.3747
 2283SOL    HW218312   0.724   2.802   6.867 -0.7148  1.0635 -1.0200
 2284SOL     OW18313   4.480   2.042  17.120  0.7768  0.4619 -0.2499
 2284SOL    HW118314   4.524   2.074  17.199 -1.3416 -1.3004  1.6514
 2284SOL    HW218315   4.466   2.123  17.072  2.6257  0.9593  0.0271
 2285SOL     OW18316   2.943   3.269   7.310  0.2491  0.2753 -1.0496
 2285SOL    HW118317   2.856   3.297   7.340 -0.5468 -2.1708 -1.0614
 2285SOL    HW218318   2.991   3.352   7.306 -0.5528  0.7468 -1.1106
 2286SOL     OW18319   4.335   3.491   5.371  0.6192  0.1055 -0.7743
 2286SOL    HW118320   4.366   3.566   5.319 -0.8474  1.5120  0.3629
 2286SOL    HW218321   4.373   3.516   5.455 -0.3722 -3.0590  0.6148
 2287SOL     OW18322   1.068   0.703  12.340 -0.4604 -0.0385 -0.2118
 2287SOL    HW118323   1.144   0.741  12.385 -1.5632  0.7592  0.9769
 2287SOL    HW218324   1.107   0.657  12.266  0.5628  1.0216 -0.3233
 2288SOL     OW18325   0.384   3.698   2.961  0.2996  0.0796  0.5435
 2288SOL    HW118326   0.376   3.615   2.913 -1.6316  1.3709 -1.3020
 2288SOL    HW218327   0.421   3.666   3.044 -1.1746 -1.9039  0.4445
 2289SOL     OW18328   0.624   4.641  11.992 -0.0834  0.2361  0.7213
 2289SOL    HW118329   0.560   4.572  12.010  1.9188 -1.8220 -0.0049
 2289SOL    HW218330   0.643   4.623  11.900 -1.7532  2.0896  0.0276
 2290SOL     OW18331   2.027   2.377  17.451 -0.4553 -0.2132  0.4122
 2290SOL    HW118332   2.010   2.470  17.464 -0.6882  0.0676 -1.9218
 2290SOL    HW218333   2.122   2.381  17.449 -0.5209  1.0870  0.1063
 2291SOL     OW18334   1.302   1.168  11.199 -1.2617 -0.3358  0.2763
 2291SOL    HW118335   1.340   1.229  11.136 -1.0144 -0.7825 -0.0036
 2291SOL    HW218336   1.259   1.108  11.138 -1.8538 -2.9261  3.2638
 2292SOL     OW18337   0.847   4.438  13.783  0.3713  0.0639 -0.3535
 2292SOL    HW118338   0.929   4.401  13.748 -0.1056 -1.6484  0.3517
 2292SOL    HW218339   0.792   4.365  13.755 -0.8333  1.2737 -1.1122
 2293SOL     OW18340   0.444   2.750   8.352  0.1082  0.5789 -0.2787
 2293SOL    HW118341   0.350   2.755   8.335  0.1221 -1.3238 -0.9182
 2293SOL    HW218342   0.480   2.677   8.301 -0.8938  0.8663 -1.4234
 2294SOL     OW18343   2.546   0.100  10.171  0.1177  0.4620 -0.3593
 2294SOL    HW118344   2.514   0.145  10.249  1.0568  1.7180 -0.6990
 2294SOL    HW218345   2.553   0.007  10.190  0.3377  0.1628 -1.9422
 2295SOL     OW18346   2.081   2.197   5.330  0.0308  0.0154 -0.0778
 2295SOL    HW118347   2.100   2.122   5.274 -2.8782 -1.0041  0.2882
 2295SOL    HW218348   1.994   2.175   5.365 -0.2940  0.4327 -0.6092
 2296SOL     OW18349   3.847   2.309   3.604 -0.1267  0.1798  0.2605
 2296SOL    HW118350   3.818   2.276   3.519  0.9895  0.7898 -0.3607
 2296SOL    HW218351   3.940   2.287   3.595 -0.3058 -1.0905  1.4361
 2297SOL     OW18352   3.687   1.838   4.116 -0.2787 -0.7273 -0.7934
 2297SOL    HW118353   3.694   1.929   4.087 -0.5396 -1.1588 -2.1870
 2297SOL    HW218354   3.724   1.787   4.044 -0.9133 -0.6990 -1.1483
 2298SOL     OW18355   1.164   3.766   5.910 -0.3027 -0.0758 -0.0077
 2298SOL    HW118356   1.071   3.758   5.935 -0.5773 -2.0857 -1.7060
 2298SOL    HW218357   1.153   3.790   5.818  0.8561  1.5235  0.2658
 2299SOL     OW18358   3.744   1.670   5.786 -0.0228  0.4174  0.6754
 2299SOL    HW118359   3.678   1.738   5.798 -1.2089 -0.1562 -2.5606
 2299SOL    HW218360   3.785   1.708   5.708 -1.5374 -0.7837 -0.7171
 2300SOL     OW18361   4.121   2.794   2.409  0.5084 -0.3290  0.3103
 2300SOL    HW118362   4.138   2.714   2.359  2.2699  0.3809 -0.2229
 2300SOL    HW218363   4.167   2.859   2.356 -0.6088  1.9333  2.1540
 2301SOL     OW18364   4.160   2.196  12.277 -0.0368 -0.9353 -0.4046
 2301SOL    HW118365   4.201   2.203  12.363 -2.4525 -1.8747  0.8276
 2301SOL    HW218366   4.235   2.148  12.242 -1.6397 -1.9074 -2.4881
 2302SOL     OW18367   2.591   3.611   8.388 -0.7114 -0.0314 -0.1365
 2302SOL    HW118368   2.550   3.607   8.474  2.0435 -2.2662  1.1046
 2302SOL    HW218369   2.575   3.519   8.366  0.7008 -0.8976  2.2921
 2303SOL     OW18370   1.346   1.965   3.096  0.2560 -0.1706  0.2769
 2303SOL    HW118371   1.407   1.968   3.023 -1.5165 -0.9607 -1.2446
 2303SOL    HW218372   1.301   2.050   3.095 -0.4077 -0.5116  0.6175
 2304SOL     OW18373   0.418   1.569   2.836  0.3075  0.3958  0.4314
 2304SOL    HW118374   0.375   1.515   2.903 -0.3101 -0.2051 -0.4465
 2304SOL    HW218375   0.355   1.584   2.765  1.2472  1.3225 -0.2113
 2305SOL     OW18376   0.554   3.234   5.438  0.1044  0.3981  0.0019
 2305SOL    HW118377   0.647   3.221   5.419  0.0178  1.5059 -1.1989
 2305SOL    HW218378   0.524   3.153   5.398 -1.6199  1.4627 -0.8754
 2306SOL     OW18379   4.229   2.758   8.926 -0.3979 -0.0423  0.0853
 2306SOL    HW118380   4.292   2.697   8.963 -2.1162 -2.3993 -0.8768
 2306SOL    HW218381   4.150   2.717   8.961 -1.1499 -0.0763 -1.6408
 2307SOL     OW18382   1.629   3.890   0.426  0.0001 -0.0366 -0.1968
 2307SOL    HW118383   1.538   3.910   0.447 -0.0573 -0.1369 -0.3474
 2307SOL    HW218384   1.627   3.889   0.330 -1.3657  0.2946 -0.1651
 2308SOL     OW18385   2.559   0.814   3.503 -0.2094  0.4138  0.2018
 2308SOL    HW118386   2.572   0.739   3.561  0.8058 -0.1337 -0.7458
 2308SOL    HW218387   2.476   0.785   3.465  0.1244 -0.4056  0.0934
 2309SOL     OW18388   0.654   4.455   7.315 -0.1679 -0.4675 -0.0238
 2309SOL    HW118389   0.610   4.502   7.385 -0.6431  1.0391 -1.3356
 2309SOL    HW218390   0.589   4.459   7.245  0.5976  0.0728 -0.7166
 2310SOL     OW18391   2.733   3.046   1.491  0.4232 -0.1710  0.3808
 2310SOL    HW118392   2.655   3.021   1.542  0.2776  1.8854  1.1525
 2310SOL    HW218393   2.695   3.129   1.462 -0.5760 -0.0769  1.9261
 2311SOL     OW18394   3.474   4.173   9.762  0.3679  0.5590 -0.3775
 2311SOL    HW118395   3.543   4.117   9.797  1.2483  0.8122 -1.6870
 2311SOL    HW218396   3.520   4.257   9.763  1.2356  0.0652  1.2112
 2312SOL     OW18397   1.297   3.686   0.435  0.0057 -0.3909 -0.3230
 2312SOL    HW118398   1.266   3.756   0.378 -0.1442 -0.4329 -0.2919
 2312SOL    HW218399   1.231   3.617   0.430 -2.6488  1.9669  1.9252
 2313SOL     OW18400   0.129   2.611   6.213  0.0147  0.2358 -0.3938
 2313SOL    HW118401   0.090   2.535   6.257  0.6708  0.8644  1.3004
 2313SOL    HW218402   0.208   2.576   6.173  0.5956 -1.2717  2.0334
 2314SOL     OW18403   0.415   0.286   9.879 -0.1283  0.2401  0.0047
 2314SOL    HW118404   0.336   0.233   9.891 -0.5233  1.1080  1.1877
 2314SOL    HW218405   0.375   0.339   9.811 -0.2956  0.5488  0.3433
 2315SOL     OW18406   3.968   2.147   0.703 -0.2872  0.2993 -0.6195
 2315SOL    HW118407   3.990   2.170   0.793  0.2806  0.8047 -0.8903
 2315SOL    HW218408   4.041   2.093   0.672 -0.3995  0.2066 -0.7198
 2316SOL     OW18409   1.585   2.831   5.846  0.4028  0.1852 -0.7836
 2316SOL    HW118410   1.525   2.881   5.790  1.2573  0.4912 -1.4210
 2316SOL    HW218411   1.600   2.750   5.797  1.6869 -0.1881  0.2422
 2317SOL     OW18412   3.047   3.893   1.338  0.1564 -0.0394 -0.1412
 2317SOL    HW118413   3.090   3.808   1.333 -2.1604 -1.2988  1.2658
 2317SOL    HW218414   3.084   3.941   1.264 -1.3403  0.0855 -0.8117
 2318SOL     OW18415   2.377   4.080   1.528  0.4357 -0.5894  0.0266
 2318SOL    HW118416   2.297   4.042   1.563  0.8932 -1.7919 -0.2321
 2318SOL    HW218417   2.352   4.088   1.436  1.2352 -0.6516 -0.1954
 2319SOL     OW18418   1.846   1.836   5.188  0.5304 -0.0325 -0.4830
 2319SOL    HW118419   1.906   1.802   5.254 -0.7732  1.2879  1.3785
 2319SOL    HW218420   1.854   1.757   5.135 -0.2672 -0.0156 -0.6343
 2320SOL     OW18421   0.856   0.455   4.905  0.7207 -0.8122 -0.1819
 2320SOL    HW118422   0.803   0.521   4.861  1.2107 -0.0524  0.3470
 2320SOL    HW218423   0.806   0.376   4.885 -3.1199  1.8973 -1.2208
 2321SOL     OW18424   2.929   0.235  14.190  0.5929  0.3549  0.1501
 2321SOL    HW118425   2.871   0.274  14.124  1.9855  2.3482  0.1331
 2321SOL    HW218426   2.894   0.280  14.267  2.7706  0.7910  0.8809
 2322SOL     OW18427   2.071   4.008   8.325 -0.1559 -0.6362 -0.6640
 2322SOL    HW118428   2.107   4.093   8.353  0.0258 -0.9571  0.0768
 2322SOL    HW218429   2.142   3.946   8.343 -1.3020 -1.6147  0.4005
 2323SOL     OW18430   0.914   1.395  13.162 -0.3946  0.3177 -0.2377
 2323SOL    HW118431   0.976   1.432  13.099  1.6441 -1.5628  0.6982
 2323SOL    HW218432   0.969   1.323  13.190 -0.8881  0.6585  1.5840
 2324SOL     OW18433   0.291   2.640   8.019  0.2023 -0.0684  0.0179
 2324SOL    HW118434   0.238   2.575   8.064  0.4883  0.5900  1.2921
 2324SOL    HW218435   0.281   2.622   7.925  3.5128  0.4323 -0.4189
 2325SOL     OW18436   3.790   3.173   0.648 -0.2143  0.0099 -0.0602
 2325SOL    HW118437   3.792   3.238   0.577  3.9461 -0.1102 -0.0258
 2325SOL    HW218438   3.790   3.091   0.598 -2.5791  0.2646 -0.4750
 2326SOL     OW18439   4.443   3.587   4.725 -0.0100 -0.1220 -0.8770
 2326SOL    HW118440   4.395   3.522   4.672 -2.7000 -0.6453  2.2040
 2326SOL    HW218441   4.409   3.555   4.808  1.5477  2.0491  0.5799
 2327SOL     OW18442   2.276   0.703   5.814 -0.8425  0.4525 -0.0896
 2327SOL    HW118443   2.299   0.646   5.887  0.6058  1.1459 -0.0154
 2327SOL    HW218444   2.187   0.676   5.790 -0.0668 -0.9868 -1.3497
 2328SOL     OW18445   1.661   1.305   8.950  0.1544 -0.1309 -0.2435
 2328SOL    HW118446   1.597   1.367   8.986  1.3883  1.0104 -0.0364
 2328SOL    HW218447   1.699   1.290   9.037 -1.9809  1.6941  1.0188
 2329SOL     OW18448   1.255   0.037   9.176 -0.0537  0.1882 -0.0690
 2329SOL    HW118449   1.254   0.084   9.259 -0.1196 -1.9832  1.1717
 2329SOL    HW218450   1.164   0.049   9.147 -1.3364 -3.8692  2.2591
 2330SOL     OW18451   1.532   2.563   3.004 -0.1507  0.2869  0.3569
 2330SOL    HW118452   1.442   2.542   3.029 -0.2165  1.8943  1.4727
 2330SOL    HW218453   1.545   2.627   3.074 -0.8712 -2.1840  2.7544
 2331SOL     OW18454   0.521   1.706  12.795  0.0770  0.4754  0.8480
 2331SOL    HW118455   0.585   1.635  12.788 -0.4656 -0.0457  1.1318
 2331SOL    HW218456   0.577   1.783  12.787  0.3158  0.0954 -1.1080
 2332SOL     OW18457   2.591   4.378   4.265  0.0062  0.3349 -0.2566
 2332SOL    HW118458   2.623   4.390   4.354 -1.1093  0.1083  0.1802
 2332SOL    HW218459   2.578   4.283   4.274 -1.2174  0.5181 -0.1273
 2333SOL     OW18460   0.491   4.327   3.732  0.2544  0.1563  0.4115
 2333SOL    HW118461   0.539   4.391   3.784  0.9859  0.3456 -0.4857
 2333SOL    HW218462   0.551   4.317   3.658 -0.3925 -0.4992 -0.0223
 2334SOL     OW18463   1.814   1.353   4.336 -0.5053  0.1781  0.3168
 2334SOL    HW118464   1.831   1.297   4.261  0.2762  1.5395 -0.5089
 2334SOL    HW218465   1.719   1.361   4.338 -0.8521 -3.4551 -0.8571
 2335SOL     OW18466   3.337   2.856  17.565 -0.5162  0.2222  0.1733
 2335SOL    HW118467   3.336   2.765  17.593 -1.0138 -0.0919 -0.8698
 2335SOL    HW218468   3.361   2.902  17.645  4.5293  0.3618 -1.3933
 2336SOL     OW18469   1.016   1.065  14.257  0.3574  0.4750 -0.0070
 2336SOL    HW118470   1.072   1.051  14.181  0.1182 -0.5906  0.0120
 2336SOL    HW218471   1.070   1.052  14.334  1.0043  0.1542 -0.5148
 2337SOL     OW18472   3.892   0.979   6.838 -0.4477  0.1574 -0.5307
 2337SOL    HW118473   3.841   1.024   6.905  0.0398  0.5586 -0.4283
 2337SOL    HW218474   3.976   1.018   6.864  0.8738 -2.1906 -1.2858
 2338SOL     OW18475   4.131   4.009   5.502  0.8281 -0.0005 -0.2988
 2338SOL    HW118476   4.202   4.000   5.565  0.8794 -3.0392 -0.7923
 2338SOL    HW218477   4.099   3.918   5.501  2.1177 -0.5174  2.7380
 2339SOL     OW18478   0.012   3.987   0.733  0.2104 -0.2967  0.1464
 2339SOL    HW118479   4.704   3.914   0.785 -0.6521 -0.9226 -1.2754
 2339SOL    HW218480   4.661   4.045   0.734  2.3260  2.4691  1.7362
 2340SOL     OW18481   3.770   2.804  12.927 -0.8864 -0.5265  0.4653
 2340SOL    HW118482   3.734   2.831  12.843 -0.6444  0.0883  0.5579
 2340SOL    HW218483   3.861   2.776  12.916 -0.7064 -1.3557  3.8298
 2341SOL     OW18484   1.299   4.615   6.465  0.0180 -0.1669  0.0122
 2341SOL    HW118485   1.342   4.693   6.500 -2.9346  2.1118 -1.4563
 2341SOL    HW218486   1.210   4.624   6.498  0.3151  1.1755  0.4250
 2342SOL     OW18487   1.409   1.557   2.094 -0.0925 -0.6119 -0.3143
 2342SOL    HW118488   1.489   1.512   2.067  1.4657  1.7113  0.4124
 2342SOL    HW218489   1.343   1.513   2.040  0.7876  1.5396 -3.1513
 2343SOL     OW18490   0.800   1.968  15.859 -0.1501 -0.0255  0.1127
 2343SOL    HW118491   0.828   2.003  15.774 -1.0801 -0.2808 -0.2999
 2343SOL    HW218492   0.775   2.041  15.915  1.1352  1.3518 -1.0902
 2344SOL     OW18493   4.144   0.475   9.286 -0.4768  0.4703  0.2995
 2344SOL    HW118494   4.093   0.449   9.363 -2.2105 -0.0703 -1.0308
 2344SOL    HW218495   4.130   0.400   9.229  0.3375  0.6954 -0.2029
 2345SOL     OW18496   4.167   3.355  11.917  0.2961 -0.0053 -0.4006
 2345SOL    HW118497   4.258   3.326  11.917  0.3438  0.1490 -0.0733
 2345SOL    HW218498   4.133   3.342  12.005 -1.5741  0.3177 -1.0778
 2346SOL     OW18499   1.451   3.715   3.912 -0.8351  0.3525 -0.4662
 2346SOL    HW118500   1.474   3.760   3.994 -3.3194  0.9645 -0.1165
 2346SOL    HW218501   1.502   3.768   3.851  0.6483 -1.7299 -1.0291
 2347SOL     OW18502   1.617   2.503   2.760 -0.1467  0.4227 -0.3705
 2347SOL    HW118503   1.588   2.523   2.848  0.6032 -2.6508  0.5735
 2347SOL    HW218504   1.658   2.416   2.757 -0.7864  0.1809 -1.9600
 2348SOL     OW18505   3.330   1.619  12.055  0.0326 -0.1276  0.5569
 2348SOL    HW118506   3.289   1.575  12.129  0.1295 -1.3546 -0.1277
 2348SOL    HW218507   3.407   1.564  12.040 -1.4745 -2.6738  2.3436
 2349SOL     OW18508   1.854   4.144  15.515  0.2137  0.0968 -0.6323
 2349SOL    HW118509   1.914   4.219  15.507  1.7421 -0.9175  1.2376
 2349SOL    HW218510   1.772   4.191  15.532  0.0637 -0.6195  0.6421
 2350SOL     OW18511   3.571   3.158   7.263 -0.3108  0.3936 -0.1968
 2350SOL    HW118512   3.479   3.177   7.280 -0.0955  0.8903  0.3798
 2350SOL    HW218513   3.566   3.109   7.181 -2.4888  0.4222 -0.0716
 2351SOL     OW18514   2.232   3.749   3.971 -0.6652 -0.2770  0.9615
 2351SOL    HW118515   2.310   3.793   3.939 -0.2859 -1.7678 -0.1426
 2351SOL    HW218516   2.185   3.832   3.982 -0.6712  0.0953 -1.8089
 2352SOL     OW18517   4.196   2.943   3.435  0.6170  0.7023 -0.1532
 2352SOL    HW118518   4.233   2.958   3.522 -0.2743  2.9381 -0.1365
 2352SOL    HW218519   4.247   3.012   3.392  0.5837 -0.7618 -2.5199
 2353SOL     OW18520   4.287   0.702   9.431 -0.2626 -0.1629  0.3826
 2353SOL    HW118521   4.333   0.769   9.379  0.1377 -1.3065 -0.7510
 2353SOL    HW218522   4.232   0.669   9.360 -0.5015  1.5148 -0.2153
 2354SOL     OW18523   3.457   3.067   5.447 -0.2144  0.0958  0.2561
 2354SOL    HW118524   3.409   3.054   5.365 -3.0392  1.7100  1.6508
 2354SOL    HW218525   3.416   3.011   5.513 -1.8255  2.5235  1.3141
 2355SOL     OW18526   0.699   2.449   4.914  0.5797 -0.1590 -0.6007
 2355SOL    HW118527   0.671   2.411   4.831  0.0423  0.5009 -0.7247
 2355SOL    HW218528   0.616   2.491   4.937  1.0654  0.1642  0.5434
 2356SOL     OW18529   3.460   3.674  10.231  0.5485 -0.1862 -0.6772
 2356SOL    HW118530   3.504   3.594  10.262 -1.0400 -0.5185  0.7206
 2356SOL    HW218531   3.449   3.662  10.137  1.8657 -1.1075 -0.7193
 2357SOL     OW18532   3.535   3.488   7.281 -0.0354  0.0198 -0.1020
 2357SOL    HW118533   3.594   3.486   7.357  0.7877  2.9447 -0.6723
 2357SOL    HW218534   3.564   3.575   7.254  2.2657 -0.9108 -0.6251
 2358SOL     OW18535   1.616   1.120   4.530  0.2743 -0.1569  0.4655
 2358SOL    HW118536   1.554   1.052   4.556 -1.0909  0.4821 -1.0889
 2358SOL    HW218537   1.698   1.075   4.509 -0.2125 -0.5362 -0.6232
 2359SOL     OW18538   4.250   1.560   2.646  0.0238  0.6713  0.1489
 2359SOL    HW118539   4.191   1.538   2.574  1.7251 -1.0065 -0.7119
 2359SOL    HW218540   4.256   1.653   2.622  1.3520  0.2345 -1.1760
 2360SOL     OW18541   2.972   4.477   7.439 -0.5634 -0.3059  0.9608
 2360SOL    HW118542   2.911   4.459   7.368  1.2888  1.0374 -0.9327
 2360SOL    HW218543   2.906   4.493   7.507 -2.7865  0.5595 -1.3993
 2361SOL     OW18544   2.259   3.450  17.000  0.3836  0.5595  0.1354
 2361SOL    HW118545   2.344   3.442  17.043 -0.2260  0.5932  1.3510
 2361SOL    HW218546   2.213   3.380  17.046  0.1025 -0.6246 -1.9467
 2362SOL     OW18547   4.117   2.631   4.754  0.6325  0.6380  0.1539
 2362SOL    HW118548   4.076   2.579   4.685  2.1154 -1.3428  0.7589
 2362SOL    HW218549   4.170   2.695   4.707  0.0572 -0.0153 -1.3776
 2363SOL     OW18550   4.048   2.581   0.079 -0.0355 -0.5864 -0.0107
 2363SOL    HW118551   4.034   2.641   0.005 -0.9866 -0.9182 -0.1034
 2363SOL    HW218552   4.139   2.561   0.058 -0.1305 -0.1079 -0.9066
 2364SOL     OW18553   3.780   0.698   7.519 -0.0753  0.2304  0.1743
 2364SOL    HW118554   3.783   0.689   7.614 -1.2798  0.9156  0.2766
 2364SOL    HW218555   3.805   0.610   7.493 -3.0229 -0.1327 -1.4033
 2365SOL     OW18556   1.278   2.698  12.105  1.1590 -0.3619  0.1902
 2365SOL    HW118557   1.192   2.709  12.145  0.7606 -5.5508  0.7759
 2365SOL    HW218558   1.334   2.683  12.181  2.6678 -0.4059 -0.9132
 2366SOL     OW18559   1.470   4.176   9.558 -0.4228 -0.1309 -0.1153
 2366SOL    HW118560   1.505   4.253   9.512  0.9104  0.0219  1.1620
 2366SOL    HW218561   1.539   4.173   9.624 -1.0796 -0.2262  0.5586
 2367SOL     OW18562   1.141   0.742   5.601  0.5032 -0.1080  0.6417
 2367SOL    HW118563   1.092   0.663   5.580  2.7030 -1.4278  0.4724
 2367SOL    HW218564   1.108   0.798   5.531  2.0920  0.0798  0.0431
 2368SOL     OW18565   2.882   3.767   2.766 -0.1368  0.0622 -0.4185
 2368SOL    HW118566   2.816   3.822   2.724 -2.9635 -1.5349  1.8910
 2368SOL    HW218567   2.960   3.813   2.737  0.1479  0.0558  0.3339
 2369SOL     OW18568   1.678   0.951   3.576  0.0781 -0.0419 -0.0336
 2369SOL    HW118569   1.646   0.862   3.562  1.7761 -0.8468  1.1526
 2369SOL    HW218570   1.722   0.969   3.493  0.4637  0.8374  0.3621
 2370SOL     OW18571   3.394   0.397  12.295 -0.4550 -0.2105  0.5589
 2370SOL    HW118572   3.452   0.465  12.261  0.5637 -1.2953  0.1052
 2370SOL    HW218573   3.316   0.451  12.306  1.2930  2.8854 -2.0858
 2371SOL     OW18574   2.099   4.695   4.066  0.0148 -0.4619  0.1178
 2371SOL    HW118575   2.023   4.701   4.124  1.4508  0.4804  1.8904
 2371SOL    HW218576   2.135   4.616   4.107 -1.5248 -1.4771 -0.5027
 2372SOL     OW18577   4.687   2.762   9.745  0.4816 -0.3525 -0.1337
 2372SOL    HW118578   4.666   2.689   9.687  0.5701 -1.3347  1.0734
 2372SOL    HW218579   4.723   2.822   9.680  0.0513 -0.1913 -0.2216
 2373SOL     OW18580   1.555   0.087   2.603  0.1966 -0.8432 -0.2749
 2373SOL    HW118581   1.466   0.061   2.580 -0.4898  1.3403 -0.0480
 2373SOL    HW218582   1.554   0.085   2.699  1.9044  1.3452 -0.2081
 2374SOL     OW18583   4.479   1.575   4.398  0.1417  0.1202 -1.1938
 2374SOL    HW118584   4.413   1.615   4.342 -0.0384  1.1184 -0.2626
 2374SOL    HW218585   4.463   1.618   4.482  1.5009 -1.2120 -0.2467
 2375SOL     OW18586   4.358   3.221   5.877 -0.0022  0.4839  0.1327
 2375SOL    HW118587   4.311   3.247   5.798  0.6676  0.5727 -0.2409
 2375SOL    HW218588   4.434   3.279   5.879  0.5962 -0.3266  1.0951
 2376SOL     OW18589   2.947   1.997  12.920  0.0658 -0.1361 -0.0714
 2376SOL    HW118590   2.965   2.087  12.950 -0.8069  0.2012 -0.5763
 2376SOL    HW218591   3.013   1.991  12.851 -0.9665  3.8015 -1.4031
 2377SOL     OW18592   3.358   3.323   7.697  0.1670  0.1264 -0.0206
 2377SOL    HW118593   3.411   3.256   7.741  0.4616  0.1104 -0.4065
 2377SOL    HW218594   3.298   3.342   7.770 -1.1212  1.2842 -1.3796
 2378SOL     OW18595   0.044   3.324   4.171  0.1375  0.0790  0.1891
 2378SOL    HW118596   4.677   3.333   4.194  0.3904 -0.6849  1.4826
 2378SOL    HW218597   0.041   3.341   4.077 -1.4586  1.7744  0.5545
 2379SOL     OW18598   0.770   2.135   4.773  0.4193 -0.1609 -0.5783
 2379SOL    HW118599   0.769   2.059   4.715  0.9481 -0.8487  0.3209
 2379SOL    HW218600   0.777   2.204   4.707 -1.6166 -0.4696 -1.1122
 2380SOL     OW18601   1.280   4.029  13.830  0.0584 -0.2270 -0.1552
 2380SOL    HW118602   1.210   4.054  13.769  0.6159  1.7219  0.0207
 2380SOL    HW218603   1.260   4.074  13.912  1.1162  0.2684 -0.1806
 2381SOL     OW18604   3.168   3.498  10.179 -0.1920  0.0927 -0.4072
 2381SOL    HW118605   3.236   3.449  10.133 -1.3930 -0.5998 -1.4652
 2381SOL    HW218606   3.107   3.428  10.205  0.9362 -0.4234  0.8496
 2382SOL     OW18607   1.626   4.201   0.481  0.4615 -0.0128  0.3923
 2382SOL    HW118608   1.553   4.144   0.500  1.9547 -1.3692  2.0948
 2382SOL    HW218609   1.586   4.253   0.412  0.4573  0.3574  0.6702
 2383SOL     OW18610   1.499   3.124   8.828 -0.1249  0.4682 -0.1764
 2383SOL    HW118611   1.519   3.052   8.888  0.6472  1.8856  1.2872
 2383SOL    HW218612   1.512   3.191   8.896  0.9057 -2.1759  2.2228
 2384SOL     OW18613   2.178   1.535   5.177  0.1263 -0.0884  0.0507
 2384SOL    HW118614   2.163   1.560   5.268 -0.8606  2.3404 -0.7622
 2384SOL    HW218615   2.273   1.528   5.178 -0.0833 -2.8375  0.0153
 2385SOL     OW18616   4.426   2.595   8.040 -0.2971 -0.0221 -0.1426
 2385SOL    HW118617   4.441   2.515   8.092 -3.7108 -1.4699 -1.4122
 2385SOL    HW218618   4.419   2.564   7.950 -0.3091  0.4730 -0.3125
 2386SOL     OW18619   0.175   2.952   2.727  0.1501 -0.3435 -0.5455
 2386SOL    HW118620   0.184   3.043   2.699  2.1210 -0.8311 -1.4708
 2386SOL    HW218621   0.264   2.938   2.760  0.4590  0.0648 -1.1930
 2387SOL     OW18622   2.423   2.782  12.875  0.5078 -0.3602 -0.2280
 2387SOL    HW118623   2.480   2.856  12.855 -0.1816  0.2926  0.2143
 2387SOL    HW218624   2.399   2.759  12.785 -0.5233 -2.0942  0.4933
 2388SOL     OW18625   4.225   3.589   3.959  0.3428  0.0637  0.1257
 2388SOL    HW118626   4.158   3.568   4.024 -0.8552  1.3464 -0.6747
 2388SOL    HW218627   4.293   3.526   3.982 -1.7491 -2.0485  0.6359
 2389SOL     OW18628   1.032   3.384   7.638 -0.4611  0.4737  0.4220
 2389SOL    HW118629   0.986   3.317   7.588 -1.2489  1.1329  0.2521
 2389SOL    HW218630   0.961   3.442   7.666 -0.3821  0.9553 -0.3618
 2390SOL     OW18631   3.800   3.001  13.627  0.1261 -0.7551  0.0226
 2390SOL    HW118632   3.877   2.975  13.575  0.6860  0.0924  0.4345
 2390SOL    HW218633   3.855   3.014  13.704  0.2931 -1.1419 -0.0275
 2391SOL     OW18634   3.802   1.763   0.131 -0.7240 -0.1659  0.4336
 2391SOL    HW118635   3.774   1.778   0.221  1.5307 -1.4149  1.3661
 2391SOL    HW218636   3.888   1.806   0.131 -0.9103  0.2106 -2.7582
 2392SOL     OW18637   0.824   0.447   8.637  0.2121  0.1121  0.5928
 2392SOL    HW118638   0.731   0.452   8.660 -0.2858  1.7228 -1.6932
 2392SOL    HW218639   0.868   0.393   8.702 -0.3317 -1.2564 -0.1527
 2393SOL     OW18640   0.382   2.267   5.074  0.0527 -0.1475  0.5003
 2393SOL    HW118641   0.309   2.298   5.022 -1.3182 -1.8565  1.4057
 2393SOL    HW218642   0.441   2.219   5.016 -1.4458 -1.4089  0.0144
 2394SOL     OW18643   1.986   2.588   2.861 -0.2066 -0.0860 -0.0605
 2394SOL    HW118644   1.901   2.569   2.900  0.8381  0.1893  2.3589
 2394SOL    HW218645   1.946   2.614   2.778  2.0010  2.4447 -0.3360
 2395SOL     OW18646   4.171   2.581   5.669 -0.4319 -0.3642 -0.1220
 2395SOL    HW118647   4.189   2.672   5.690 -0.8294 -0.5353  1.0249
 2395SOL    HW218648   4.097   2.584   5.609 -0.5317  1.7368  0.1231
 2396SOL     OW18649   3.980   4.186   3.015 -0.2272  0.2396 -0.2552
 2396SOL    HW118650   4.026   4.217   3.093 -1.1116  0.6162  0.1110
 2396SOL    HW218651   4.045   4.129   2.972 -1.0037 -1.7351  1.2099
 2397SOL     OW18652   3.054   0.110  17.620 -0.5340 -0.1870  0.3809
 2397SOL    HW118653   3.047   0.200  17.652 -2.7253  0.6950 -2.4990
 2397SOL    HW218654   2.963   0.079  17.627 -0.0854 -1.7207 -0.4643
 2398SOL     OW18655   0.830   2.908   3.626  0.1066  0.1038  0.2484
 2398SOL    HW118656   0.863   2.843   3.688 -0.4121 -0.3385  0.0532
 2398SOL    HW218657   0.850   2.874   3.539  0.7275 -3.1048  1.6682
 2399SOL     OW18658   0.727   4.079  14.745 -0.2163 -0.1103  0.0725
 2399SOL    HW118659   0.696   3.990  14.729  1.1542 -0.6562  0.4897
 2399SOL    HW218660   0.695   4.096  14.834  0.6415 -1.9937  0.7300
 2400SOL     OW18661   1.906   3.325   3.905  0.0897 -0.2332  0.1526
 2400SOL    HW118662   1.981   3.374   3.939  0.3406 -1.1411  0.8760
 2400SOL    HW218663   1.939   3.315   3.816  0.7039 -0.4549  0.4080
 2401SOL     OW18664   3.577   3.525   3.858  0.5360  0.6265  0.1238
 2401SOL    HW118665   3.545   3.581   3.929  0.6979 -0.9340  1.4454
 2401SOL    HW218666   3.497   3.525   3.806  1.1888 -0.4521 -0.8786
 2402SOL     OW18667   3.385   3.586  16.673  0.3873 -0.2245  0.2417
 2402SOL    HW118668   3.452   3.631  16.621  0.4576 -0.1166  0.4241
 2402SOL    HW218669   3.405   3.493  16.659  2.3011 -0.0025  1.4854
 2403SOL     OW18670   0.397   2.638   7.417  0.1290  0.1097 -0.2812
 2403SOL    HW118671   0.345   2.668   7.343  0.3353  0.3599 -0.3275
 2403SOL    HW218672   0.429   2.717   7.461 -2.7678  0.3504  1.3657
 2404SOL     OW18673   0.242   2.221   3.242  0.2033 -0.5360 -0.3714
 2404SOL    HW118674   0.255   2.169   3.163  1.9716 -0.3549 -0.2097
 2404SOL    HW218675   0.288   2.302   3.220 -3.2553  2.4300  3.2711
 2405SOL     OW18676   2.504   2.606  17.529 -0.0689 -0.3373 -0.1359
 2405SOL    HW118677   2.533   2.697  17.520  1.1707 -0.8298 -1.1479
 2405SOL    HW218678   2.454   2.616  17.610  1.0170  1.9047  0.2605
 2406SOL     OW18679   3.886   1.013  11.612  0.5939 -0.4540 -0.1032
 2406SOL    HW118680   3.938   0.934  11.596  0.7101 -0.7609  1.8339
 2406SOL    HW218681   3.936   1.060  11.679  1.2514  0.8148 -1.4885
 2407SOL     OW18682   0.063   1.087   5.252  0.0036 -0.3443 -0.1016
 2407SOL    HW118683   0.032   1.165   5.298  1.4777  0.1301  0.0748
 2407SOL    HW218684   4.712   1.048   5.208 -0.5349  1.6542 -0.9278
 2408SOL     OW18685   2.125   3.495   2.987  0.0729 -0.2622 -0.6066
 2408SOL    HW118686   2.138   3.447   2.905  0.4673 -0.6036 -0.3432
 2408SOL    HW218687   2.202   3.462   3.034 -0.0295  0.2608 -0.0720
 2409SOL     OW18688   2.376   3.293   9.900 -0.5464  0.1966 -0.4269
 2409SOL    HW118689   2.284   3.271   9.889 -0.8251 -0.0288  2.2708
 2409SOL    HW218690   2.403   3.244   9.978 -0.3493  0.7107 -0.1653
 2410SOL     OW18691   2.640   3.273   2.602  0.1876  0.3475 -0.4399
 2410SOL    HW118692   2.627   3.264   2.697  0.3617  1.0020 -0.3556
 2410SOL    HW218693   2.591   3.201   2.563 -0.3424  0.4504  0.0366
 2411SOL     OW18694   2.653   1.492   3.420 -0.1875  0.0558  0.1463
 2411SOL    HW118695   2.565   1.455   3.424 -0.4489  0.6978  0.2221
 2411SOL    HW218696   2.680   1.466   3.508  3.1323 -0.6037 -1.0524
 2412SOL     OW18697   2.549   1.103  13.551  0.2720  0.0374  0.2724
 2412SOL    HW118698   2.459   1.070  13.543  0.5124 -0.5846  0.1525
 2412SOL    HW218699   2.603   1.025  13.560  1.2046  0.7132  0.5076
 2413SOL     OW18700   1.944   0.057   5.207  0.6580 -0.6633  0.2484
 2413SOL    HW118701   1.990   0.126   5.159 -0.8102  1.8171  2.4122
 2413SOL    HW218702   2.005   4.711   5.187  0.0999 -1.6963  2.2034
 2414SOL     OW18703   3.221   0.676   2.515 -0.9654  0.2480 -0.6765
 2414SOL    HW118704   3.162   0.628   2.574  1.8806 -2.2269  0.1544
 2414SOL    HW218705   3.181   0.762   2.525 -0.2040  0.6829 -1.3395
 2415SOL     OW18706   0.555   0.186   3.232 -0.2056  0.3485 -0.3576
 2415SOL    HW118707   0.494   0.130   3.281 -0.3857 -0.6687 -1.7729
 2415SOL    HW218708   0.492   0.221   3.168 -0.5430  0.0979 -0.1651
 2416SOL     OW18709   2.178   0.749   4.765 -0.3093 -0.3928  0.2113
 2416SOL    HW118710   2.129   0.830   4.758 -0.0845 -0.2162  0.6690
 2416SOL    HW218711   2.231   0.748   4.685 -0.4229  1.4430  0.1240
 2417SOL     OW18712   4.526   0.396  13.310 -0.0738  0.1449  0.0911
 2417SOL    HW118713   4.515   0.349  13.393  1.5235  0.0002  0.2201
 2417SOL    HW218714   4.480   0.479  13.323  1.3739  0.9511  0.0690
 2418SOL     OW18715   3.726   1.341   5.625  0.0592  0.5980 -0.3863
 2418SOL    HW118716   3.776   1.293   5.692  1.0969  2.6173  0.3032
 2418SOL    HW218717   3.667   1.387   5.684 -1.3650 -1.8270  0.0517
 2419SOL     OW18718   3.570   1.420  17.193 -0.1269 -0.0446  0.5625
 2419SOL    HW118719   3.594   1.411  17.285  2.9958  1.4453 -0.0991
 2419SOL    HW218720   3.601   1.346  17.141  2.9546  0.8781  1.0873
 2420SOL     OW18721   2.349   2.920   4.879 -0.3072  0.2416 -0.1521
 2420SOL    HW118722   2.314   2.897   4.965 -0.2577  2.0249  0.3602
 2420SOL    HW218723   2.338   2.845   4.822 -0.7675 -1.0003  1.5866
 2421SOL     OW18724   1.384   0.672   1.016 -0.0910 -0.0681  0.1590
 2421SOL    HW118725   1.402   0.619   0.938 -0.2421  1.8246 -1.1800
 2421SOL    HW218726   1.446   0.744   1.003 -1.7066  1.0291 -1.6036
 2422SOL     OW18727   2.645   1.046   5.675 -0.0217  0.2864 -0.0207
 2422SOL    HW118728   2.573   0.983   5.675 -0.1949  0.4747  3.0472
 2422SOL    HW218729   2.711   1.012   5.735  1.0773  3.0887  0.3515
 2423SOL     OW18730   0.660   2.670   0.810  0.0766  0.3821 -0.1546
 2423SOL    HW118731   0.731   2.686   0.872  0.4231 -1.1213 -0.1828
 2423SOL    HW218732   0.717   2.662   0.733  1.3851 -0.1132  0.8504
 2424SOL     OW18733   1.768   4.703  11.610  0.5078 -0.0715  0.1638
 2424SOL    HW118734   1.692   4.698  11.552  0.0313  0.2798  0.7523
 2424SOL    HW218735   1.748   4.631  11.670  1.7971 -0.6507 -0.1108
 2425SOL     OW18736   2.138   1.984   5.900  0.5093  0.2959 -0.0727
 2425SOL    HW118737   2.153   2.016   5.988  1.0273  0.6855 -0.2993
 2425SOL    HW218738   2.198   1.910   5.904  0.2507 -0.1021 -2.8921
 2426SOL     OW18739   1.819   1.792  16.617  0.0361  0.1840 -0.1620
 2426SOL    HW118740   1.731   1.814  16.648 -0.4640 -1.1041 -0.6609
 2426SOL    HW218741   1.800   1.784  16.523  0.4226 -1.4008 -0.1140
 2427SOL     OW18742   0.528   2.584   6.634  0.0832 -0.7455 -0.2033
 2427SOL    HW118743   0.466   2.640   6.681  1.2270  1.4169 -1.2481
 2427SOL    HW218744   0.537   2.623   6.547 -1.1291  0.4318  0.2144
 2428SOL     OW18745   0.567   3.687  13.413 -0.2843 -0.3447  0.2107
 2428SOL    HW118746   0.589   3.600  13.446 -0.7332 -0.4793  0.1523
 2428SOL    HW218747   0.537   3.672  13.323  0.0629 -0.6594  0.1486
 2429SOL     OW18748   2.666   0.147   1.557 -0.6009  0.3617 -0.5759
 2429SOL    HW118749   2.597   0.211   1.537 -1.9899 -0.7996  0.5062
 2429SOL    HW218750   2.625   0.069   1.593  0.7223 -0.0966 -0.0620
 2430SOL     OW18751   1.597   1.409  12.629 -0.4534  0.0032 -0.0879
 2430SOL    HW118752   1.516   1.358  12.627 -1.7797  2.0439  1.5952
 2430SOL    HW218753   1.659   1.336  12.619  0.8102  0.8961  1.1789
 2431SOL     OW18754   4.678   1.793   1.966  0.2821  0.4222  0.7306
 2431SOL    HW118755   4.662   1.886   1.950 -1.3845 -0.2634 -1.6031
 2431SOL    HW218756   4.695   1.752   1.881  2.0927  0.2357  1.2006
 2432SOL     OW18757   4.352   3.941   1.637  0.1484  0.0818  0.3973
 2432SOL    HW118758   4.282   4.002   1.612  0.4919  0.9131  1.4680
 2432SOL    HW218759   4.303   3.859   1.634  1.9438 -0.9712  0.1992
 2433SOL     OW18760   3.555   4.670   2.031  0.2193  0.4177 -0.3354
 2433SOL    HW118761   3.534   4.643   1.942 -0.7695  1.3099 -0.3753
 2433SOL    HW218762   3.614   0.019   2.019 -1.0657  0.7839 -4.3027
 2434SOL     OW18763   1.766   3.907   3.195  0.1095 -0.5210  0.2116
 2434SOL    HW118764   1.692   3.951   3.236 -0.3119  0.0035 -1.0927
 2434SOL    HW218765   1.734   3.817   3.189  0.6378 -0.7211  0.3984
 2435SOL     OW18766   0.803   3.337   8.652 -0.5956  0.3685 -0.1093
 2435SOL    HW118767   0.732   3.291   8.607 -2.0106  2.7486 -0.3169
 2435SOL    HW218768   0.822   3.270   8.718  0.4739 -0.1846 -0.9872
 2436SOL     OW18769   2.382   2.943   0.459 -0.0275 -0.1387 -0.0449
 2436SOL    HW118770   2.435   2.897   0.524 -1.6488  0.3159  1.5903
 2436SOL    HW218771   2.424   2.911   0.379  0.4005  1.0425 -0.3055
 2437SOL     OW18772   4.562   2.921  13.899 -0.4523 -0.4595  0.3026
 2437SOL    HW118773   4.519   2.848  13.943  0.4576 -1.6526 -0.7853
 2437SOL    HW218774   4.596   2.955  13.983 -0.9279 -1.5189  0.9207
 2438SOL     OW18775   2.709   3.778  10.000  0.0833  0.0564 -0.2109
 2438SOL    HW118776   2.783   3.826  10.039 -0.8659  0.2970  1.3270
 2438SOL    HW218777   2.693   3.727  10.079 -0.8680  0.2443 -0.2845
 2439SOL     OW18778   0.051   1.881   3.178 -0.0395 -0.0669  0.3079
 2439SOL    HW118779   0.083   1.824   3.108 -0.6609 -0.2403  0.1685
 2439SOL    HW218780   0.117   1.853   3.242  0.6861  1.2633  0.1369
 2440SOL     OW18781   3.559   0.387   0.484 -0.0409 -0.4730 -0.1493
 2440SOL    HW118782   3.499   0.425   0.548 -0.1678 -1.2430  0.1897
 2440SOL    HW218783   3.533   0.432   0.403 -0.1886  0.5100  0.4468
 2441SOL     OW18784   0.839   3.815  15.353 -0.5688 -0.9113 -0.4035
 2441SOL    HW118785   0.800   3.890  15.309 -0.3405  0.0217  0.9724
 2441SOL    HW218786   0.862   3.757  15.281  0.6930  3.0326 -3.1184
 2442SOL     OW18787   0.478   0.594  16.222  0.1927  0.6328  0.2080
 2442SOL    HW118788   0.538   0.547  16.280 -0.2493 -1.8137 -1.3282
 2442SOL    HW218789   0.403   0.592  16.282  0.7626 -0.8567  0.8856
 2443SOL     OW18790   1.443   1.343   5.863  0.3598 -0.3440  0.2772
 2443SOL    HW118791   1.380   1.309   5.927 -2.0137  2.9263 -0.3321
 2443SOL    HW218792   1.390   1.414   5.829 -0.7808 -0.8262  1.0174
 2444SOL     OW18793   1.753   1.796   5.504  0.3319  0.7164 -0.0706
 2444SOL    HW118794   1.686   1.753   5.450  0.8382  0.2390 -0.3160
 2444SOL    HW218795   1.810   1.826   5.433  1.7185 -1.4960  0.1126
 2445SOL     OW18796   2.171   4.318   5.044 -0.0618  0.5144 -0.1103
 2445SOL    HW118797   2.124   4.255   4.988  0.0322  1.1586 -0.9045
 2445SOL    HW218798   2.250   4.276   5.076  0.5507  1.1944 -0.7284
 2446SOL     OW18799   4.386   3.794   2.764 -0.6344  0.2611  0.0887
 2446SOL    HW118800   4.466   3.807   2.815 -0.9716  0.1847  0.6322
 2446SOL    HW218801   4.377   3.870   2.706 -1.2749  0.4036  0.3760
 2447SOL     OW18802   2.017   1.684  16.206 -0.2064  0.1161 -0.2040
 2447SOL    HW118803   2.073   1.690  16.284  0.3412 -0.9164 -0.5179
 2447SOL    HW218804   2.027   1.591  16.190 -0.8197  0.0370 -0.1018
 2448SOL     OW18805   1.393   3.841  12.477  0.5188 -0.0858  0.0462
 2448SOL    HW118806   1.482   3.830  12.444 -0.0503 -1.1427 -1.1300
 2448SOL    HW218807   1.369   3.752  12.502 -2.0356  0.2561 -1.1675
 2449SOL     OW18808   4.585   3.214  12.923  0.2257  0.7891 -0.3651
 2449SOL    HW118809   4.612   3.176  13.006  1.0637 -1.4203 -1.6503
 2449SOL    HW218810   4.641   3.156  12.872 -0.5264 -0.3020  0.0558
 2450SOL     OW18811   2.708   3.819   7.175 -0.2609 -0.5828  0.3103
 2450SOL    HW118812   2.754   3.897   7.208  0.5304 -2.4806  3.7653
 2450SOL    HW218813   2.660   3.788   7.252  0.6505 -2.0017  0.3104
 2451SOL     OW18814   2.424   2.176   7.830  0.7698 -0.0021  0.0469
 2451SOL    HW118815   2.394   2.157   7.742  0.3472 -1.2477  0.4633
 2451SOL    HW218816   2.386   2.264   7.841  0.4621 -0.4027  2.3433
 2452SOL     OW18817   2.889   3.570   3.317 -0.7807  0.0304 -0.4108
 2452SOL    HW118818   2.810   3.523   3.290 -2.7251  2.7849  0.5201
 2452SOL    HW218819   2.906   3.524   3.399  0.4644 -0.0975 -0.7260
 2453SOL     OW18820   2.161   4.665  17.303 -0.2688 -0.1905  0.1209
 2453SOL    HW118821   2.241   4.623  17.333 -1.1561 -1.7161  0.3841
 2453SOL    HW218822   2.199   0.014  17.258  0.1413 -0.8392 -0.6008
 2454SOL     OW18823   1.369   4.566   0.012  0.6434  0.2172  0.0791
 2454SOL    HW118824   1.361   4.642   0.070  1.3540  0.0279  0.4205
 2454SOL    HW218825   1.335   4.501   0.073  0.3171  1.3112  1.0712
 2455SOL     OW18826   3.675   0.294   5.030  0.5648  0.2522 -0.3742
 2455SOL    HW118827   3.597   0.279   4.977  2.3850 -1.7632 -2.5174
 2455SOL    HW218828   3.726   0.345   4.967 -0.0933  1.0809 -0.2293
 2456SOL     OW18829   1.427   1.921   5.903  0.2898 -0.6409 -0.2075
 2456SOL    HW118830   1.423   1.859   5.976  0.3904 -0.6490 -0.2090
 2456SOL    HW218831   1.483   1.874   5.842  1.9093 -0.1533  0.8928
 2457SOL     OW18832   3.754   2.145  13.051 -0.6258 -0.4913 -0.0866
 2457SOL    HW118833   3.746   2.237  13.076 -0.1804 -0.0099 -1.6983
 2457SOL    HW218834   3.808   2.121  13.126  0.9404 -1.2022 -1.4526
 2458SOL     OW18835   2.402   1.261   4.507  0.9537  0.2550 -0.0576
 2458SOL    HW118836   2.397   1.356   4.517  0.0362  0.3844 -1.7238
 2458SOL    HW218837   2.457   1.238   4.582  1.6116 -0.8402 -0.8803
 2459SOL     OW18838   3.772   1.059   6.600  0.0914 -0.4221  0.3475
 2459SOL    HW118839   3.688   1.014   6.589  0.3295 -0.9086  0.5018
 2459SOL    HW218840   3.794   1.031   6.689 -1.6410 -2.2158  0.2201
 2460SOL     OW18841   0.315   4.069   2.984 -0.0172  0.0372 -0.2360
 2460SOL    HW118842   0.325   4.020   3.065 -0.1435  0.1421 -0.1569
 2460SOL    HW218843   0.405   4.094   2.963 -0.8370  3.0807 -0.1080
 2461SOL     OW18844   1.554   2.438   7.508  0.2286 -0.0362  0.2943
 2461SOL    HW118845   1.571   2.362   7.452 -0.6137  0.8247 -1.1393
 2461SOL    HW218846   1.601   2.501   7.452 -0.4667 -0.2231 -0.4969
 2462SOL     OW18847   1.456   4.046  12.650 -0.2545 -0.3476  0.2792
 2462SOL    HW118848   1.413   3.979  12.597 -1.1954  0.6298 -0.1680
 2462SOL    HW218849   1.439   4.128  12.604  0.8071 -0.4000 -0.2177
 2463SOL     OW18850   2.483   4.557   7.291 -0.7978 -0.0931  0.0866
 2463SOL    HW118851   2.493   4.640   7.244 -2.5063 -0.0052 -0.0996
 2463SOL    HW218852   2.390   4.546   7.272 -0.5969 -0.1965 -0.8399
 2464SOL     OW18853   0.848   2.757   3.110 -0.5316 -0.0792  0.3140
 2464SOL    HW118854   0.756   2.755   3.086 -0.0518 -0.8739 -1.4911
 2464SOL    HW218855   0.871   2.837   3.062 -0.4528 -1.0345 -1.2346
 2465SOL     OW18856   3.624   3.296  15.892  0.1719 -0.2207  0.2196
 2465SOL    HW118857   3.638   3.354  15.817  0.1573 -0.4009  0.0781
 2465SOL    HW218858   3.551   3.244  15.857  0.2738  0.9317 -1.6914
 2466SOL     OW18859   3.937   0.466   7.250 -1.1762 -0.0273 -0.3266
 2466SOL    HW118860   3.983   0.407   7.309 -0.3832  1.0320  0.1012
 2466SOL    HW218861   3.847   0.451   7.279 -1.1444 -1.0151 -0.7165
 2467SOL     OW18862   0.986   2.872   1.429 -0.2292 -0.3412  0.0300
 2467SOL    HW118863   0.910   2.861   1.372  0.4915 -0.1033 -0.9748
 2467SOL    HW218864   1.054   2.881   1.363 -0.0609 -0.7560  0.1534
 2468SOL     OW18865   2.721   0.923   7.620 -0.3105  0.0202 -0.3756
 2468SOL    HW118866   2.674   0.982   7.677  2.0673  1.5700 -0.0127
 2468SOL    HW218867   2.739   0.850   7.680  1.5867  1.6791  1.0489
 2469SOL     OW18868   0.244   1.172   9.126  0.4729  0.6499  0.0157
 2469SOL    HW118869   0.159   1.208   9.152  0.1585  0.4798 -0.7923
 2469SOL    HW218870   0.221   1.118   9.050 -1.4127  0.4320  0.7389
 2470SOL     OW18871   1.796   3.691   7.891  0.2986  0.0955 -0.1746
 2470SOL    HW118872   1.791   3.596   7.876  0.1747 -0.0396  0.7458
 2470SOL    HW218873   1.830   3.708   7.979 -3.0046  1.3753  0.8292
 2471SOL     OW18874   0.176   3.978  15.811  0.5252 -0.0241  0.2330
 2471SOL    HW118875   0.134   3.908  15.861  0.7796 -1.3998 -1.5042
 2471SOL    HW218876   0.123   4.051  15.843 -1.2921 -1.5120  0.6248
 2472SOL     OW18877   1.727   2.447  13.709 -0.2213  0.0474 -0.0775
 2472SOL    HW118878   1.763   2.462  13.796 -1.0342  0.6556  0.1557
 2472SOL    HW218879   1.667   2.374  13.730 -2.0841  2.0544  1.5690
 2473SOL     OW18880   3.382   2.368   0.416  0.2896  0.4327  0.3117
 2473SOL    HW118881   3.362   2.460   0.402 -2.4744 -0.3426 -0.9876
 2473SOL    HW218882   3.292   2.334   0.418 -0.3231  2.0737  0.2194
 2474SOL     OW18883   4.406   2.357  12.111  0.2738 -0.2450  0.5217
 2474SOL    HW118884   4.321   2.389  12.083 -0.5439 -1.1968  1.8932
 2474SOL    HW218885   4.457   2.432  12.143 -1.3154  1.7886 -1.7571
 2475SOL     OW18886   3.427   0.098   6.906  0.5041 -0.2746 -0.4517
 2475SOL    HW118887   3.472   0.044   6.972  0.2102  0.4310  0.3268
 2475SOL    HW218888   3.478   0.178   6.917 -0.2937  0.1354  0.2084
 2476SOL     OW18889   3.104   3.343   1.913  0.3785  0.0376 -0.3166
 2476SOL    HW118890   3.145   3.302   1.989 -1.5370 -0.0876  0.6549
 2476SOL    HW218891   3.123   3.435   1.931  2.1407 -0.0391 -1.8680
 2477SOL     OW18892   3.918   1.995  13.810  0.1240  0.2831  0.1913
 2477SOL    HW118893   3.916   2.068  13.873 -2.8355  1.7736 -1.6145
 2477SOL    HW218894   3.929   2.044  13.729  2.0710 -0.0352  0.2630
 2478SOL     OW18895   3.614   3.954   9.856  0.4678 -0.1589  0.1787
 2478SOL    HW118896   3.595   3.887   9.791 -0.8723  0.5288 -0.1260
 2478SOL    HW218897   3.574   3.916   9.934  0.5617 -0.8520 -0.1037
 2479SOL     OW18898   0.042   0.882   7.624  0.1883  0.1699  0.3821
 2479SOL    HW118899   0.027   0.963   7.672  1.0593  1.5717 -1.6995
 2479SOL    HW218900   4.699   0.884   7.557  1.1694 -0.5876 -0.6415
 2480SOL     OW18901   1.598   4.512  12.201 -0.3005 -0.7057 -0.1512
 2480SOL    HW118902   1.541   4.553  12.136  1.5690  0.7979 -0.8534
 2480SOL    HW218903   1.539   4.441  12.224 -1.3299  0.4435  0.7508
 2481SOL     OW18904   2.946   0.014   3.182 -0.0804 -0.1455  0.0466
 2481SOL    HW118905   2.922   0.092   3.232  0.6014 -1.1127  1.9011
 2481SOL    HW218906   3.000   4.684   3.239 -0.2985 -1.6215 -1.1588
 2482SOL     OW18907   1.316   4.004   1.961  0.8460 -0.1674 -0.3516
 2482SOL    HW118908   1.238   4.015   2.014  0.6809 -0.0007 -0.6322
 2482SOL    HW218909   1.311   3.915   1.925 -0.9152 -0.7271  1.2861
 2483SOL     OW18910   2.431   3.009  16.300  0.4822 -0.2991 -0.4596
 2483SOL    HW118911   2.347   2.967  16.318  0.5503 -1.0057 -1.8681
 2483SOL    HW218912   2.485   2.984  16.376  2.9578  1.8551 -1.5271
 2484SOL     OW18913   2.107   3.587   7.843  0.2277 -0.1249 -0.2324
 2484SOL    HW118914   2.123   3.636   7.763 -0.4403  0.0298 -0.2679
 2484SOL    HW218915   2.038   3.531   7.806  1.7268 -2.3445  0.3567
 2485SOL     OW18916   1.197   2.279  16.630 -0.0650 -0.1184  0.1127
 2485SOL    HW118917   1.196   2.228  16.549 -2.0399  2.2595 -1.3738
 2485SOL    HW218918   1.176   2.212  16.695 -0.8844  0.0353  0.0054
 2486SOL     OW18919   3.825   1.694   3.915  0.1396 -0.1154 -0.1723
 2486SOL    HW118920   3.852   1.709   3.824  3.8201 -1.2128  0.7504
 2486SOL    HW218921   3.870   1.612   3.937 -3.0884 -2.1435 -1.0889
 2487SOL     OW18922   1.043   3.003  16.190 -0.2092 -0.1717 -0.4393
 2487SOL    HW118923   1.123   3.043  16.155 -0.0304 -0.3331 -0.2140
 2487SOL    HW218924   1.050   2.909  16.169  2.9654  0.1944 -1.0327
 2488SOL     OW18925   4.664   4.581  16.277 -0.1335  0.1621 -0.5148
 2488SOL    HW118926   4.575   4.547  16.288  2.0204 -4.5249  2.2579
 2488SOL    HW218927   4.683   4.551  16.188  0.4976 -0.3802 -0.1946
 2489SOL     OW18928   0.861   1.865   8.448  0.4843  0.0593  0.2106
 2489SOL    HW118929   0.918   1.893   8.520  0.1024  0.3400  0.4063
 2489SOL    HW218930   0.917   1.834   8.377 -1.0030  0.0790 -0.9744
 2490SOL     OW18931   3.753   3.387   8.659  0.0965  0.4855 -0.4628
 2490SOL    HW118932   3.788   3.298   8.648 -0.1380  0.2967  0.3464
 2490SOL    HW218933   3.691   3.371   8.729  0.6769 -0.5136 -0.1665
 2491SOL     OW18934   3.887   3.299  10.002  0.3543  0.6034 -0.3256
 2491SOL    HW118935   3.857   3.271   9.916  1.7620 -2.2752  0.1160
 2491SOL    HW218936   3.964   3.245  10.016  0.0883  0.7978  1.9652
 2492SOL     OW18937   1.860   0.764   3.991  0.1634  0.2232 -0.4171
 2492SOL    HW118938   1.844   0.828   3.922 -0.7354  0.2024 -0.2305
 2492SOL    HW218939   1.909   0.700   3.939 -0.1911  0.2670 -0.8049
 2493SOL     OW18940   2.507   4.146   0.467  0.5602  0.0008  0.0826
 2493SOL    HW118941   2.456   4.227   0.465  0.0702 -0.2875  0.6954
 2493SOL    HW218942   2.510   4.121   0.375 -3.2446  1.9819 -0.5827
 2494SOL     OW18943   3.505   1.489   2.313 -0.2608  0.5938  0.2361
 2494SOL    HW118944   3.481   1.396   2.320  2.4671 -0.1462 -0.1715
 2494SOL    HW218945   3.419   1.530   2.318 -0.1567  1.3088 -3.4362
 2495SOL     OW18946   4.453   0.494   8.210  0.3517 -0.1672 -0.2985
 2495SOL    HW118947   4.549   0.500   8.206  0.6293 -1.9849  3.1958
 2495SOL    HW218948   4.425   0.533   8.128  2.1624  0.0779 -0.7961
 2496SOL     OW18949   2.702   2.653   3.227  0.2151 -0.3043 -0.5602
 2496SOL    HW118950   2.739   2.697   3.304 -0.0685 -3.3578  1.3040
 2496SOL    HW218951   2.611   2.632   3.249  1.1387 -1.6382  1.9710
 2497SOL     OW18952   2.493   2.715   7.976 -0.1068  0.5309 -0.4767
 2497SOL    HW118953   2.424   2.654   8.000 -1.9038  1.9362 -2.1251
 2497SOL    HW218954   2.511   2.761   8.058  1.6543  1.1643 -1.2143
 2498SOL     OW18955   1.820   1.589   0.720  0.0129 -0.3223 -0.3560
 2498SOL    HW118956   1.858   1.608   0.635 -0.5060 -1.1787 -0.7780
 2498SOL    HW218957   1.894   1.620   0.772 -1.8632  2.7541  0.4642
 2499SOL     OW18958   1.704   4.560  15.392 -0.5386  0.3447 -0.7462
 2499SOL    HW118959   1.651   4.616  15.448 -1.9855 -2.1568  0.4009
 2499SOL    HW218960   1.659   4.545  15.309 -2.8854  0.8981  0.4323
 2500SOL     OW18961   2.932   1.143   5.817 -0.2362 -0.4428  0.0385
 2500SOL    HW118962   3.006   1.136   5.757 -0.7021  1.6248 -0.7920
 2500SOL    HW218963   2.951   1.226   5.860 -2.9153  0.6559 -0.8998
 2501SOL     OW18964   2.936   0.992   6.051 -0.8385 -0.0414  0.1720
 2501SOL    HW118965   2.928   1.037   6.135  0.4993  1.0964 -0.3220
 2501SOL    HW218966   2.912   1.054   5.982  1.4691 -0.0960 -0.6781
 2502SOL     OW18967   1.681   0.313  10.805 -0.3962 -0.0101  0.3781
 2502SOL    HW118968   1.634   0.258  10.868 -3.8914 -0.3774 -2.5915
 2502SOL    HW218969   1.748   0.361  10.854  0.6924 -0.5723 -0.5481
 2503SOL     OW18970   0.007   2.824   0.578  0.4307 -0.0865 -0.7162
 2503SOL    HW118971   4.692   2.893   0.525 -1.9172 -1.6822 -0.9913
 2503SOL    HW218972   0.019   2.862   0.665  0.8583  0.6814 -1.1192
 2504SOL     OW18973   0.846   0.048  12.135  0.5525 -0.1899 -0.4468
 2504SOL    HW118974   0.920   4.721  12.107 -0.2885 -2.3724  1.4447
 2504SOL    HW218975   0.771   4.725  12.100 -0.2408  0.6785  0.0201
 2505SOL     OW18976   1.245   3.621  12.337  0.0824  0.5203  0.2359
 2505SOL    HW118977   1.331   3.591  12.366 -0.4900 -0.1407  1.2202
 2505SOL    HW218978   1.246   3.597  12.244 -0.9398  1.8011 -0.1139
 2506SOL     OW18979   1.687   4.589   5.424 -0.3648 -0.1120 -0.4835
 2506SOL    HW118980   1.604   4.541   5.427  0.2637 -1.0464  1.8543
 2506SOL    HW218981   1.710   4.601   5.516  1.1483 -0.0921 -0.8559
 2507SOL     OW18982   2.494   4.239   2.161  0.2294 -0.0774  0.9108
 2507SOL    HW118983   2.526   4.246   2.251 -0.7812 -1.6334  1.3862
 2507SOL    HW218984   2.402   4.242   2.185  0.0937 -0.1532  0.4096
 2508SOL     OW18985   2.524   0.347   5.281 -0.6336  0.4148 -0.3269
 2508SOL    HW118986   2.587   0.321   5.349  0.4329  0.9327 -1.1165
 2508SOL    HW218987   2.546   0.287   5.210 -2.7289  0.4653 -1.0105
 2509SOL     OW18988   4.223   2.496   4.949  0.7778 -0.3955 -0.2264
 2509SOL    HW118989   4.179   2.537   4.875 -0.1682 -2.5826 -0.8412
 2509SOL    HW218990   4.262   2.571   4.995  1.7665 -0.5186 -0.8806
 2510SOL     OW18991   2.561   0.392   6.734 -0.6708 -0.2166 -0.0665
 2510SOL    HW118992   2.635   0.405   6.674 -0.1902 -2.0834  0.1375
 2510SOL    HW218993   2.536   0.483   6.753  0.8044  0.3324 -0.7273
 2511SOL     OW18994   0.947   2.129   4.439  0.1744  0.5729  0.4690
 2511SOL    HW118995   1.020   2.184   4.465  1.4786 -1.4501  1.1132
 2511SOL    HW218996   0.941   2.060   4.506  0.2552 -0.3974 -0.5254
 2512SOL     OW18997   3.344   3.577   1.518 -0.1495  0.0319 -0.3814
 2512SOL    HW118998   3.397   3.656   1.512 -0.3407  0.3630  2.0225
 2512SOL    HW218999   3.414   3.513   1.507 -2.5808 -2.9603  1.4095
 2513SOL     OW19000   4.179   4.243  12.147 -0.3714 -0.4996  0.1208
 2513SOL    HW119001   4.169   4.335  12.122 -0.7470 -0.4854  0.3274
 2513SOL    HW219002   4.165   4.254  12.241  0.9525  1.6567  0.0715
 2514SOL     OW19003   0.302   2.699   1.979  0.0357  0.3320  0.3723
 2514SOL    HW119004   0.338   2.736   1.898  1.1318 -2.1476 -0.2775
 2514SOL    HW219005   0.338   2.759   2.044  0.2631  1.2996 -0.6393
 2515SOL     OW19006   0.197   1.440  11.007  0.5439 -0.1973  1.0064
 2515SOL    HW119007   0.248   1.360  11.017  1.6554  0.0607 -2.5786
 2515SOL    HW219008   0.123   1.408  10.954 -0.8732 -1.4158  3.7384
 2516SOL     OW19009   2.485   3.073  10.478 -0.1426 -0.5619  0.1174
 2516SOL    HW119010   2.455   3.074  10.387 -1.4689 -0.3450  0.5573
 2516SOL    HW219011   2.397   3.072  10.517  0.4409 -5.0900  1.3384
 2517SOL     OW19012   2.741   0.573   6.562 -0.3079 -0.2632  0.2564
 2517SOL    HW119013   2.745   0.547   6.470 -0.7359 -0.4642  0.2929
 2517SOL    HW219014   2.724   0.667   6.558  1.5766  0.0176 -1.0143
 2518SOL     OW19015   1.619   2.334   6.673 -0.1481 -0.3873 -0.8321
 2518SOL    HW119016   1.543   2.381   6.639  1.0140  1.0425 -1.4059
 2518SOL    HW219017   1.583   2.303   6.757  2.8366  0.0768  0.5990
 2519SOL     OW19018   4.471   0.230   7.279  0.2595 -0.3807  0.1665
 2519SOL    HW119019   4.554   0.244   7.324  0.3634  1.3292 -0.5429
 2519SOL    HW219020   4.423   0.179   7.344  0.0633 -1.2912 -0.6950
 2520SOL     OW19021   2.776   0.535   8.737 -0.7078  0.4933  0.2335
 2520SOL    HW119022   2.729   0.612   8.768 -2.8235 -0.2684 -1.0809
 2520SOL    HW219023   2.832   0.526   8.815 -1.2216 -1.0956  0.4178
 2521SOL     OW19024   1.558   4.131   4.355 -0.4342  0.1826  0.5076
 2521SOL    HW119025   1.648   4.111   4.329 -0.5249 -1.0903  1.1417
 2521SOL    HW219026   1.556   4.226   4.364  3.6854  0.4225 -1.3978
 2522SOL     OW19027   4.310   2.077   0.014 -0.2184  0.1003 -0.1929
 2522SOL    HW119028   4.352   2.103  17.635 -1.7420 -0.5710 -1.1835
 2522SOL    HW219029   4.253   2.007  17.684  0.2250  0.4537 -1.7008
 2523SOL     OW19030   4.470   2.734  13.564  0.1339 -0.4069  0.0336
 2523SOL    HW119031   4.517   2.698  13.488 -0.8651 -2.4275  0.4022
 2523SOL    HW219032   4.497   2.684  13.640  2.0855  0.2348 -0.2177
 2524SOL     OW19033   3.315   2.270   5.201  0.3468 -0.2654  0.0261
 2524SOL    HW119034   3.263   2.247   5.124  0.3201  0.6651 -0.2387
 2524SOL    HW219035   3.352   2.352   5.168 -0.8116  0.7578  1.3007
 2525SOL     OW19036   1.156   0.895   2.323  0.2056  0.0369  0.2451
 2525SOL    HW119037   1.118   0.820   2.277 -0.4078  1.1666 -1.0798
 2525SOL    HW219038   1.165   0.957   2.250  2.8972  0.2801  0.7633
 2526SOL     OW19039   4.512   0.013   6.574 -0.0379 -0.1064  0.0253
 2526SOL    HW119040   4.501   0.090   6.630  1.2848 -1.3935  2.0658
 2526SOL    HW219041   4.539   0.067   6.499 -0.0033 -0.7028 -0.3876
 2527SOL     OW19042   3.071   2.698   3.018 -0.3092 -0.6640 -0.7058
 2527SOL    HW119043   3.043   2.738   3.100  0.2029 -1.7631  0.0066
 2527SOL    HW219044   3.130   2.632   3.056  0.2706  1.9055  2.9089
 2528SOL     OW19045   1.134   0.807  17.616 -0.0656  0.9449  0.4399
 2528SOL    HW119046   1.060   0.805  17.555 -0.9256 -0.3479  1.5373
 2528SOL    HW219047   1.148   0.902  17.608  1.5413  0.6596 -0.1530
 2529SOL     OW19048   2.458   2.586  15.735 -0.0699  0.1643  0.0456
 2529SOL    HW119049   2.475   2.503  15.780 -1.7152 -0.8954 -1.2793
 2529SOL    HW219050   2.507   2.643  15.794  0.8425 -0.4613 -0.1155
 2530SOL     OW19051   3.330   1.510  17.114  0.4539 -0.0464  0.3072
 2530SOL    HW119052   3.416   1.479  17.142  0.2944 -0.8513 -0.0737
 2530SOL    HW219053   3.269   1.476  17.179 -0.0863  0.6108  0.1433
 2531SOL     OW19054   3.539   1.110   5.467 -0.8486  0.1229  0.2897
 2531SOL    HW119055   3.574   1.086   5.553 -0.4124  0.0505  0.0924
 2531SOL    HW219056   3.497   1.026   5.448 -2.3628  1.3223 -1.5787
 2532SOL     OW19057   4.654   1.130   3.486  0.2820  0.1095  0.1424
 2532SOL    HW119058   4.667   1.036   3.473  1.5704  0.2588  0.3921
 2532SOL    HW219059   4.705   1.154   3.563  1.7745 -0.7644 -0.5853
 2533SOL     OW19060   0.028   1.217   3.722  0.2094  0.0618  0.6035
 2533SOL    HW119061   0.056   1.195   3.810  1.9243  0.3401  0.1170
 2533SOL    HW219062   4.669   1.173   3.731  0.3503 -0.7665 -1.9858
 2534SOL     OW19063   1.359   0.130  12.299  0.4874 -0.0534  0.0307
 2534SOL    HW119064   1.448   0.096  12.300  0.2138 -0.7053  1.9324
 2534SOL    HW219065   1.358   0.212  12.348  0.3314  0.6069 -1.0706
 2535SOL     OW19066   2.305   1.187   4.245  0.2036 -0.3035 -0.0462
 2535SOL    HW119067   2.289   1.275   4.210  0.7047 -0.1871  0.0119
 2535SOL    HW219068   2.359   1.207   4.322  0.4408  0.8973 -0.5199
 2536SOL     OW19069   2.908   1.054   2.801  0.3885  0.2981 -0.0657
 2536SOL    HW119070   2.959   1.081   2.878  1.0147  0.1289 -0.4205
 2536SOL    HW219071   2.926   0.960   2.802 -0.5186  0.1165 -0.5513
 2537SOL     OW19072   4.725   0.518  13.554  0.3600  0.4432  0.2195
 2537SOL    HW119073   4.720   0.587  13.489 -0.0867 -0.1302 -0.3520
 2537SOL    HW219074   4.666   0.537  13.626 -1.9408 -2.5465 -0.8764
 2538SOL     OW19075   3.932   3.155  10.753  0.2547  0.0162  0.2209
 2538SOL    HW119076   3.888   3.075  10.725  2.2507 -0.7835 -0.6209
 2538SOL    HW219077   3.945   3.210  10.676  0.9157 -0.7115 -0.1848
 2539SOL     OW19078   0.786   0.485  17.626  0.1729  0.2540  0.0021
 2539SOL    HW119079   0.723   0.494  17.698 -0.0896 -0.7499 -0.1041
 2539SOL    HW219080   0.867   0.464  17.673 -0.7735  0.8062  1.9070
 2540SOL     OW19081   0.176   3.393   7.083  0.2172  0.3578  0.2973
 2540SOL    HW119082   0.269   3.392   7.061 -0.2753 -2.2037 -1.6477
 2540SOL    HW219083   0.178   3.425   7.174  2.6623 -1.6466  0.9727
 2541SOL     OW19084   1.263   2.588  12.843 -0.1788 -0.5852  0.2487
 2541SOL    HW119085   1.172   2.565  12.826 -0.9203  0.7216  2.5401
 2541SOL    HW219086   1.293   2.506  12.802 -0.1468 -0.0740 -0.7560
 2542SOL     OW19087   3.424   4.520   7.612 -0.1150  0.3148 -0.1777
 2542SOL    HW119088   3.447   4.520   7.519 -1.7048 -0.3705 -0.5906
 2542SOL    HW219089   3.367   4.597   7.608  2.6390  2.4643  2.5966
 2543SOL     OW19090   1.798   4.634   1.881 -0.3034  0.0482  0.6626
 2543SOL    HW119091   1.802   4.610   1.788 -0.8785  1.5841  0.2421
 2543SOL    HW219092   1.715   4.598   1.912 -1.0634 -0.4546 -1.9405
 2544SOL     OW19093   1.002   2.250  10.881  0.8348 -0.1733  0.0106
 2544SOL    HW119094   0.990   2.341  10.855  1.6793 -0.3715 -1.0379
 2544SOL    HW219095   0.943   2.207  10.819  0.7754  2.4147 -1.7087
 2545SOL     OW19096   0.486   1.377   4.982 -0.1206  0.0019 -0.3466
 2545SOL    HW119097   0.545   1.324   5.035  2.4694  1.6675 -1.5778
 2545SOL    HW219098   0.529   1.462   4.972 -0.9839  0.5181  0.2421
 2546SOL     OW19099   2.810   1.756  10.829  0.4535 -0.3157 -0.1237
 2546SOL    HW119100   2.882   1.779  10.771  0.8694 -0.5996  0.2864
 2546SOL    HW219101   2.859   1.734  10.908 -0.1454 -1.0788  0.0374
 2547SOL     OW19102   2.331   1.240  17.215  0.3322  0.2341  0.1051
 2547SOL    HW119103   2.275   1.211  17.143 -0.4879  1.6993  0.1476
 2547SOL    HW219104   2.313   1.334  17.221 -0.0157  0.1661  0.1318
 2548SOL     OW19105   1.281   0.141  17.448  0.4833  0.0364 -0.1660
 2548SOL    HW119106   1.362   0.094  17.429  0.8431  1.4202 -1.9668
 2548SOL    HW219107   1.255   0.118  17.538  1.6684  1.0224  0.4326
 2549SOL     OW19108   0.259   0.545   5.605 -0.0454  0.1224 -0.1412
 2549SOL    HW119109   0.213   0.553   5.688 -0.6131  2.6564 -0.6779
 2549SOL    HW219110   0.211   0.601   5.544  1.9365  2.2985  0.2779
 2550SOL     OW19111   4.264   3.306   8.585 -0.7101  0.6218 -0.1695
 2550SOL    HW119112   4.221   3.257   8.654  0.3948  0.4412  0.3944
 2550SOL    HW219113   4.306   3.379   8.630 -0.2724  0.0915  0.2737
 2551SOL     OW19114   0.472   0.005  13.831  0.5379 -0.0934  0.5758
 2551SOL    HW119115   0.435   0.069  13.769 -1.1662 -0.7273  0.9392
 2551SOL    HW219116   0.545   4.719  13.770  0.3034  1.3576  0.0029
 2552SOL     OW19117   3.958   2.436   1.153 -0.1415 -0.2114  0.0714
 2552SOL    HW119118   3.907   2.424   1.233 -0.5051  1.0051  0.0103
 2552SOL    HW219119   3.961   2.531   1.157  1.0665 -0.2661  0.6884
 2553SOL     OW19120   3.136   2.614   5.104  0.3638  0.4166  0.2811
 2553SOL    HW119121   3.076   2.678   5.141 -1.2946 -0.4683 -0.8693
 2553SOL    HW219122   3.113   2.621   5.011  1.1298  2.2683  0.2432
 2554SOL     OW19123   1.453   2.016   2.549 -0.1924  0.4053 -0.6690
 2554SOL    HW119124   1.465   2.030   2.455 -0.5851  1.5657 -0.5482
 2554SOL    HW219125   1.530   1.959   2.553 -0.9787 -0.6968 -0.9727
 2555SOL     OW19126   1.255   4.630   4.575  0.6265 -0.0463  0.5312
 2555SOL    HW119127   1.275   4.557   4.633 -0.1691 -1.0959 -0.5142
 2555SOL    HW219128   1.339   4.676   4.575 -0.3857  1.8372 -2.0230
 2556SOL     OW19129   3.639   1.037  10.490 -0.1924 -0.1356  0.2988
 2556SOL    HW119130   3.633   1.049  10.585  0.1061 -0.9758  0.4199
 2556SOL    HW219131   3.609   0.946  10.481  0.0990 -0.2927  0.9271
 2557SOL     OW19132   0.287   1.518   4.341  0.7907  0.6731 -0.4274
 2557SOL    HW119133   0.195   1.545   4.340  0.8364  0.8460  0.3341
 2557SOL    HW219134   0.292   1.498   4.247 -1.3139 -2.3136  0.0852
 2558SOL     OW19135   2.926   0.607  15.574  0.1400  0.1765  0.6977
 2558SOL    HW119136   2.878   0.687  15.554  0.0273  0.0158  0.3225
 2558SOL    HW219137   3.007   0.642  15.610  0.0809  1.2668 -0.2478
 2559SOL     OW19138   4.611   4.621  10.928  0.5806 -0.1078  0.5306
 2559SOL    HW119139   4.543   4.685  10.908  0.7278  0.4125  1.7512
 2559SOL    HW219140   4.668   4.636  10.852  0.4499  1.8079  0.8210
 2560SOL     OW19141   1.983   1.560   2.295  0.0294  0.0353 -0.2762
 2560SOL    HW119142   1.904   1.598   2.333  0.3142  0.5656 -0.2218
 2560SOL    HW219143   2.036   1.536   2.370  0.1388  1.7726  0.2034
 2561SOL     OW19144   1.107   3.206   1.958  0.0686 -0.1448 -0.0104
 2561SOL    HW119145   1.083   3.194   2.050 -0.5007 -3.6856 -0.6225
 2561SOL    HW219146   1.143   3.121   1.934 -0.1585  0.6025 -2.9292
 2562SOL     OW19147   3.213   0.865  12.506 -0.1218 -0.3794  0.5131
 2562SOL    HW119148   3.124   0.855  12.472 -0.0217  1.0190 -0.1795
 2562SOL    HW219149   3.269   0.858  12.429  0.0793  2.2472  0.4215
 2563SOL     OW19150   2.161   3.312  12.854 -0.1971 -0.6028 -0.3811
 2563SOL    HW119151   2.239   3.304  12.909  0.0497 -0.1578 -0.6756
 2563SOL    HW219152   2.194   3.365  12.782 -2.9518 -1.2310 -2.0909
 2564SOL     OW19153   2.189   0.352   5.098 -0.3885 -0.3039  0.5400
 2564SOL    HW119154   2.214   0.290   5.167  1.3040 -1.0797 -0.7635
 2564SOL    HW219155   2.112   0.397   5.133  0.0940  0.9605 -0.0276
 2565SOL     OW19156   1.980   0.883   6.330  0.2991  0.4035 -0.0969
 2565SOL    HW119157   2.004   0.948   6.264  0.9703 -1.1594 -1.3954
 2565SOL    HW219158   2.039   0.809   6.315  0.1026  0.6190 -1.9099
 2566SOL     OW19159   1.111   3.630  16.318  0.6352 -0.1413 -0.3603
 2566SOL    HW119160   1.043   3.657  16.380 -0.3494 -0.9656 -1.0607
 2566SOL    HW219161   1.062   3.646  16.237  0.0260 -0.3034 -0.0267
 2567SOL     OW19162   2.822   3.608   2.977  0.1987 -0.0701  0.2339
 2567SOL    HW119163   2.829   3.663   2.899  1.2517 -1.2174 -0.4769
 2567SOL    HW219164   2.915   3.594   2.997  0.2609 -1.2867 -0.9183
 2568SOL     OW19165   2.327   4.382   8.782  0.4705  0.5292  0.2582
 2568SOL    HW119166   2.297   4.471   8.801  0.8208  0.9561 -1.2311
 2568SOL    HW219167   2.422   4.386   8.774  0.5329 -0.2837  0.5094
 2569SOL     OW19168   3.478   3.850   6.710 -0.1696  0.5325  0.4400
 2569SOL    HW119169   3.525   3.812   6.635  0.4546  1.8164  0.1708
 2569SOL    HW219170   3.536   3.926   6.720 -0.2137  0.5663  0.4440
 2570SOL     OW19171   1.064   4.277  13.728  0.2703 -0.5217  0.3560
 2570SOL    HW119172   1.020   4.196  13.700  0.7998 -0.4199 -0.7572
 2570SOL    HW219173   1.098   4.254  13.815  1.2189  0.6952  0.2973
 2571SOL     OW19174   2.819   0.029  17.417 -0.3186  0.3626 -0.6390
 2571SOL    HW119175   2.802   0.119  17.391  1.7702  1.0718  0.4024
 2571SOL    HW219176   2.807   0.024  17.512  0.6666 -0.7413 -0.5657
 2572SOL     OW19177   1.552   4.621   7.452 -0.1189 -0.0596 -0.6886
 2572SOL    HW119178   1.500   4.605   7.374  1.8170  0.9335 -2.1647
 2572SOL    HW219179   1.487   4.657   7.512  0.6919  0.8666 -0.3627
 2573SOL     OW19180   3.723   0.411   4.543  0.3302 -0.7444  0.4083
 2573SOL    HW119181   3.690   0.496   4.513  0.9345 -0.1401  1.4432
 2573SOL    HW219182   3.670   0.360   4.482  1.7399 -1.0580 -0.5557
 2574SOL     OW19183   4.238   3.697   6.797  0.3253 -0.7402 -0.1217
 2574SOL    HW119184   4.223   3.651   6.879  0.3912 -0.7453 -0.1131
 2574SOL    HW219185   4.298   3.769   6.816  1.1690 -1.5843  0.4110
 2575SOL     OW19186   0.809   1.583   5.990 -0.1357 -0.0576 -0.2054
 2575SOL    HW119187   0.866   1.653   5.959 -0.5256  0.6063  0.5718
 2575SOL    HW219188   0.852   1.502   5.965 -1.4487 -0.5324 -0.9272
 2576SOL     OW19189   1.163   1.772   5.056 -0.0208 -0.0208 -0.4287
 2576SOL    HW119190   1.069   1.776   5.040  0.0868  2.8892 -0.2919
 2576SOL    HW219191   1.185   1.722   4.977  0.5448 -0.1224 -0.2110
 2577SOL     OW19192   0.606   0.974   4.998  0.4637 -0.1877  0.1653
 2577SOL    HW119193   0.662   1.027   4.941 -0.2757  0.0735 -0.3255
 2577SOL    HW219194   0.577   1.039   5.061 -1.4657  0.7464 -1.6750
 2578SOL     OW19195   4.382   0.843   9.235 -0.4618  0.4783 -0.7399
 2578SOL    HW119196   4.448   0.884   9.179 -2.5593  2.7400 -1.5886
 2578SOL    HW219197   4.298   0.867   9.197 -1.8622 -3.2481  0.0038
 2579SOL     OW19198   1.849   2.584   0.147 -0.1174 -0.1192  0.2612
 2579SOL    HW119199   1.900   2.657   0.112  0.4660 -0.1954  0.9771
 2579SOL    HW219200   1.759   2.617   0.137 -0.1847 -0.3257  0.1897
 2580SOL     OW19201   0.770   2.896   8.761  0.2198  0.4867 -0.0295
 2580SOL    HW119202   0.691   2.946   8.783 -1.4534 -1.3931 -1.6280
 2580SOL    HW219203   0.827   2.958   8.717  0.4740  0.1559 -0.1689
 2581SOL     OW19204   4.162   1.591   4.214 -0.0291 -0.3546  0.1968
 2581SOL    HW119205   4.246   1.628   4.190 -0.7326  1.0371 -0.1183
 2581SOL    HW219206   4.135   1.654   4.281 -3.3152 -0.8154 -0.6751
 2582SOL     OW19207   0.985   1.948   4.244  0.0315 -0.3073 -0.2469
 2582SOL    HW119208   1.034   1.993   4.176 -0.8838  2.4700  0.9130
 2582SOL    HW219209   0.974   2.016   4.310  0.1547 -0.9835  0.4693
 2583SOL     OW19210   1.212   4.724  15.730 -0.1245  0.4798 -0.0271
 2583SOL    HW119211   1.149   0.029  15.665 -0.3620  1.0863  0.4940
 2583SOL    HW219212   1.165   0.013  15.812 -1.0756  1.3278 -0.7227
 2584SOL     OW19213   0.823   0.641  12.458 -0.0350  0.0518 -0.3415
 2584SOL    HW119214   0.843   0.554  12.493 -0.3896 -0.3033 -1.0338
 2584SOL    HW219215   0.888   0.654  12.389 -3.4383  0.4202 -3.4591
 2585SOL     OW19216   3.491   3.406   2.301 -0.3463  0.2287 -0.2483
 2585SOL    HW119217   3.463   3.483   2.252 -1.5695  0.0996  0.2389
 2585SOL    HW219218   3.566   3.375   2.251  0.0061 -1.7123  1.4415
 2586SOL     OW19219   1.519   3.884   7.231 -0.0927  0.4537 -0.3130
 2586SOL    HW119220   1.469   3.858   7.154 -2.2425 -3.6315  2.4559
 2586SOL    HW219221   1.450   3.883   7.298 -0.6618  0.0602 -0.9028
 2587SOL     OW19222   4.184   1.222  11.366 -0.1142 -0.0183 -0.2330
 2587SOL    HW119223   4.187   1.241  11.459  1.8102  1.1754 -0.5310
 2587SOL    HW219224   4.106   1.268  11.334  1.1398  2.0972 -0.2209
 2588SOL     OW19225   3.220   1.731  13.052 -0.0756 -0.2194 -0.3927
 2588SOL    HW119226   3.170   1.779  13.117  1.1689  0.8191 -0.1970
 2588SOL    HW219227   3.230   1.651  13.103  1.4187 -0.1321 -0.5448
 2589SOL     OW19228   1.777   4.417   1.377 -0.3215 -0.0580 -0.1052
 2589SOL    HW119229   1.842   4.355   1.410  0.5355 -0.6045 -2.7982
 2589SOL    HW219230   1.827   4.477   1.321  1.0424 -0.9498  0.1486
 2590SOL     OW19231   3.764   1.536   6.307  0.1625 -0.5906  1.1590
 2590SOL    HW119232   3.751   1.620   6.263 -1.5157 -0.7972  1.2663
 2590SOL    HW219233   3.808   1.486   6.239 -1.5506  0.2880 -0.5983
 2591SOL     OW19234   3.224   1.152  12.387  0.1251  0.5218  0.0830
 2591SOL    HW119235   3.318   1.138  12.386 -0.5562 -4.3434 -0.3133
 2591SOL    HW219236   3.200   1.076  12.441 -0.9195  0.0181 -1.0825
 2592SOL     OW19237   2.977   1.701   5.970  0.2599 -0.3469  0.2334
 2592SOL    HW119238   2.930   1.671   6.048  1.5147  1.8319  1.8122
 2592SOL    HW219239   2.947   1.644   5.899  2.8189 -1.9969  0.4778
 2593SOL     OW19240   0.141   3.237   6.859  0.3992 -0.1972  0.1067
 2593SOL    HW119241   0.049   3.225   6.837  0.6919  0.2941 -1.3869
 2593SOL    HW219242   0.129   3.277   6.945  2.1814 -0.3121  0.3933
 2594SOL     OW19243   1.003   4.051   2.413 -0.1302 -0.3555  0.0229
 2594SOL    HW119244   0.972   3.960   2.409 -1.1518  0.0146 -0.5892
 2594SOL    HW219245   1.047   4.067   2.330  2.2524 -0.5979  1.2379
 2595SOL     OW19246   0.324   2.080   6.508 -0.0074  0.0081  0.7359
 2595SOL    HW119247   0.377   2.004   6.533 -1.3537 -0.5141  2.0285
 2595SOL    HW219248   0.371   2.156   6.542  1.0179  0.0727 -0.8537
 2596SOL     OW19249   1.804   2.676   4.777 -0.3692  0.0964 -0.0010
 2596SOL    HW119250   1.829   2.723   4.857 -0.5779 -1.0690  0.7395
 2596SOL    HW219251   1.713   2.664   4.806 -1.1787  1.5244 -1.8868
 2597SOL     OW19252   2.766   1.031  11.696  0.3805  0.1339  0.2137
 2597SOL    HW119253   2.800   0.944  11.716  2.4314 -0.0279 -4.1242
 2597SOL    HW219254   2.845   1.083  11.681  0.9106 -0.5957  0.5251
 2598SOL     OW19255   3.939   2.980   7.760  0.4897  0.0466 -0.1242
 2598SOL    HW119256   4.024   3.015   7.787  0.6544  0.2211 -0.8438
 2598SOL    HW219257   3.968   2.909   7.702 -0.4020 -0.3453 -0.0831
 2599SOL     OW19258   0.991   3.662   1.222  0.3690  0.6558 -0.3976
 2599SOL    HW119259   0.932   3.703   1.286 -1.1274  0.4920 -1.6840
 2599SOL    HW219260   0.982   3.705   1.137  0.6943  1.2342 -0.1421
 2600SOL     OW19261   2.393   0.153   5.851 -0.3771 -0.0178 -0.2757
 2600SOL    HW119262   2.302   0.170   5.878  0.8954 -0.4388  4.3973
 2600SOL    HW219263   2.392   0.214   5.778 -0.8476 -0.7392 -0.8686
 2601SOL     OW19264   4.298   0.780   7.417  0.0146  0.2578 -0.0128
 2601SOL    HW119265   4.301   0.685   7.406  2.0181  0.2713  0.3463
 2601SOL    HW219266   4.209   0.814   7.415 -1.1280 -2.7088  0.1947
 2602SOL     OW19267   4.121   0.062   2.577  0.3383 -0.0497  0.3145
 2602SOL    HW119268   4.100   0.072   2.670 -1.3879  1.7804 -0.2740
 2602SOL    HW219269   4.180   4.713   2.568  0.6575  0.2487 -0.0577
 2603SOL     OW19270   2.976   2.625   8.400 -0.1155 -0.1018  0.1919
 2603SOL    HW119271   3.030   2.562   8.448  0.6438  0.3222 -0.1065
 2603SOL    HW219272   2.944   2.560   8.337 -2.2940  1.6757 -0.4988
 2604SOL     OW19273   0.404   3.928   0.985  0.4011 -0.1530 -0.3989
 2604SOL    HW119274   0.479   3.986   0.971 -0.2114  0.3807 -1.4645
 2604SOL    HW219275   0.408   3.885   0.900  2.4251  1.5197 -1.1553
 2605SOL     OW19276   1.349   4.234   7.677 -0.2518  0.1285 -0.1145
 2605SOL    HW119277   1.360   4.304   7.741 -2.5544 -0.7762  1.2623
 2605SOL    HW219278   1.313   4.162   7.729 -1.6972  0.9007 -0.0547
 2606SOL     OW19279   0.433   1.306   7.255 -0.1548  0.6557  0.4657
 2606SOL    HW119280   0.480   1.277   7.334  1.7756 -0.8237 -1.2136
 2606SOL    HW219281   0.450   1.400   7.263 -3.0013  1.2660 -0.7598
 2607SOL     OW19282   2.129   2.132   2.643 -0.2159 -0.3373  0.1178
 2607SOL    HW119283   2.081   2.167   2.569 -0.0874  0.7630  0.5483
 2607SOL    HW219284   2.127   2.210   2.699 -1.7536 -0.4240  0.1678
 2608SOL     OW19285   4.083   4.075  13.656 -0.0788 -0.3035 -0.4066
 2608SOL    HW119286   4.079   4.141  13.587 -1.5242  0.9174  0.8553
 2608SOL    HW219287   4.149   4.013  13.624  1.9333  0.1351  2.9012
 2609SOL     OW19288   4.527   0.239   6.739 -0.0476 -0.3924 -0.4643
 2609SOL    HW119289   4.470   0.254   6.814  0.4513 -1.6902  0.1740
 2609SOL    HW219290   4.516   0.325   6.699  3.7330 -0.5058 -1.7659
 2610SOL     OW19291   3.703   3.341   2.109 -0.3728 -0.4257 -0.1177
 2610SOL    HW119292   3.718   3.389   2.028  2.3260  1.0099  1.2397
 2610SOL    HW219293   3.739   3.257   2.079 -1.0400 -0.8701  0.3397
 2611SOL     OW19294   1.549   3.297  11.090  0.0196  0.1278 -0.2627
 2611SOL    HW119295   1.469   3.256  11.058  0.0674  0.0733 -0.3110
 2611SOL    HW219296   1.581   3.324  11.004 -1.9354  3.2602 -0.0111
 2612SOL     OW19297   2.559   4.241   4.866  0.3177  0.2619  0.0957
 2612SOL    HW119298   2.591   4.254   4.955  0.0870  0.3268  0.1675
 2612SOL    HW219299   2.634   4.281   4.821  0.4170 -0.1616 -0.1180
 2613SOL     OW19300   4.142   1.601  10.505  0.2869 -0.0371  0.7729
 2613SOL    HW119301   4.106   1.567  10.587 -1.0882  2.3123  1.1384
 2613SOL    HW219302   4.191   1.680  10.530 -1.3466  0.7292  1.5764
 2614SOL     OW19303   3.048   1.114   7.712 -0.5704 -0.2397 -0.3683
 2614SOL    HW119304   3.086   1.118   7.625  2.4112  2.8481  1.0666
 2614SOL    HW219305   3.015   1.204   7.715 -2.3318 -0.9044  0.3864
 2615SOL     OW19306   2.836   4.311  14.846  0.9663 -0.2140  0.1043
 2615SOL    HW119307   2.911   4.268  14.805 -0.8275 -1.4690 -1.8949
 2615SOL    HW219308   2.807   4.374  14.780  1.2123 -0.1734  0.0341
 2616SOL     OW19309   0.374   2.238   2.365 -0.0489 -0.2731  0.2466
 2616SOL    HW119310   0.375   2.220   2.271  0.4368  1.5718 -0.1150
 2616SOL    HW219311   0.315   2.314   2.366 -0.9811 -0.9919 -1.1646
 2617SOL     OW19312   3.092   1.446   0.161 -0.0783  0.2009  0.1678
 2617SOL    HW119313   3.063   1.390   0.233 -4.2967 -0.3405 -1.9443
 2617SOL    HW219314   3.056   1.531   0.188 -0.2062  0.2723 -0.2378
 2618SOL     OW19315   3.170   3.518  13.975 -0.4460  0.2708 -0.0693
 2618SOL    HW119316   3.249   3.550  13.932 -2.2643  2.1603 -2.0308
 2618SOL    HW219317   3.113   3.501  13.900 -0.2057 -2.4673  0.3486
 2619SOL     OW19318   3.998   1.471   5.753  0.0649 -0.2644 -0.5698
 2619SOL    HW119319   4.028   1.553   5.793 -3.2453  1.2906 -1.2183
 2619SOL    HW219320   3.929   1.494   5.690 -0.0349 -2.0590 -1.1198
 2620SOL     OW19321   4.442   1.497  11.681  0.3150  0.2269 -0.0929
 2620SOL    HW119322   4.421   1.591  11.682  1.9073  0.5729  0.7152
 2620SOL    HW219323   4.488   1.489  11.765 -1.6593  1.1999  1.1056
 2621SOL     OW19324   1.577   1.896   2.957  0.4064  0.0997 -0.0562
 2621SOL    HW119325   1.656   1.944   2.934  0.5516  0.1932  0.6185
 2621SOL    HW219326   1.572   1.839   2.881  0.8285  0.3888 -0.3023
 2622SOL     OW19327   3.918   1.349  11.185  0.1985  0.2855  0.4349
 2622SOL    HW119328   3.924   1.377  11.276  0.3353  1.4082  0.0896
 2622SOL    HW219329   3.914   1.254  11.193 -0.2635  0.3103  0.5309
 2623SOL     OW19330   4.097   0.216  14.295  0.0973 -0.2295 -0.6991
 2623SOL    HW119331   4.136   0.256  14.217  0.2312 -0.0035 -0.5151
 2623SOL    HW219332   4.008   0.250  14.287  0.1170  0.5678  2.8036
 2624SOL     OW19333   0.896   4.330  13.120  0.3143 -0.1343  0.2412
 2624SOL    HW119334   0.885   4.413  13.075  1.6086  0.9930  2.0256
 2624SOL    HW219335   0.809   4.292  13.107 -0.0140 -0.5224  3.5920
 2625SOL     OW19336   0.938   0.700   8.220 -0.5735  0.4824  0.3300
 2625SOL    HW119337   0.996   0.737   8.153  1.0405 -0.9972  0.9003
 2625SOL    HW219338   0.895   0.778   8.256  0.9169  1.3209  0.3142
 2626SOL     OW19339   4.617   2.047   1.898 -0.6203  1.1438 -0.4145
 2626SOL    HW119340   4.620   2.099   1.818  1.2588  0.5520 -0.7358
 2626SOL    HW219341   4.522   2.033   1.904 -0.4029  0.4705  1.5297
 2627SOL     OW19342   2.114   4.412  14.052  0.1107  0.1014 -0.9880
 2627SOL    HW119343   2.104   4.319  14.074 -0.3921  0.1711 -0.9217
 2627SOL    HW219344   2.075   4.456  14.127  1.7176  1.2180 -0.7928
 2628SOL     OW19345   2.146   0.480   5.605 -0.0258  0.2911  0.0076
 2628SOL    HW119346   2.091   0.508   5.679  1.0646  2.2697  0.0715
 2628SOL    HW219347   2.103   0.527   5.534 -0.1458  0.4814  0.2047
 2629SOL     OW19348   1.339   2.570  12.370 -0.0310 -0.5116  0.6044
 2629SOL    HW119349   1.422   2.527  12.391  2.0358  1.7056 -2.9499
 2629SOL    HW219350   1.283   2.495  12.351  0.4715 -0.8851  0.5983
 2630SOL     OW19351   0.590   1.030  14.461 -0.0764 -0.3693 -0.1755
 2630SOL    HW119352   0.584   0.949  14.411  0.9272 -0.3473 -0.3248
 2630SOL    HW219353   0.622   1.000  14.546  0.9097  2.6224  0.5064
 2631SOL     OW19354   3.696   1.436   1.139 -0.2629 -0.3918 -0.3959
 2631SOL    HW119355   3.612   1.476   1.116 -0.8501 -2.3527 -1.6893
 2631SOL    HW219356   3.743   1.441   1.056 -3.4846 -1.2597 -2.2690
 2632SOL     OW19357   4.297   2.531   1.314  0.4785  0.1166  0.1303
 2632SOL    HW119358   4.364   2.570   1.370 -0.2366  0.5756  0.6638
 2632SOL    HW219359   4.225   2.514   1.376 -3.0800  0.3563 -3.9855
 2633SOL     OW19360   2.823   0.264  12.518  0.0096  0.5498 -0.7835
 2633SOL    HW119361   2.911   0.269  12.556  0.7370 -0.4691 -2.3354
 2633SOL    HW219362   2.834   0.223  12.432  1.8113 -1.1373  0.2320
 2634SOL     OW19363   1.989   4.619   3.087  0.2893 -0.2054  0.0009
 2634SOL    HW119364   1.979   4.535   3.131 -1.0244  0.5262  1.1033
 2634SOL    HW219365   1.907   4.632   3.039 -0.9080 -1.1242  1.8118
 2635SOL     OW19366   4.541   0.556   5.164  0.2714  0.2630  0.5769
 2635SOL    HW119367   4.451   0.550   5.195  0.1002  1.1866  0.2509
 2635SOL    HW219368   4.543   0.486   5.100  0.8717 -0.1039  0.9883
 2636SOL     OW19369   2.716   4.313   8.332  0.4266 -0.1409 -0.1669
 2636SOL    HW119370   2.635   4.337   8.287  0.6540  2.3674  0.7722
 2636SOL    HW219371   2.785   4.369   8.295  0.3109 -0.2437 -0.5376
 2637SOL     OW19372   3.687   0.094   3.690  0.3057  0.2299  0.1284
 2637SOL    HW119373   3.755   0.158   3.670  1.1111 -0.5553  0.3430
 2637SOL    HW219374   3.665   0.120   3.779  1.4163 -0.0505  0.4900
 2638SOL     OW19375   4.560   2.529   5.128  0.5410 -0.0942 -0.3530
 2638SOL    HW119376   4.538   2.620   5.108 -0.6062 -1.0295 -3.2088
 2638SOL    HW219377   4.484   2.504   5.180  0.3214 -1.0585 -1.1537
 2639SOL     OW19378   0.612   4.585  13.232  0.0106 -0.2587 -0.1193
 2639SOL    HW119379   0.575   4.665  13.193 -1.1364  0.2969  2.0741
 2639SOL    HW219380   0.703   4.614  13.234  0.0933 -0.5718  0.9919
 2640SOL     OW19381   0.048   1.988   6.112  0.0686  0.2022 -0.0769
 2640SOL    HW119382   0.099   2.043   6.171 -0.1800  0.6690 -0.2943
 2640SOL    HW219383   0.024   2.060   6.053 -4.4285 -2.0700 -0.9562
 2641SOL     OW19384   3.426   1.077   3.089  0.0581  0.8329 -0.0442
 2641SOL    HW119385   3.489   1.149   3.095  1.0004  0.2335 -3.0979
 2641SOL    HW219386   3.403   1.063   3.181  2.0920 -1.0032  0.1637
 2642SOL     OW19387   0.069   4.160   6.272  0.4931  0.0445 -0.4026
 2642SOL    HW119388   0.150   4.142   6.320  0.2856  0.6746  0.1684
 2642SOL    HW219389   0.006   4.183   6.339  0.7333 -0.9875  0.1846
 2643SOL     OW19390   0.977   2.263   3.008  0.4811  0.0405 -0.1770
 2643SOL    HW119391   0.984   2.211   3.088  1.1420 -2.6319 -2.0061
 2643SOL    HW219392   1.066   2.256   2.975 -0.2857  0.6038 -2.3727
 2644SOL     OW19393   4.547   2.867   1.498  0.3511  0.2716 -0.2949
 2644SOL    HW119394   4.545   2.899   1.408  1.4406 -0.6879 -0.6643
 2644SOL    HW219395   4.633   2.826   1.487 -0.2419 -1.1630  0.3920
 2645SOL     OW19396   0.619   3.870   2.977 -0.4427 -0.3962 -0.1188
 2645SOL    HW119397   0.529   3.845   2.953 -1.1932  1.7060  0.5526
 2645SOL    HW219398   0.662   3.834   2.899 -0.7006 -0.5333 -0.1972
 2646SOL     OW19399   3.851   0.404  12.486  0.0485  0.1452  0.2683
 2646SOL    HW119400   3.842   0.310  12.470 -1.0241  0.3564 -0.4036
 2646SOL    HW219401   3.927   0.398  12.543  1.3073 -0.0880 -1.4487
 2647SOL     OW19402   1.415   1.561   4.029 -0.2529 -0.1925  0.2764
 2647SOL    HW119403   1.347   1.620   4.062  1.4339  0.4017  2.7047
 2647SOL    HW219404   1.497   1.581   4.075  0.9627 -2.9821 -0.6773
 2648SOL     OW19405   1.284   2.846   2.093 -0.0563 -0.3358 -0.2475
 2648SOL    HW119406   1.234   2.770   2.063  1.7061 -1.4357 -0.3712
 2648SOL    HW219407   1.259   2.904   2.022 -0.4750  0.1391  0.2847
 2649SOL     OW19408   2.052   2.671  12.248  0.0490  0.1408  1.0204
 2649SOL    HW119409   2.094   2.639  12.328 -2.0776 -2.6702  1.0220
 2649SOL    HW219410   2.075   2.598  12.191 -0.3253  1.5825 -0.9601
 2650SOL     OW19411   2.259   4.616  10.389  0.3018  0.4846 -0.0001
 2650SOL    HW119412   2.353   4.612  10.372 -0.0262 -1.2399 -1.4631
 2650SOL    HW219413   2.254   4.562  10.468 -0.0689 -1.3192 -1.2545
 2651SOL     OW19414   3.627   3.026  13.278 -0.5771  0.8136  0.4838
 2651SOL    HW119415   3.638   2.937  13.245  0.8638  0.8633  0.8301
 2651SOL    HW219416   3.593   3.011  13.366  0.7071  2.2109  1.2158
 2652SOL     OW19417   4.649   0.785   7.186 -0.7262 -0.1869 -0.2146
 2652SOL    HW119418   4.564   0.770   7.145 -0.9990 -0.8693  0.5957
 2652SOL    HW219419   4.630   0.829   7.269 -2.7225 -1.7206  0.1400
 2653SOL     OW19420   1.290   1.059   8.951 -0.3286  0.0545 -0.2624
 2653SOL    HW119421   1.239   1.106   9.017 -0.8726  1.2581 -1.5365
 2653SOL    HW219422   1.369   1.037   8.999 -0.7614  2.0874  1.4034
 2654SOL     OW19423   4.110   1.520   7.921 -0.0776 -0.2365  0.2057
 2654SOL    HW119424   4.050   1.451   7.893 -1.6290  0.6724  1.2881
 2654SOL    HW219425   4.042   1.587   7.915 -0.7224 -0.6531  2.8894
 2655SOL     OW19426   3.904   4.479   8.415  0.4161 -0.9833 -0.3117
 2655SOL    HW119427   3.955   4.517   8.344 -1.3154  1.1236 -0.4687
 2655SOL    HW219428   3.855   4.418   8.360 -0.0123 -0.2308 -0.7753
 2656SOL     OW19429   2.239   4.443  17.611 -0.2649  0.1765 -0.3293
 2656SOL    HW119430   2.283   4.358  17.604 -0.7486 -0.1206  0.1842
 2656SOL    HW219431   2.291   4.476  17.684  2.3108 -1.0307 -1.6308
 2657SOL     OW19432   1.637   3.293   7.478 -0.3065  0.0544 -0.2414
 2657SOL    HW119433   1.587   3.311   7.558  0.2737  1.2665 -0.1521
 2657SOL    HW219434   1.591   3.347   7.413 -1.9079 -0.6520  0.3065
 2658SOL     OW19435   2.280   2.757  12.077 -0.1782  0.8165 -0.0166
 2658SOL    HW119436   2.315   2.723  11.995 -0.6925 -1.0204  0.5204
 2658SOL    HW219437   2.197   2.800  12.056 -1.1116 -2.0772 -2.1857
 2659SOL     OW19438   1.505   3.288   5.472 -0.0140 -0.0424  0.0325
 2659SOL    HW119439   1.411   3.267   5.475  0.0226 -0.0854  0.7898
 2659SOL    HW219440   1.500   3.383   5.483  0.1111  0.1366 -1.4526
 2660SOL     OW19441   1.405   3.050  17.093 -0.0310 -0.0253  0.2298
 2660SOL    HW119442   1.316   3.069  17.123 -0.1236  0.1185 -0.1304
 2660SOL    HW219443   1.402   3.098  17.010 -0.7358  0.1648  0.3626
 2661SOL     OW19444   2.574   3.738   2.763 -0.0634  0.7206 -0.0327
 2661SOL    HW119445   2.612   3.658   2.727 -0.3093 -0.7292  2.9301
 2661SOL    HW219446   2.617   3.802   2.706 -1.3251  0.8696 -0.8239
 2662SOL     OW19447   2.268   1.797   6.342  0.1145  0.1071  0.4850
 2662SOL    HW119448   2.247   1.889   6.357 -0.2282  0.0640  0.2891
 2662SOL    HW219449   2.208   1.791   6.267  1.4238 -2.4019 -0.3551
 2663SOL     OW19450   3.781   3.404   6.226  0.6926  0.0098  0.2189
 2663SOL    HW119451   3.702   3.420   6.175  1.1528 -0.4010 -0.6303
 2663SOL    HW219452   3.747   3.360   6.304  0.3622 -0.5631 -0.2446
 2664SOL     OW19453   1.188   4.615   2.146  0.1408  0.3382  0.1831
 2664SOL    HW119454   1.217   4.524   2.157 -1.0027 -0.0657 -0.1762
 2664SOL    HW219455   1.247   4.656   2.082 -0.8632 -0.1545 -1.0659
 2665SOL     OW19456   1.079   2.706  14.539  0.1498  0.1406 -0.4805
 2665SOL    HW119457   1.070   2.652  14.618 -1.3199 -0.0738 -0.8039
 2665SOL    HW219458   1.027   2.783  14.560 -0.2774 -0.2008 -0.2954
 2666SOL     OW19459   3.050   3.848   0.568  0.0621 -0.9982  0.1689
 2666SOL    HW119460   3.064   3.818   0.658 -0.2351 -0.8418  0.2648
 2666SOL    HW219461   3.106   3.784   0.523  0.9737  2.2492 -3.3002
 2667SOL     OW19462   0.062   3.139   6.068 -0.6006 -0.0629 -0.1027
 2667SOL    HW119463   0.061   3.099   6.155  0.0563  2.7315  1.1844
 2667SOL    HW219464   0.156   3.127   6.056 -0.4875  3.4632 -2.5548
 2668SOL     OW19465   3.229   4.124  10.015 -0.3417 -0.0101 -0.1490
 2668SOL    HW119466   3.268   4.096   9.932  4.3648 -1.2950  2.4847
 2668SOL    HW219467   3.247   4.052  10.076 -0.5705 -0.9037 -1.1386
 2669SOL     OW19468   1.953   3.375   2.558 -0.8074  0.1898  0.0200
 2669SOL    HW119469   1.871   3.352   2.515 -1.5563  0.3184  1.3913
 2669SOL    HW219470   1.948   3.467   2.532  1.9497  0.5350  0.7060
 2670SOL     OW19471   2.498   1.842  15.691  0.6926 -0.4216 -0.2801
 2670SOL    HW119472   2.420   1.809  15.736 -0.0517  0.7523 -0.7006
 2670SOL    HW219473   2.555   1.766  15.697  0.1493 -0.7489  0.8597
 2671SOL     OW19474   1.498   4.510  13.246 -0.0696 -0.6401 -0.1166
 2671SOL    HW119475   1.588   4.480  13.233  0.5127  1.3517 -0.6498
 2671SOL    HW219476   1.508   4.574  13.175 -0.9303 -0.8141 -0.3955
 2672SOL     OW19477   2.744   2.851   3.472 -0.1871  0.3113 -0.1841
 2672SOL    HW119478   2.715   2.844   3.563 -0.4113  2.7503 -0.0853
 2672SOL    HW219479   2.834   2.874   3.495  0.4624 -2.8882  0.5362
 2673SOL     OW19480   3.167   0.093  13.728  0.1616 -0.0961  0.4739
 2673SOL    HW119481   3.181   0.188  13.736 -2.9229  0.3972 -0.2326
 2673SOL    HW219482   3.257   0.066  13.707  0.2542  0.2260  0.4435
 2674SOL     OW19483   3.115   4.593   5.429 -0.0631 -0.0533  0.4519
 2674SOL    HW119484   3.107   4.507   5.388 -3.4271 -0.0007  1.0559
 2674SOL    HW219485   3.030   4.599   5.472 -0.8430  2.0587 -1.3566
 2675SOL     OW19486   3.616   1.986   7.357  0.4329  0.0060 -0.1021
 2675SOL    HW119487   3.654   1.899   7.369 -0.7119 -0.2393  1.7989
 2675SOL    HW219488   3.695   2.037   7.344  0.1208  0.0398 -1.9134
 2676SOL     OW19489   3.810   4.587   5.374  0.7247 -0.0310 -0.3052
 2676SOL    HW119490   3.763   4.641   5.310  0.9410  1.7381  1.0604
 2676SOL    HW219491   3.738   4.554   5.429 -0.5070  1.4716 -1.0217
 2677SOL     OW19492   3.263   1.659  12.739  0.0925  0.0112  0.5913
 2677SOL    HW119493   3.240   1.567  12.745 -0.6138  0.1678  0.2645
 2677SOL    HW219494   3.270   1.684  12.831  0.0775  1.3020  0.2415
 2678SOL     OW19495   0.712   2.146  17.519  0.4868 -0.8957 -0.2825
 2678SOL    HW119496   0.624   2.112  17.537  1.3822 -1.5060  2.8087
 2678SOL    HW219497   0.704   2.240  17.531  0.0552 -1.2918  2.5387
 2679SOL     OW19498   3.205   1.562   8.009  0.0682  0.1527 -0.6670
 2679SOL    HW119499   3.217   1.655   8.027  0.0223  0.2076 -0.9294
 2679SOL    HW219500   3.179   1.539   8.098  0.9963  2.1997  0.1192
 2680SOL     OW19501   3.465   3.850   2.826 -0.1148 -0.2018 -0.0838
 2680SOL    HW119502   3.505   3.889   2.749 -1.4517 -0.6145 -0.9885
 2680SOL    HW219503   3.430   3.936   2.851  0.3097  0.2832 -1.1937
 2681SOL     OW19504   3.493   3.937   1.380 -0.0589 -0.0173 -0.0459
 2681SOL    HW119505   3.458   3.904   1.297  1.0454  3.0879 -1.7240
 2681SOL    HW219506   3.522   3.851   1.410  0.0372  0.2741  0.6880
 2682SOL     OW19507   3.225   3.903   1.641 -0.2843 -0.0165 -0.1017
 2682SOL    HW119508   3.206   3.947   1.558 -2.3060  0.6858  0.7292
 2682SOL    HW219509   3.319   3.900   1.657 -0.3191 -1.7385 -0.1565
 2683SOL     OW19510   4.166   0.152   6.895  0.0562 -0.9150  0.0915
 2683SOL    HW119511   4.096   0.216   6.909  1.3799  0.4821  0.2413
 2683SOL    HW219512   4.234   0.199   6.942  1.1019 -0.0109 -2.3296
 2684SOL     OW19513   0.357   1.249  16.255  0.1090 -0.5214 -0.2713
 2684SOL    HW119514   0.411   1.260  16.333 -0.1337  0.1028 -0.1924
 2684SOL    HW219515   0.284   1.194  16.283  0.3629 -0.6248  0.1836
 2685SOL     OW19516   4.011   1.921   2.854  1.1850  0.0329  0.4814
 2685SOL    HW119517   4.050   1.943   2.769  0.0820 -0.0773 -0.0392
 2685SOL    HW219518   3.916   1.922   2.851  1.1395 -3.0946  1.5022
 2686SOL     OW19519   2.447   3.605   0.260  0.0559  0.2918  0.2119
 2686SOL    HW119520   2.404   3.690   0.272  0.6529  1.0903 -3.2893
 2686SOL    HW219521   2.404   3.551   0.326 -1.5470  2.3912  0.8731
 2687SOL     OW19522   4.369   4.367   2.456  0.1548  0.4195  0.2156
 2687SOL    HW119523   4.444   4.322   2.495 -0.5033 -0.9074 -0.0666
 2687SOL    HW219524   4.328   4.295   2.408  2.2862 -0.6440 -0.0224
 2688SOL     OW19525   3.383   2.751   6.416 -0.2584  0.0842 -0.9431
 2688SOL    HW119526   3.339   2.834   6.431  0.1823 -0.3046  2.5767
 2688SOL    HW219527   3.313   2.708   6.367  0.3405  1.4900 -3.0489
 2689SOL     OW19528   3.501   3.097   5.128  0.2037 -0.3163 -0.3290
 2689SOL    HW119529   3.438   3.025   5.127  0.0925 -0.2318  0.5276
 2689SOL    HW219530   3.496   3.136   5.040 -2.1749  0.8353  0.3286
 2690SOL     OW19531   0.155   4.451   8.339 -0.0835 -0.0295 -0.2716
 2690SOL    HW119532   0.097   4.450   8.416 -0.9765  0.3095 -0.9374
 2690SOL    HW219533   0.194   4.537   8.350  2.5434 -1.3856  1.0854
 2691SOL     OW19534   4.442   2.767   6.727 -0.5676  0.2085  0.1667
 2691SOL    HW119535   4.447   2.762   6.822  0.0910 -1.4245  0.0353
 2691SOL    HW219536   4.347   2.770   6.710 -0.9328 -1.9238  1.9222
 2692SOL     OW19537   1.048   1.984   3.961 -0.5525 -0.0318  0.0855
 2692SOL    HW119538   0.959   1.957   3.941  0.4058 -2.3037 -1.1578
 2692SOL    HW219539   1.091   1.948   3.883  0.0628 -0.3274  0.5643
 2693SOL     OW19540   3.609   0.308  14.180  0.1000  0.1438 -0.1617
 2693SOL    HW119541   3.586   0.284  14.091 -2.0105 -2.3117  1.0298
 2693SOL    HW219542   3.521   0.331  14.210 -0.1328  1.0724 -1.5992
 2694SOL     OW19543   1.725   0.820   6.700  0.3083 -0.2348 -0.3164
 2694SOL    HW119544   1.719   0.877   6.623  2.0372  2.3150  1.4298
 2694SOL    HW219545   1.804   0.773   6.676 -1.6371 -3.6104 -0.1210
 2695SOL     OW19546   3.196   2.293   6.066 -0.1530  0.0569  0.0196
 2695SOL    HW119547   3.130   2.224   6.057  2.3014 -2.2796 -0.1289
 2695SOL    HW219548   3.194   2.326   5.976 -3.0078 -0.9648 -0.2941
 2696SOL     OW19549   2.864   0.703   2.074  0.5318 -0.0567 -0.7902
 2696SOL    HW119550   2.951   0.731   2.101  0.3425 -0.8638  0.6291
 2696SOL    HW219551   2.817   0.773   2.119 -0.5796 -0.3609 -1.4733
 2697SOL     OW19552   3.135   0.025  12.361 -0.2372 -0.1114  0.0612
 2697SOL    HW119553   3.074   0.086  12.319  0.4082  1.2446  1.0898
 2697SOL    HW219554   3.097   4.667  12.333 -0.5730  0.6028 -1.5926
 2698SOL     OW19555   3.675   3.459  10.724 -0.2224 -0.0976 -0.3550
 2698SOL    HW119556   3.595   3.417  10.691 -0.7702 -0.2925  1.2038
 2698SOL    HW219557   3.648   3.550  10.712  1.0025  0.4397  0.8927
 2699SOL     OW19558   1.305   0.465   3.793  0.6000  0.4714  0.1330
 2699SOL    HW119559   1.300   0.555   3.761  0.2364  0.1557 -0.7040
 2699SOL    HW219560   1.324   0.483   3.885 -0.8953  0.9927  0.3481
 2700SOL     OW19561   1.093   4.119   7.361  1.1274  0.2706 -0.0876
 2700SOL    HW119562   1.155   4.191   7.345  1.3020  0.3111  0.7754
 2700SOL    HW219563   1.057   4.134   7.449 -0.1764  1.7606 -0.8823
 2701SOL     OW19564   3.100   0.849   3.535  0.2440  0.1683 -0.3898
 2701SOL    HW119565   3.027   0.910   3.546  1.3689  1.8873 -2.4388
 2701SOL    HW219566   3.154   0.870   3.611 -1.5483  0.1456  0.8648
 2702SOL     OW19567   2.949   3.309   6.383  0.3151 -0.1283  0.6796
 2702SOL    HW119568   2.885   3.274   6.444  0.3307 -2.1331 -0.4554
 2702SOL    HW219569   2.933   3.259   6.302 -0.1393  1.4000 -0.1777
 2703SOL     OW19570   2.995   2.019   6.605 -0.1298  0.0219  0.2530
 2703SOL    HW119571   2.985   2.100   6.654 -0.5126  0.3000 -0.2772
 2703SOL    HW219572   2.905   1.986   6.610 -0.2917  0.2954 -0.7418
 2704SOL     OW19573   1.411   0.554   4.043 -0.9239  0.2627 -0.0061
 2704SOL    HW119574   1.487   0.512   4.002 -0.8889  1.2274 -0.9379
 2704SOL    HW219575   1.446   0.626   4.096  1.7807 -2.5100  2.0158
 2705SOL     OW19576   3.664   0.863  12.388 -0.4661 -0.0445 -0.0319
 2705SOL    HW119577   3.738   0.922  12.372 -0.6168  0.5764  1.5459
 2705SOL    HW219578   3.704   0.778  12.373 -1.1832 -0.5818  1.1443
 2706SOL     OW19579   3.890   0.572   6.111  0.2823  0.8554  0.1550
 2706SOL    HW119580   3.899   0.479   6.088  1.4300  0.8638  0.5741
 2706SOL    HW219581   3.796   0.572   6.128 -0.2463  2.2230 -2.6759
 2707SOL     OW19582   4.165   4.705  14.480 -0.2535  0.3580 -0.0385
 2707SOL    HW119583   4.168   4.642  14.409 -0.6536  0.7221 -0.3769
 2707SOL    HW219584   4.158   0.065  14.436 -2.3355 -0.4764 -1.2963
 2708SOL     OW19585   1.620   0.506  10.602  0.2258  0.2145  0.2107
 2708SOL    HW119586   1.548   0.469  10.551  0.3177 -0.7100  0.7578
 2708SOL    HW219587   1.641   0.425  10.648  2.9288  0.8148  0.0072
 2709SOL     OW19588   2.413   2.394   4.108  0.6976 -0.2906 -0.4972
 2709SOL    HW119589   2.318   2.404   4.102  0.4911 -3.0113 -2.0433
 2709SOL    HW219590   2.423   2.331   4.037  1.3017 -0.5656 -0.1619
 2710SOL     OW19591   4.547   2.460  16.435  0.3084 -0.2392 -0.4501
 2710SOL    HW119592   4.501   2.391  16.388  0.0633 -1.5574  1.7336
 2710SOL    HW219593   4.620   2.494  16.383  0.5826  2.3776  1.6112
 2711SOL     OW19594   1.835   3.180   9.638  0.0584  0.2841 -1.0500
 2711SOL    HW119595   1.878   3.113   9.691 -4.7481 -0.9837  1.3150
 2711SOL    HW219596   1.807   3.240   9.707  2.9882 -0.3748  0.6715
 2712SOL     OW19597   0.557   1.551  13.689 -0.0188 -0.6983  0.1910
 2712SOL    HW119598   0.639   1.600  13.691 -0.7931  0.6338 -0.8224
 2712SOL    HW219599   0.492   1.601  13.737 -1.0827 -2.3132  0.4515
 2713SOL     OW19600   3.736   2.667   3.975 -0.8138  0.2875 -0.5186
 2713SOL    HW119601   3.791   2.693   3.901 -1.1362  1.2545 -0.4213
 2713SOL    HW219602   3.707   2.580   3.947 -1.1628  0.2192  0.0522
 2714SOL     OW19603   1.298   3.758   8.412  0.1765 -0.2793  0.5901
 2714SOL    HW119604   1.292   3.781   8.505  0.5456  0.5069  0.4238
 2714SOL    HW219605   1.250   3.676   8.407  1.2513 -0.9457  1.0734
 2715SOL     OW19606   0.149   3.313  13.034  0.4010 -0.2089  0.3099
 2715SOL    HW119607   0.075   3.331  13.092  1.1301 -0.2596  1.2650
 2715SOL    HW219608   0.124   3.365  12.957 -0.4871 -1.6674 -0.3960
 2716SOL     OW19609   0.365   1.166   2.486  0.1866 -0.7035 -0.5234
 2716SOL    HW119610   0.438   1.219   2.453  0.8468 -2.1750 -1.4278
 2716SOL    HW219611   0.401   1.079   2.465  1.1999 -0.5561  0.5914
 2717SOL     OW19612   0.907   1.404   2.367 -0.6814 -0.0279 -0.1348
 2717SOL    HW119613   0.831   1.380   2.420 -1.6499 -2.0977 -2.4674
 2717SOL    HW219614   0.911   1.498   2.384 -0.4520 -0.0300 -0.1770
 2718SOL     OW19615   1.704   0.148   6.210 -1.0131 -0.5232 -0.2870
 2718SOL    HW119616   1.659   0.178   6.132  0.4495 -0.2285 -1.0297
 2718SOL    HW219617   1.658   0.065   6.217 -2.2992  0.1897 -0.2782
 2719SOL     OW19618   3.642   2.412   6.961  0.0193 -0.0978  0.0415
 2719SOL    HW119619   3.564   2.403   6.906 -0.9653 -0.5620  1.5169
 2719SOL    HW219620   3.693   2.475   6.910  0.0572  0.1662  0.4038
 2720SOL     OW19621   1.909   2.313   6.038  0.4437  0.4025  0.7384
 2720SOL    HW119622   2.002   2.323   6.055  0.7139 -0.1058 -0.4037
 2720SOL    HW219623   1.908   2.224   6.001 -0.6236  0.3195  0.9593
 2721SOL     OW19624   1.724   2.775   8.091  0.6244  0.5110  0.5151
 2721SOL    HW119625   1.632   2.779   8.116 -0.2753  0.7337 -2.7808
 2721SOL    HW219626   1.764   2.741   8.171 -1.5506 -0.2228  1.2850
 2722SOL     OW19627   4.512   1.032  10.435  0.1703  0.2558  0.2071
 2722SOL    HW119628   4.418   1.044  10.427 -0.1972 -2.4979  0.3289
 2722SOL    HW219629   4.540   1.010  10.524 -0.5604 -1.0291  0.1165
 2723SOL     OW19630   3.455   1.413   7.751 -0.3331  0.1534 -0.5474
 2723SOL    HW119631   3.517   1.343   7.729 -2.9537 -1.8203 -1.7949
 2723SOL    HW219632   3.400   1.385   7.825  1.2275 -0.0743  0.5400
 2724SOL     OW19633   1.357   3.495   2.302 -0.4083 -0.4074  0.0896
 2724SOL    HW119634   1.277   3.530   2.263  0.3397  0.4924 -0.6684
 2724SOL    HW219635   1.330   3.479   2.392  0.2531  0.5518  0.4663
 2725SOL     OW19636   1.404   2.803   2.842 -0.6437 -1.0213  0.1963
 2725SOL    HW119637   1.442   2.732   2.894  0.6841 -0.2808  0.2465
 2725SOL    HW219638   1.353   2.740   2.790 -0.3266  0.2815 -1.6934
 2726SOL     OW19639   2.666   3.878   8.971  0.6108  0.0380  0.0880
 2726SOL    HW119640   2.705   3.814   8.911  0.6058  0.0321  0.0911
 2726SOL    HW219641   2.702   3.959   8.935 -0.1380  0.5659  0.5319
 2727SOL     OW19642   1.981   1.073   0.453  0.2354 -0.5315 -0.2084
 2727SOL    HW119643   1.935   1.028   0.383 -2.2134  0.0130  1.0606
 2727SOL    HW219644   1.947   1.162   0.443  2.0105  0.3722  1.7016
 2728SOL     OW19645   1.611   2.727   6.992 -0.1946  0.4666 -0.6674
 2728SOL    HW119646   1.601   2.634   7.010  1.0623  0.6279  0.9247
 2728SOL    HW219647   1.529   2.769   7.019  0.9621 -0.0369  3.6987
 2729SOL     OW19648   0.346   1.540   2.066 -0.1915  0.3719  0.2414
 2729SOL    HW119649   0.291   1.494   2.129  1.4634  0.7671  1.9834
 2729SOL    HW219650   0.311   1.529   1.978  0.7378 -1.7969  0.1406
 2730SOL     OW19651   1.235   2.750   9.300 -0.0260  0.1249  0.2103
 2730SOL    HW119652   1.210   2.828   9.250 -1.5767 -0.9102 -0.6281
 2730SOL    HW219653   1.223   2.775   9.392 -2.1257 -2.8662  0.7412
 2731SOL     OW19654   2.913   0.511   4.929 -0.0326  0.1279 -0.0278
 2731SOL    HW119655   2.836   0.512   4.986 -0.3350  0.4922 -0.4457
 2731SOL    HW219656   2.908   0.421   4.898 -2.6344  0.4386 -0.4729
 2732SOL     OW19657   1.488   3.136   5.888 -0.0702  0.1908  0.1548
 2732SOL    HW119658   1.423   3.127   5.958  0.5405  1.4988  0.8850
 2732SOL    HW219659   1.451   3.084   5.816 -1.1888 -1.5008  1.9282
 2733SOL     OW19660   1.035   4.040   1.317 -0.3885  0.8589 -0.4968
 2733SOL    HW119661   0.971   4.106   1.291 -0.2853  1.0565 -0.2420
 2733SOL    HW219662   0.991   3.967   1.360  0.3662  0.7055  0.0123
 2734SOL     OW19663   0.158   1.240  12.633 -1.0282  0.2168 -0.3050
 2734SOL    HW119664   0.076   1.261  12.679 -1.7744 -3.8930  0.2515
 2734SOL    HW219665   0.144   1.281  12.548 -1.0560 -1.4212 -1.0891
 2735SOL     OW19666   1.453   2.098  15.524 -0.0577 -0.3429  0.1754
 2735SOL    HW119667   1.442   2.058  15.610 -0.2349 -1.8988 -0.5752
 2735SOL    HW219668   1.429   2.029  15.462 -0.0000 -1.8670  1.8845
 2736SOL     OW19669   2.141   1.625  10.663  0.2896 -0.1994 -0.3193
 2736SOL    HW119670   2.147   1.659  10.752 -0.7501 -1.5590  0.2633
 2736SOL    HW219671   2.200   1.677  10.608  2.8785 -1.3130  1.3846
 2737SOL     OW19672   2.764   0.284  13.713 -0.0650  0.2571 -0.5779
 2737SOL    HW119673   2.748   0.193  13.688 -0.0759  0.1609 -0.2271
 2737SOL    HW219674   2.735   0.283  13.804  1.2153 -0.7565 -0.1846
 2738SOL     OW19675   0.834   3.144  17.109  0.2622  0.2089 -0.3228
 2738SOL    HW119676   0.782   3.172  17.035 -0.9432 -0.3427  0.3175
 2738SOL    HW219677   0.842   3.226  17.158  0.5612  0.2858 -0.5020
 2739SOL     OW19678   3.404   1.656   2.650 -0.3098 -0.4367  0.0970
 2739SOL    HW119679   3.370   1.594   2.586  0.0987 -1.3391  0.7487
 2739SOL    HW219680   3.417   1.730   2.591 -1.0740 -1.7588 -1.7332
 2740SOL     OW19681   0.751   3.618   8.966 -0.0561 -0.0917 -0.2109
 2740SOL    HW119682   0.676   3.645   8.912 -0.3011 -0.9916 -0.3266
 2740SOL    HW219683   0.813   3.606   8.894  0.0630  0.1704 -0.1515
 2741SOL     OW19684   0.429   4.402   9.219  0.2682 -0.3060 -0.4815
 2741SOL    HW119685   0.390   4.334   9.274  0.3292  1.3433  1.6024
 2741SOL    HW219686   0.363   4.470   9.226  2.0080  1.5483 -2.0916
 2742SOL     OW19687   1.906   1.366   0.477  0.4377 -1.1834  0.7337
 2742SOL    HW119688   1.889   1.459   0.467 -0.1177 -1.2102  1.3937
 2742SOL    HW219689   1.823   1.324   0.499 -0.1880 -0.2813  0.0625
 2743SOL     OW19690   0.614   3.102  16.344 -0.0869  0.3089 -0.0456
 2743SOL    HW119691   0.686   3.044  16.320  0.2717  0.4083  0.7866
 2743SOL    HW219692   0.542   3.071  16.289  0.4692 -2.0317  0.5687
 2744SOL     OW19693   0.977   2.389   7.291 -0.0206 -0.1825  1.1447
 2744SOL    HW119694   0.957   2.296   7.279  2.6243 -0.4989 -0.6116
 2744SOL    HW219695   1.009   2.390   7.381 -1.0451 -1.8056  1.5340
 2745SOL     OW19696   2.170   2.247   9.616 -0.5507 -0.2997 -0.3938
 2745SOL    HW119697   2.145   2.241   9.524  0.8789  0.7219 -0.8480
 2745SOL    HW219698   2.083   2.250   9.657 -0.2597  1.4591  0.1278
 2746SOL     OW19699   3.029   3.540   6.520 -0.3409 -0.5231 -0.3988
 2746SOL    HW119700   2.986   3.504   6.443  2.0369 -2.1227 -0.9821
 2746SOL    HW219701   2.963   3.605   6.545  2.4707  1.6747  1.3507
 2747SOL     OW19702   0.027   3.845  13.937 -0.3020 -0.6447  0.1401
 2747SOL    HW119703   0.032   3.882  13.849  0.7202 -1.9812 -0.3623
 2747SOL    HW219704   0.096   3.896  13.979 -1.4795  0.0458  1.2339
 2748SOL     OW19705   1.760   3.918   5.663  0.6247  0.5576 -0.5602
 2748SOL    HW119706   1.806   3.887   5.585  0.5740  0.5589 -0.5906
 2748SOL    HW219707   1.670   3.922   5.630  0.4474  0.6962 -0.0556
 2749SOL     OW19708   0.965   0.054   2.203 -0.0892 -0.3781  0.4603
 2749SOL    HW119709   1.040   4.723   2.221  0.7302  0.1933 -1.1476
 2749SOL    HW219710   0.935   0.001   2.130 -0.2535 -1.4022  1.2845
 2750SOL     OW19711   2.657   4.207   5.127  0.2360 -0.3621  0.1100
 2750SOL    HW119712   2.665   4.112   5.122  1.8000 -0.2830  1.3063
 2750SOL    HW219713   2.738   4.222   5.175 -0.3178  0.9390  0.6349
 2751SOL     OW19714   2.241   2.926   0.020 -0.0467  0.3895  0.3255
 2751SOL    HW119715   2.228   3.020   0.032  0.7477  1.0030 -3.4947
 2751SOL    HW219716   2.332   2.927  17.692 -0.0735 -1.0400  0.1972
 2752SOL     OW19717   0.359   1.983   9.509 -0.2295 -0.7507  0.0435
 2752SOL    HW119718   0.334   1.986   9.601  4.3028  1.0073  1.1839
 2752SOL    HW219719   0.300   1.923   9.462  1.1751 -0.3806 -2.1999
 2753SOL     OW19720   4.145   2.195   3.594 -0.3741  0.4656  0.0549
 2753SOL    HW119721   4.173   2.109   3.625 -1.2833 -0.4008 -1.5545
 2753SOL    HW219722   4.199   2.198   3.515 -0.3394  1.2020  0.1052
 2754SOL     OW19723   1.067   0.866   8.043  0.1687 -0.0027  0.0351
 2754SOL    HW119724   1.145   0.811   8.046 -1.1606 -1.7672  2.0154
 2754SOL    HW219725   1.099   0.925   7.974  1.3902 -0.1828  0.4333
 2755SOL     OW19726   3.040   0.533   1.690 -0.0384 -0.5597  0.4314
 2755SOL    HW119727   3.024   0.620   1.654  1.8920 -0.2440  0.3648
 2755SOL    HW219728   2.966   0.482   1.656 -0.4573  0.1907  0.2264
 2756SOL     OW19729   2.894   4.622   6.837  0.6728  0.2889 -0.6381
 2756SOL    HW119730   2.859   4.622   6.926  0.8265 -1.3284 -0.5701
 2756SOL    HW219731   2.891   4.529   6.813  0.3662  0.6004 -1.8270
 2757SOL     OW19732   3.583   0.777   6.013  0.6673  0.1580 -0.4067
 2757SOL    HW119733   3.593   0.683   6.026 -0.5075  0.2021  0.8735
 2757SOL    HW219734   3.501   0.802   6.057  0.9604  0.4274 -0.0183
 2758SOL     OW19735   4.466   4.544  15.933 -0.1800 -0.0694  0.5944
 2758SOL    HW119736   4.500   4.633  15.936 -1.1480  0.3492 -0.8981
 2758SOL    HW219737   4.443   4.524  15.842 -1.0935  1.8156  0.3990
 2759SOL     OW19738   4.231   2.316   0.188  0.3388 -0.0743 -0.5103
 2759SOL    HW119739   4.258   2.272   0.269  1.0771  1.5156  0.1207
 2759SOL    HW219740   4.287   2.278   0.121  0.6098 -2.7819  1.2746
 2760SOL     OW19741   2.806   0.727   7.773  0.0487 -0.0957 -0.1706
 2760SOL    HW119742   2.722   0.696   7.808 -0.4496  1.0489 -0.3846
 2760SOL    HW219743   2.860   0.657   7.811  0.9984  0.3418 -0.7303
 2761SOL     OW19744   2.573   3.960   6.658 -0.4182 -0.2048 -0.2086
 2761SOL    HW119745   2.590   3.878   6.704  1.7767 -0.2367 -1.0840
 2761SOL    HW219746   2.477   3.964   6.655 -0.3379 -0.3483 -3.0950
 2762SOL     OW19747   4.088   1.114   8.012 -0.2230  0.6800 -0.3665
 2762SOL    HW119748   4.002   1.139   7.979  0.3724  0.2190 -2.2478
 2762SOL    HW219749   4.129   1.055   7.949 -0.3071  0.4963 -0.2528
 2763SOL     OW19750   3.949   3.707   0.503 -0.2813 -0.6442 -0.2958
 2763SOL    HW119751   3.926   3.776   0.565 -0.3454 -0.4715 -0.5146
 2763SOL    HW219752   3.876   3.645   0.513  1.5961 -3.0608 -1.6567
 2764SOL     OW19753   1.823   2.234   3.045 -0.2197 -0.2053  0.1162
 2764SOL    HW119754   1.858   2.323   3.057 -1.1253  0.0344  1.0080
 2764SOL    HW219755   1.903   2.182   3.038  1.0271  1.8455 -1.0132
 2765SOL     OW19756   4.403   0.779   8.043  0.6111  0.3277 -0.0608
 2765SOL    HW119757   4.336   0.791   8.111  0.8019  1.3834 -0.0564
 2765SOL    HW219758   4.364   0.786   7.955  3.0495 -0.6736 -1.1969
 2766SOL     OW19759   3.627   0.797  15.070  0.0169 -0.4904  0.0068
 2766SOL    HW119760   3.658   0.735  15.004 -0.2149 -0.7425  0.1363
 2766SOL    HW219761   3.713   0.831  15.095 -0.2739  0.2962 -0.0618
 2767SOL     OW19762   1.371   3.984  11.937  0.0026 -0.1437  0.2773
 2767SOL    HW119763   1.372   3.924  11.862 -0.3016  1.2942 -0.8678
 2767SOL    HW219764   1.334   3.926  12.004 -1.0063  1.2536  0.9283
 2768SOL     OW19765   3.109   1.907   5.281 -0.2563 -0.2459  0.3070
 2768SOL    HW119766   3.030   1.960   5.276 -0.1623 -0.1594 -0.3503
 2768SOL    HW219767   3.076   1.844   5.345  0.4212 -1.5611 -0.6390
 2769SOL     OW19768   3.178   0.276  15.987  0.1052  0.2240  0.3068
 2769SOL    HW119769   3.092   0.315  15.971 -0.3109 -0.9412 -0.2375
 2769SOL    HW219770   3.157   0.202  16.044 -0.4940 -0.2264 -0.5059
 2770SOL     OW19771   2.713   1.314   8.002 -0.6524  0.2551  0.7570
 2770SOL    HW119772   2.761   1.239   7.967 -1.4528  0.6325 -1.1607
 2770SOL    HW219773   2.749   1.387   7.951 -1.7880 -0.0578 -0.4789
 2771SOL     OW19774   3.926   1.638  10.341  0.7466  0.2132 -0.0712
 2771SOL    HW119775   3.923   1.733  10.331 -0.4877  0.1108 -0.7694
 2771SOL    HW219776   3.994   1.627  10.407 -1.7185 -0.6327  2.3228
 2772SOL     OW19777   2.073   4.355  12.938  0.2396  0.0033 -0.4810
 2772SOL    HW119778   2.139   4.409  12.981 -1.9383  0.7036  1.9934
 2772SOL    HW219779   2.064   4.285  13.003  2.7072 -0.5815 -0.7787
 2773SOL     OW19780   4.523   1.329   0.597  0.4296  0.5035 -0.4534
 2773SOL    HW119781   4.573   1.303   0.520 -0.4283 -1.8745 -0.1965
 2773SOL    HW219782   4.470   1.251   0.614  1.2878  0.0728  0.2273
 2774SOL     OW19783   2.739   1.640   7.644  0.0858  0.0937  0.1261
 2774SOL    HW119784   2.778   1.711   7.593  0.2909  0.9251  1.4342
 2774SOL    HW219785   2.648   1.661   7.626  0.7022  1.5174 -1.3327
 2775SOL     OW19786   1.726   0.973   6.478  0.4689 -0.5365 -0.0113
 2775SOL    HW119787   1.691   1.058   6.450 -0.9796 -1.1113  0.0602
 2775SOL    HW219788   1.792   0.963   6.410 -1.1344 -1.4740 -1.4259
 2776SOL     OW19789   2.721   2.600  15.339 -0.1308  0.0119  0.5423
 2776SOL    HW119790   2.747   2.692  15.330 -0.0081 -0.0234  0.5477
 2776SOL    HW219791   2.636   2.601  15.295 -0.5224  2.5255  1.3096
 2777SOL     OW19792   4.105   2.947   4.264 -0.8945 -0.0499 -0.1609
 2777SOL    HW119793   4.014   2.934   4.237 -0.1512  1.0826 -3.2527
 2777SOL    HW219794   4.105   3.043   4.268  1.0947 -0.0151 -1.1129
 2778SOL     OW19795   2.292   1.383  10.099 -0.3749  0.7495 -0.2297
 2778SOL    HW119796   2.215   1.410  10.049 -0.2106  0.3098 -0.7171
 2778SOL    HW219797   2.309   1.446  10.169  0.8928 -1.5154  1.4972
 2779SOL     OW19798   0.159   0.386   3.342  0.2414  0.0164 -0.2569
 2779SOL    HW119799   0.173   0.315   3.279 -3.5501 -0.8047 -0.1308
 2779SOL    HW219800   0.147   0.329   3.419  3.5500 -1.8779 -1.1192
 2780SOL     OW19801   0.774   3.685   3.365 -0.4633 -0.3103  0.4128
 2780SOL    HW119802   0.780   3.594   3.395 -1.8922 -0.9562 -1.2421
 2780SOL    HW219803   0.784   3.728   3.450 -0.3262 -0.6871  0.5860
 2781SOL     OW19804   2.761   0.765   5.219  0.0208  0.9117  0.7072
 2781SOL    HW119805   2.857   0.762   5.216  0.0073 -2.0176  2.2992
 2781SOL    HW219806   2.744   0.857   5.237 -2.0656  0.4143  1.2466
 2782SOL     OW19807   2.866   4.345   4.856  0.3237  0.3131  0.5043
 2782SOL    HW119808   2.954   4.383   4.856  1.7944 -3.1244  0.5744
 2782SOL    HW219809   2.819   4.416   4.900 -0.5435 -0.0226  0.1178
 2783SOL     OW19810   2.620   3.664   0.054  0.7870 -0.1302 -0.1891
 2783SOL    HW119811   2.655   3.739   0.102  1.3440 -0.3017 -0.3285
 2783SOL    HW219812   2.574   3.616   0.123  2.4665 -2.4077 -0.6285
 2784SOL     OW19813   4.702   2.607   0.404  0.0387 -0.3123  0.1311
 2784SOL    HW119814   0.018   2.691   0.427 -1.7588  0.0959  1.8374
 2784SOL    HW219815   4.612   2.636   0.390 -0.6015 -3.0251 -1.3590
 2785SOL     OW19816   2.040   1.671   1.662  0.2657  0.0292 -0.0661
 2785SOL    HW119817   1.981   1.746   1.668 -0.1483 -0.1908 -1.2276
 2785SOL    HW219818   2.015   1.617   1.737  1.8352  1.6625  1.6372
 2786SOL     OW19819   1.178   0.295   4.443  0.2461  0.2170  0.0940
 2786SOL    HW119820   1.200   0.322   4.354  1.8823 -0.3079  0.3367
 2786SOL    HW219821   1.086   0.322   4.450  0.3461  0.8506 -1.1030
 2787SOL     OW19822   2.101   1.084   4.085 -0.0054 -0.2076 -0.1295
 2787SOL    HW119823   2.172   1.146   4.068 -0.3311 -0.0783 -1.0316
 2787SOL    HW219824   2.133   1.006   4.039 -0.1596  0.5115 -1.4770
 2788SOL     OW19825   3.023   2.878  13.629 -0.4602  0.1217 -0.5434
 2788SOL    HW119826   2.936   2.914  13.645  0.2339  1.1620  0.9369
 2788SOL    HW219827   3.062   2.922  13.553  2.3359 -2.0002 -0.3551
 2789SOL     OW19828   1.841   3.266   6.194 -0.1962  0.0666 -0.0502
 2789SOL    HW119829   1.811   3.243   6.106  0.4700  0.0470 -0.2757
 2789SOL    HW219830   1.816   3.184   6.236  0.9035 -0.4594 -0.4157
 2790SOL     OW19831   2.979   2.192   7.931  0.1397  0.0119 -0.1564
 2790SOL    HW119832   2.933   2.153   8.006  1.2677 -1.2021 -0.0906
 2790SOL    HW219833   3.062   2.223   7.969 -0.6633  0.6373  1.0861
 2791SOL     OW19834   3.579   4.369  15.047 -0.0948 -0.2543  0.1852
 2791SOL    HW119835   3.532   4.430  14.991 -0.3940 -0.7782 -0.1228
 2791SOL    HW219836   3.586   4.417  15.130  3.0524  0.1154 -0.2743
 2792SOL     OW19837   2.355   1.031  10.840 -0.3800  0.6982 -0.7783
 2792SOL    HW119838   2.354   1.096  10.909 -2.0521  0.8702 -0.9472
 2792SOL    HW219839   2.390   1.086  10.770  1.2198  0.7727  0.0934
 2793SOL     OW19840   1.382   3.860  11.688  0.1158  0.2864  0.0380
 2793SOL    HW119841   1.320   3.881  11.619  1.3271  2.0464 -0.5245
 2793SOL    HW219842   1.436   3.795  11.642  0.3135  1.0974 -0.8630
 2794SOL     OW19843   0.085   4.230  16.211 -0.4005 -0.5431  0.1971
 2794SOL    HW119844   0.175   4.232  16.246 -0.3862 -0.2208  0.1420
 2794SOL    HW219845   0.077   4.324  16.193  0.0596 -0.2409  1.5777
 2795SOL     OW19846   3.109   3.057   0.106  0.3509  0.3666  0.8670
 2795SOL    HW119847   3.059   3.000   0.048  0.1722  1.1728  0.2354
 2795SOL    HW219848   3.040   3.116   0.136  0.5003  0.1783  1.5844
 2796SOL     OW19849   1.929   0.112   7.620  0.4000 -0.1252  0.5204
 2796SOL    HW119850   1.865   0.168   7.663 -2.3131 -1.1015 -2.2704
 2796SOL    HW219851   1.887   0.089   7.537  2.6907 -0.2235 -0.6163
 2797SOL     OW19852   3.690   4.428  13.816  0.1380  0.1072  0.2840
 2797SOL    HW119853   3.635   4.493  13.772 -1.5640 -1.4139  0.1690
 2797SOL    HW219854   3.725   4.386  13.738 -1.4482  0.0509 -0.4003
 2798SOL     OW19855   4.132   1.687   5.499  0.2483 -0.2561  0.2720
 2798SOL    HW119856   4.191   1.762   5.502 -1.5311  1.2046 -1.3942
 2798SOL    HW219857   4.183   1.616   5.538 -1.5430  0.1108  3.2727
 2799SOL     OW19858   1.097   4.209  13.979 -0.0084  0.2562  0.6899
 2799SOL    HW119859   1.054   4.125  13.997 -0.3933  0.0068 -1.4537
 2799SOL    HW219860   1.049   4.270  14.035  0.7506  1.5796 -0.0922
 2800SOL     OW19861   3.176   3.316   9.636  0.2381 -0.6604  0.2114
 2800SOL    HW119862   3.127   3.380   9.585 -0.4525 -0.3715  1.2594
 2800SOL    HW219863   3.106   3.252   9.648 -1.0626  0.5998 -0.8443
 2801SOL     OW19864   0.871   3.759   6.010  0.5212  0.5135 -0.4851
 2801SOL    HW119865   0.913   3.678   6.036 -0.1301 -0.6482 -3.0407
 2801SOL    HW219866   0.799   3.722   5.959 -0.3962  0.3984  0.8799
 2802SOL     OW19867   4.260   1.245  14.146  0.2474 -0.1698  0.2003
 2802SOL    HW119868   4.258   1.341  14.145  0.8933 -0.1721 -1.0731
 2802SOL    HW219869   4.338   1.223  14.095  0.3900  0.2635  0.2334
 2803SOL     OW19870   0.597   0.252   2.920 -0.5727 -0.1647  0.5247
 2803SOL    HW119871   0.553   0.266   2.836  1.0627 -1.2417 -0.5268
 2803SOL    HW219872   0.516   0.254   2.971 -1.2635 -1.2711 -0.5380
 2804SOL     OW19873   1.212   1.811   4.395 -0.7383  0.4043 -0.1812
 2804SOL    HW119874   1.143   1.866   4.358  0.1361  0.2018 -2.1113
 2804SOL    HW219875   1.243   1.762   4.319 -3.0628  4.0284 -3.4161
 2805SOL     OW19876   1.409   4.178   8.163  0.2537  0.2799 -0.8111
 2805SOL    HW119877   1.448   4.092   8.177 -0.2815  0.1601  0.0148
 2805SOL    HW219878   1.317   4.162   8.142 -0.0521 -0.0504  0.7758
 2806SOL     OW19879   3.684   1.747   3.223 -0.1668 -0.2720 -0.3780
 2806SOL    HW119880   3.595   1.727   3.194 -1.7291  1.1387  3.3632
 2806SOL    HW219881   3.692   1.702   3.307 -0.1074 -1.6104 -1.1035
 2807SOL     OW19882   1.501   3.148   8.368  0.8548  0.4550  0.2500
 2807SOL    HW119883   1.559   3.203   8.420 -1.3458  1.0513  2.0747
 2807SOL    HW219884   1.481   3.082   8.434  1.0063  0.0047 -0.1555
 2808SOL     OW19885   0.478   4.458   3.077 -0.5150 -0.1457  0.0606
 2808SOL    HW119886   0.423   4.526   3.117  1.5219  2.3788 -1.4359
 2808SOL    HW219887   0.474   4.384   3.137  0.2113  0.8291  1.2861
 2809SOL     OW19888   2.248   3.512   3.494  0.0285 -0.6863  0.4055
 2809SOL    HW119889   2.292   3.552   3.570  0.9015  0.1959 -0.5521
 2809SOL    HW219890   2.227   3.586   3.437  0.9831  1.0013  2.1973
 2810SOL     OW19891   3.747   1.686   7.724 -0.0151  0.3053 -0.0486
 2810SOL    HW119892   3.736   1.671   7.818  1.6543  0.1591  0.1334
 2810SOL    HW219893   3.657   1.702   7.697 -0.2898 -1.0920  0.0513
 2811SOL     OW19894   4.322   0.527   1.478 -0.1199 -0.1002  0.0396
 2811SOL    HW119895   4.260   0.466   1.438 -0.8455  1.4088 -1.1317
 2811SOL    HW219896   4.356   0.480   1.554  0.6343 -3.3301 -2.2654
 2812SOL     OW19897   1.713   0.076   6.585 -0.7644  0.5882 -0.5477
 2812SOL    HW119898   1.746   0.080   6.675  0.0347  0.2233 -0.8263
 2812SOL    HW219899   1.794   0.094   6.537 -0.6979  1.5312 -0.0847
 2813SOL     OW19900   4.256   0.167  16.111 -0.4456  0.3672 -0.6492
 2813SOL    HW119901   4.241   0.103  16.041 -1.8497 -0.8123  0.7439
 2813SOL    HW219902   4.170   0.152  16.149  0.2177 -0.9244  0.3408
 2814SOL     OW19903   3.913   2.723   6.183  0.6908 -0.3092 -0.1285
 2814SOL    HW119904   3.938   2.634   6.157 -0.0734 -0.2704 -0.9745
 2814SOL    HW219905   3.864   2.689   6.258 -1.0700  1.4721 -0.4765
 2815SOL     OW19906   2.841   2.086   5.782  0.0338 -0.6693  0.0005
 2815SOL    HW119907   2.910   2.059   5.721 -0.5300 -1.8500 -0.1195
 2815SOL    HW219908   2.768   2.030   5.754 -0.0688  0.1602 -1.4070
 2816SOL     OW19909   1.226   3.979   6.142  0.5151  0.8245 -0.4108
 2816SOL    HW119910   1.192   3.919   6.076 -0.8224  0.0045  1.0315
 2816SOL    HW219911   1.157   3.964   6.206 -0.1651 -3.0029 -2.0282
 2817SOL     OW19912   4.289   4.218  17.055 -0.5944 -0.1138  0.2028
 2817SOL    HW119913   4.324   4.130  17.067  0.7767  0.4533  0.3727
 2817SOL    HW219914   4.353   4.279  17.092 -0.4079  0.5595 -1.2361
 2818SOL     OW19915   3.508   3.634   2.092 -0.2539 -0.2464  0.1876
 2818SOL    HW119916   3.480   3.719   2.057  2.2427  0.8596  0.9066
 2818SOL    HW219917   3.561   3.582   2.031 -0.8637 -0.3067 -0.2908
 2819SOL     OW19918   0.695   2.282   7.566  0.4969  0.3794 -0.1783
 2819SOL    HW119919   0.673   2.375   7.562 -2.0523 -0.2077  0.0218
 2819SOL    HW219920   0.777   2.277   7.614  0.7976 -0.5645 -0.7724
 2820SOL     OW19921   4.335   1.095   8.950  0.2822 -0.8843  0.2014
 2820SOL    HW119922   4.324   1.154   9.024 -0.2621  2.0115 -2.1749
 2820SOL    HW219923   4.243   1.075   8.934 -0.0448  0.4647  0.3689
 2821SOL     OW19924   4.292   0.432   8.427  0.4431 -0.4232  0.3093
 2821SOL    HW119925   4.273   0.523   8.453  0.8676 -0.5383  1.0092
 2821SOL    HW219926   4.347   0.448   8.350 -0.9392 -4.4268 -1.5040
 2822SOL     OW19927   1.912   4.399   8.151  0.1627  0.4515 -0.1811
 2822SOL    HW119928   1.992   4.389   8.202 -0.2780  0.7353  0.5524
 2822SOL    HW219929   1.898   4.493   8.150  1.3385  0.6317 -0.6396
 2823SOL     OW19930   3.248   3.927   8.511 -0.0113 -0.0185 -0.4330
 2823SOL    HW119931   3.301   3.990   8.462  1.5011 -1.0017 -0.0745
 2823SOL    HW219932   3.229   3.976   8.590  0.5300 -2.5234  1.2725
 2824SOL     OW19933   1.493   3.948   5.653 -0.0782  0.5345  0.0111
 2824SOL    HW119934   1.426   3.982   5.594 -1.0792  0.6190  1.2024
 2824SOL    HW219935   1.451   3.950   5.739 -0.9543  0.1679 -0.4041
 2825SOL     OW19936   2.395   1.797   4.507 -0.0853 -0.0125 -0.1794
 2825SOL    HW119937   2.394   1.869   4.570  0.9510 -0.3851  0.2754
 2825SOL    HW219938   2.320   1.821   4.453 -1.4480  0.9880  2.1536
 2826SOL     OW19939   0.674   4.124  14.462  0.7060 -0.3129 -0.7264
 2826SOL    HW119940   0.700   4.125  14.554  1.4329 -1.9385 -0.9094
 2826SOL    HW219941   0.631   4.040  14.446  1.5640 -0.7485 -0.7405
 2827SOL     OW19942   2.949   2.186   4.792 -0.2531  0.0756  0.4563
 2827SOL    HW119943   2.931   2.214   4.703 -1.3984  2.5106  1.4526
 2827SOL    HW219944   3.004   2.110   4.776  0.0193  0.1452  1.0439
 2828SOL     OW19945   0.361   4.070   0.709 -0.1983 -0.2309  0.0201
 2828SOL    HW119946   0.276   4.052   0.668  0.4387  0.3435 -1.5886
 2828SOL    HW219947   0.369   4.165   0.711 -3.2544 -0.0137  1.2977
 2829SOL     OW19948   2.096   0.653   5.394  0.2409 -0.4857 -0.0234
 2829SOL    HW119949   2.100   0.735   5.344  0.2768 -0.4051  0.1145
 2829SOL    HW219950   2.184   0.616   5.384 -0.4817 -1.9884 -0.9254
 2830SOL     OW19951   1.231   3.978   3.910  1.0145  0.0420 -0.7154
 2830SOL    HW119952   1.192   4.038   3.974  1.3809  0.8622 -1.2609
 2830SOL    HW219953   1.302   3.938   3.959 -0.0985 -1.3947 -0.2837
 2831SOL     OW19954   1.207   3.890  11.464 -0.0045 -0.2286 -0.0943
 2831SOL    HW119955   1.127   3.942  11.467 -0.4971 -1.0805  1.4763
 2831SOL    HW219956   1.194   3.847  11.379 -1.7068  2.1872 -1.0617
 2832SOL     OW19957   0.311   3.592   5.794 -0.2867  0.1077 -0.0083
 2832SOL    HW119958   0.393   3.570   5.751  0.2750  1.3717  0.4292
 2832SOL    HW219959   0.295   3.512   5.844  0.0578  2.1197  3.3117
 2833SOL     OW19960   1.268   2.168   3.659 -0.0551  0.1930 -0.0775
 2833SOL    HW119961   1.234   2.079   3.668  0.8498 -0.2440 -1.0389
 2833SOL    HW219962   1.306   2.179   3.746 -0.9536  1.9256  0.1063
 2834SOL     OW19963   2.145   2.574  12.559  0.3931  0.2033 -0.1290
 2834SOL    HW119964   2.230   2.609  12.533 -0.2992  1.4585 -0.7120
 2834SOL    HW219965   2.106   2.644  12.611  2.4455 -0.4065  2.2347
 2835SOL     OW19966   4.102   1.540   2.428  0.2395  0.0350 -0.9979
 2835SOL    HW119967   4.169   1.522   2.361  1.6379 -2.9882  1.2029
 2835SOL    HW219968   4.034   1.515   2.366 -0.9890 -1.2066  0.8789
 2836SOL     OW19969   2.379   4.310   7.027  0.0348  0.5313 -0.1454
 2836SOL    HW119970   2.397   4.303   7.121  0.0037  0.6241 -0.1333
 2836SOL    HW219971   2.359   4.403   7.022 -0.5960  0.3762 -0.5569
 2837SOL     OW19972   1.791   1.138  12.753  0.0543  0.5832  0.0584
 2837SOL    HW119973   1.741   1.103  12.827 -1.4474  0.3891 -1.0391
 2837SOL    HW219974   1.879   1.145  12.789 -0.5840  2.2109  1.3085
 2838SOL     OW19975   2.268   0.593   9.244 -0.7684 -0.5772 -0.4376
 2838SOL    HW119976   2.230   0.650   9.311  0.1303  0.0528 -0.4615
 2838SOL    HW219977   2.330   0.534   9.285  1.3336  1.2215 -1.0548
 2839SOL     OW19978   3.835   3.614  10.462  0.8877 -0.2605 -0.5272
 2839SOL    HW119979   3.748   3.593  10.428  1.0929 -0.6966 -0.7845
 2839SOL    HW219980   3.833   3.707  10.438  3.7429 -0.5022 -1.7215
 2840SOL     OW19981   3.461   1.422   1.729  0.8450 -0.0002  0.3155
 2840SOL    HW119982   3.548   1.412   1.691  0.0863  0.4846 -1.5500
 2840SOL    HW219983   3.419   1.345   1.690  1.4964 -0.7769  1.1494
 2841SOL     OW19984   4.650   0.297   9.184  0.3232  0.0541 -0.1690
 2841SOL    HW119985   4.572   0.322   9.233  0.3552  1.9142 -1.0639
 2841SOL    HW219986   4.690   0.379   9.157  0.5193  0.7323  2.1586
 2842SOL     OW19987   2.514   1.949   7.608  0.1272  0.0330  0.0600
 2842SOL    HW119988   2.515   2.042   7.585 -1.9215 -0.3309 -1.5241
 2842SOL    HW219989   2.540   1.962   7.700  1.1747  1.4468 -0.4379
 2843SOL     OW19990   0.564   3.284  17.030 -0.1757  0.0055  0.0007
 2843SOL    HW119991   0.638   3.344  17.029  0.2339 -0.5283 -1.4882
 2843SOL    HW219992   0.559   3.241  16.945 -2.0435  0.4128 -0.1140
 2844SOL     OW19993   2.248   3.368  10.546 -0.3318  0.0677 -0.5293
 2844SOL    HW119994   2.225   3.456  10.516  0.8155  0.0364 -1.4867
 2844SOL    HW219995   2.189   3.308  10.501  0.9462 -1.1442 -0.5857
 2845SOL     OW19996   4.163   1.204   5.954  0.2723 -0.0818 -0.4236
 2845SOL    HW119997   4.208   1.130   5.914 -1.5324 -1.1006 -0.5810
 2845SOL    HW219998   4.242   1.250   5.982 -0.6659  1.8604 -0.9555
 2846SOL     OW19999   3.613   4.529   5.588  0.2820 -0.0076  0.5061
 2846SOL    HW120000   3.633   4.464   5.655 -1.6989 -2.9462 -1.7289
 2846SOL    HW220001   3.531   4.574   5.609 -0.3106 -1.2247  0.8333
 2847SOL     OW20002   3.741   3.576  14.751  0.1606 -0.4147 -0.1593
 2847SOL    HW120003   3.648   3.556  14.740 -0.1942  0.1140  1.8758
 2847SOL    HW220004   3.735   3.671  14.763  1.6576 -0.2487 -0.7213
 2848SOL     OW20005   2.178   0.337   6.100  0.1414  0.6487 -0.4698
 2848SOL    HW120006   2.146   0.268   6.042  0.0591 -1.5786  2.2179
 2848SOL    HW220007   2.161   0.290   6.182  1.9200  1.0028  0.1208
 2849SOL     OW20008   3.994   1.892   6.688 -0.0740 -0.0326 -0.1008
 2849SOL    HW120009   4.057   1.928   6.626 -1.0724  1.2726 -0.3389
 2849SOL    HW220010   3.957   1.821   6.636  0.4271  1.1217 -2.0201
 2850SOL     OW20011   3.847   0.108   7.079 -0.4637  0.4965 -0.0082
 2850SOL    HW120012   3.907   0.171   7.039 -0.2655 -0.0237 -0.5191
 2850SOL    HW220013   3.783   0.173   7.108 -2.3297 -1.2357 -0.2435
 2851SOL     OW20014   3.141   0.114   5.256  0.3169 -0.0381  0.5951
 2851SOL    HW120015   3.139   0.035   5.311  0.6580 -1.1826 -1.0447
 2851SOL    HW220016   3.097   0.179   5.310 -1.6347 -0.4416 -0.5254
 2852SOL     OW20017   4.570   1.592  13.561  0.6338  0.6155 -0.1770
 2852SOL    HW120018   4.484   1.632  13.576  0.8236  0.3787  1.5730
 2852SOL    HW220019   4.599   1.667  13.510 -0.4055  1.3596  0.3266
 2853SOL     OW20020   4.341   1.511   0.558  0.0488 -0.0280 -0.2392
 2853SOL    HW120021   4.397   1.442   0.593 -2.9116 -2.7155 -0.7467
 2853SOL    HW220022   4.394   1.534   0.481 -0.7316  0.6990 -0.5537
 2854SOL     OW20023   3.814   2.973  15.521  0.4561  0.5335  0.1512
 2854SOL    HW120024   3.887   2.913  15.508 -1.3311 -1.2511 -1.6790
 2854SOL    HW220025   3.812   3.002  15.430 -1.7510 -0.0797 -0.0064
 2855SOL     OW20026   0.144   1.932   8.001  0.0663 -0.4678 -0.0432
 2855SOL    HW120027   0.177   2.021   7.991  2.5696 -1.2828  0.8437
 2855SOL    HW220028   0.109   1.893   7.921 -0.8379  0.7434 -0.2402
 2856SOL     OW20029   1.266   0.166  12.576  0.0274  0.0651  0.0975
 2856SOL    HW120030   1.291   0.259  12.575  0.6596 -0.0956  0.7329
 2856SOL    HW220031   1.173   0.184  12.559  0.4707  1.3635 -1.0421
 2857SOL     OW20032   2.054   4.236  12.372  0.1577 -0.1214 -0.4650
 2857SOL    HW120033   2.088   4.326  12.371  1.8534 -0.7541 -0.1245
 2857SOL    HW220034   2.076   4.222  12.280 -1.3872  0.7431 -0.9612
 2858SOL     OW20035   0.459   1.079   5.716 -0.1685 -0.0838  0.4556
 2858SOL    HW120036   0.493   1.151   5.662 -2.4937 -0.4482 -1.4780
 2858SOL    HW220037   0.523   1.009   5.711 -2.2813 -1.9168 -0.7051
 2859SOL     OW20038   3.214   2.964   5.302 -0.2530 -0.1869 -0.0179
 2859SOL    HW120039   3.160   2.983   5.379 -2.9671  3.2425 -2.7545
 2859SOL    HW220040   3.182   3.031   5.242  0.8423 -0.7025 -1.1769
 2860SOL     OW20041   4.665   2.432   3.802 -0.4937  0.1262  0.1415
 2860SOL    HW120042   4.687   2.451   3.893 -1.8035 -0.5938  0.6020
 2860SOL    HW220043   4.650   2.338   3.810 -0.3775  0.2491  1.7491
 2861SOL     OW20044   0.188   4.106   9.039 -0.2223 -0.2252 -0.3382
 2861SOL    HW120045   0.107   4.055   9.032 -1.5083  1.5951  1.3566
 2861SOL    HW220046   0.155   4.184   9.084 -1.6679 -1.3412  0.5292
 2862SOL     OW20047   0.719   3.250   2.593 -0.2373 -0.3727 -0.3119
 2862SOL    HW120048   0.794   3.191   2.596  0.7752  0.9875  0.7829
 2862SOL    HW220049   0.673   3.223   2.513  1.6585  0.3290 -1.6191
 2863SOL     OW20050   2.224   4.686  16.998 -0.1604  0.0361  0.5114
 2863SOL    HW120051   2.289   4.630  17.041 -0.6192 -0.3809  0.6631
 2863SOL    HW220052   2.231   0.043  17.046  3.2388  0.8267 -1.3861
 2864SOL     OW20053   4.477   0.345   4.974 -0.9325 -0.5137 -0.0468
 2864SOL    HW120054   4.382   0.354   4.984 -0.5726  1.7759  1.2267
 2864SOL    HW220055   4.483   0.345   4.879 -0.5912 -0.6397 -0.0253
 2865SOL     OW20056   2.125   4.412   7.585 -0.0221 -0.1121  0.1539
 2865SOL    HW120057   2.154   4.469   7.656  0.3552 -0.5115  0.3209
 2865SOL    HW220058   2.081   4.480   7.533 -1.4304 -3.4610 -2.9742
 2866SOL     OW20059   2.883   1.524   8.742 -0.1813  0.0461  0.3340
 2866SOL    HW120060   2.794   1.505   8.772 -0.6880  2.0793  0.1322
 2866SOL    HW220061   2.858   1.576   8.666 -1.6625 -0.8409  0.2125
 2867SOL     OW20062   3.854   4.569   3.932 -0.4059  0.1626 -0.1675
 2867SOL    HW120063   3.766   4.535   3.950  0.3060  0.2969  3.5122
 2867SOL    HW220064   3.910   4.512   3.984  1.4871 -0.4531 -2.8828
 2868SOL     OW20065   3.780   2.239  15.485  0.5755 -0.2290  0.6407
 2868SOL    HW120066   3.769   2.332  15.465  1.0677 -0.3478 -0.1931
 2868SOL    HW220067   3.875   2.232  15.496  0.6537  2.3061  1.7682
 2869SOL     OW20068   3.772   3.065  15.285 -0.1882 -0.5194  0.0813
 2869SOL    HW120069   3.773   2.980  15.240  0.1081 -0.6051  0.2492
 2869SOL    HW220070   3.744   3.120  15.211 -1.2825  0.9073  1.5657
 2870SOL     OW20071   0.112   4.143   2.361 -0.2088 -0.1541  0.7840
 2870SOL    HW120072   0.108   4.066   2.418  0.7620 -0.3306  0.6147
 2870SOL    HW220073   0.102   4.120   2.269 -0.2838 -0.5376  0.8886
 2871SOL     OW20074   2.035   2.775   7.739 -0.0677 -0.2309  0.0830
 2871SOL    HW120075   1.982   2.726   7.801 -0.4784  1.7888  1.3303
 2871SOL    HW220076   1.981   2.758   7.662  1.4251  1.2881 -1.3185
 2872SOL     OW20077   4.177   2.909  11.525 -0.0795  0.5816 -0.2272
 2872SOL    HW120078   4.123   2.865  11.591 -1.2110  0.2398 -1.3799
 2872SOL    HW220079   4.242   2.954  11.579 -0.3377  0.1986  0.4089
 2873SOL     OW20080   4.709   2.260   8.235 -0.3592 -0.7579  0.2387
 2873SOL    HW120081   4.648   2.264   8.309 -0.0577 -1.5775  0.5380
 2873SOL    HW220082   0.042   2.194   8.272  1.5212  0.2979 -0.8454
 2874SOL     OW20083   0.315   2.594   1.353  0.0852  0.0195  0.2543
 2874SOL    HW120084   0.338   2.554   1.437 -0.7165  0.6846  0.7786
 2874SOL    HW220085   0.257   2.523   1.326 -0.7920  1.3435 -1.3337
 2875SOL     OW20086   2.182   2.712   7.324  0.1237  0.5865 -0.6173
 2875SOL    HW120087   2.196   2.623   7.354 -0.6610  2.0107  3.8427
 2875SOL    HW220088   2.234   2.759   7.390 -0.4390 -0.1994  0.3687
 2876SOL     OW20089   1.040   1.006   3.425  0.1470  0.2555 -0.0487
 2876SOL    HW120090   1.095   1.039   3.497 -0.3388  0.8006  0.0702
 2876SOL    HW220091   0.956   1.016   3.469  0.5193 -2.4157  1.3336
 2877SOL     OW20092   1.172   1.127  13.031  0.5557  0.1896  0.0418
 2877SOL    HW120093   1.091   1.108  13.078 -0.3499  0.6855 -1.3128
 2877SOL    HW220094   1.231   1.146  13.104  1.0758  0.1696 -0.3686
 2878SOL     OW20095   0.380   4.244   5.089  0.1759  0.2119 -0.6676
 2878SOL    HW120096   0.383   4.201   5.174  2.0856 -0.1433 -0.9017
 2878SOL    HW220097   0.393   4.169   5.030 -0.1626 -0.0502 -0.4099
 2879SOL     OW20098   1.424   2.876   0.622  0.0893  0.1702 -0.5603
 2879SOL    HW120099   1.468   2.954   0.588 -2.6150  1.1953 -1.6493
 2879SOL    HW220100   1.351   2.917   0.669  0.4396  0.6177 -0.4057
 2880SOL     OW20101   0.265   3.386   2.084 -0.6529  0.4674  0.4427
 2880SOL    HW120102   0.241   3.464   2.034  1.3405  1.1872  0.6101
 2880SOL    HW220103   0.184   3.351   2.121 -0.2371 -1.0726 -0.1031
 2881SOL     OW20104   2.591   1.278  17.331 -0.2157  0.0631  0.0851
 2881SOL    HW120105   2.508   1.265  17.286 -0.6119  3.4755 -0.1553
 2881SOL    HW220106   2.558   1.252  17.418 -0.4644 -0.0023 -0.0275
 2882SOL     OW20107   3.329   0.285   3.405  0.2431  0.2829 -0.2261
 2882SOL    HW120108   3.327   0.254   3.496  1.3970  1.9888  0.3771
 2882SOL    HW220109   3.277   0.213   3.370  1.7389 -1.1680  0.5159
 2883SOL     OW20110   1.874   0.416   5.933 -0.0418 -0.5156 -0.2537
 2883SOL    HW120111   1.802   0.365   5.894 -0.2448  0.7934 -1.5666
 2883SOL    HW220112   1.940   0.346   5.930  0.9540  0.5267 -2.5917
 2884SOL     OW20113   3.298   0.790   6.078 -0.1753 -0.3548  0.4726
 2884SOL    HW120114   3.258   0.771   6.163  0.7507 -2.2709  0.4771
 2884SOL    HW220115   3.241   0.735   6.024  0.9440  0.1838 -1.2549
 2885SOL     OW20116   4.501   1.844   6.886  0.6583 -0.0332 -0.7073
 2885SOL    HW120117   4.544   1.765   6.854 -1.4036 -0.3938 -2.5871
 2885SOL    HW220118   4.561   1.875   6.954 -0.2853  0.4479 -0.1002
 2886SOL     OW20119   2.425   3.838   5.144 -0.1963 -0.1764  0.2454
 2886SOL    HW120120   2.436   3.795   5.229  1.4052  1.2363  0.7580
 2886SOL    HW220121   2.372   3.778   5.091  3.0531 -1.6840 -1.2735
 2887SOL     OW20122   3.591   2.020  10.581  0.2458 -0.5503  0.5233
 2887SOL    HW120123   3.575   1.996  10.673 -0.4154  1.1412  0.8547
 2887SOL    HW220124   3.655   2.090  10.593 -1.5293  1.6134 -3.0862
 2888SOL     OW20125   1.955   3.536   4.820 -0.3264  0.5190  0.6127
 2888SOL    HW120126   1.935   3.616   4.772 -1.0711 -0.4037 -0.5994
 2888SOL    HW220127   2.010   3.579   4.886 -0.4803 -0.1442  1.1768
 2889SOL     OW20128   3.731   1.568   3.447  0.3357  0.2574  0.3913
 2889SOL    HW120129   3.820   1.553   3.480  0.4353  0.6006  0.2871
 2889SOL    HW220130   3.685   1.501   3.497 -0.1710 -0.0038 -0.4255
 2890SOL     OW20131   3.802   0.921   7.197  0.0380  0.1548  0.6577
 2890SOL    HW120132   3.891   0.904   7.167 -0.7155 -1.7792 -0.5246
 2890SOL    HW220133   3.783   1.007   7.159 -0.8622  0.6069  2.1526
 2891SOL     OW20134   4.619   4.291   5.497 -0.8504 -0.1533  0.1435
 2891SOL    HW120135   4.709   4.268   5.474 -1.0635  2.4394 -3.2405
 2891SOL    HW220136   4.625   4.264   5.589  1.8438  1.2127  0.3571
 2892SOL     OW20137   1.794   1.719   1.479  1.0548  0.3593  0.2989
 2892SOL    HW120138   1.759   1.716   1.389  2.0374  1.6498 -0.1322
 2892SOL    HW220139   1.787   1.813   1.495  0.3922  0.3656  0.0041
 2893SOL     OW20140   0.152   0.910   4.127  0.3547  0.0974 -0.9926
 2893SOL    HW120141   0.216   0.841   4.108 -0.2308 -1.3900  2.3210
 2893SOL    HW220142   0.203   0.977   4.172  0.0279 -0.7486  0.6491
 2894SOL     OW20143   2.695   4.360   6.735 -0.0788 -0.1515  0.3483
 2894SOL    HW120144   2.773   4.315   6.703  0.6843  0.5315  1.2357
 2894SOL    HW220145   2.681   4.327   6.824  0.8143 -2.2546 -0.2897
 2895SOL     OW20146   1.809   4.085   4.218  0.0638  0.0354  0.4430
 2895SOL    HW120147   1.881   4.109   4.275 -1.4111 -1.2560  2.8626
 2895SOL    HW220148   1.840   4.127   4.138 -1.6322 -2.0360 -1.3130
 2896SOL     OW20149   1.517   2.289  15.231  0.3610  0.4464  0.5852
 2896SOL    HW120150   1.529   2.382  15.250  0.2910  0.5751  0.0047
 2896SOL    HW220151   1.546   2.246  15.311 -3.2005  0.6736  2.0122
 2897SOL     OW20152   3.400   3.812   1.138 -0.2528 -0.1953 -0.0382
 2897SOL    HW120153   3.429   3.814   1.047  0.3152 -2.2498  0.1018
 2897SOL    HW220154   3.396   3.719   1.160  0.1162  0.0005  0.8703
 2898SOL     OW20155   1.811   0.715   9.860 -0.0756  0.3145  0.3782
 2898SOL    HW120156   1.812   0.775   9.934  0.6345  0.9742 -0.1719
 2898SOL    HW220157   1.897   0.674   9.868 -0.4729 -0.2994  1.4688
 2899SOL     OW20158   2.218   1.324   8.717  0.0452  0.0627  0.1861
 2899SOL    HW120159   2.131   1.349   8.685 -0.9408 -1.3591  1.8039
 2899SOL    HW220160   2.247   1.403   8.761  1.0299 -1.6602  2.5725
 2900SOL     OW20161   4.035   0.096   2.870  0.1312 -0.1122  0.0348
 2900SOL    HW120162   4.106   0.146   2.909  0.4702 -0.1323 -0.5558
 2900SOL    HW220163   3.968   0.164   2.859 -0.4851 -0.6000  0.7736
 2901SOL     OW20164   2.953   0.386  16.425  0.2752 -0.1328 -0.0773
 2901SOL    HW120165   3.040   0.426  16.416  0.3318 -0.0496  0.7936
 2901SOL    HW220166   2.892   0.454  16.397 -0.4715 -1.3661 -1.4102
 2902SOL     OW20167   1.860   3.420   0.939  0.0610 -0.0514  0.1331
 2902SOL    HW120168   1.875   3.504   0.896 -0.1314  1.2475  2.5854
 2902SOL    HW220169   1.920   3.366   0.889  0.5621  0.8342 -0.2259
 2903SOL     OW20170   1.183   4.491   4.136 -0.0789 -0.2301  0.5198
 2903SOL    HW120171   1.224   4.564   4.183  0.7267 -1.2280  1.3558
 2903SOL    HW220172   1.242   4.502   4.061 -0.3047  1.2305  0.5544
 2904SOL     OW20173   0.809   1.980  15.527 -0.6233 -0.4982  0.2228
 2904SOL    HW120174   0.782   2.064  15.490  2.7257  0.5662  0.2157
 2904SOL    HW220175   0.728   1.935  15.553 -0.8348  0.4279  1.1668
 2905SOL     OW20176   0.734   0.495   7.235  0.5197  0.3094 -0.7002
 2905SOL    HW120177   0.701   0.420   7.284  1.6245 -0.7478 -1.5801
 2905SOL    HW220178   0.653   0.536   7.206 -0.0788 -0.3722 -0.0074
 2906SOL     OW20179   2.205   2.007   5.107 -0.1632  0.0726 -0.6209
 2906SOL    HW120180   2.292   2.043   5.093  0.2145 -0.3017  0.8425
 2906SOL    HW220181   2.230   1.936   5.166 -0.1743 -0.5344 -1.3529
 2907SOL     OW20182   1.391   0.092   2.020  0.0948  0.1395 -0.3792
 2907SOL    HW120183   1.443   0.022   2.059  1.2905  2.6891  2.5967
 2907SOL    HW220184   1.385   0.064   1.929 -1.1437  2.7068 -1.0760
 2908SOL     OW20185   2.333   0.149  10.380  0.2399 -0.0848  0.6249
 2908SOL    HW120186   2.300   0.207  10.448 -0.0516 -1.2209  1.4621
 2908SOL    HW220187   2.305   0.062  10.408 -0.7663 -0.5641 -1.8632
 2909SOL     OW20188   0.896   1.794   1.539  0.0406 -0.4257  0.1791
 2909SOL    HW120189   0.989   1.815   1.529 -0.6571  2.6283  0.0240
 2909SOL    HW220190   0.897   1.698   1.538  1.4063 -0.4256  0.7345
 2910SOL     OW20191   4.563   1.393   2.468 -0.3095 -0.2008 -0.3292
 2910SOL    HW120192   4.600   1.481   2.463 -0.8428  0.0229 -0.3384
 2910SOL    HW220193   4.645   1.352   2.496 -0.4071 -0.8444 -0.9642
 2911SOL     OW20194   3.742   1.178  11.866 -0.3183  0.8423 -0.3759
 2911SOL    HW120195   3.762   1.143  11.952 -1.1586 -2.0048 -1.3411
 2911SOL    HW220196   3.828   1.214  11.848  0.4363 -1.3598 -1.1659
 2912SOL     OW20197   4.087   3.550  11.463  0.2618  0.3866  0.3192
 2912SOL    HW120198   4.048   3.634  11.439  1.4747  0.1574 -2.5354
 2912SOL    HW220199   4.050   3.535  11.550  0.0171 -0.3521  0.0872
 2913SOL     OW20200   2.090   0.924   3.580 -0.3160 -0.0966  0.4405
 2913SOL    HW120201   2.079   0.842   3.627 -2.2614  1.1347  2.1069
 2913SOL    HW220202   2.049   0.914   3.494  1.3713 -1.6768 -0.1634
 2914SOL     OW20203   0.941   1.730   7.895  0.3946 -0.0683  0.4834
 2914SOL    HW120204   0.863   1.778   7.866  1.6422  1.6841  0.1041
 2914SOL    HW220205   0.907   1.645   7.925 -1.6409 -0.6284 -3.3353
 2915SOL     OW20206   2.543   4.092   5.692  0.0842  0.3065 -0.3787
 2915SOL    HW120207   2.596   4.165   5.723  1.8561 -1.0458 -0.2430
 2915SOL    HW220208   2.521   4.117   5.602  0.0454  0.9755 -0.1855
 2916SOL     OW20209   1.464   2.866   7.587  0.7910 -0.1417 -0.0449
 2916SOL    HW120210   1.435   2.933   7.649 -0.0116 -0.3825 -0.1649
 2916SOL    HW220211   1.549   2.890   7.551  0.2363  2.0924  0.1316
 2917SOL     OW20212   1.402   3.149   1.081 -0.4725  0.3938  0.3943
 2917SOL    HW120213   1.396   3.184   1.170 -1.1338 -2.0061  1.3046
 2917SOL    HW220214   1.441   3.216   1.026  0.4693 -2.6624 -2.7100
 2918SOL     OW20215   4.518   1.347   6.528 -0.1001 -0.4889 -0.7535
 2918SOL    HW120216   4.588   1.282   6.533 -0.8835 -1.1067  1.7902
 2918SOL    HW220217   4.495   1.333   6.436 -1.4224 -2.0878 -0.1917
 2919SOL     OW20218   4.010   0.037   8.734 -1.2505  0.4505 -0.2031
 2919SOL    HW120219   4.051   0.009   8.815 -0.0524  0.9652 -0.6327
 2919SOL    HW220220   4.045   0.126   8.734  1.1066 -0.4704  1.2855
 2920SOL     OW20221   4.003   2.080  14.436 -0.2531  0.1988 -0.4944
 2920SOL    HW120222   3.946   2.145  14.476 -0.4814 -0.5429  0.3715
 2920SOL    HW220223   4.090   2.095  14.471 -1.0574  3.3642  0.1451
 2921SOL     OW20224   0.445   1.953  12.619 -0.6046 -0.5710 -0.8509
 2921SOL    HW120225   0.396   1.889  12.670  2.7702 -1.8665  0.7629
 2921SOL    HW220226   0.472   1.900  12.544 -1.1169 -0.0574 -1.4001
 2922SOL     OW20227   2.851   2.496   7.308 -0.2697 -0.1841 -0.5557
 2922SOL    HW120228   2.916   2.426   7.317  0.2189  0.4480  0.9697
 2922SOL    HW220229   2.889   2.561   7.368 -0.1585 -0.5519 -0.2258
 2923SOL     OW20230   2.944   1.669  11.061 -0.1418 -0.1995 -0.0236
 2923SOL    HW120231   2.951   1.720  11.143  2.7124 -0.6587  0.0156
 2923SOL    HW220232   2.947   1.579  11.093  1.1984 -0.7197 -1.6321
 2924SOL     OW20233   4.335   3.109   1.610  0.6174 -0.0826 -0.0220
 2924SOL    HW120234   4.343   3.168   1.685  0.5104  0.7870 -0.6863
 2924SOL    HW220235   4.424   3.119   1.575  0.3815 -0.1683 -0.6421
 2925SOL     OW20236   4.151   3.212  11.254  0.1130 -0.6080 -0.6826
 2925SOL    HW120237   4.135   3.270  11.179 -3.9639  1.0814  1.4952
 2925SOL    HW220238   4.238   3.176  11.239  1.1637  1.4026  0.6556
 2926SOL     OW20239   0.276   0.044   7.568 -0.8006  0.2856  0.0182
 2926SOL    HW120240   0.208   0.098   7.609  0.4262  0.6415  1.5847
 2926SOL    HW220241   0.295   4.717   7.645 -0.0481  1.9771  0.9912
 2927SOL     OW20242   2.343   3.420   7.858  0.0348  0.2772 -0.6173
 2927SOL    HW120243   2.268   3.479   7.851 -0.0319  0.3163  0.5124
 2927SOL    HW220244   2.395   3.464   7.790  1.1412  1.1807  0.8198
 2928SOL     OW20245   3.353   1.038   2.743 -0.0812 -0.5493 -0.3358
 2928SOL    HW120246   3.311   1.019   2.827  1.9188 -0.2285  0.7431
 2928SOL    HW220247   3.364   1.133   2.743 -0.2030 -0.5271  2.6214
 2929SOL     OW20248   0.923   2.551   1.086 -0.5261 -0.1027  0.5418
 2929SOL    HW120249   0.875   2.491   1.029 -3.1401  1.4103  1.1437
 2929SOL    HW220250   0.879   2.632   1.061  0.0875  0.0276 -0.1065
 2930SOL     OW20251   0.462   1.860  13.203 -0.0183  0.0533  0.1721
 2930SOL    HW120252   0.473   1.955  13.203  1.1396 -0.0842 -1.3069
 2930SOL    HW220253   0.469   1.835  13.295  0.6123 -0.9445 -0.1458
 2931SOL     OW20254   2.922   2.023   0.693  0.3435 -0.5481  0.4445
 2931SOL    HW120255   2.967   2.097   0.652 -2.4478  1.1303  0.3896
 2931SOL    HW220256   2.828   2.045   0.697  0.0912 -1.3334 -0.9552
 2932SOL     OW20257   0.567   4.467   5.364 -0.2279 -0.4968  0.6246
 2932SOL    HW120258   0.487   4.429   5.399  0.2792 -0.7657  1.4937
 2932SOL    HW220259   0.561   4.554   5.404  4.0267 -1.3591  3.1190
 2933SOL     OW20260   1.378   1.820   5.497 -0.6077 -0.4637  0.4499
 2933SOL    HW120261   1.368   1.791   5.406  1.3096  0.6785 -0.1256
 2933SOL    HW220262   1.296   1.791   5.538 -1.7043 -1.7186 -2.5837
 2934SOL     OW20263   2.207   1.263   7.199 -0.2799  0.2979 -0.1910
 2934SOL    HW120264   2.204   1.204   7.275  0.5780 -0.0796 -0.4615
 2934SOL    HW220265   2.285   1.232   7.155 -1.1372  1.0427 -2.2093
 2935SOL     OW20266   4.168   0.648   2.771  0.0722 -0.3296  0.3343
 2935SOL    HW120267   4.108   0.618   2.840 -0.8742  1.3500  0.2550
 2935SOL    HW220268   4.225   0.703   2.825 -0.9086  0.5108  0.5134
 2936SOL     OW20269   1.068   3.525   8.947  0.1858  0.1208  0.2421
 2936SOL    HW120270   1.028   3.526   8.860  0.4602  0.4667  0.1181
 2936SOL    HW220271   1.015   3.463   8.997 -0.2928  0.9412  0.7532
 2937SOL     OW20272   2.878   2.002  11.425 -0.0377  0.2672  0.1760
 2937SOL    HW120273   2.799   1.955  11.451 -1.8570  2.2947 -1.6338
 2937SOL    HW220274   2.843   2.068  11.365 -1.6321  1.1108  2.0189
 2938SOL     OW20275   1.366   4.290   1.937  0.1856 -0.1321 -0.3991
 2938SOL    HW120276   1.366   4.198   1.962 -1.8249 -0.0223 -0.0064
 2938SOL    HW220277   1.315   4.324   2.010  2.2940 -1.4225  1.6861
 2939SOL     OW20278   2.225   2.835   2.215 -0.3803  0.3050  0.0615
 2939SOL    HW120279   2.276   2.912   2.191  0.2810 -0.3730 -0.7033
 2939SOL    HW220280   2.273   2.806   2.292 -0.2817 -0.1993 -0.1912
 2940SOL     OW20281   2.152   0.802   9.383 -0.2268 -0.3007 -0.4395
 2940SOL    HW120282   2.120   0.753   9.459  1.5380 -0.8109 -0.0427
 2940SOL    HW220283   2.211   0.868   9.420  0.7011 -1.2555 -0.2061
 2941SOL     OW20284   3.296   3.070   8.005 -0.6375 -0.2302  0.4972
 2941SOL    HW120285   3.204   3.097   8.005  0.1425  2.4444 -0.8902
 2941SOL    HW220286   3.294   2.979   8.032 -0.1512 -0.8595 -1.6265
 2942SOL     OW20287   0.968   1.912   8.695  0.1323 -1.0995 -0.2618
 2942SOL    HW120288   0.974   2.002   8.662 -2.2137 -0.5311  0.8082
 2942SOL    HW220289   0.964   1.936   8.788  0.1925  1.2571 -0.8742
 2943SOL     OW20290   2.700   1.176   1.128 -0.2732  0.1677 -0.1444
 2943SOL    HW120291   2.741   1.093   1.156 -1.9465 -0.0073  1.7688
 2943SOL    HW220292   2.617   1.182   1.175 -1.3423 -2.6077 -1.6357
 2944SOL     OW20293   0.298   1.138   4.199  0.0207  0.4600  0.3287
 2944SOL    HW120294   0.252   1.222   4.204  0.1326  0.6161 -1.2019
 2944SOL    HW220295   0.334   1.138   4.110  0.2795 -0.3941  0.4404
 2945SOL     OW20296   0.505   0.629   7.257  0.2148  0.0953  0.0166
 2945SOL    HW120297   0.431   0.587   7.214  1.1023 -1.0249 -0.4095
 2945SOL    HW220298   0.486   0.604   7.347 -0.8686 -0.0478 -0.2536
 2946SOL     OW20299   0.336   4.632   6.889 -0.3427  0.2881 -0.3724
 2946SOL    HW120300   0.301   4.559   6.940  1.5030  0.5478  1.2566
 2946SOL    HW220301   0.305   4.613   6.801  1.6389  0.0937 -1.0299
 2947SOL     OW20302   1.267   2.999   4.381  0.0780  0.3598  0.5010
 2947SOL    HW120303   1.276   3.044   4.296 -0.7819  1.7370  1.1358
 2947SOL    HW220304   1.351   3.000   4.427  0.5940 -1.3426 -0.4228
 2948SOL     OW20305   2.007   0.517   3.910 -0.2391 -0.5150  0.6307
 2948SOL    HW120306   2.074   0.529   3.977 -0.3204 -1.1487  0.8240
 2948SOL    HW220307   1.980   0.425   3.914 -0.6244 -0.5345 -2.0987
 2949SOL     OW20308   1.442   1.393  11.955 -0.8273  0.8807 -0.3380
 2949SOL    HW120309   1.371   1.415  12.015 -1.1013  0.4846 -0.5180
 2949SOL    HW220310   1.405   1.413  11.869  1.3850 -2.5923 -2.1186
 2950SOL     OW20311   3.801   1.190   5.345  0.1274  0.0497 -0.2727
 2950SOL    HW120312   3.871   1.251   5.323 -0.5379  1.7225  2.2013
 2950SOL    HW220313   3.765   1.240   5.419 -1.6031  0.6469 -1.5060
 2951SOL     OW20314   2.439   4.033  12.027  0.3488  0.4982  0.0066
 2951SOL    HW120315   2.354   4.053  11.989  0.7484 -1.3691 -1.8333
 2951SOL    HW220316   2.470   3.963  11.970 -0.4426 -0.4329  0.7222
 2952SOL     OW20317   1.951   1.285   2.167 -0.4197 -0.2148 -0.5446
 2952SOL    HW120318   1.946   1.361   2.225  1.9425 -0.7761  0.3999
 2952SOL    HW220319   1.954   1.210   2.226  1.0768  2.1855  2.3943
 2953SOL     OW20320   0.451   0.475  12.610  0.1151  0.1840  0.1501
 2953SOL    HW120321   0.403   0.502  12.689  0.0029  0.1096  0.1076
 2953SOL    HW220322   0.402   0.529  12.548  0.0038 -1.3785 -1.1426
 2954SOL     OW20323   0.651   3.753   0.273  0.7769 -0.7441  0.6582
 2954SOL    HW120324   0.712   3.681   0.290  0.1455 -1.0985  1.3938
 2954SOL    HW220325   0.644   3.791   0.360 -1.7667 -1.9587  0.9765
 2955SOL     OW20326   1.099   1.813   9.006  0.4232 -0.1107  0.5235
 2955SOL    HW120327   1.085   1.905   8.985 -1.7179 -0.2321  1.3530
 2955SOL    HW220328   1.083   1.811   9.101 -1.5735  2.0368  0.2498
 2956SOL     OW20329   1.281   1.134  13.351 -0.9513  0.1178  0.2785
 2956SOL    HW120330   1.305   1.225  13.366  3.2014 -0.8090 -0.5435
 2956SOL    HW220331   1.323   1.099  13.430  0.3441  0.6232 -0.1865
 2957SOL     OW20332   1.266   2.667   4.885 -0.1949 -0.4273  0.4262
 2957SOL    HW120333   1.217   2.708   4.814 -1.9682 -3.0440  0.1419
 2957SOL    HW220334   1.221   2.584   4.901 -0.1646 -0.5723 -0.2162
 2958SOL     OW20335   4.499   2.670   3.916 -0.6450 -0.0136 -0.2050
 2958SOL    HW120336   4.558   2.617   3.863 -1.9810  0.1848 -1.9004
 2958SOL    HW220337   4.454   2.708   3.840  0.9523 -0.2816 -1.2714
 2959SOL     OW20338   0.670   2.002   8.989  0.1286 -0.4317 -0.1736
 2959SOL    HW120339   0.764   1.991   9.002  0.5245  1.9644 -1.1654
 2959SOL    HW220340   0.665   2.039   8.902  3.1244  0.2058 -0.0543
 2960SOL     OW20341   4.254   0.976   5.812  0.3800  0.3436 -0.1120
 2960SOL    HW120342   4.337   1.022   5.802  0.4345  0.4872  0.9789
 2960SOL    HW220343   4.286   0.891   5.839 -0.9039  0.1334  0.7592
 2961SOL     OW20344   3.874   4.364   7.665  0.1887  0.4993  0.8300
 2961SOL    HW120345   3.945   4.363   7.730  1.1063 -0.2888 -0.1710
 2961SOL    HW220346   3.867   4.269   7.656  1.4441  0.7748 -3.0481
 2962SOL     OW20347   4.414   4.482  12.153  0.2267 -0.3655  0.0692
 2962SOL    HW120348   4.456   4.403  12.188  0.0021 -0.7901 -0.6339
 2962SOL    HW220349   4.351   4.441  12.094  0.4108  0.8321 -0.9769
 2963SOL     OW20350   2.336   4.387   0.395 -0.0188 -0.9183 -0.1416
 2963SOL    HW120351   2.266   4.339   0.351 -1.2144 -0.7736  1.5693
 2963SOL    HW220352   2.332   4.464   0.338  1.0180 -0.7893 -0.0403
 2964SOL     OW20353   1.493   2.151   8.702  0.0662 -0.2012  0.4796
 2964SOL    HW120354   1.573   2.131   8.654 -1.7712  0.0774 -2.6949
 2964SOL    HW220355   1.499   2.247   8.709  1.4855 -0.2598  0.0374
 2965SOL     OW20356   1.558   0.131   5.523 -0.7221 -0.2996  0.1025
 2965SOL    HW120357   1.466   0.144   5.498 -0.8484 -1.3353  0.0478
 2965SOL    HW220358   1.576   0.040   5.502 -1.3836  0.0913 -2.1483
 2966SOL     OW20359   3.951   4.675  16.619 -0.4101 -0.0232 -0.1857
 2966SOL    HW120360   3.935   0.001  16.698  0.4660  0.6110 -0.4218
 2966SOL    HW220361   3.866   4.699  16.582  0.4554 -0.1574 -2.2637
 2967SOL     OW20362   3.246   1.011   3.338  0.1099  0.5708  0.1196
 2967SOL    HW120363   3.214   1.098   3.360  1.0266  1.3353 -1.5606
 2967SOL    HW220364   3.183   0.965   3.392  0.7008 -0.8176 -0.3581
 2968SOL     OW20365   2.810   1.435   3.644  0.0355 -0.1556  0.1265
 2968SOL    HW120366   2.899   1.433   3.610  0.3321  2.4206  0.7577
 2968SOL    HW220367   2.829   1.464   3.733 -0.1686 -0.1592  0.1734
 2969SOL     OW20368   2.375   2.898   8.530 -0.2034 -0.6026  0.0228
 2969SOL    HW120369   2.469   2.913   8.515 -0.3853  0.6833  0.1725
 2969SOL    HW220370   2.363   2.809   8.497 -1.8794 -0.1639 -0.5248
 2970SOL     OW20371   3.830   3.030   9.409  0.2109  0.5063 -0.3758
 2970SOL    HW120372   3.903   2.974   9.383 -0.3594  0.1968 -1.3061
 2970SOL    HW220373   3.777   2.959   9.445  1.2667 -0.7568 -1.2948
 2971SOL     OW20374   2.849   0.636  12.635  0.1665 -0.5581 -0.2163
 2971SOL    HW120375   2.877   0.562  12.689 -2.4781 -0.7941  0.8599
 2971SOL    HW220376   2.865   0.706  12.699 -1.1997  0.1132 -0.5954
 2972SOL     OW20377   1.767   2.815   5.589 -0.0996  0.6135  0.0798
 2972SOL    HW120378   1.735   2.902   5.568 -0.9803  0.0578 -0.8988
 2972SOL    HW220379   1.708   2.754   5.543  2.6978 -1.5983 -0.5875
 2973SOL     OW20380   2.152   2.230   4.500 -0.2432  0.2246 -0.1624
 2973SOL    HW120381   2.062   2.214   4.530 -0.8708  4.2321  0.0129
 2973SOL    HW220382   2.129   2.297   4.436 -0.2282 -0.3841 -0.8127
 2974SOL     OW20383   3.294   3.572   7.378  0.3598  0.2801  0.5064
 2974SOL    HW120384   3.360   3.526   7.328 -0.5451 -1.1425  0.6296
 2974SOL    HW220385   3.249   3.606   7.301  0.5906 -0.9423 -0.1569
 2975SOL     OW20386   2.222   1.833   2.510 -0.3427 -0.5317  0.1788
 2975SOL    HW120387   2.233   1.920   2.549 -0.7925 -0.9223  1.1859
 2975SOL    HW220388   2.292   1.839   2.445  1.0943 -1.3598  1.6407
 2976SOL     OW20389   2.593   2.905   5.224  0.0082  0.2342  0.0170
 2976SOL    HW120390   2.608   2.988   5.270  2.3964  0.2987 -0.8868
 2976SOL    HW220391   2.610   2.838   5.290  1.1110  1.0020  0.5222
 2977SOL     OW20392   4.471   2.735   1.030  0.0544  0.2953  0.2544
 2977SOL    HW120393   4.461   2.731   0.935 -2.2863  0.4465  0.4827
 2977SOL    HW220394   4.381   2.735   1.063  0.8667  0.3314  2.5026
 2978SOL     OW20395   3.306   3.753  17.401 -0.1343  0.4366  0.0323
 2978SOL    HW120396   3.296   3.835  17.352  1.0532  1.3526  1.3368
 2978SOL    HW220397   3.215   3.726  17.401  0.5955 -1.9960  1.9683
 2979SOL     OW20398   1.081   4.413   7.449 -0.3768 -0.5925  0.1716
 2979SOL    HW120399   1.159   4.383   7.402 -1.1139 -1.0494 -0.7488
 2979SOL    HW220400   1.020   4.421   7.376  0.0982 -0.2688 -0.1877
 2980SOL     OW20401   1.561   0.520  16.317  0.1578  0.2479  0.2734
 2980SOL    HW120402   1.489   0.576  16.288  0.5559 -0.6246 -2.3652
 2980SOL    HW220403   1.608   0.528  16.234 -1.5617  0.6311 -0.6689
 2981SOL     OW20404   3.499   2.957  15.959 -0.1326  0.3004  0.5979
 2981SOL    HW120405   3.518   3.026  16.022 -0.2592  0.8450  0.0470
 2981SOL    HW220406   3.497   3.007  15.877 -1.3383 -2.3954 -1.0138
 2982SOL     OW20407   2.642   0.200   3.974 -0.4098  0.0108  0.3550
 2982SOL    HW120408   2.638   0.150   4.055  2.2199  1.8048  1.5982
 2982SOL    HW220409   2.729   0.192   3.935 -0.8888  1.1848 -0.9585
 2983SOL     OW20410   1.602   3.729   6.269 -0.0349 -0.4063 -0.4326
 2983SOL    HW120411   1.658   3.784   6.323  1.2297 -0.4911 -1.6712
 2983SOL    HW220412   1.653   3.648   6.270  0.1747 -0.2936 -1.7073
 2984SOL     OW20413   1.863   0.843  13.054  0.2206 -0.3782  0.6739
 2984SOL    HW120414   1.872   0.790  12.975  1.0254  1.4802 -0.4828
 2984SOL    HW220415   1.952   0.871  13.075  0.1029  0.0953  0.5327
 2985SOL     OW20416   1.422   4.021   7.469  0.1711 -0.7824  0.2159
 2985SOL    HW120417   1.414   3.972   7.551 -0.0596 -0.9911  0.0694
 2985SOL    HW220418   1.429   4.114   7.491  0.8926  0.0129 -3.4063
 2986SOL     OW20419   1.431   0.345   4.538 -0.5586 -0.0475  0.0254
 2986SOL    HW120420   1.351   0.318   4.494 -0.0580 -0.3371 -0.7096
 2986SOL    HW220421   1.484   0.359   4.459 -1.5116  0.0593 -0.5857
 2987SOL     OW20422   0.730   1.191   6.507  0.5050  0.5636  0.1744
 2987SOL    HW120423   0.770   1.104   6.500  1.1952  0.9231 -0.3461
 2987SOL    HW220424   0.760   1.219   6.594 -0.0844  2.0680 -0.1130
 2988SOL     OW20425   2.574   2.221  15.986  0.9033  0.5165  0.0064
 2988SOL    HW120426   2.597   2.220  15.893 -0.5961 -0.6033 -0.3492
 2988SOL    HW220427   2.650   2.191  16.037  1.3584  0.5329 -0.6511
 2989SOL     OW20428   0.581   2.228   7.980  0.5317  0.0255 -0.4024
 2989SOL    HW120429   0.564   2.321   7.968  0.8843  0.3452  1.6612
 2989SOL    HW220430   0.530   2.204   7.903  0.0523 -0.7506  0.1598
 2990SOL     OW20431   0.784   2.807   1.022 -0.1342  0.3147  0.7808
 2990SOL    HW120432   0.707   2.859   0.999  0.2528 -0.1733 -1.6538
 2990SOL    HW220433   0.845   2.879   1.038  0.9295 -0.2009 -0.9721
 2991SOL     OW20434   1.277   4.480  16.089 -0.0964  0.2888 -0.3416
 2991SOL    HW120435   1.331   4.522  16.156 -0.7464  3.5393 -1.8671
 2991SOL    HW220436   1.302   4.389  16.104 -2.6910 -0.0627  1.7966
 2992SOL     OW20437   0.678   1.753   4.175  0.5785  0.3172 -0.0755
 2992SOL    HW120438   0.644   1.809   4.246 -1.0275  0.9865 -1.3837
 2992SOL    HW220439   0.632   1.786   4.098  1.3407 -0.4031 -0.8209
 2993SOL     OW20440   1.343   4.176   1.607  0.4153 -0.4006 -0.6887
 2993SOL    HW120441   1.414   4.207   1.551 -1.4424  1.1612 -2.1574
 2993SOL    HW220442   1.383   4.089   1.616  1.1234 -0.0089 -0.0949
 2994SOL     OW20443   4.481   0.961   4.412 -0.1757 -0.0395 -0.0026
 2994SOL    HW120444   4.487   1.031   4.347  1.1974 -0.2658 -0.1178
 2994SOL    HW220445   4.490   0.883   4.358 -0.0813  0.0579 -0.1266
 2995SOL     OW20446   3.255   3.893   5.748 -0.0857  0.4611 -0.0123
 2995SOL    HW120447   3.293   3.832   5.685 -0.1022  0.4436 -0.0053
 2995SOL    HW220448   3.317   3.967   5.751  0.4869 -0.0687  1.3549
 2996SOL     OW20449   2.305   3.404   1.698  0.4615  0.0201  0.1872
 2996SOL    HW120450   2.348   3.353   1.630 -1.0082 -0.3568 -0.4495
 2996SOL    HW220451   2.370   3.442   1.757  2.5649 -1.0379 -1.4603
 2997SOL     OW20452   0.159   2.388  13.794  0.6150 -0.1291  0.3059
 2997SOL    HW120453   0.109   2.320  13.749  0.2462  0.5297 -0.3019
 2997SOL    HW220454   0.105   2.422  13.865 -1.2701  2.2114 -2.2099
 2998SOL     OW20455   2.531   4.553   5.837  0.6450  0.5028 -0.1689
 2998SOL    HW120456   2.507   4.496   5.763  0.6086 -0.3184  0.4776
 2998SOL    HW220457   2.506   4.496   5.909  1.3782  0.5669  0.1315
 2999SOL     OW20458   4.713   4.371   9.479  0.3916  0.2067  0.1715
 2999SOL    HW120459   0.026   4.449   9.438 -0.2982 -0.1995 -1.2315
 2999SOL    HW220460   4.721   4.309   9.407  1.6738  0.9599 -0.3355
 3000SOL     OW20461   1.847   4.081   8.487  0.1040  0.0975  0.5093
 3000SOL    HW120462   1.800   4.129   8.419  1.4561  0.4802 -0.1502
 3000SOL    HW220463   1.901   4.023   8.433  0.0078  1.2373 -0.7951
 3001SOL     OW20464   4.098   1.999   0.395  0.8710  0.6248  0.6390
 3001SOL    HW120465   4.037   1.974   0.325  2.7961  1.6090 -1.4012
 3001SOL    HW220466   4.179   1.979   0.348  0.4570 -0.2730  0.3155
 3002SOL     OW20467   4.673   1.229   9.599 -0.3298  0.2141 -0.1329
 3002SOL    HW120468   0.021   1.217   9.538 -2.1308 -2.3382 -1.7814
 3002SOL    HW220469   4.610   1.173   9.554 -0.1678 -0.4451  0.4693
 3003SOL     OW20470   4.463   2.028  13.556 -0.4394  0.0050  0.3097
 3003SOL    HW120471   4.469   2.000  13.648 -4.4286 -3.2334 -0.4573
 3003SOL    HW220472   4.506   2.113  13.571 -2.3939  0.6238  2.4190
 3004SOL     OW20473   3.668   1.254   3.022 -0.3294  0.3850  0.6380
 3004SOL    HW120474   3.605   1.313   2.981  0.0371  0.5664  0.3451
 3004SOL    HW220475   3.750   1.276   2.978 -0.9049 -2.0637 -1.6699
 3005SOL     OW20476   2.378   0.897   2.556 -0.0156 -0.1568  0.1933
 3005SOL    HW120477   2.388   0.991   2.541 -1.4946  0.0767  0.7111
 3005SOL    HW220478   2.407   0.846   2.481 -1.2368 -2.3379  1.1966
 3006SOL     OW20479   2.615   0.398   6.226 -0.6644  0.3964 -0.1840
 3006SOL    HW120480   2.569   0.481   6.242 -2.2690 -0.5785  0.1838
 3006SOL    HW220481   2.700   0.415   6.267  0.1491 -0.9907 -1.3065
 3007SOL     OW20482   3.271   1.144   9.360  0.1511  0.4344 -0.3775
 3007SOL    HW120483   3.306   1.226   9.325  0.8238 -0.3552 -1.5654
 3007SOL    HW220484   3.232   1.174   9.442  2.5752  0.7249  0.6962
 3008SOL     OW20485   3.624   2.229   1.672  0.5079 -0.1766 -0.3173
 3008SOL    HW120486   3.536   2.266   1.675 -0.9391 -3.8757  2.2657
 3008SOL    HW220487   3.676   2.288   1.728  1.8535 -0.0989 -1.6493
 3009SOL     OW20488   0.216   1.721   8.610  0.4092  0.4816  0.0072
 3009SOL    HW120489   0.191   1.670   8.533  0.6610  0.0831  0.1863
 3009SOL    HW220490   0.305   1.692   8.631  0.5304 -0.0128 -1.2261
 3010SOL     OW20491   0.785   1.358  11.609 -0.2064  0.1983 -0.0554
 3010SOL    HW120492   0.719   1.385  11.545  1.6857  0.0550 -2.0567
 3010SOL    HW220493   0.756   1.408  11.685  0.3030 -0.1268  0.3471
 3011SOL     OW20494   0.150   2.189   1.469 -0.8503  0.3234 -0.4779
 3011SOL    HW120495   0.111   2.164   1.385  0.6673 -0.0822 -1.0633
 3011SOL    HW220496   0.120   2.280   1.471  0.1053  0.5648  2.1971
 3012SOL     OW20497   3.559   3.890   6.313 -0.2955 -0.8048 -0.1218
 3012SOL    HW120498   3.630   3.888   6.377 -1.5637 -0.0982  1.3256
 3012SOL    HW220499   3.486   3.856   6.365  1.2230 -0.2449  2.3632
 3013SOL     OW20500   0.154   3.234  15.590 -0.0216 -0.1114 -0.2012
 3013SOL    HW120501   0.204   3.153  15.598  0.4560  0.0779 -1.3759
 3013SOL    HW220502   0.082   3.198  15.538 -0.0950 -1.5057  0.8645
 3014SOL     OW20503   1.814   2.954   8.324  0.3799  0.2164 -0.0714
 3014SOL    HW120504   1.805   2.970   8.418 -0.4166  2.1319 -0.4677
 3014SOL    HW220505   1.726   2.924   8.301 -0.0223  1.6957 -0.4389
 3015SOL     OW20506   4.645   1.253   5.433  0.1148 -0.4007 -0.1240
 3015SOL    HW120507   4.565   1.232   5.385  0.9470 -0.3755 -1.5336
 3015SOL    HW220508   4.635   1.197   5.510  0.7391 -0.3623 -0.0171
 3016SOL     OW20509   2.575   3.745   4.337 -0.4877  0.1077 -0.7711
 3016SOL    HW120510   2.627   3.707   4.267  0.0698 -0.0487 -0.2778
 3016SOL    HW220511   2.484   3.749   4.307  0.0444 -1.9230 -2.6574
 3017SOL     OW20512   1.222   2.598   9.997  0.2535  1.1195  0.2618
 3017SOL    HW120513   1.135   2.634  10.016 -0.6271  0.4057 -2.3982
 3017SOL    HW220514   1.263   2.673   9.955 -0.9498  1.5023 -0.2404
 3018SOL     OW20515   3.528   3.935   6.053 -0.1300  0.6413  0.2425
 3018SOL    HW120516   3.546   3.889   6.135 -2.9815 -0.5440  0.1989
 3018SOL    HW220517   3.576   3.881   5.990 -0.1170 -0.8294  1.5242
 3019SOL     OW20518   1.555   2.003   7.079  0.1531  0.2018 -0.1531
 3019SOL    HW120519   1.480   1.984   7.135  0.1441  0.1452 -0.1838
 3019SOL    HW220520   1.614   1.935   7.113  0.7069 -1.2578 -4.0434
 3020SOL     OW20521   1.962   1.610   3.330  0.4017 -0.2233 -1.1408
 3020SOL    HW120522   1.915   1.549   3.386  1.1250  0.9812  0.7720
 3020SOL    HW220523   2.041   1.639   3.376  0.5975 -0.6235 -1.2245
 3021SOL     OW20524   0.432   3.123   5.659  0.0956 -0.3406  0.4938
 3021SOL    HW120525   0.361   3.097   5.600 -0.3967  0.7372  0.6076
 3021SOL    HW220526   0.488   3.177   5.603  0.1918 -0.1697  0.7533
 3022SOL     OW20527   4.530   4.556   0.650  0.0335 -0.1881 -0.5799
 3022SOL    HW120528   4.605   4.502   0.674 -2.1889 -2.9489  0.1175
 3022SOL    HW220529   4.560   4.647   0.644 -0.6858  0.2391  2.2379
 3023SOL     OW20530   0.113   1.269   1.621 -0.0989 -0.4169  0.4289
 3023SOL    HW120531   0.067   1.309   1.695 -1.1511  1.6055 -1.3193
 3023SOL    HW220532   0.093   1.176   1.628 -0.7815 -0.1546  1.9155
 3024SOL     OW20533   1.993   2.645  17.525  0.0277  0.2030 -0.2814
 3024SOL    HW120534   2.026   2.704  17.593 -0.1651 -2.5275  2.1805
 3024SOL    HW220535   1.934   2.706  17.481 -1.2399 -0.7783  0.0435
 3025SOL     OW20536   1.973   4.217   4.592 -0.1885  0.1488 -0.3065
 3025SOL    HW120537   1.917   4.154   4.636 -0.0976  0.3379  0.0773
 3025SOL    HW220538   1.979   4.300   4.641 -0.4118 -1.3205  2.1899
 3026SOL     OW20539   1.892   4.350   7.885 -0.3811 -0.0150  0.3417
 3026SOL    HW120540   1.860   4.339   7.975  0.0752 -1.2377  0.3588
 3026SOL    HW220541   1.814   4.329   7.833 -0.6862  0.0195  0.7824
 3027SOL     OW20542   3.462   4.425  15.613 -0.3925  0.5062  0.5183
 3027SOL    HW120543   3.524   4.483  15.656 -0.5453  0.3285  0.9844
 3027SOL    HW220544   3.380   4.452  15.655 -0.3385  0.4858  0.6374
 3028SOL     OW20545   2.483   3.228   6.924 -0.2398  0.1619 -0.1380
 3028SOL    HW120546   2.428   3.278   6.984  0.0136 -0.7427  0.8607
 3028SOL    HW220547   2.563   3.280   6.932 -0.7421  0.8147  0.5778
 3029SOL     OW20548   1.831   4.104   2.357 -0.3986 -0.1916 -0.2169
 3029SOL    HW120549   1.775   4.154   2.416  0.0587 -0.2385  0.2576
 3029SOL    HW220550   1.897   4.167   2.328  0.8551 -2.0608 -1.3876
 3030SOL     OW20551   4.035   2.031  15.142 -0.3631  0.3050 -0.2960
 3030SOL    HW120552   4.130   2.037  15.152  0.0730  0.7831 -4.7037
 3030SOL    HW220553   4.029   1.943  15.104 -0.2793  0.8923 -1.6808
 3031SOL     OW20554   4.376   1.376   5.981 -0.0382 -0.2969 -0.1250
 3031SOL    HW120555   4.349   1.443   5.918 -4.1676 -1.0524  0.8501
 3031SOL    HW220556   4.438   1.430   6.030  0.8988 -0.0296 -1.5854
 3032SOL     OW20557   0.969   1.989   1.136 -0.2876  0.0395 -0.0407
 3032SOL    HW120558   1.014   2.062   1.092  1.6000  0.3603  2.4698
 3032SOL    HW220559   0.890   2.023   1.177 -0.7007  1.6830 -2.1732
 3033SOL     OW20560   2.724   2.425   9.208  0.4688  0.1050 -0.2352
 3033SOL    HW120561   2.683   2.344   9.236 -2.3411  1.6505  0.1478
 3033SOL    HW220562   2.763   2.465   9.286 -3.9366  0.1116  1.9182
 3034SOL     OW20563   3.868   1.085  13.413  0.4003 -0.2012  0.2505
 3034SOL    HW120564   3.896   1.113  13.500  2.1787  1.1379 -0.7353
 3034SOL    HW220565   3.927   1.009  13.409 -0.1102 -0.6393  1.0538
 3035SOL     OW20566   2.199   0.315  12.254  1.0390  0.0673 -0.6603
 3035SOL    HW120567   2.134   0.347  12.191 -0.1448 -1.2379 -0.0866
 3035SOL    HW220568   2.259   0.390  12.258  1.6895 -0.4700 -0.3101
 3036SOL     OW20569   0.926   1.510   9.716 -0.6884 -0.1133 -0.2064
 3036SOL    HW120570   0.995   1.503   9.782 -0.3256 -4.6463 -1.0888
 3036SOL    HW220571   0.856   1.465   9.765  0.6131 -3.0202 -1.0345
 3037SOL     OW20572   4.220   1.229   9.322 -0.3721 -0.1321  0.1164
 3037SOL    HW120573   4.228   1.315   9.280  1.5780  0.6308  2.0280
 3037SOL    HW220574   4.308   1.211   9.355 -0.8454 -0.6102  1.0917
 3038SOL     OW20575   3.070   4.300   7.618  0.2458  1.0467 -0.5877
 3038SOL    HW120576   3.014   4.360   7.570  1.7842  1.6049 -1.6786
 3038SOL    HW220577   3.125   4.259   7.551  1.5132  1.0492  0.4435
 3039SOL     OW20578   1.249   4.357   2.180 -0.4172 -0.0331 -0.4076
 3039SOL    HW120579   1.158   4.330   2.174 -0.7864  1.1359 -0.1156
 3039SOL    HW220580   1.288   4.282   2.225  0.7012  1.4263  1.0999
 3040SOL     OW20581   1.434   1.045  13.561 -0.1358  0.1155  0.3911
 3040SOL    HW120582   1.438   1.050  13.656 -0.9089  0.0830  0.4247
 3040SOL    HW220583   1.516   1.008  13.529  0.1587  1.3715 -0.2764
 3041SOL     OW20584   3.586   2.426   9.106  0.5395  0.4154 -0.0253
 3041SOL    HW120585   3.588   2.493   9.174  2.2795  0.2874  0.0381
 3041SOL    HW220586   3.593   2.344   9.155 -1.1003 -1.0041 -2.1218
 3042SOL     OW20587   4.140   4.297   6.205 -0.6377  0.1675 -0.0958
 3042SOL    HW120588   4.104   4.216   6.241  0.9310 -0.3971  0.2365
 3042SOL    HW220589   4.232   4.275   6.219 -0.7334  0.5050  1.0484
 3043SOL     OW20590   2.511   0.769   9.350  0.5080  0.8789  0.0088
 3043SOL    HW120591   2.487   0.683   9.386  2.3060  0.1562 -0.5276
 3043SOL    HW220592   2.571   0.732   9.286 -3.3425 -2.4806 -1.7007
 3044SOL     OW20593   2.801   3.703   6.517 -0.1831 -0.0306  0.2827
 3044SOL    HW120594   2.753   3.725   6.437  0.5770 -1.7327 -0.6373
 3044SOL    HW220595   2.722   3.702   6.570 -1.5756  1.4862 -1.7421
 3045SOL     OW20596   0.427   0.533   9.264  0.4626 -1.0857  0.6561
 3045SOL    HW120597   0.457   0.620   9.289 -0.2028 -0.1990 -1.6055
 3045SOL    HW220598   0.470   0.479   9.330 -0.1674  1.0631  2.7975
 3046SOL     OW20599   2.357   3.583  11.272  0.6879 -0.2045  0.5161
 3046SOL    HW120600   2.357   3.579  11.176 -0.6163 -1.2122  0.5570
 3046SOL    HW220601   2.375   3.491  11.290  2.6143  0.3381  1.3040
 3047SOL     OW20602   4.097   0.038   8.399  0.2447  0.0212  0.6501
 3047SOL    HW120603   4.080   4.696   8.333 -2.8371 -0.1514  1.5943
 3047SOL    HW220604   4.068   0.120   8.360 -1.0954  0.1044  1.8155
 3048SOL     OW20605   2.667   1.238  15.946  0.2285 -0.4235  0.3184
 3048SOL    HW120606   2.605   1.165  15.945  0.1054 -0.2710 -2.9737
 3048SOL    HW220607   2.714   1.228  15.863  1.4308  1.1908  0.7996
 3049SOL     OW20608   4.050   2.593   9.000 -0.2485  0.4288 -0.2925
 3049SOL    HW120609   4.110   2.523   8.975  1.1029  1.2946  0.5620
 3049SOL    HW220610   3.967   2.545   8.994  0.5964 -1.0281 -0.2579
 3050SOL     OW20611   0.234   3.709   9.843  0.1139 -0.4615  0.4166
 3050SOL    HW120612   0.308   3.732   9.899  0.2650  0.2558 -0.0789
 3050SOL    HW220613   0.161   3.748   9.892  0.4173  0.0389  0.4735
 3051SOL     OW20614   2.045   0.884  14.976  0.1491 -0.0412  0.0605
 3051SOL    HW120615   1.998   0.893  14.893 -2.4182 -3.3598  1.1230
 3051SOL    HW220616   2.134   0.870  14.946 -0.3218 -2.1692 -0.3262
 3052SOL     OW20617   2.605   1.246   8.259 -0.3329 -0.1221 -0.0400
 3052SOL    HW120618   2.660   1.265   8.335  1.1578 -0.9185 -0.9089
 3052SOL    HW220619   2.656   1.279   8.185 -0.9200  0.8015 -0.0362
 3053SOL     OW20620   1.142   1.265   2.330  0.2963  0.4646  0.3138
 3053SOL    HW120621   1.075   1.330   2.352  1.0254  1.3170  0.0255
 3053SOL    HW220622   1.219   1.317   2.355  0.9362  1.0788 -2.9700
 3054SOL     OW20623   2.363   3.414   5.954  0.2422  0.1634  0.2133
 3054SOL    HW120624   2.416   3.383   6.027  1.9818 -0.3144 -1.2638
 3054SOL    HW220625   2.283   3.389   5.999 -0.4700  3.0401  0.6015
 3055SOL     OW20626   3.276   2.095   2.155  1.0507 -0.4333 -0.5307
 3055SOL    HW120627   3.318   2.156   2.095  1.2661  0.6742  0.7516
 3055SOL    HW220628   3.217   2.048   2.095  0.6438 -0.7240  0.0983
 3056SOL     OW20629   4.595   1.999   8.131  0.5004 -0.0697 -0.0504
 3056SOL    HW120630   4.680   1.976   8.094  0.7955  1.5273 -0.3910
 3056SOL    HW220631   4.596   2.090   8.101 -0.5330  0.4170  1.3794
 3057SOL     OW20632   0.192   2.406   3.658 -0.5609 -0.4450  0.2674
 3057SOL    HW120633   0.228   2.345   3.594 -0.7523  0.6618 -0.8981
 3057SOL    HW220634   0.262   2.413   3.723  0.0876  0.2242 -0.4958
 3058SOL     OW20635   1.232   1.079   3.599  0.3101  0.5145 -0.7820
 3058SOL    HW120636   1.225   1.173   3.616  2.7291  0.4107  0.7834
 3058SOL    HW220637   1.291   1.045   3.668 -1.4741  0.4925  0.7366
 3059SOL     OW20638   2.355   2.596   0.068 -0.0117 -0.0858  0.2219
 3059SOL    HW120639   2.414   2.587   0.143  1.0663 -0.0055 -0.6204
 3059SOL    HW220640   2.270   2.593   0.110 -1.6759  1.5962 -2.9958
 3060SOL     OW20641   3.696   0.611  14.897  0.3252 -0.0612  0.4014
 3060SOL    HW120642   3.752   0.563  14.835 -2.5362 -2.4726 -0.3413
 3060SOL    HW220643   3.608   0.587  14.868  0.4660  0.4689 -0.4650
 3061SOL     OW20644   3.138   0.294  12.036 -0.1837  0.5390  0.8105
 3061SOL    HW120645   3.117   0.362  12.101  2.2121  0.4427  1.6897
 3061SOL    HW220646   3.120   0.338  11.953  0.0955  0.5102  0.7348
 3062SOL     OW20647   1.702   3.383  12.291  0.2909 -0.7172  0.2852
 3062SOL    HW120648   1.743   3.419  12.370 -0.0449 -1.9152  1.0095
 3062SOL    HW220649   1.769   3.390  12.223  0.2979  0.6336  0.4220
 3063SOL     OW20650   2.689   3.328   7.677 -0.0745 -0.4137  0.0881
 3063SOL    HW120651   2.674   3.245   7.723  0.1286 -1.2483 -1.3610
 3063SOL    HW220652   2.732   3.371   7.751  0.4707 -1.0656  0.1550
 3064SOL     OW20653   1.590   2.934   5.189  0.0767 -0.2940  0.4761
 3064SOL    HW120654   1.661   2.981   5.146  0.6036 -1.3747  0.1776
 3064SOL    HW220655   1.530   2.926   5.115  0.6768  0.5055 -0.0909
 3065SOL     OW20656   1.542   4.287   7.502 -0.1903  0.0249 -0.6667
 3065SOL    HW120657   1.460   4.279   7.550  0.5913  0.7835  0.7909
 3065SOL    HW220658   1.558   4.379   7.522 -1.2425  0.1578 -0.4615
 3066SOL     OW20659   2.469   2.420   3.816  0.4814  0.8170  0.1618
 3066SOL    HW120660   2.539   2.441   3.877  1.8248  0.0704 -1.1430
 3066SOL    HW220661   2.489   2.328   3.801  0.1004  1.3724 -3.7846
 3067SOL     OW20662   4.356   1.588   2.253 -0.2752 -0.1090 -0.4223
 3067SOL    HW120663   4.410   1.567   2.177 -0.7312 -1.2962 -0.4243
 3067SOL    HW220664   4.416   1.556   2.321 -0.0554 -0.8863 -0.9914
 3068SOL     OW20665   4.555   3.035   0.904  0.1876 -0.4129 -0.4237
 3068SOL    HW120666   4.484   2.982   0.867  0.3285 -0.7542 -0.2067
 3068SOL    HW220667   4.605   3.056   0.826 -0.0195  0.0045 -0.4407
 3069SOL     OW20668   3.483   4.137  10.923 -0.1067  0.1099 -0.1052
 3069SOL    HW120669   3.437   4.172  10.999  1.9646  0.0587  1.1819
 3069SOL    HW220670   3.450   4.047  10.917 -1.4931  0.6601 -0.7017
 3070SOL     OW20671   4.367   4.086   7.022  0.3455  0.2656  0.1315
 3070SOL    HW120672   4.279   4.080   7.059  0.1137 -0.2972 -0.5108
 3070SOL    HW220673   4.376   4.165   6.969  2.0729  0.0265  0.0562
 3071SOL     OW20674   3.210   1.802  12.517 -0.1293  0.6060  0.2617
 3071SOL    HW120675   3.270   1.731  12.497 -1.5264 -0.5600  0.1618
 3071SOL    HW220676   3.191   1.778  12.608 -2.0803 -0.1427 -0.3296
 3072SOL     OW20677   0.669   4.616   7.766 -0.3481  0.4228  0.2587
 3072SOL    HW120678   0.741   4.635   7.706  1.0549 -1.3588  1.3687
 3072SOL    HW220679   0.666   4.704   7.804  1.4670  0.8763 -0.6704
 3073SOL     OW20680   2.250   4.639   4.838  0.0734  0.3188  0.0388
 3073SOL    HW120681   2.172   4.684   4.868 -0.1439  0.1562 -0.2845
 3073SOL    HW220682   2.225   4.624   4.747 -1.0239 -0.9437  0.5631
 3074SOL     OW20683   3.932   3.537   5.695 -0.4351 -0.2377 -0.0233
 3074SOL    HW120684   4.010   3.515   5.644  0.2486 -0.3324  1.0506
 3074SOL    HW220685   3.873   3.465   5.672 -1.0532 -0.0542  0.9835
 3075SOL     OW20686   1.831   3.582  12.440 -0.7565 -0.1053 -0.1403
 3075SOL    HW120687   1.836   3.525  12.516 -2.1100 -0.4335 -0.2951
 3075SOL    HW220688   1.925   3.581  12.423 -0.8189  1.3057 -0.5633
 3076SOL     OW20689   0.063   1.094  10.783 -0.0391 -0.0461 -0.2015
 3076SOL    HW120690   0.064   1.175  10.834  0.3811  0.4339 -0.9766
 3076SOL    HW220691   0.055   1.028  10.851  1.8033  0.0687  0.1194
 3077SOL     OW20692   1.800   0.675   2.620  0.4051  0.2665 -0.6184
 3077SOL    HW120693   1.867   0.634   2.674  0.2590  1.2273  0.3030
 3077SOL    HW220694   1.853   0.707   2.547 -0.2327 -2.4558 -2.2908
 3078SOL     OW20695   2.775   4.353   3.634 -0.4689 -0.0021 -0.0600
 3078SOL    HW120696   2.813   4.293   3.570 -1.8132 -0.6570 -0.2360
 3078SOL    HW220697   2.699   4.305   3.665  0.3880 -0.5036  1.2255
 3079SOL     OW20698   0.135   1.952   4.286  0.0014 -0.0207  0.4031
 3079SOL    HW120699   0.189   1.922   4.359 -0.9910  1.7886  1.8929
 3079SOL    HW220700   0.159   1.885   4.222  0.3435 -0.0898  0.6062
 3080SOL     OW20701   0.971   1.100  15.324 -0.4723 -0.1291  0.0446
 3080SOL    HW120702   0.926   1.087  15.241 -3.2676 -1.6148  1.8043
 3080SOL    HW220703   1.002   1.190  15.314  0.4970 -0.4230  0.3419
 3081SOL     OW20704   0.896   3.420   6.864 -0.1306 -0.6824 -0.7360
 3081SOL    HW120705   0.959   3.401   6.794  0.4965 -0.1469 -0.3111
 3081SOL    HW220706   0.913   3.512   6.879  2.1078 -0.8902 -1.9326
 3082SOL     OW20707   0.518   0.738  13.021  0.0933  0.5112 -0.5198
 3082SOL    HW120708   0.579   0.701  13.085 -2.5065 -3.6022 -0.4439
 3082SOL    HW220709   0.462   0.792  13.077 -0.6791 -2.5743  1.6598
 3083SOL     OW20710   4.000   2.066   5.639 -0.5232 -0.1860  0.2695
 3083SOL    HW120711   3.923   2.123   5.646  1.0161  1.7395  1.6601
 3083SOL    HW220712   4.035   2.117   5.566 -0.0160 -1.1169 -0.1292
 3084SOL     OW20713   1.664   0.062   0.023 -0.1900  0.8964 -0.7269
 3084SOL    HW120714   1.679   0.086  17.634  0.2244 -0.7583 -1.0944
 3084SOL    HW220715   1.585   0.113   0.039 -1.3329 -0.1111 -3.1749
 3085SOL     OW20716   0.859   3.346   3.193 -0.2962 -0.6131  0.2870
 3085SOL    HW120717   0.893   3.373   3.279  0.7330 -2.3466  0.4281
 3085SOL    HW220718   0.878   3.253   3.187  1.2106 -0.3922  1.6508
 3086SOL     OW20719   4.260   4.128   2.354  0.1670 -0.2276 -0.2834
 3086SOL    HW120720   4.271   4.131   2.259  0.4344 -0.8153 -0.2700
 3086SOL    HW220721   4.164   4.123   2.354  0.1622 -0.1074  0.1750
 3087SOL     OW20722   0.113   1.231   2.381  0.6885 -0.1286 -0.5253
 3087SOL    HW120723   0.083   1.152   2.336 -1.7638  0.2071  0.5573
 3087SOL    HW220724   0.197   1.201   2.415  0.0409 -1.2376  0.0953
 3088SOL     OW20725   2.875   3.568   5.124 -0.0233  0.0131 -0.0080
 3088SOL    HW120726   2.897   3.528   5.208  3.5862  3.0548  0.4714
 3088SOL    HW220727   2.806   3.511   5.088 -0.2784  0.1878  0.1995
 3089SOL     OW20728   1.247   3.273   5.065  0.0657  0.2965 -0.1748
 3089SOL    HW120729   1.270   3.250   4.974  2.8220 -0.1148  0.6343
 3089SOL    HW220730   1.249   3.368   5.053 -0.8523  0.3614  0.1717
 3090SOL     OW20731   3.981   0.992   6.414 -0.0175 -0.4316 -0.2829
 3090SOL    HW120732   3.927   1.014   6.490 -0.6626  3.3947 -1.8256
 3090SOL    HW220733   3.929   0.943   6.351 -0.1412 -1.5654  0.6932
 3091SOL     OW20734   1.286   0.668  16.918  0.1784 -0.2903  0.4135
 3091SOL    HW120735   1.201   0.696  16.952 -0.0076 -1.3878  0.8572
 3091SOL    HW220736   1.310   0.590  16.968  0.8035 -0.7091 -0.5497
 3092SOL     OW20737   0.479   3.716  16.306 -0.0336 -0.1304  0.1847
 3092SOL    HW120738   0.546   3.679  16.247 -1.1635  1.5095 -2.1331
 3092SOL    HW220739   0.435   3.640  16.344 -1.8869 -0.6677 -3.0394
 3093SOL     OW20740   3.805   0.268   8.481  0.1670 -0.0234 -0.4730
 3093SOL    HW120741   3.820   0.177   8.506  3.4170  0.3331 -1.1864
 3093SOL    HW220742   3.714   0.264   8.509  0.7852 -2.9239  1.0751
 3094SOL     OW20743   4.616   3.116   1.145 -0.1429  0.3014  0.4623
 3094SOL    HW120744   4.648   3.033   1.180 -1.1163  0.6261  2.1365
 3094SOL    HW220745   4.577   3.077   1.067  1.9852 -0.5071 -0.1759
 3095SOL     OW20746   1.882   1.092   5.294 -0.7534  0.0535 -0.0702
 3095SOL    HW120747   1.841   1.031   5.234  1.6649 -0.9851 -0.6421
 3095SOL    HW220748   1.947   1.142   5.245 -1.7767  0.3871 -1.0801
 3096SOL     OW20749   1.818   3.247   1.153 -0.0305 -0.3274  0.2785
 3096SOL    HW120750   1.877   3.177   1.125  1.3902  0.9908  0.0062
 3096SOL    HW220751   1.827   3.307   1.079  2.7818  0.9058  1.6148
 3097SOL     OW20752   1.897   2.471   2.394 -0.1697  0.0130  0.2782
 3097SOL    HW120753   1.820   2.500   2.443 -0.0374 -1.1116  1.1669
 3097SOL    HW220754   1.870   2.474   2.302 -0.2303  0.2720  0.3044
 3098SOL     OW20755   0.230   3.076  17.572  0.2558  0.6565  0.4426
 3098SOL    HW120756   0.222   2.983  17.593 -1.6864  0.8527  0.5326
 3098SOL    HW220757   0.171   3.090  17.499  1.2739 -3.1781 -1.0647
 3099SOL     OW20758   1.035   2.787   9.011 -0.1403  0.0724  0.3677
 3099SOL    HW120759   1.024   2.869   9.059 -0.1181 -0.3290  1.0695
 3099SOL    HW220760   1.127   2.782   8.986  0.2360 -1.3492  2.0076
 3100SOL     OW20761   2.721   2.290   4.386 -0.1867  0.6534  0.1498
 3100SOL    HW120762   2.686   2.202   4.377  0.3840  0.6130 -1.7125
 3100SOL    HW220763   2.643   2.341   4.365 -1.1584 -0.7275  0.4574
 3101SOL     OW20764   2.589   3.143   0.783  0.0890 -0.4270 -0.5297
 3101SOL    HW120765   2.672   3.163   0.738  0.2517 -1.4974 -0.7128
 3101SOL    HW220766   2.590   3.048   0.769 -3.1426 -0.5837  0.4551
 3102SOL     OW20767   2.424   2.621   2.116 -0.0218  0.5812  0.0595
 3102SOL    HW120768   2.399   2.602   2.206  1.9116 -1.6343  0.1471
 3102SOL    HW220769   2.517   2.638   2.127 -0.1479 -0.2873  2.5856
 3103SOL     OW20770   1.645   2.075  11.993 -0.3752 -0.4716  1.0511
 3103SOL    HW120771   1.614   1.999  12.043  2.2683 -0.4045  2.7910
 3103SOL    HW220772   1.566   2.096  11.943  0.8114  0.8895 -0.2343
 3104SOL     OW20773   4.599   2.912   5.959  0.0561  0.4866 -0.1981
 3104SOL    HW120774   4.644   2.834   5.925 -1.1023  0.5530 -1.8581
 3104SOL    HW220775   4.663   2.948   6.020 -0.9592 -1.1238  1.8143
 3105SOL     OW20776   3.005   2.076   6.036 -0.0808  0.0015  0.5961
 3105SOL    HW120777   2.941   2.074   5.965  0.4840 -1.7483  0.1347
 3105SOL    HW220778   2.946   2.076   6.111  0.3635 -0.8567  0.9434
 3106SOL     OW20779   3.260   4.022   3.455  0.0201  0.6920 -0.0038
 3106SOL    HW120780   3.209   3.941   3.448 -1.5080  1.5501  1.2887
 3106SOL    HW220781   3.349   3.992   3.437  0.7518  2.6043  0.3927
 3107SOL     OW20782   1.266   1.798   4.128 -0.1521  0.7583 -0.7404
 3107SOL    HW120783   1.349   1.812   4.172 -0.1486 -1.2539 -0.1053
 3107SOL    HW220784   1.239   1.887   4.106  1.0912  1.2203 -0.4011
 3108SOL     OW20785   3.563   3.444   6.047  0.0617  0.1839 -0.6337
 3108SOL    HW120786   3.501   3.373   6.068 -0.3892  0.9297  0.5164
 3108SOL    HW220787   3.564   3.439   5.952 -1.7430 -0.2020 -0.6383
 3109SOL     OW20788   2.811   4.202   1.458  0.0800 -0.6249 -0.2573
 3109SOL    HW120789   2.814   4.120   1.508  0.8584 -0.4991 -0.0968
 3109SOL    HW220790   2.730   4.245   1.488  1.9391  1.9912  0.9783
 3110SOL     OW20791   4.039   3.772   7.674  0.0344  0.1377 -0.2592
 3110SOL    HW120792   3.968   3.796   7.734  0.3993  2.9660 -0.9380
 3110SOL    HW220793   4.009   3.799   7.587 -0.6008 -0.0657 -0.1059
 3111SOL     OW20794   4.562   0.647   9.234  0.4614 -0.5010 -0.6102
 3111SOL    HW120795   4.634   0.709   9.242 -0.4085  0.3740  0.4740
 3111SOL    HW220796   4.489   0.709   9.247  0.7063 -0.3477  0.0370
 3112SOL     OW20797   0.388   3.428   2.518  0.0376  0.2265  0.2547
 3112SOL    HW120798   0.417   3.399   2.431 -1.1412 -3.1932  1.0353
 3112SOL    HW220799   0.332   3.499   2.485 -0.9840 -0.2488  0.9798
 3113SOL     OW20800   0.646   0.191   3.538  0.3417 -0.2510 -0.7918
 3113SOL    HW120801   0.645   0.208   3.443 -0.4541 -0.8001 -0.8831
 3113SOL    HW220802   0.708   0.256   3.569 -0.6298  0.3516 -0.1202
 3114SOL     OW20803   2.324   4.149  12.790 -0.0983  0.4496  0.5611
 3114SOL    HW120804   2.338   4.107  12.705  1.4071 -0.2853  1.1810
 3114SOL    HW220805   2.325   4.073  12.847  1.2840  0.4194  0.5078
 3115SOL     OW20806   3.082   2.730   2.750  0.3436  0.4122  0.3603
 3115SOL    HW120807   3.165   2.683   2.750  0.3257  0.3820 -0.7096
 3115SOL    HW220808   3.083   2.746   2.844 -2.6326 -0.2328  0.4910
 3116SOL     OW20809   2.498   0.207   7.477  0.1530  0.2294  0.0225
 3116SOL    HW120810   2.549   0.127   7.463 -0.5913 -0.2527  0.0567
 3116SOL    HW220811   2.470   0.191   7.567 -0.8182 -1.5615 -0.5816
 3117SOL     OW20812   0.854   1.271   5.907  0.5849 -0.8464  1.0115
 3117SOL    HW120813   0.877   1.197   5.962  0.0425 -1.4141  0.4715
 3117SOL    HW220814   0.761   1.277   5.929  0.3110  0.4238 -0.4453
 3118SOL     OW20815   4.479   1.742   7.814 -0.4819  0.5811  0.1069
 3118SOL    HW120816   4.430   1.685   7.756 -0.4814 -0.0557  0.7275
 3118SOL    HW220817   4.411   1.790   7.862  1.2879  1.7330  1.5117
 3119SOL     OW20818   2.711   3.842   1.229  0.0897 -0.0644  0.3217
 3119SOL    HW120819   2.617   3.837   1.246  0.7447 -2.3938  3.2883
 3119SOL    HW220820   2.727   3.932   1.199  0.1760  0.3192  1.5044
 3120SOL     OW20821   2.503   0.170  13.191 -0.3636  0.4129 -0.7749
 3120SOL    HW120822   2.443   0.137  13.258  1.5319 -3.1664 -0.8064
 3120SOL    HW220823   2.539   0.086  13.161  0.8426  1.2546 -1.7103
 3121SOL     OW20824   1.424   2.132   1.498 -0.2222 -0.6415  0.0679
 3121SOL    HW120825   1.350   2.090   1.454 -1.1495  1.2267 -0.1622
 3121SOL    HW220826   1.463   2.184   1.428  1.2086  1.5377  2.4715
 3122SOL     OW20827   4.244   4.555   4.022  0.9136 -0.7709 -0.6326
 3122SOL    HW120828   4.328   4.531   4.062  0.6406  1.3596  1.2543
 3122SOL    HW220829   4.259   4.650   4.025  3.1159 -1.2241  2.6269
 3123SOL     OW20830   3.635   1.046  17.670  0.0841  0.5479  0.0386
 3123SOL    HW120831   3.703   0.999   0.016  3.1175  2.5241 -2.2935
 3123SOL    HW220832   3.633   1.134   0.005 -0.8450 -0.0777  1.4308
 3124SOL     OW20833   2.400   0.556   8.270 -0.2967 -0.1215  0.5659
 3124SOL    HW120834   2.333   0.515   8.214 -0.3298 -0.1263  0.6091
 3124SOL    HW220835   2.453   0.477   8.284  2.5845  1.5322 -1.1738
 3125SOL     OW20836   1.038   3.564   3.575  0.4819 -0.1888 -0.1850
 3125SOL    HW120837   1.081   3.642   3.611 -1.9212  2.2509 -2.5855
 3125SOL    HW220838   1.061   3.506   3.647 -1.4612 -0.5153  0.1754
 3126SOL     OW20839   1.819   0.962  12.509 -0.1527  0.2482  0.1587
 3126SOL    HW120840   1.804   0.904  12.584  3.1859  0.0646  0.6795
 3126SOL    HW220841   1.826   1.051  12.544 -2.3846 -0.0398  1.3085
 3127SOL     OW20842   3.781   1.414  10.170  0.9024  0.2477  0.6032
 3127SOL    HW120843   3.813   1.493  10.215  1.7363  0.1823  0.1281
 3127SOL    HW220844   3.814   1.423  10.081 -0.2430  1.3993  0.2998
 3128SOL     OW20845   1.514   0.262   9.163 -0.0710  0.4475 -0.5209
 3128SOL    HW120846   1.419   0.250   9.157 -0.3388  1.3312  2.1877
 3128SOL    HW220847   1.550   0.194   9.220 -1.4351  0.3039  0.1531
 3129SOL     OW20848   2.410   2.428  12.989 -0.2201 -0.4396  0.2325
 3129SOL    HW120849   2.438   2.337  13.004  0.1292 -0.6515 -1.7524
 3129SOL    HW220850   2.328   2.413  12.943  0.2157  2.2889 -1.4124
 3130SOL     OW20851   0.544   3.930  10.342 -0.4163  0.9105 -0.2713
 3130SOL    HW120852   0.625   3.897  10.303 -0.7714 -1.7654  1.2409
 3130SOL    HW220853   0.597   3.988  10.398 -0.0782  0.2431  0.1020
 3131SOL     OW20854   0.810   2.415  13.734 -0.1977 -0.0759 -0.6688
 3131SOL    HW120855   0.783   2.493  13.782 -1.3238  0.9435 -2.9302
 3131SOL    HW220856   0.800   2.351  13.805 -0.7824  0.8897  0.1091
 3132SOL     OW20857   3.467   4.723   2.781  0.0626 -0.6232  0.4994
 3132SOL    HW120858   3.503   0.075   2.824 -1.3044  1.1558 -1.5963
 3132SOL    HW220859   3.402   0.030   2.719 -0.9037  2.5172  3.1869
 3133SOL     OW20860   0.637   2.758  12.010 -0.0902 -0.4261 -0.0348
 3133SOL    HW120861   0.628   2.711  11.927  1.2364  1.0716 -1.0191
 3133SOL    HW220862   0.567   2.823  12.009 -1.7026 -2.2145 -4.2513
 3134SOL     OW20863   2.618   1.040   4.262 -0.6272  0.2780  0.3758
 3134SOL    HW120864   2.587   1.049   4.172 -0.3532  2.1201  0.4689
 3134SOL    HW220865   2.623   1.132   4.288 -1.3985 -0.0939  1.8988
 3135SOL     OW20866   3.338   3.196   6.871  0.0378  0.2373 -0.3892
 3135SOL    HW120867   3.263   3.253   6.889 -2.0639 -2.9841  1.1618
 3135SOL    HW220868   3.374   3.220   6.786  0.0988  2.0339  0.1555
 3136SOL     OW20869   3.787   0.422   4.837 -0.1137 -0.3649 -0.0154
 3136SOL    HW120870   3.743   0.418   4.753 -0.4975 -2.2791  0.2640
 3136SOL    HW220871   3.837   0.503   4.824  0.1114 -0.3837  0.7069
 3137SOL     OW20872   4.404   1.384   3.086  0.4587  0.1116  0.0624
 3137SOL    HW120873   4.466   1.401   3.015 -0.2968  0.4631 -0.5088
 3137SOL    HW220874   4.468   1.379   3.157  1.1839 -1.0191 -0.6708
 3138SOL     OW20875   3.816   2.662  11.864 -0.2508  0.0132 -0.2520
 3138SOL    HW120876   3.783   2.603  11.933  0.9938  1.6682  1.7604
 3138SOL    HW220877   3.867   2.713  11.926 -0.9522 -0.5395  0.7928
 3139SOL     OW20878   1.055   4.534  13.249 -0.0099 -0.1288 -0.3794
 3139SOL    HW120879   0.997   4.605  13.224 -2.1455 -1.4436  0.8800
 3139SOL    HW220880   1.009   4.465  13.202  3.3327 -2.4714 -0.2553
 3140SOL     OW20881   3.686   4.112   3.746  0.3114  0.0126 -0.4559
 3140SOL    HW120882   3.748   4.112   3.673 -1.6070 -1.4885 -2.1007
 3140SOL    HW220883   3.740   4.157   3.811  0.4219  1.0296 -1.2397
 3141SOL     OW20884   0.527   4.252   8.125 -0.2368 -0.2528  0.3796
 3141SOL    HW120885   0.492   4.331   8.085  0.1212  0.4323  1.4223
 3141SOL    HW220886   0.455   4.196   8.152  1.0216 -2.2137 -0.3194
 3142SOL     OW20887   4.393   3.502   8.706 -0.7356  0.1188 -0.1708
 3142SOL    HW120888   4.429   3.589   8.723 -1.2850  0.2330  0.3918
 3142SOL    HW220889   4.361   3.480   8.793 -2.2279 -3.5867 -1.6368
 3143SOL     OW20890   4.531   2.968  11.486  0.1443  0.6176  0.2582
 3143SOL    HW120891   4.568   2.887  11.452  0.1922  0.8686 -0.2875
 3143SOL    HW220892   4.525   3.007  11.399  0.3556 -2.3364 -1.0817
 3144SOL     OW20893   1.759   3.594   2.939  0.5565  0.2363 -0.4821
 3144SOL    HW120894   1.727   3.585   2.849  2.0254  0.8096 -1.0707
 3144SOL    HW220895   1.848   3.624   2.921  0.0881  1.8451 -0.0835
 3145SOL     OW20896   4.209   2.050   1.712 -0.2105  0.0020 -0.3283
 3145SOL    HW120897   4.120   2.082   1.721 -0.9125 -1.7009 -1.3506
 3145SOL    HW220898   4.193   1.956   1.714  1.3763 -0.2633  0.1190
 3146SOL     OW20899   4.691   4.317   5.134  0.3297  0.2066  0.5022
 3146SOL    HW120900   0.029   4.386   5.114  0.4754  0.0042  0.2673
 3146SOL    HW220901   0.005   4.287   5.216 -0.3681 -1.0069  0.3896
 3147SOL     OW20902   1.420   2.424   6.100 -0.1787 -0.7081  0.2312
 3147SOL    HW120903   1.484   2.368   6.144  1.0459 -0.3779 -1.1308
 3147SOL    HW220904   1.392   2.366   6.029  0.1949  0.7157 -1.0908
 3148SOL     OW20905   1.427   3.315   1.348  0.4066  0.6676  0.4834
 3148SOL    HW120906   1.379   3.395   1.326 -0.4052 -0.4842 -1.9248
 3148SOL    HW220907   1.384   3.287   1.429  2.5886 -4.7443 -0.1971
 3149SOL     OW20908   0.277   1.152  11.053 -0.4641  0.4458 -0.0948
 3149SOL    HW120909   0.219   1.184  11.122 -0.2131  0.1285  0.2598
 3149SOL    HW220910   0.305   1.065  11.081 -0.4812  0.2134 -0.7833
 3150SOL     OW20911   0.052   1.848   9.811 -0.5044 -0.4851  0.0184
 3150SOL    HW120912   0.107   1.924   9.830  0.8915 -1.1315 -1.5486
 3150SOL    HW220913   4.697   1.898   9.826 -0.9356 -1.4215  0.8495
 3151SOL     OW20914   0.675   1.499   9.505 -0.0821  0.1895 -0.1583
 3151SOL    HW120915   0.581   1.514   9.506 -0.4265 -1.9642 -0.9468
 3151SOL    HW220916   0.678   1.420   9.558  0.3588 -1.3221 -2.4514
 3152SOL     OW20917   4.151   0.193   3.126 -0.0155 -0.4002  0.4432
 3152SOL    HW120918   4.063   0.227   3.144  0.9693  1.5277  1.6320
 3152SOL    HW220919   4.206   0.268   3.146 -0.3479 -0.8838  3.1621
 3153SOL     OW20920   3.346   0.758  15.093  0.5726 -0.1748 -0.6413
 3153SOL    HW120921   3.354   0.686  15.156 -0.2868  0.2786 -0.0247
 3153SOL    HW220922   3.437   0.785  15.086 -0.3019  2.3696 -2.0001
 3154SOL     OW20923   2.266   1.730   7.313  0.5828  0.3291  0.2197
 3154SOL    HW120924   2.350   1.775   7.310  0.0249  1.3090 -0.7875
 3154SOL    HW220925   2.246   1.752   7.404  1.1564 -1.8836  0.9044
 3155SOL     OW20926   1.400   2.014   3.914 -0.2318  0.4928 -0.4617
 3155SOL    HW120927   1.344   2.039   3.987 -1.1956  0.5372 -1.2251
 3155SOL    HW220928   1.482   2.061   3.925  0.6136 -0.9365 -0.5940
 3156SOL     OW20929   4.366   0.912   2.281  0.0610 -0.2403  0.8043
 3156SOL    HW120930   4.389   1.004   2.288  1.5794 -0.4560 -1.2286
 3156SOL    HW220931   4.307   0.900   2.356 -1.2437 -2.7388 -0.6015
 3157SOL     OW20932   3.619   1.571   4.761  0.0929 -0.3327 -0.1210
 3157SOL    HW120933   3.693   1.586   4.701 -0.2841 -1.8983 -0.9755
 3157SOL    HW220934   3.558   1.524   4.704 -0.4159  1.7789 -1.3374
 3158SOL     OW20935   0.263   4.723   8.213 -0.0158  0.3066 -0.1718
 3158SOL    HW120936   0.174   0.034   8.208  0.3562  0.6667 -4.0060
 3158SOL    HW220937   0.264   4.656   8.145  2.1720  2.3365 -2.0998
 3159SOL     OW20938   0.512   3.263  15.589 -1.3439 -0.0463  0.2244
 3159SOL    HW120939   0.554   3.179  15.575  1.1512  0.9828  1.4587
 3159SOL    HW220940   0.546   3.297  15.672  2.3777 -0.5596 -1.0760
 3160SOL     OW20941   2.432   4.583   2.165  0.4191  0.2606 -0.3058
 3160SOL    HW120942   2.415   4.646   2.235 -2.7150  0.9056 -1.6549
 3160SOL    HW220943   2.346   4.541   2.159  0.3041  0.2906  1.1434
 3161SOL     OW20944   0.518   0.390   1.875  0.1017 -0.4032  0.1197
 3161SOL    HW120945   0.473   0.464   1.834  0.4769 -0.9452 -1.2725
 3161SOL    HW220946   0.567   0.428   1.948 -1.6260 -1.1880  1.6947
 3162SOL     OW20947   0.484   4.519   0.560 -0.3751 -0.8838  0.0284
 3162SOL    HW120948   0.578   4.502   0.569  0.2509  2.2952 -0.7156
 3162SOL    HW220949   0.493   4.549   0.469 -2.3037 -0.5657 -0.0745
 3163SOL     OW20950   0.904   1.053   2.581 -0.0338  0.3787  0.2989
 3163SOL    HW120951   0.913   1.007   2.664  1.7670  0.6622  0.2503
 3163SOL    HW220952   0.915   1.144   2.609  0.5742  0.5278 -0.4166
 3164SOL     OW20953   0.108   0.291  10.925 -0.2052 -0.0713  0.0323
 3164SOL    HW120954   0.070   0.346  10.855  0.5321 -0.1738 -0.4510
 3164SOL    HW220955   0.157   0.228  10.873  0.3908  0.6228 -0.2541
 3165SOL     OW20956   1.186   2.504   7.185  0.2292  0.3856  0.2144
 3165SOL    HW120957   1.104   2.460   7.206  0.6661 -0.3036  0.4849
 3165SOL    HW220958   1.223   2.456   7.110 -0.5219  0.9785 -0.5399
 3166SOL     OW20959   1.977   1.768   4.476 -0.2768  0.3025 -0.0938
 3166SOL    HW120960   1.930   1.848   4.454  0.1019  0.5121 -0.1481
 3166SOL    HW220961   1.903   1.711   4.495 -0.6227  0.4668 -0.9281
 3167SOL     OW20962   3.745   3.603   1.939 -0.3074 -0.3933 -0.0560
 3167SOL    HW120963   3.835   3.609   1.906  0.3878 -2.6848  1.3688
 3167SOL    HW220964   3.710   3.691   1.929 -0.6368 -0.4305  0.7953
 3168SOL     OW20965   2.078   4.468  16.257 -0.7221 -0.3197 -0.0486
 3168SOL    HW120966   2.037   4.414  16.324 -0.1001  0.4334  0.9430
 3168SOL    HW220967   2.111   4.545  16.304 -1.7926 -0.1308  0.3971
 3169SOL     OW20968   4.693   1.338  10.878  0.0832  0.1257  0.6725
 3169SOL    HW120969   4.682   1.421  10.832 -0.8044  0.7347  2.0193
 3169SOL    HW220970   4.608   1.297  10.865  0.5070  0.2554 -2.5651
 3170SOL     OW20971   4.501   4.446   6.516  0.6265 -0.0953  0.1739
 3170SOL    HW120972   4.510   4.541   6.525 -0.6644 -0.0240  0.5856
 3170SOL    HW220973   4.483   4.421   6.606 -2.1792 -1.3373 -0.7394
 3171SOL     OW20974   1.371   4.221   6.239 -0.3934 -0.0968 -0.1560
 3171SOL    HW120975   1.406   4.154   6.297  0.7352  0.8236  0.2406
 3171SOL    HW220976   1.315   4.167   6.183 -0.7125  0.6635 -0.5719
 3172SOL     OW20977   2.386   3.937   2.782 -0.4148 -0.2926 -0.3604
 3172SOL    HW120978   2.338   3.902   2.858 -0.9785  0.4306 -0.3916
 3172SOL    HW220979   2.434   3.861   2.750  1.4946  1.3161 -1.2585
 3173SOL     OW20980   2.920   4.493   8.286 -0.7605  0.1997 -0.0951
 3173SOL    HW120981   2.901   4.586   8.300 -0.1182  0.5755 -1.7521
 3173SOL    HW220982   3.014   4.505   8.298 -0.7688 -0.7889  0.9175
 3174SOL     OW20983   3.438   0.442   9.036 -0.4914  0.2695  0.2075
 3174SOL    HW120984   3.499   0.373   9.010  0.7113  2.2096 -2.1945
 3174SOL    HW220985   3.374   0.388   9.080  2.1744 -2.0597  1.2065
 3175SOL     OW20986   3.926   4.550   7.446 -0.3639  0.1609 -0.4539
 3175SOL    HW120987   3.839   4.584   7.468  0.1790  2.4357 -1.7901
 3175SOL    HW220988   3.928   4.482   7.513 -3.6161  1.2775  0.7928
 3176SOL     OW20989   2.898   3.590   7.129 -0.8158 -0.3545  0.2537
 3176SOL    HW120990   2.850   3.672   7.114 -1.2138 -0.7347 -0.4991
 3176SOL    HW220991   2.835   3.540   7.181 -1.6221 -0.0421 -0.4126
 3177SOL     OW20992   2.529   2.463  12.361 -0.0112  0.5341 -0.7096
 3177SOL    HW120993   2.483   2.463  12.277 -1.3718 -1.5055  0.0470
 3177SOL    HW220994   2.569   2.549  12.346 -0.2831  0.8010  0.1226
 3178SOL     OW20995   0.001   2.683   9.337 -0.1898 -0.2093  0.4452
 3178SOL    HW120996   4.643   2.704   9.294  0.0135 -2.6180 -1.0502
 3178SOL    HW220997   4.688   2.669   9.424  2.2025 -1.4216  1.2963
 3179SOL     OW20998   1.375   4.017   4.732 -0.3466  0.5559  0.5548
 3179SOL    HW120999   1.433   4.055   4.798  0.9789 -2.4661  1.1100
 3179SOL    HW221000   1.299   3.997   4.787  0.2894 -2.2084  0.4557
 3180SOL     OW21001   1.223   2.877  12.848  0.0148 -0.1481  0.1287
 3180SOL    HW121002   1.138   2.909  12.877  0.3941  0.6315  0.3765
 3180SOL    HW221003   1.201   2.844  12.761 -0.8919  1.0512 -0.0816
 3181SOL     OW21004   4.548   0.090   4.711  0.2336  0.1406  0.0835
 3181SOL    HW121005   4.548   0.091   4.615 -0.4782 -1.2992  0.0573
 3181SOL    HW221006   4.569   0.180   4.733 -2.2386  0.5596  0.7143
 3182SOL     OW21007   2.623   3.579   2.567 -0.2092 -0.5871 -0.5838
 3182SOL    HW121008   2.622   3.486   2.592 -1.0991  0.1945  2.3954
 3182SOL    HW221009   2.530   3.594   2.551 -0.8879 -0.8501  2.9017
 3183SOL     OW21010   1.554   1.320  12.918  0.4261 -0.0347  0.1707
 3183SOL    HW121011   1.633   1.364  12.888  0.9256 -1.3376 -0.4472
 3183SOL    HW221012   1.586   1.236  12.951  0.3199 -0.8445 -1.7689
 3184SOL     OW21013   3.503   4.443   2.898  0.5417 -0.9412 -0.8201
 3184SOL    HW121014   3.508   4.532   2.865  1.8957 -1.3370 -1.6737
 3184SOL    HW221015   3.563   4.450   2.972  0.2966 -4.0930 -0.3165
 3185SOL     OW21016   2.229   1.492   5.458  0.0485  0.5825 -0.6696
 3185SOL    HW121017   2.246   1.541   5.539  1.2490  1.8152 -1.6777
 3185SOL    HW221018   2.320   1.471   5.436 -0.2198 -2.2457  0.8367
 3186SOL     OW21019   0.134   3.715   5.027  0.5888 -0.0013  0.1974
 3186SOL    HW121020   0.175   3.750   4.948 -2.1738  0.8780 -0.8288
 3186SOL    HW221021   0.168   3.626   5.033  1.6021  0.4893  2.0344
 3187SOL     OW21022   1.923   1.019  10.883 -0.0918 -0.2393 -0.2656
 3187SOL    HW121023   1.843   1.044  10.837  0.3615  3.2454  0.8376
 3187SOL    HW221024   1.917   1.093  10.943 -2.1396 -1.0621  0.5068
 3188SOL     OW21025   3.859   4.545   7.024 -0.3453 -0.0306  0.2835
 3188SOL    HW121026   3.950   4.553   6.995  0.2677 -2.3027  1.5612
 3188SOL    HW221027   3.832   4.636   7.020  1.6766  0.5005 -1.1629
 3189SOL     OW21028   3.099   3.729   4.214 -0.1816  0.3019  0.4502
 3189SOL    HW121029   3.060   3.642   4.222  2.4888 -1.1854 -2.7263
 3189SOL    HW221030   3.032   3.779   4.261 -0.6901  0.0497 -0.0025
 3190SOL     OW21031   2.323   2.391   8.743 -0.4932  0.0448  0.6818
 3190SOL    HW121032   2.270   2.358   8.815 -2.2172 -0.4388 -0.8074
 3190SOL    HW221033   2.359   2.319   8.693 -2.4727 -1.4035  1.3358
 3191SOL     OW21034   1.420   4.245   2.538  0.3771 -0.2808 -0.5171
 3191SOL    HW121035   1.399   4.187   2.465 -0.8465 -0.0878 -0.3054
 3191SOL    HW221036   1.444   4.325   2.491 -1.8388  0.4774 -0.3417
 3192SOL     OW21037   4.358   3.273   1.874  0.0967  1.0269 -0.1729
 3192SOL    HW121038   4.444   3.309   1.896 -0.0976  1.5703 -0.3186
 3192SOL    HW221039   4.308   3.264   1.955 -0.7251  1.1050 -0.6735
 3193SOL     OW21040   4.380   1.984  16.264  0.5626  0.2105 -0.5916
 3193SOL    HW121041   4.408   1.926  16.194  0.5820  1.9458 -2.0167
 3193SOL    HW221042   4.284   1.973  16.262  0.4275  0.6460  3.3742
 3194SOL     OW21043   1.231   3.960   6.515 -0.1034 -0.4033 -0.4471
 3194SOL    HW121044   1.167   3.992   6.579  1.8392 -2.4772  2.5079
 3194SOL    HW221045   1.173   3.943   6.441 -0.2860 -0.6559 -0.2460
 3195SOL     OW21046   4.675   0.923  10.977  0.6937  0.3008  0.1399
 3195SOL    HW121047   4.716   0.856  11.032  1.0251  0.6132  0.2677
 3195SOL    HW221048   4.597   0.938  11.031 -0.2626 -1.6811 -0.6610
 3196SOL     OW21049   4.370   4.497   3.260 -0.5444 -0.4135 -0.2820
 3196SOL    HW121050   4.372   4.408   3.226 -3.3530 -0.8605  0.6971
 3196SOL    HW221051   4.322   4.549   3.195  0.6938  1.8159  0.5842
 3197SOL     OW21052   1.685   0.700  10.957  0.4556 -0.2828  0.2787
 3197SOL    HW121053   1.757   0.640  10.936 -0.0235 -0.6091 -0.4436
 3197SOL    HW221054   1.624   0.701  10.883  0.1904  2.8969  0.5255
 3198SOL     OW21055   2.305   3.112   2.912 -0.0401 -0.1306 -0.5702
 3198SOL    HW121056   2.393   3.102   2.950 -1.2345  0.0085  2.2660
 3198SOL    HW221057   2.278   3.029   2.951 -1.1471  0.4454 -0.1194
 3199SOL     OW21058   0.593   2.526   2.206  0.1764  0.6904  0.3290
 3199SOL    HW121059   0.627   2.509   2.294  0.2822  1.1682  0.3788
 3199SOL    HW221060   0.641   2.459   2.157  0.2666  1.0640 -0.0877
 3200SOL     OW21061   3.451   0.801   5.517  0.0053  0.3050  0.7757
 3200SOL    HW121062   3.496   0.732   5.566 -0.7779  1.5183  3.2009
 3200SOL    HW221063   3.397   0.845   5.582 -0.5145 -1.4707  1.5071
 3201SOL     OW21064   2.579   2.045   8.001 -0.7114 -0.0339  0.0652
 3201SOL    HW121065   2.518   2.093   7.946 -0.9744 -0.3790  0.0518
 3201SOL    HW221066   2.614   1.985   7.935  2.2213  0.7352  0.9423
 3202SOL     OW21067   2.452   1.135  11.526  0.5599 -0.6998 -0.7544
 3202SOL    HW121068   2.483   1.150  11.436  0.5481 -0.8600 -0.7848
 3202SOL    HW221069   2.357   1.140  11.522  0.4660  0.9685  3.5780
 3203SOL     OW21070   3.049   3.895  17.570  0.0411  0.1318 -0.2954
 3203SOL    HW121071   3.087   3.978  17.543  3.9782 -1.2786  0.9158
 3203SOL    HW221072   3.013   3.853  17.491  0.7966 -1.0288 -0.0325
 3204SOL     OW21073   1.079   1.716  12.513 -0.4011 -0.3716 -0.2276
 3204SOL    HW121074   1.017   1.667  12.459  0.0198 -0.3799 -0.6946
 3204SOL    HW221075   1.143   1.647  12.526  0.1313 -0.2283 -2.0949
 3205SOL     OW21076   3.289   0.625   1.745  0.4945  0.1412  0.3450
 3205SOL    HW121077   3.296   0.708   1.697 -1.3191  0.4139  0.5819
 3205SOL    HW221078   3.195   0.608   1.739  0.4603  0.1605  0.8774
 3206SOL     OW21079   2.963   0.359  17.672  0.2836  0.4289 -0.1499
 3206SOL    HW121080   3.002   0.432   0.019  3.1532 -0.4434 -1.0794
 3206SOL    HW221081   2.888   0.327   0.019 -0.8379  2.6381 -0.4309
 3207SOL     OW21082   1.080   0.635   0.387 -0.0975 -0.0819  0.2055
 3207SOL    HW121083   1.031   0.553   0.377  0.9138 -0.9806  2.6477
 3207SOL    HW221084   1.067   0.676   0.302 -0.1643  1.8120  1.1186
 3208SOL     OW21085   3.582   2.561   7.248 -0.3118  0.6768  0.8439
 3208SOL    HW121086   3.675   2.542   7.234 -0.6157 -1.1887  1.3607
 3208SOL    HW221087   3.533   2.479   7.248 -1.9826  1.6665 -3.7800
 3209SOL     OW21088   4.194   2.299   4.757 -0.2398 -0.0477  0.3787
 3209SOL    HW121089   4.256   2.332   4.822  2.3015 -0.3796 -1.8691
 3209SOL    HW221090   4.117   2.346   4.790  0.2276 -0.7746  2.5613
 3210SOL     OW21091   2.408   1.673   0.374  0.0514  0.8017  0.4927
 3210SOL    HW121092   2.448   1.753   0.408 -2.6618  2.6417 -0.5724
 3210SOL    HW221093   2.482   1.636   0.326  0.5459  0.5806  1.4271
 3211SOL     OW21094   3.715   4.270   5.053 -0.5609 -0.0683 -0.2036
 3211SOL    HW121095   3.691   4.204   5.118  0.2287 -1.5668 -1.4581
 3211SOL    HW221096   3.803   4.301   5.075  0.2362 -0.0283 -3.4313
 3212SOL     OW21097   0.610   2.488   2.454 -0.4750  0.4913 -0.0116
 3212SOL    HW121098   0.583   2.511   2.543  0.8826 -0.5032  0.6627
 3212SOL    HW221099   0.631   2.396   2.468  0.2463  0.3875 -1.7412
 3213SOL     OW21100   2.948   4.046   0.375 -0.0784 -0.0308  0.4372
 3213SOL    HW121101   2.998   3.991   0.436 -3.1930 -0.2325  2.7865
 3213SOL    HW221102   2.914   4.113   0.433  3.5329 -1.0148  3.7335
 3214SOL     OW21103   3.097   1.552  16.053  0.3703 -0.3108  0.5241
 3214SOL    HW121104   3.109   1.625  15.993 -1.3065  1.0815  1.9014
 3214SOL    HW221105   3.155   1.579  16.124  1.0789 -2.2540  0.6956
 3215SOL     OW21106   2.079   0.293   2.589  0.1488 -0.0184  0.4566
 3215SOL    HW121107   2.085   0.307   2.684 -2.7919  0.4177  0.5809
 3215SOL    HW221108   2.072   0.198   2.581 -2.2417  0.0123  2.2985
 3216SOL     OW21109   1.459   4.610   6.935  0.0968 -0.0583  0.1080
 3216SOL    HW121110   1.529   4.648   6.882  1.6897 -0.7283  1.7294
 3216SOL    HW221111   1.390   4.597   6.870 -1.0513  1.6220  1.0094
 3217SOL     OW21112   0.357   1.370  13.123  0.2987  0.3551 -0.0343
 3217SOL    HW121113   0.323   1.351  13.035 -2.2984 -0.1777  1.1151
 3217SOL    HW221114   0.452   1.376  13.109  0.3377 -1.4454 -0.5736
 3218SOL     OW21115   0.312   0.550  14.764  0.6113  0.3983 -0.4093
 3218SOL    HW121116   0.387   0.567  14.708  1.2595 -2.0776 -0.2989
 3218SOL    HW221117   0.326   0.605  14.841 -2.2239  0.5459 -0.0105
 3219SOL     OW21118   0.385   3.394  16.618 -0.5401  0.0926  0.0380
 3219SOL    HW121119   0.387   3.337  16.695 -1.6216 -0.1748 -0.1347
 3219SOL    HW221120   0.374   3.345  16.537 -0.5430 -0.6453  0.4835
 3220SOL     OW21121   2.258   1.792   7.553 -0.3130  0.4127 -0.4832
 3220SOL    HW121122   2.186   1.844   7.587 -0.0298  0.2517  0.3724
 3220SOL    HW221123   2.326   1.855   7.578 -0.2463  0.9350 -1.9897
 3221SOL     OW21124   2.724   4.076   3.236  0.0836  0.0195 -0.0040
 3221SOL    HW121125   2.814   4.107   3.236 -0.4143  1.4833 -0.2206
 3221SOL    HW221126   2.743   3.983   3.252  1.4959  0.3564  0.2311
 3222SOL     OW21127   4.351   3.545   2.888  0.6569 -0.0666 -0.6382
 3222SOL    HW121128   4.328   3.469   2.834 -0.9392 -0.3517  0.4220
 3222SOL    HW221129   4.363   3.609   2.818  1.7867  1.5406  1.0446
 3223SOL     OW21130   4.296   3.692   7.648  0.0306 -0.1873 -0.7724
 3223SOL    HW121131   4.255   3.617   7.605 -0.8490 -0.5940  0.8034
 3223SOL    HW221132   4.219   3.746   7.665  0.5429  0.1218  0.5343
 3224SOL     OW21133   0.844   1.301  13.506  0.0447 -0.2559  0.4449
 3224SOL    HW121134   0.911   1.274  13.443 -1.8556  1.0926 -2.1347
 3224SOL    HW221135   0.766   1.284  13.454  0.8394  2.1641 -1.5621
 3225SOL     OW21136   4.618   4.346  13.072 -0.4703  0.0839 -0.0921
 3225SOL    HW121137   4.695   4.402  13.080 -1.2742  0.9361  1.7766
 3225SOL    HW221138   4.636   4.318  12.983  1.0583  1.7644 -0.3040
 3226SOL     OW21139   3.160   3.799   5.064 -0.0252  0.1693 -0.0234
 3226SOL    HW121140   3.169   3.704   5.065  1.5914  0.3408  0.5364
 3226SOL    HW221141   3.171   3.816   5.157 -0.7862  2.3240 -0.3215
 3227SOL     OW21142   2.925   0.307  11.554 -0.5866 -0.7991 -0.3303
 3227SOL    HW121143   2.882   0.238  11.605 -1.1872  0.8975  1.4707
 3227SOL    HW221144   2.928   0.271  11.466 -0.5894 -2.1008  0.2004
 3228SOL     OW21145   1.767   1.815   2.570  0.3943 -0.0218  0.0881
 3228SOL    HW121146   1.707   1.754   2.526 -0.4473  0.4392  0.5869
 3228SOL    HW221147   1.814   1.828   2.488  1.1555  1.1633  0.7175
 3229SOL     OW21148   4.722   1.163  14.163 -0.6840  0.0643 -0.3940
 3229SOL    HW121149   0.084   1.194  14.187 -0.9408  0.7005 -0.2914
 3229SOL    HW221150   0.016   1.075  14.131  1.4789  0.7984 -1.1233
 3230SOL     OW21151   1.237   3.572   5.650 -0.4863  0.3936 -0.2194
 3230SOL    HW121152   1.296   3.601   5.580  0.0745  2.2301  1.0422
 3230SOL    HW221153   1.170   3.636   5.629 -0.5941  0.5927  0.7741
 3231SOL     OW21154   0.405   3.733   2.146 -0.1249 -0.3409 -0.4527
 3231SOL    HW121155   0.342   3.688   2.090 -0.4270  0.3721 -0.6712
 3231SOL    HW221156   0.390   3.695   2.232 -0.3508  0.9881  0.0909
 3232SOL     OW21157   3.987   0.321  10.489  0.1561 -0.1964 -0.1838
 3232SOL    HW121158   3.915   0.327  10.426 -1.2534 -1.0021  1.3496
 3232SOL    HW221159   3.929   0.354  10.559  2.1020 -0.0011  1.3220
 3233SOL     OW21160   1.077   1.082   1.852  0.3491  0.0385  0.4735
 3233SOL    HW121161   1.024   1.019   1.804 -0.2830 -0.3009  1.6146
 3233SOL    HW221162   1.092   1.145   1.781  0.3740 -1.2887 -0.6905
 3234SOL     OW21163   1.462   1.298   3.741  0.1421  0.4164  0.2887
 3234SOL    HW121164   1.418   1.214   3.727 -0.3541  0.4391  1.7931
 3234SOL    HW221165   1.398   1.337   3.800  0.2623 -0.5832  1.0705
 3235SOL     OW21166   2.058   1.649  13.942 -0.1814  0.7027  0.3684
 3235SOL    HW121167   1.978   1.614  13.901  0.1393  3.8919 -2.9428
 3235SOL    HW221168   2.044   1.638  14.036 -0.8749 -1.0357  0.0614
 3236SOL     OW21169   3.997   3.084   2.984 -0.5958 -0.1401 -0.0330
 3236SOL    HW121170   4.001   3.106   2.891 -2.2079  1.6500  0.3124
 3236SOL    HW221171   3.925   3.141   3.013 -3.0795 -3.5278  0.5293
 3237SOL     OW21172   0.910   0.107   3.783 -0.5441 -0.1926  0.6414
 3237SOL    HW121173   0.825   0.103   3.828 -1.0231  1.6349 -0.0943
 3237SOL    HW221174   0.919   0.024   3.736  0.5768 -0.2199  0.9161
 3238SOL     OW21175   3.797   4.131   4.804  0.3380 -0.4763 -0.0853
 3238SOL    HW121176   3.813   4.202   4.743  0.9352  0.0065  0.6365
 3238SOL    HW221177   3.781   4.171   4.890 -3.0367 -2.2289  0.1058
 3239SOL     OW21178   4.434   2.740   6.116 -0.8523 -0.5611 -0.1653
 3239SOL    HW121179   4.469   2.661   6.074  0.8801  0.4144 -0.5351
 3239SOL    HW221180   4.468   2.805   6.055 -1.1797 -1.6740 -1.5558
 3240SOL     OW21181   3.096   0.373   7.624 -0.5329 -0.1815 -0.0976
 3240SOL    HW121182   3.178   0.380   7.672 -1.0005  2.0756  0.3600
 3240SOL    HW221183   3.115   0.439   7.558  0.7831  0.8796  1.3378
 3241SOL     OW21184   4.719   4.164  11.733 -0.2634 -0.3460 -0.0195
 3241SOL    HW121185   4.663   4.090  11.714 -1.3383  0.9332 -1.8037
 3241SOL    HW221186   0.080   4.123  11.739 -0.0943  0.1907  1.2225
 3242SOL     OW21187   3.198   0.004   7.121  0.0328  0.2249  0.3546
 3242SOL    HW121188   3.278   0.008   7.068 -0.3578  1.5758 -0.1294
 3242SOL    HW221189   3.206   4.641   7.155 -1.2505 -0.3682 -0.9053
 3243SOL     OW21190   0.586   1.926   4.369  0.5948  0.1291  0.0057
 3243SOL    HW121191   0.648   1.945   4.440  0.1004 -0.1062  0.5042
 3243SOL    HW221192   0.534   2.005   4.350  0.0355 -0.2311  0.0353
 3244SOL     OW21193   3.610   1.356   8.572 -0.0553 -0.0074 -0.0812
 3244SOL    HW121194   3.571   1.442   8.590 -0.0635  0.5393 -2.6482
 3244SOL    HW221195   3.559   1.324   8.497  1.8366 -1.2235 -0.8250
 3245SOL     OW21196   2.094   2.917   6.289  0.1763 -0.1831 -0.0925
 3245SOL    HW121197   2.155   2.851   6.255  1.0387  0.6992 -0.2418
 3245SOL    HW221198   2.120   2.907   6.380 -1.5244 -1.1701  0.2996
 3246SOL     OW21199   1.597   1.559   6.701  0.1152  1.0424  0.4518
 3246SOL    HW121200   1.559   1.492   6.643 -0.4923 -0.4111  2.5158
 3246SOL    HW221201   1.650   1.509   6.763  1.6571  2.5802  0.3562
 3247SOL     OW21202   3.822   2.812   5.645  0.1821 -0.5076  0.1776
 3247SOL    HW121203   3.873   2.854   5.714 -1.9776 -1.6397  2.4601
 3247SOL    HW221204   3.784   2.738   5.693 -0.9524  0.6318  1.0121
 3248SOL     OW21205   4.159   0.049   1.522 -0.0746 -0.1826 -0.2751
 3248SOL    HW121206   4.113   0.132   1.528 -0.3233 -0.2284 -1.5482
 3248SOL    HW221207   4.249   0.082   1.528 -0.5904  1.0549  0.6426
 3249SOL     OW21208   3.865   0.546  15.392 -0.2683  0.8186 -0.3452
 3249SOL    HW121209   3.803   0.616  15.412 -1.2407  0.1945 -1.1795
 3249SOL    HW221210   3.816   0.490  15.332  1.0076 -0.0739 -0.5706
 3250SOL     OW21211   0.578   0.737   8.019 -0.8389  0.1228 -0.2612
 3250SOL    HW121212   0.515   0.806   8.038 -0.4593  0.0483  1.2990
 3250SOL    HW221213   0.547   0.662   8.070  1.7792 -0.4133  0.5168
 3251SOL     OW21214   4.244   0.387   5.552  0.2854 -0.2871 -0.0775
 3251SOL    HW121215   4.200   0.422   5.629 -0.0132 -1.1968  0.1643
 3251SOL    HW221216   4.198   0.304   5.540 -3.4372  1.4320  2.5617
 3252SOL     OW21217   4.485   0.484  10.539 -0.7751 -0.2467 -0.0393
 3252SOL    HW121218   4.495   0.579  10.545  1.9852 -0.5377  0.3726
 3252SOL    HW221219   4.395   0.477  10.570  0.1032  0.0166  2.5486
 3253SOL     OW21220   1.399   1.745  15.228 -0.1693 -0.3746  0.1001
 3253SOL    HW121221   1.489   1.765  15.202 -0.1029  2.3741  2.4485
 3253SOL    HW221222   1.412   1.650  15.228 -0.6407 -0.4482  2.2076
 3254SOL     OW21223   1.596   2.734   9.297  0.2321  0.0686 -0.0015
 3254SOL    HW121224   1.538   2.734   9.373  1.5363 -0.9150  1.0165
 3254SOL    HW221225   1.632   2.822   9.306 -2.4126  1.0346  1.1282
 3255SOL     OW21226   0.719   1.215  16.368 -0.7480 -0.1568 -0.3194
 3255SOL    HW121227   0.776   1.219  16.445 -1.2650 -1.2810  0.1152
 3255SOL    HW221228   0.635   1.240  16.405 -1.2775  0.7812 -2.1624
 3256SOL     OW21229   1.518   2.184   6.910 -0.5520  0.3194 -0.2629
 3256SOL    HW121230   1.535   2.120   6.840  1.9897  1.4043 -0.6048
 3256SOL    HW221231   1.534   2.122   6.981  1.7183  0.9613 -0.2193
 3257SOL     OW21232   0.262   2.149   2.972 -0.2398 -0.0521  0.2450
 3257SOL    HW121233   0.321   2.182   2.905  1.3928 -2.0231  0.7410
 3257SOL    HW221234   0.201   2.088   2.930 -0.0732 -0.8807  1.2249
 3258SOL     OW21235   0.139   4.432   2.661  0.1297  0.1320 -0.3864
 3258SOL    HW121236   0.166   4.389   2.580 -0.8968 -0.2755 -0.5132
 3258SOL    HW221237   0.151   4.362   2.725  2.4663  1.0753  0.2242
 3259SOL     OW21238   4.431   4.713  14.657  0.4669 -0.2612 -0.1219
 3259SOL    HW121239   4.518   4.718  14.696 -0.0388 -2.1103  1.2137
 3259SOL    HW221240   4.463   4.708  14.567  0.6155  3.7248 -0.3130
 3260SOL     OW21241   2.709   1.662   7.105 -0.1269 -0.1616 -0.1538
 3260SOL    HW121242   2.615   1.651   7.097 -0.0278 -1.1372 -0.0347
 3260SOL    HW221243   2.727   1.742   7.055  0.2278  0.1309  0.4494
 3261SOL     OW21244   1.971   2.523   6.952 -0.1569 -0.2632 -0.0516
 3261SOL    HW121245   1.959   2.510   7.046 -0.9991  0.0601 -0.1182
 3261SOL    HW221246   1.880   2.522   6.923 -0.0951  1.8211 -0.3065
 3262SOL     OW21247   0.302   0.275  14.519  0.3429 -0.5645 -0.1076
 3262SOL    HW121248   0.397   0.273  14.511  0.2954 -1.6304 -0.3776
 3262SOL    HW221249   0.281   0.187  14.548  1.3621 -0.2986  1.4131
 3263SOL     OW21250   4.036   2.859  17.657  1.0093  0.4183  0.7190
 3263SOL    HW121251   4.094   2.928  17.690  0.8955  0.4600  0.8305
 3263SOL    HW221252   3.958   2.879   0.006 -0.6967 -2.6237 -0.7260
 3264SOL     OW21253   0.901   3.355  12.850  0.7195  0.0620 -0.0404
 3264SOL    HW121254   0.928   3.435  12.805 -0.7653  0.3115 -0.4984
 3264SOL    HW221255   0.929   3.372  12.940 -0.2988 -2.2031  0.7209
 3265SOL     OW21256   1.275   1.577   6.350  0.5076  0.4818 -0.5589
 3265SOL    HW121257   1.351   1.557   6.296 -0.5264  1.0291 -2.2267
 3265SOL    HW221258   1.248   1.500   6.400 -1.7197  0.7979 -1.2604
 3266SOL     OW21259   2.948   3.514   4.815  0.4569 -0.3429 -0.0497
 3266SOL    HW121260   2.856   3.524   4.788  0.5527  1.7912  0.4591
 3266SOL    HW221261   2.975   3.603   4.837 -0.1310  0.1092 -1.1419
 3267SOL     OW21262   3.946   2.331  15.738 -0.5402 -0.1097 -0.6163
 3267SOL    HW121263   3.909   2.358  15.822 -0.9443 -1.2073 -0.4437
 3267SOL    HW221264   3.950   2.236  15.747 -0.8372 -0.0135  0.4769
 3268SOL     OW21265   2.069   0.651   1.727 -0.3942  0.1186  0.3720
 3268SOL    HW121266   2.074   0.654   1.823  2.5039 -2.5292  0.3066
 3268SOL    HW221267   2.130   0.724   1.712 -2.6300  1.3873 -2.3952
 3269SOL     OW21268   0.406   0.857   3.327 -0.1381 -0.8337 -0.1724
 3269SOL    HW121269   0.477   0.919   3.344 -1.0374 -0.4043  2.0952
 3269SOL    HW221270   0.412   0.830   3.236 -1.3922 -0.8242 -0.2612
 3270SOL     OW21271   1.309   2.545   9.670  0.1096 -0.5069  0.4444
 3270SOL    HW121272   1.313   2.607   9.742  1.8765 -0.1326  0.0075
 3270SOL    HW221273   1.372   2.476   9.692 -1.6754 -2.7052 -1.2567
 3271SOL     OW21274   0.477   2.643   6.154  0.5310 -0.0004 -0.3239
 3271SOL    HW121275   0.479   2.688   6.069  0.8286 -0.6978 -0.6823
 3271SOL    HW221276   0.526   2.692   6.219  0.9372  1.0344 -1.4026
 3272SOL     OW21277   3.456   4.004   4.925 -0.4654 -0.0894  0.7470
 3272SOL    HW121278   3.492   4.090   4.946  0.2331  0.2476 -1.8314
 3272SOL    HW221279   3.364   4.027   4.909 -0.3453  0.0860  0.3063
 3273SOL     OW21280   1.566   1.541   9.285 -0.3874 -0.3758 -0.4497
 3273SOL    HW121281   1.655   1.521   9.255  0.4121  1.8794  0.4205
 3273SOL    HW221282   1.509   1.467   9.262 -0.7998 -0.3390  0.4607
 3274SOL     OW21283   2.521   2.887  17.646 -0.2892  0.0861 -0.7569
 3274SOL    HW121284   2.526   2.876  17.551 -1.0706  3.3497 -1.1661
 3274SOL    HW221285   2.613   2.904  17.665 -1.1491  2.5893  1.1250
 3275SOL     OW21286   2.505   2.677   2.672  0.3540  0.0376 -0.2989
 3275SOL    HW121287   2.497   2.697   2.579 -3.1765 -1.3715 -0.2870
 3275SOL    HW221288   2.518   2.582   2.669 -1.0238 -0.1309 -1.3030
 3276SOL     OW21289   3.049   0.761   5.278 -0.0889 -0.2287 -0.0862
 3276SOL    HW121290   3.117   0.823   5.248  0.8441 -1.9410 -1.5592
 3276SOL    HW221291   3.027   0.796   5.364 -2.3726  0.7411 -1.0659
 3277SOL     OW21292   0.683   3.039   3.329 -0.2058 -0.1981 -0.1479
 3277SOL    HW121293   0.745   3.049   3.257 -0.0191  0.3063  0.0812
 3277SOL    HW221294   0.630   3.119   3.323 -2.1607 -1.5009 -0.5439
 3278SOL     OW21295   2.695   3.446   7.276  0.2993  0.3789 -0.0694
 3278SOL    HW121296   2.660   3.498   7.348 -1.0614 -1.4272  0.5651
 3278SOL    HW221297   2.618   3.453   7.218  0.6644  0.3040 -0.5683
 3279SOL     OW21298   1.887   2.245   6.648  0.5828 -0.1179  0.1635
 3279SOL    HW121299   1.911   2.226   6.739  0.3955  0.6592  0.3715
 3279SOL    HW221300   1.797   2.274   6.662  0.5930 -0.4437  0.8973
 3280SOL     OW21301   1.758   0.502  10.135 -0.2684 -0.2823  0.1413
 3280SOL    HW121302   1.849   0.485  10.111 -0.0384 -1.6789  2.0068
 3280SOL    HW221303   1.721   0.448  10.065 -0.8365 -0.1628  0.3482
 3281SOL     OW21304   4.185   3.443   6.696  0.2511  0.9045 -0.6010
 3281SOL    HW121305   4.216   3.530   6.721  2.0428  0.4853 -1.3398
 3281SOL    HW221306   4.231   3.434   6.613  1.1440 -1.4296  0.1555
 3282SOL     OW21307   4.689   2.211   7.018 -0.0366  0.4902 -0.2028
 3282SOL    HW121308   0.003   2.195   7.104  0.6818 -0.1905 -0.6581
 3282SOL    HW221309   0.022   2.151   6.971  2.2514  1.7773  1.0067
 3283SOL     OW21310   1.290   0.421   4.790 -0.0650  0.7265 -0.6692
 3283SOL    HW121311   1.238   0.492   4.752  0.9459  0.9455 -1.6461
 3283SOL    HW221312   1.333   0.392   4.710  0.4024 -0.1703 -0.0902
 3284SOL     OW21313   1.083   2.785   4.697  0.5600  0.5809  0.4016
 3284SOL    HW121314   1.046   2.837   4.625 -0.5010 -0.7598 -0.0195
 3284SOL    HW221315   1.004   2.731   4.707  0.0914  0.9230 -1.3765
 3285SOL     OW21316   3.350   2.612   9.512  0.1101 -0.3163  0.0339
 3285SOL    HW121317   3.387   2.526   9.490 -1.5151 -1.4835  1.9554
 3285SOL    HW221318   3.264   2.618   9.472  0.4307  2.8023 -0.1795
 3286SOL     OW21319   3.430   3.752   0.843  0.1874 -0.3376 -0.6360
 3286SOL    HW121320   3.511   3.768   0.794  0.7696 -0.2308  0.3567
 3286SOL    HW221321   3.438   3.657   0.847 -3.2512 -0.5853  0.6124
 3287SOL     OW21322   0.514   1.218   9.161 -0.3436  0.1924 -0.2933
 3287SOL    HW121323   0.507   1.192   9.070  0.2825  1.5389 -0.7343
 3287SOL    HW221324   0.423   1.245   9.170 -0.1597  1.1248 -1.1846
 3288SOL     OW21325   3.583   2.931   8.704  0.0178  0.1853  0.6347
 3288SOL    HW121326   3.641   2.966   8.636  1.2887  2.6998  3.0225
 3288SOL    HW221327   3.507   2.925   8.647 -0.8028  2.3711  1.5057
 3289SOL     OW21328   4.117   1.272   5.617  0.6273  0.0213  0.1198
 3289SOL    HW121329   4.209   1.293   5.635  0.1629  1.5065  0.7817
 3289SOL    HW221330   4.072   1.325   5.683 -1.3012 -2.5615  0.8832
 3290SOL     OW21331   2.286   1.169   9.147 -0.1319  0.2440  0.0344
 3290SOL    HW121332   2.360   1.195   9.202  1.4308 -0.1477 -1.8543
 3290SOL    HW221333   2.310   1.076   9.153 -1.7209 -0.3046 -1.9420
 3291SOL     OW21334   4.006   3.520   3.799 -0.5228 -0.5372 -0.0997
 3291SOL    HW121335   3.958   3.576   3.738 -0.4150  1.0811  1.2864
 3291SOL    HW221336   4.087   3.571   3.800 -1.1117  0.4218 -0.5264
 3292SOL     OW21337   1.282   0.426  16.516 -0.2166 -0.4690 -0.0893
 3292SOL    HW121338   1.315   0.512  16.541  0.2476 -0.3961 -0.9931
 3292SOL    HW221339   1.258   0.455  16.428 -0.3420  3.7105  1.3209
 3293SOL     OW21340   0.770   3.217   6.542 -0.3495 -0.6879 -0.0814
 3293SOL    HW121341   0.796   3.125   6.538  2.2113  0.0932 -1.3499
 3293SOL    HW221342   0.677   3.207   6.562  0.5997 -4.3021  2.4740
 3294SOL     OW21343   3.787   3.070  16.786  0.3156  0.2943  0.5033
 3294SOL    HW121344   3.848   3.118  16.730 -1.2873  1.7401  0.0205
 3294SOL    HW221345   3.777   3.128  16.861 -0.7040  0.1997  0.4373
 3295SOL     OW21346   1.731   0.692  14.688  0.1425 -0.1533  0.9171
 3295SOL    HW121347   1.757   0.767  14.635 -1.2251  0.8308  1.6385
 3295SOL    HW221348   1.707   0.736  14.770  0.3194 -1.1791  1.5154
 3296SOL     OW21349   4.497   1.174   8.010 -0.1334 -0.3008 -0.3959
 3296SOL    HW121350   4.469   1.210   8.095 -0.1514  0.0024 -0.5298
 3296SOL    HW221351   4.452   1.244   7.963  1.0252  0.6167 -0.1231
 3297SOL     OW21352   2.244   2.820   8.159 -1.2492 -0.1449  0.7144
 3297SOL    HW121353   2.177   2.880   8.191 -0.3598  0.3411  1.6737
 3297SOL    HW221354   2.246   2.765   8.237  1.2314 -1.0363  0.0210
 3298SOL     OW21355   1.100   3.501   2.148 -0.0179  0.2623 -0.4232
 3298SOL    HW121356   1.037   3.488   2.219 -0.9318  1.9419 -0.9215
 3298SOL    HW221357   1.037   3.539   2.086 -0.9258  1.4204  1.1909
 3299SOL     OW21358   4.026   0.474  17.232  0.4165  0.2837  0.7150
 3299SOL    HW121359   4.098   0.529  17.199 -0.0285  0.3497 -0.1602
 3299SOL    HW221360   3.981   0.528  17.297 -0.5867  0.3722 -0.0519
 3300SOL     OW21361   3.261   1.212  13.330 -0.5260 -0.5788  0.0098
 3300SOL    HW121362   3.182   1.203  13.384 -0.0024 -0.4823  0.7926
 3300SOL    HW221363   3.315   1.164  13.394 -0.4218 -0.8407 -0.2758
 3301SOL     OW21364   4.431   1.077   0.655  0.6203 -0.3849  0.2388
 3301SOL    HW121365   4.369   1.045   0.590 -0.4478  1.1290  0.5112
 3301SOL    HW221366   4.398   1.030   0.732  0.4465  1.0910  1.0810
 3302SOL     OW21367   0.283   4.274  16.857 -0.1309  0.4018  0.1584
 3302SOL    HW121368   0.358   4.318  16.897  1.7568 -1.1067 -1.7445
 3302SOL    HW221369   0.311   4.182  16.859  0.7370  0.6716  0.3053
 3303SOL     OW21370   3.471   3.805   7.008  0.0706 -0.1617 -0.2468
 3303SOL    HW121371   3.559   3.839   7.025  0.2801 -0.9597  0.2561
 3303SOL    HW221372   3.468   3.840   6.919 -1.5191 -0.3894 -0.2799
 3304SOL     OW21373   2.159   1.957   4.845  0.7314 -0.3537  0.3149
 3304SOL    HW121374   2.173   1.990   4.933  3.0768 -1.7833  0.4722
 3304SOL    HW221375   2.067   1.932   4.840  0.3170  1.0744  0.7626
 3305SOL     OW21376   0.125   3.893   4.239 -0.3820 -0.0168  0.1574
 3305SOL    HW121377   0.143   3.922   4.328 -0.2502 -0.1464  0.1735
 3305SOL    HW221378   0.136   3.975   4.191  0.1149 -1.1052 -1.6110
 3306SOL     OW21379   3.939   0.933  14.379  0.1605  0.3304 -0.1117
 3306SOL    HW121380   3.880   0.962  14.310  0.8297  1.2632 -0.2932
 3306SOL    HW221381   4.022   0.951  14.335  1.3216  0.4004  2.0908
 3307SOL     OW21382   0.970   2.567   7.956 -0.0202  0.1582 -0.1385
 3307SOL    HW121383   1.050   2.515   7.949  0.2217  0.2524  2.1404
 3307SOL    HW221384   0.922   2.544   7.876  1.0070  0.7784 -0.9367
 3308SOL     OW21385   1.824   3.181  10.147  0.0402  0.6135 -0.3056
 3308SOL    HW121386   1.774   3.147  10.222  3.2118 -0.2907  1.4274
 3308SOL    HW221387   1.779   3.263  10.127 -0.5581  0.5125  0.6287
 3309SOL     OW21388   3.444   0.425  15.711  0.3819  0.2684 -0.4458
 3309SOL    HW121389   3.361   0.468  15.688  0.2501 -0.1918 -0.8217
 3309SOL    HW221390   3.504   0.475  15.655 -0.6419  2.3555  0.3117
 3310SOL     OW21391   4.570   4.458  13.395  0.3362  0.2752 -0.2161
 3310SOL    HW121392   4.632   4.464  13.322  1.4326  0.8670  0.7596
 3310SOL    HW221393   4.598   4.534  13.446 -0.2988  0.0441  0.4768
 3311SOL     OW21394   4.092   1.141  10.594  0.7441 -0.6617  0.2780
 3311SOL    HW121395   4.140   1.224  10.586 -0.3371 -0.3297 -2.6159
 3311SOL    HW221396   4.008   1.173  10.626 -0.3668  1.4149 -4.7619
 3312SOL     OW21397   2.187   1.298   3.036  0.2720 -0.5402 -0.6132
 3312SOL    HW121398   2.110   1.355   3.033  0.8653  0.2320 -1.1825
 3312SOL    HW221399   2.232   1.318   2.954 -0.1511  2.5030 -0.0949
 3313SOL     OW21400   4.458   3.922   7.668  0.6167  0.1641 -0.0066
 3313SOL    HW121401   4.409   4.003   7.653 -1.0509 -0.8968 -0.2645
 3313SOL    HW221402   4.399   3.851   7.643 -0.8763  1.1266  0.8202
 3314SOL     OW21403   0.919   4.424   7.238  0.2643 -0.2359 -0.1820
 3314SOL    HW121404   0.841   4.473   7.265 -0.8321 -1.2973 -1.4103
 3314SOL    HW221405   0.969   4.493   7.196 -0.6756  0.2645 -0.4935
 3315SOL     OW21406   3.439   0.512  14.817  0.5601 -0.4847  0.0191
 3315SOL    HW121407   3.408   0.476  14.900  1.0058 -0.9151 -0.0009
 3315SOL    HW221408   3.399   0.453  14.753 -1.3116  1.5983 -0.7404
 3316SOL     OW21409   1.200   2.262  14.567 -0.2230 -0.2868  0.6295
 3316SOL    HW121410   1.211   2.210  14.487 -0.6390 -0.7262  0.8590
 3316SOL    HW221411   1.120   2.214  14.592  0.9265 -2.0460  0.9385
 3317SOL     OW21412   1.830   3.547   6.255 -0.0845  0.0360 -0.2660
 3317SOL    HW121413   1.855   3.586   6.171  1.0071  1.2615  0.6253
 3317SOL    HW221414   1.834   3.453   6.235 -1.7883 -0.1931  0.4841
 3318SOL     OW21415   0.186   4.294   4.431  0.4509 -0.5315  0.1717
 3318SOL    HW121416   0.102   4.277   4.472 -0.2604 -0.5393 -1.2728
 3318SOL    HW221417   0.219   4.362   4.490 -1.0913 -0.5723  1.0550
 3319SOL     OW21418   1.525   0.163  13.104 -0.1531 -0.0540  0.3254
 3319SOL    HW121419   1.556   0.076  13.076 -1.5507 -0.7799  1.0370
 3319SOL    HW221420   1.584   0.172  13.178  2.4047 -0.6748 -1.6042
 3320SOL     OW21421   0.585   3.338   4.442 -0.5037 -0.1199  0.7012
 3320SOL    HW121422   0.570   3.256   4.490  0.2263 -0.1042  0.9575
 3320SOL    HW221423   0.626   3.394   4.507 -2.8096 -1.1376  3.0371
 3321SOL     OW21424   3.448   1.541   9.505  0.5669  0.2151 -0.4838
 3321SOL    HW121425   3.408   1.624   9.479 -0.5518 -1.0047 -2.5937
 3321SOL    HW221426   3.400   1.520   9.586 -0.1750  0.6427 -0.8112
 3322SOL     OW21427   0.419   1.508   6.262  0.0379  0.4960  0.5752
 3322SOL    HW121428   0.453   1.425   6.295  1.0515 -0.3156 -2.5712
 3322SOL    HW221429   0.502   1.549   6.237  0.2527 -0.1121  0.2912
 3323SOL     OW21430   0.311   3.398   5.491 -0.3719  0.3311  0.1931
 3323SOL    HW121431   0.322   3.340   5.415 -0.6713  0.8726 -0.2674
 3323SOL    HW221432   0.398   3.390   5.529  0.4410 -1.1412 -1.9742
 3324SOL     OW21433   1.335   0.855  10.329 -0.3730  0.3790 -0.0465
 3324SOL    HW121434   1.425   0.838  10.359 -0.4049  0.8021  0.2823
 3324SOL    HW221435   1.287   0.787  10.376 -2.2749  1.1563 -0.9006
 3325SOL     OW21436   4.709   0.767   8.794 -0.5885 -0.1029 -0.0275
 3325SOL    HW121437   4.624   0.810   8.783 -0.7817 -0.5157 -0.1702
 3325SOL    HW221438   4.696   0.687   8.743 -3.8131  0.3836  0.0163
 3326SOL     OW21439   4.310   4.005   3.405 -0.2863  0.1416  0.7466
 3326SOL    HW121440   4.231   4.009   3.459  0.6687  1.2812  2.0444
 3326SOL    HW221441   4.290   3.955   3.326  1.5569  2.4348 -1.1850
 3327SOL     OW21442   2.882   3.371   3.553  0.2058  0.1087  0.1261
 3327SOL    HW121443   2.805   3.428   3.558 -1.1785 -1.9176  1.9036
 3327SOL    HW221444   2.884   3.348   3.646  0.2648  1.6310  0.5051
 3328SOL     OW21445   1.207   0.558   5.107 -0.2984  0.3199  0.1933
 3328SOL    HW121446   1.228   0.514   5.024 -1.2085  1.9363 -0.8879
 3328SOL    HW221447   1.159   0.635   5.075  0.0879 -0.5129 -2.4304
 3329SOL     OW21448   1.059   3.154   2.226 -0.3343 -0.4761  0.6036
 3329SOL    HW121449   0.967   3.177   2.214  0.1274  1.1264  0.1749
 3329SOL    HW221450   1.042   3.078   2.282  0.8375  0.3671  2.0607
 3330SOL     OW21451   1.297   0.751   4.562  0.5609 -0.2782 -0.2126
 3330SOL    HW121452   1.384   0.721   4.535  0.5873  1.2835 -1.8716
 3330SOL    HW221453   1.316   0.835   4.605  0.3435 -0.4281  0.1781
 3331SOL     OW21454   0.659   1.076   2.199 -0.4662  0.1243  0.1915
 3331SOL    HW121455   0.729   1.033   2.248 -0.1347  0.9774  0.4844
 3331SOL    HW221456   0.722   1.131   2.151 -0.1449 -0.8492 -0.4948
 3332SOL     OW21457   2.675   0.694   2.427 -0.1131 -0.1232  0.0534
 3332SOL    HW121458   2.582   0.708   2.411  0.0158  0.7599  0.0992
 3332SOL    HW221459   2.714   0.768   2.380  0.2730 -0.6862 -0.5155
 3333SOL     OW21460   0.099   0.260   7.230 -0.3062  0.1342 -0.2988
 3333SOL    HW121461   0.176   0.213   7.199 -1.3881 -1.1068 -1.1370
 3333SOL    HW221462   0.060   0.176   7.254  0.7506 -0.2224  0.1115
 3334SOL     OW21463   1.397   4.370   3.282 -0.4563 -0.6247 -1.1706
 3334SOL    HW121464   1.349   4.406   3.208 -1.5964 -0.2744 -0.2648
 3334SOL    HW221465   1.335   4.300   3.301 -0.8558 -0.4149 -1.7020
 3335SOL     OW21466   0.000   2.161  12.517 -0.2387  0.4107  0.3220
 3335SOL    HW121467   0.088   2.200  12.511 -0.0868  0.0706  0.3462
 3335SOL    HW221468   4.692   2.166  12.607 -0.0586 -0.8121  0.4579
 3336SOL     OW21469   4.096   3.215   9.698  0.2753  0.1853 -0.0909
 3336SOL    HW121470   4.106   3.204   9.793  0.3052 -0.3361 -0.1495
 3336SOL    HW221471   4.156   3.151   9.660 -0.4499 -2.4030  3.0868
 3337SOL     OW21472   4.004   1.848   9.297  0.1778  0.1481 -0.9078
 3337SOL    HW121473   4.079   1.869   9.352  0.8425 -0.9336 -1.4045
 3337SOL    HW221474   3.957   1.931   9.301 -1.3998 -0.7885  0.2520
 3338SOL     OW21475   0.656   1.569   3.246  0.2657 -0.7360  0.3928
 3338SOL    HW121476   0.681   1.633   3.313  1.0343  0.3425 -0.9265
 3338SOL    HW221477   0.688   1.625   3.175 -3.3385 -1.5305 -1.8593
 3339SOL     OW21478   3.484   2.821   7.318 -0.4618 -0.4819  0.4034
 3339SOL    HW121479   3.544   2.747   7.320  2.3559  1.8078 -0.3557
 3339SOL    HW221480   3.527   2.876   7.253  0.5856 -2.0173 -0.1927
 3340SOL     OW21481   3.379   1.850   5.554  0.5616 -0.1128 -0.2803
 3340SOL    HW121482   3.383   1.924   5.493  1.7511 -0.1032 -0.2007
 3340SOL    HW221483   3.335   1.777   5.511 -1.2603  0.4028  0.7199
 3341SOL     OW21484   1.524   3.968  17.329  0.1033  0.4433 -0.3066
 3341SOL    HW121485   1.506   4.062  17.321  0.3196  0.6734  1.9245
 3341SOL    HW221486   1.599   3.974  17.388 -0.1647  0.1176  0.0663
 3342SOL     OW21487   4.335   0.156   3.563 -0.4426 -0.1755 -0.0438
 3342SOL    HW121488   4.322   0.076   3.511  2.0778 -0.0049 -0.9076
 3342SOL    HW221489   4.342   0.125   3.653  0.3931  0.4102  0.0940
 3343SOL     OW21490   1.760   4.674  17.172 -0.1871  0.6738  0.3948
 3343SOL    HW121491   1.817   0.025  17.170 -0.7257  1.0697  0.1527
 3343SOL    HW221492   1.805   4.613  17.231 -1.0939  0.1746  0.5638
 3344SOL     OW21493   4.282   1.325   8.743  0.2973 -0.2124 -0.1243
 3344SOL    HW121494   4.292   1.234   8.714  1.2740 -0.0936 -0.1586
 3344SOL    HW221495   4.249   1.303   8.830  1.4708 -0.8784  0.1554
 3345SOL     OW21496   1.044   4.566   3.701  0.2994 -0.3190 -0.3567
 3345SOL    HW121497   1.004   4.539   3.784 -0.1702  0.3919 -0.3505
 3345SOL    HW221498   1.110   4.498   3.692 -0.0038 -0.9823  2.2783
 3346SOL     OW21499   1.528   3.471   7.309  0.1635 -0.5839  0.1803
 3346SOL    HW121500   1.438   3.476   7.340 -0.2815 -1.1795 -1.0522
 3346SOL    HW221501   1.518   3.473   7.214  0.6200 -1.8372  0.1088
 3347SOL     OW21502   4.719   0.066   8.184  0.5478 -0.3130 -0.4787
 3347SOL    HW121503   4.629   0.092   8.163 -0.3896 -2.0782  1.3672
 3347SOL    HW221504   4.711   0.028   8.271  0.1492  0.3220 -0.2360
 3348SOL     OW21505   2.560   2.151  14.466  0.2758  0.3639  0.2596
 3348SOL    HW121506   2.511   2.075  14.496  1.9566 -0.9160 -0.1958
 3348SOL    HW221507   2.536   2.218  14.529  2.2010  1.9128 -0.6578
 3349SOL     OW21508   4.480   3.011  14.551 -0.0574  0.5407 -0.1276
 3349SOL    HW121509   4.537   3.021  14.475  0.6542  0.4672  0.3965
 3349SOL    HW221510   4.546   3.028  14.618  0.5991 -0.8992 -0.3958
 3350SOL     OW21511   4.002   1.932   0.118  0.1065 -0.3339 -0.9156
 3350SOL    HW121512   4.064   1.892   0.058  0.4227 -0.8216 -0.2555
 3350SOL    HW221513   3.999   2.023   0.087 -2.1411 -0.8012 -2.0698
 3351SOL     OW21514   0.695   2.602   9.566 -0.1608 -0.0892  0.0932
 3351SOL    HW121515   0.775   2.599   9.513  0.0717  2.2084  0.3255
 3351SOL    HW221516   0.629   2.616   9.499 -2.4778 -1.3091  2.1215
 3352SOL     OW21517   1.664   1.903   8.305 -0.8656  0.2598 -0.1336
 3352SOL    HW121518   1.640   1.930   8.217 -2.1145  0.0615  0.1515
 3352SOL    HW221519   1.744   1.956   8.311  0.0240 -1.0936  0.0556
 3353SOL     OW21520   3.468   2.805   1.954 -0.3230  0.3947 -0.0201
 3353SOL    HW121521   3.481   2.875   2.018 -1.5356 -1.1874  1.9762
 3353SOL    HW221522   3.390   2.841   1.912 -1.3534  1.4803  2.8329
 3354SOL     OW21523   3.365   0.950   2.296  0.3431 -0.1668  0.1101
 3354SOL    HW121524   3.272   0.932   2.280  0.5995 -0.4613 -1.0163
 3354SOL    HW221525   3.412   0.905   2.226 -2.2831 -1.4717 -0.8123
 3355SOL     OW21526   4.658   4.570   3.813  0.3119  0.3835 -0.0799
 3355SOL    HW121527   4.679   4.477   3.809 -0.7031  0.1782 -0.5631
 3355SOL    HW221528   0.002   4.605   3.868  1.9095 -0.0747 -1.8133
 3356SOL     OW21529   4.272   1.736  15.998 -0.0278 -0.2139 -0.4701
 3356SOL    HW121530   4.346   1.704  16.051 -0.3004 -0.6445 -0.3534
 3356SOL    HW221531   4.228   1.794  16.060 -0.3827 -1.3120  0.3049
 3357SOL     OW21532   0.674   3.449   6.448 -0.1298 -0.4467  0.2081
 3357SOL    HW121533   0.723   3.385   6.500 -1.2194 -1.7421 -0.3769
 3357SOL    HW221534   0.667   3.415   6.359  0.6568 -0.1517  0.0304
 3358SOL     OW21535   1.868   1.039   2.287  0.1546 -0.4690  0.5019
 3358SOL    HW121536   1.810   1.059   2.213  1.6142  1.6471 -0.0699
 3358SOL    HW221537   1.817   1.075   2.359  0.5695  0.7014  0.2097
 3359SOL     OW21538   0.149   4.500   9.264  0.1107 -0.0354 -0.4210
 3359SOL    HW121539   0.095   4.424   9.244  2.0401 -1.2754 -0.8544
 3359SOL    HW221540   0.131   4.566   9.198 -2.1982 -0.3792 -0.1427
 3360SOL     OW21541   3.946   1.172   6.106 -0.8386 -0.6507 -0.5222
 3360SOL    HW121542   3.948   1.080   6.133 -1.4504 -0.2368  0.9332
 3360SOL    HW221543   4.028   1.181   6.058 -0.1741 -2.0096  0.3474
 3361SOL     OW21544   3.159   0.643   0.026  0.1143  0.1427  0.0545
 3361SOL    HW121545   3.229   0.579   0.014  1.1720  0.8230  2.5809
 3361SOL    HW221546   3.156   0.662   0.120 -0.4613 -3.4468  0.7574
 3362SOL     OW21547   3.882   1.427   3.214  0.1818  0.0853  0.1399
 3362SOL    HW121548   3.953   1.414   3.278  2.0839 -0.2939 -2.0614
 3362SOL    HW221549   3.908   1.379   3.136 -2.5940  0.1744 -0.8299
 3363SOL     OW21550   2.640   1.821   7.852 -0.1940 -0.4296  0.3571
 3363SOL    HW121551   2.675   1.798   7.766  0.3350 -1.3652  0.8158
 3363SOL    HW221552   2.603   1.737   7.880 -0.4139 -1.0024 -1.6319
 3364SOL     OW21553   2.410   4.112  14.734  0.0772 -0.1483  0.2440
 3364SOL    HW121554   2.359   4.177  14.782  0.2244  0.2116 -0.0820
 3364SOL    HW221555   2.377   4.040  14.787  0.0611  0.1061  0.5812
 3365SOL     OW21556   4.591   1.027   9.130 -0.0044 -0.1856  0.1473
 3365SOL    HW121557   4.665   0.977   9.165 -1.0540 -1.7895  0.0230
 3365SOL    HW221558   4.635   1.112   9.141 -1.0903  0.3039  0.7002
 3366SOL     OW21559   2.574   3.425   5.750 -0.3799  0.5860  0.7571
 3366SOL    HW121560   2.514   3.435   5.824 -1.1267 -0.4917  0.3040
 3366SOL    HW221561   2.529   3.486   5.691  1.3279  0.2621 -0.8756
 3367SOL     OW21562   2.230   0.503   2.446 -0.0851 -0.3277  0.0849
 3367SOL    HW121563   2.149   0.461   2.473  0.7636 -1.7228  0.4138
 3367SOL    HW221564   2.283   0.494   2.525 -1.0342  1.4356  0.9240
 3368SOL     OW21565   2.369   4.718   2.420  0.2127  0.3330 -0.1955
 3368SOL    HW121566   2.279   4.688   2.435  0.4685  0.6520  1.9366
 3368SOL    HW221567   2.388   0.031   2.505 -0.4227  0.9420 -0.3286
 3369SOL     OW21568   2.937   3.791  12.114 -0.0823 -0.0910 -0.4512
 3369SOL    HW121569   2.843   3.787  12.096 -0.0109 -1.6869 -0.3925
 3369SOL    HW221570   2.913   3.812  12.204  2.2363 -2.4456  0.6715
 3370SOL     OW21571   2.506   2.315   2.936 -0.1754 -0.0488 -0.9065
 3370SOL    HW121572   2.449   2.247   2.972  0.5846 -1.6986 -2.7908
 3370SOL    HW221573   2.590   2.280   2.966 -0.4755 -1.7153 -1.9689
 3371SOL     OW21574   2.707   2.733   4.951 -0.0767 -0.1210 -0.1614
 3371SOL    HW121575   2.622   2.697   4.977  0.7578 -1.1931  1.1100
 3371SOL    HW221576   2.739   2.645   4.930  0.9742 -0.3536  2.4329
 3372SOL     OW21577   1.577   1.885   5.141  0.2909  0.1531 -0.4592
 3372SOL    HW121578   1.635   1.950   5.100 -1.2298  0.5050 -2.0430
 3372SOL    HW221579   1.630   1.858   5.216 -0.6908  0.6077  0.4071
 3373SOL     OW21580   3.388   2.901   3.043  0.1343  0.9607  0.3524
 3373SOL    HW121581   3.298   2.931   3.034 -1.0757 -2.7182  0.1310
 3373SOL    HW221582   3.436   2.979   3.069 -0.8608  1.5898  0.2915
 3374SOL     OW21583   1.190   2.549   6.737  0.2502  0.6036  0.3097
 3374SOL    HW121584   1.199   2.586   6.825 -0.7920  1.3975  0.0766
 3374SOL    HW221585   1.145   2.626   6.704 -2.2902 -1.0905 -0.1885
 3375SOL     OW21586   4.211   0.823   8.216  0.1407  0.3292 -0.1946
 3375SOL    HW121587   4.198   0.757   8.285  1.9630 -2.2094 -2.2645
 3375SOL    HW221588   4.151   0.895   8.233 -0.6873  0.1330 -2.2121
 3376SOL     OW21589   3.817   3.898  17.439  0.4289 -0.3732 -0.4361
 3376SOL    HW121590   3.872   3.829  17.402 -1.0483 -1.4581 -0.5742
 3376SOL    HW221591   3.729   3.864  17.452 -0.2757  1.9694  1.0244
 3377SOL     OW21592   0.617   3.160   8.514  0.4529 -0.4975 -0.8276
 3377SOL    HW121593   0.629   3.065   8.509  0.3477 -0.5767  0.3907
 3377SOL    HW221594   0.540   3.188   8.465  0.5038  0.8331 -0.1433
 3378SOL     OW21595   2.716   4.396   2.661  0.3367 -0.4628  0.1931
 3378SOL    HW121596   2.675   4.465   2.609  2.6252  0.5745 -0.2090
 3378SOL    HW221597   2.651   4.392   2.731  1.8096  1.5709  1.6535
 3379SOL     OW21598   1.970   3.938   3.781 -0.0570  0.2266  0.0902
 3379SOL    HW121599   1.891   3.954   3.729 -0.5668 -1.8904  0.2357
 3379SOL    HW221600   2.037   3.956   3.715  1.4735 -0.0431  1.5536
 3380SOL     OW21601   4.203   2.659   1.091  0.3817  0.0321 -0.4585
 3380SOL    HW121602   4.145   2.725   1.129 -0.9257 -0.9746 -0.6958
 3380SOL    HW221603   4.239   2.614   1.167  0.0237  1.3490  0.4915
 3381SOL     OW21604   0.264   3.677   5.460 -0.1273  0.1390  0.1436
 3381SOL    HW121605   0.274   3.585   5.483 -1.0069  0.0935  0.3439
 3381SOL    HW221606   0.169   3.691   5.453  0.0604  1.8647  0.8098
 3382SOL     OW21607   1.444   2.932  13.112  0.1678 -0.4508 -0.9706
 3382SOL    HW121608   1.538   2.946  13.104  0.1154 -0.5566 -1.7804
 3382SOL    HW221609   1.428   3.022  13.083 -1.1158 -0.8983 -1.6947
 3383SOL     OW21610   1.017   1.167   8.605 -0.1339  0.6705  0.1435
 3383SOL    HW121611   1.041   1.102   8.538  1.9526 -0.0100  1.5420
 3383SOL    HW221612   1.096   1.158   8.658  1.7805  1.7295 -2.5553
 3384SOL     OW21613   3.331   3.846  13.191 -0.5472 -0.4017  0.0150
 3384SOL    HW121614   3.405   3.905  13.184 -1.8535  1.3023  0.5491
 3384SOL    HW221615   3.258   3.907  13.186 -0.3775 -0.0788  1.3888
 3385SOL     OW21616   4.565   2.979   9.011  0.0794  0.6230 -0.1920
 3385SOL    HW121617   4.656   2.995   9.035 -0.1120 -1.1077  1.7021
 3385SOL    HW221618   4.539   2.922   9.084 -2.9295  2.3590  0.1060
 3386SOL     OW21619   1.963   1.798   3.656 -0.3584 -0.5703  0.0646
 3386SOL    HW121620   2.023   1.752   3.598  1.1236 -0.2046  1.3358
 3386SOL    HW221621   1.992   1.773   3.743  1.2649 -1.8757 -0.8691
 3387SOL     OW21622   4.584   2.623   0.744 -0.3414 -0.1917  0.2806
 3387SOL    HW121623   4.513   2.572   0.705  1.0358 -1.4240 -0.6020
 3387SOL    HW221624   4.600   2.677   0.666  0.1028  0.6732  0.9723
 3388SOL     OW21625   2.258   4.286   4.461  0.1398 -0.8049 -0.0811
 3388SOL    HW121626   2.330   4.276   4.523 -0.9596 -1.3118  1.1155
 3388SOL    HW221627   2.198   4.220   4.495  0.8090  0.0332  2.6672
 3389SOL     OW21628   0.476   3.835   0.743  0.3074 -0.3746 -0.4103
 3389SOL    HW121629   0.535   3.836   0.667  1.5162 -1.3919  0.5183
 3389SOL    HW221630   0.446   3.925   0.741  2.1786  0.2390 -1.6773
 3390SOL     OW21631   2.802   2.686   2.975  0.2024  0.2356 -0.1919
 3390SOL    HW121632   2.897   2.692   2.981  0.3860 -1.2812 -1.5681
 3390SOL    HW221633   2.784   2.678   3.069  2.8824 -1.8398  0.1586
 3391SOL     OW21634   2.153   0.211   3.578  0.0354 -0.6989  0.2558
 3391SOL    HW121635   2.160   0.153   3.653 -0.1026  0.0013  0.8041
 3391SOL    HW221636   2.226   0.185   3.522  1.2316 -0.8372  1.8845
 3392SOL     OW21637   1.408   4.030   0.505  0.4644  0.1120 -0.1871
 3392SOL    HW121638   1.372   4.107   0.462  2.5593 -0.2757 -2.6664
 3392SOL    HW221639   1.350   4.019   0.580 -0.3019  1.3073 -0.6156
 3393SOL     OW21640   3.640   0.057   7.854  0.2411  0.1892  0.5611
 3393SOL    HW121641   3.624   4.688   7.850 -0.5377  0.4015 -1.4558
 3393SOL    HW221642   3.630   0.072   7.948  1.3855  2.5822  0.3105
 3394SOL     OW21643   3.673   0.127   3.009 -0.3727  0.5314 -0.0065
 3394SOL    HW121644   3.620   0.201   2.980  0.2218  0.4837 -1.2077
 3394SOL    HW221645   3.670   0.135   3.104 -1.1544  0.8292 -0.0579
 3395SOL     OW21646   0.910   1.598  11.882 -0.0483 -0.1415  0.6299
 3395SOL    HW121647   1.005   1.595  11.871 -0.2075 -0.4456 -0.6346
 3395SOL    HW221648   0.891   1.691  11.879 -1.3703 -0.5193 -2.1391
 3396SOL     OW21649   0.878   2.283   4.981 -0.2784  0.2176 -0.1154
 3396SOL    HW121650   0.804   2.343   4.973 -0.0219  0.5744  0.2013
 3396SOL    HW221651   0.853   2.204   4.934 -1.6887 -0.7582  2.2796
 3397SOL     OW21652   2.406   1.573   6.495  0.3491  0.1528 -0.0858
 3397SOL    HW121653   2.422   1.620   6.577 -0.3711 -2.3579  1.5229
 3397SOL    HW221654   2.353   1.631   6.441 -1.0447  1.6993  2.9473
 3398SOL     OW21655   1.502   4.246  15.318  0.8836 -0.3680  0.5627
 3398SOL    HW121656   1.565   4.266  15.387  1.7954  1.2653 -0.7496
 3398SOL    HW221657   1.490   4.153  15.334 -1.3817 -0.4302 -1.4826
 3399SOL     OW21658   1.087   0.010   4.383  0.7952 -0.7456 -0.8261
 3399SOL    HW121659   1.124   4.701   4.464 -0.3627 -0.9683 -0.3891
 3399SOL    HW221660   1.169   0.006   4.335  0.8649 -1.0065 -0.6857
 3400SOL     OW21661   0.540   1.657   3.722 -0.0650 -0.1563 -0.0706
 3400SOL    HW121662   0.635   1.661   3.734 -0.0114  0.2244 -0.6033
 3400SOL    HW221663   0.525   1.588   3.786  0.6109 -0.5938 -0.3919
 3401SOL     OW21664   4.160   1.599   6.605  0.1706 -0.2533 -0.2606
 3401SOL    HW121665   4.252   1.615   6.584  0.2153 -0.6131 -0.3401
 3401SOL    HW221666   4.119   1.655   6.540  0.3113  0.4771  0.2800
 3402SOL     OW21667   3.227   4.336   4.992 -0.2456  0.4265  0.0258
 3402SOL    HW121668   3.215   4.412   4.936  0.1328  1.4629  1.3669
 3402SOL    HW221669   3.297   4.286   4.949  2.2962  3.0770  1.1020
 3403SOL     OW21670   2.381   4.545   0.197 -0.2457 -0.4809  0.4344
 3403SOL    HW121671   2.433   4.598   0.137 -0.5644 -0.2850  0.3294
 3403SOL    HW221672   2.300   4.596   0.204  0.6911  1.1236 -0.5134
 3404SOL     OW21673   2.690   2.151  13.987  0.3721  0.1296  0.2666
 3404SOL    HW121674   2.622   2.207  13.951  0.5236 -0.1354 -0.4313
 3404SOL    HW221675   2.709   2.087  13.918  0.6340 -0.7456  1.1449
 3405SOL     OW21676   0.013   0.928   2.810 -0.5705  0.1960 -0.5160
 3405SOL    HW121677   4.683   1.006   2.811  0.0612  0.6445 -0.2065
 3405SOL    HW221678   0.100   0.968   2.799 -0.1385 -0.6976 -0.3258
 3406SOL     OW21679   3.702   2.561   6.413 -0.4296 -0.0550  0.2840
 3406SOL    HW121680   3.628   2.567   6.474  2.1217 -2.0577  3.5644
 3406SOL    HW221681   3.743   2.479   6.439  0.7701 -0.1762 -2.0486
 3407SOL     OW21682   2.213   3.240   3.497  0.5220  0.2473 -0.0151
 3407SOL    HW121683   2.219   3.225   3.403  2.4952 -0.0745  0.1669
 3407SOL    HW221684   2.229   3.334   3.502  0.7971  0.2503 -1.0143
 3408SOL     OW21685   3.517   3.298   4.844  0.4844  0.0477  0.1705
 3408SOL    HW121686   3.492   3.249   4.766  1.2885  1.0422 -0.6986
 3408SOL    HW221687   3.443   3.279   4.902  0.3389 -1.5309 -0.5243
 3409SOL     OW21688   1.206   3.083   9.619  0.0700 -0.2138  0.4196
 3409SOL    HW121689   1.268   3.148   9.652  2.4398 -1.1849 -2.1890
 3409SOL    HW221690   1.171   3.141   9.551  1.5160  1.1116  0.8158
 3410SOL     OW21691   1.825   2.017   2.777 -0.2064  0.1403  0.1505
 3410SOL    HW121692   1.803   1.955   2.708 -0.4295 -1.1638  1.4017
 3410SOL    HW221693   1.899   1.969   2.813  2.3275  4.0565  0.2159
 3411SOL     OW21694   0.946   0.946  12.661 -0.2737  0.2504  0.2483
 3411SOL    HW121695   0.956   0.959  12.567 -0.1039  0.3684  0.2831
 3411SOL    HW221696   1.003   1.015  12.694 -0.2317  0.2124  0.2547
 3412SOL     OW21697   0.330   0.347   3.566  0.1199 -0.2400  0.1591
 3412SOL    HW121698   0.401   0.400   3.529 -0.1173  0.1409  0.2576
 3412SOL    HW221699   0.363   0.330   3.654  2.2718 -0.3759 -0.6825
 3413SOL     OW21700   3.549   2.999   6.307 -0.6240 -0.2910 -0.1082
 3413SOL    HW121701   3.555   2.995   6.402 -0.2701 -1.6279 -0.1890
 3413SOL    HW221702   3.531   2.906   6.297 -0.7329  0.0010 -2.7852
 3414SOL     OW21703   2.887   1.790  12.491  0.3534 -0.0866  0.3218
 3414SOL    HW121704   2.855   1.852  12.556 -0.7513  2.5722 -2.7846
 3414SOL    HW221705   2.972   1.829  12.474  0.3563 -0.3922 -0.3364
 3415SOL     OW21706   2.669   0.393  11.254  0.4429  0.5123 -0.0543
 3415SOL    HW121707   2.630   0.355  11.176 -0.3464  1.2899 -0.0405
 3415SOL    HW221708   2.598   0.457  11.266 -0.8384 -1.0593  0.8605
 3416SOL     OW21709   4.638   0.637   7.575 -0.0548  0.2094  0.0831
 3416SOL    HW121710   4.703   0.692   7.619 -0.0583  1.2240 -1.1707
 3416SOL    HW221711   4.623   0.685   7.493 -0.1671 -0.2128 -0.1439
 3417SOL     OW21712   0.789   1.582   9.056 -0.7430  0.5895  0.0460
 3417SOL    HW121713   0.793   1.524   8.980  3.0505 -0.3316  0.9103
 3417SOL    HW221714   0.773   1.517   9.125  2.4199  1.1186  1.2871
 3418SOL     OW21715   3.229   1.621   2.900  0.1609 -0.6890 -1.0540
 3418SOL    HW121716   3.161   1.661   2.846 -0.1351 -1.5345 -1.3220
 3418SOL    HW221717   3.293   1.627   2.830  0.2893 -0.6001 -0.9274
 3419SOL     OW21718   1.101   2.729   9.583 -0.3487 -0.5924  0.6075
 3419SOL    HW121719   1.044   2.719   9.659 -1.8616 -3.3260 -0.9100
 3419SOL    HW221720   1.174   2.672   9.606  0.5092  0.2548 -0.0401
 3420SOL     OW21721   0.124   0.442  12.943  0.0920  0.2026 -0.3516
 3420SOL    HW121722   0.071   0.409  12.870 -1.6799  1.4146  0.4116
 3420SOL    HW221723   0.194   0.472  12.884  0.3490 -0.5979 -0.4582
 3421SOL     OW21724   4.675   3.345   2.779  0.9021 -0.0688 -0.2695
 3421SOL    HW121725   4.617   3.374   2.708  2.4592 -0.5543 -1.7187
 3421SOL    HW221726   0.028   3.340   2.725 -0.1489 -1.8644 -1.6670
 3422SOL     OW21727   1.432   4.565   3.938 -0.6345  0.6270 -0.0369
 3422SOL    HW121728   1.439   4.646   3.888  2.3445  0.6590  0.4652
 3422SOL    HW221729   1.516   4.559   3.982 -1.1948  1.4013  1.1286
 3423SOL     OW21730   0.748   0.044  16.017  0.3225  0.0094  0.1983
 3423SOL    HW121731   0.689   0.118  16.001  0.3677 -0.0679 -0.3220
 3423SOL    HW221732   0.732   0.040  16.111  1.1246  1.6316  0.4171
 3424SOL     OW21733   0.633   0.506   9.081  0.1095  0.2787  0.5145
 3424SOL    HW121734   0.726   0.523   9.095 -0.2274  2.1832  0.4837
 3424SOL    HW221735   0.587   0.583   9.114 -2.6856 -1.9236  1.6795
 3425SOL     OW21736   2.206   1.116   4.602  0.0068 -0.2125 -0.5172
 3425SOL    HW121737   2.155   1.098   4.522 -1.6967 -0.4467  0.6195
 3425SOL    HW221738   2.276   1.157   4.552 -0.7208  2.3124  0.5883
 3426SOL     OW21739   1.827   1.505   7.098 -0.3991 -0.2002 -0.0617
 3426SOL    HW121740   1.806   1.495   7.191 -0.1643 -2.3878 -0.2526
 3426SOL    HW221741   1.849   1.414   7.079  0.2145 -0.1991  0.6360
 3427SOL     OW21742   0.982   3.101   4.168  0.6961  0.0755  0.3333
 3427SOL    HW121743   0.891   3.078   4.189  0.6145  1.2929  1.3283
 3427SOL    HW221744   1.009   3.161   4.238  2.2066  0.2116 -0.3800
 3428SOL     OW21745   1.796   0.978  10.387  0.5545  0.1601  1.0690
 3428SOL    HW121746   1.876   0.956  10.435 -0.1807 -1.7634  1.3872
 3428SOL    HW221747   1.748   0.999  10.467 -1.3180 -2.6329  0.6717
 3429SOL     OW21748   0.842   3.313   5.706  0.0939 -0.3269 -0.4333
 3429SOL    HW121749   0.931   3.320   5.742  0.2522 -0.7132 -0.7398
 3429SOL    HW221750   0.831   3.221   5.679 -2.3909 -0.2763  0.4442
 3430SOL     OW21751   1.948   0.421   1.850  0.1284  0.3767 -0.1586
 3430SOL    HW121752   2.015   0.486   1.832  0.7964  0.2538  1.8822
 3430SOL    HW221753   1.998   0.346   1.816 -0.4102  0.4176 -1.0612
 3431SOL     OW21754   4.674   1.964   3.883  0.4335  0.2772 -0.3560
 3431SOL    HW121755   0.043   1.980   3.883  0.2281  1.5246  0.4292
 3431SOL    HW221756   4.659   2.010   3.800 -3.7355  1.2591  0.9326
 3432SOL     OW21757   0.261   3.043   8.694 -0.1844  0.1408  0.4647
 3432SOL    HW121758   0.334   3.003   8.646 -0.6917  0.5541 -0.6529
 3432SOL    HW221759   0.198   2.983   8.655 -1.5388  0.3709  2.3173
 3433SOL     OW21760   3.100   1.459   3.673 -0.1092  0.4684 -0.2900
 3433SOL    HW121761   3.131   1.458   3.764  1.1818  1.1409 -0.7224
 3433SOL    HW221762   3.174   1.418   3.629  0.1577  0.7675 -0.1259
 3434SOL     OW21763   3.784   2.032   8.953  0.3971 -0.0834  0.0716
 3434SOL    HW121764   3.763   1.953   9.003  1.6138 -0.8604 -0.6485
 3434SOL    HW221765   3.704   2.049   8.903 -0.0598  0.0669  0.8561
 3435SOL     OW21766   0.897   1.714   6.928 -0.0008 -0.6522 -0.4648
 3435SOL    HW121767   0.960   1.671   6.986 -0.7962 -1.4425 -0.1894
 3435SOL    HW221768   0.817   1.667   6.951 -0.3421 -0.0776 -0.4671
 3436SOL     OW21769   2.342   2.388  17.519 -0.4482  0.0649 -0.0048
 3436SOL    HW121770   2.393   2.469  17.521  2.3228 -1.6253 -0.6367
 3436SOL    HW221771   2.368   2.357  17.606  0.8903  1.2149  0.0069
 3437SOL     OW21772   3.783   1.313  17.053 -0.3878  0.1910 -0.1318
 3437SOL    HW121773   3.799   1.253  17.126  0.3501  1.3359  0.6405
 3437SOL    HW221774   3.872   1.334  17.024 -0.9044  1.0196 -1.0863
 3438SOL     OW21775   1.751   1.973   4.725  0.1272  0.0408 -0.9085
 3438SOL    HW121776   1.749   2.067   4.741 -0.1897  0.0195 -0.8121
 3438SOL    HW221777   1.791   1.934   4.802  2.6853  0.2719 -2.1106
 3439SOL     OW21778   2.271   2.276  13.321 -0.6401 -0.5824 -0.3636
 3439SOL    HW121779   2.214   2.235  13.386 -0.5296 -2.4999 -1.4879
 3439SOL    HW221780   2.354   2.229  13.327  0.2403  0.7523 -1.9241
 3440SOL     OW21781   1.641   1.002   9.465  0.4993  0.1662 -0.0529
 3440SOL    HW121782   1.680   1.026   9.549  1.6274  0.1596 -0.5730
 3440SOL    HW221783   1.557   0.972   9.500  1.5109  0.8517  3.0206
 3441SOL     OW21784   3.103   0.328   9.619 -0.3236 -0.0082 -0.3417
 3441SOL    HW121785   3.101   0.312   9.524 -2.0343 -0.2069 -0.2671
 3441SOL    HW221786   3.139   0.248   9.656  0.2980 -0.4538 -1.9141
 3442SOL     OW21787   0.437   0.265   9.140 -0.0524  0.2869 -0.1559
 3442SOL    HW121788   0.446   0.360   9.135 -1.2524  0.3756 -0.8679
 3442SOL    HW221789   0.528   0.249   9.162 -0.1633  1.8139  1.4149
 3443SOL     OW21790   0.335   2.566   1.058 -0.3741 -0.0145  0.7220
 3443SOL    HW121791   0.374   2.652   1.047 -0.6730  0.0977  0.5502
 3443SOL    HW221792   0.248   2.575   1.019 -0.4193  0.3952  0.9166
 3444SOL     OW21793   3.807   0.751   5.120 -0.3895  0.5506  0.0336
 3444SOL    HW121794   3.770   0.826   5.166 -1.3366 -0.1615  0.4234
 3444SOL    HW221795   3.812   0.794   5.035 -2.8737 -0.8315 -0.8284
 3445SOL     OW21796   3.717   1.637  12.557 -0.0331 -0.1085 -0.1196
 3445SOL    HW121797   3.761   1.711  12.598  0.4066  0.3547 -1.4112
 3445SOL    HW221798   3.628   1.673  12.558 -0.1390 -0.3693 -0.3377
 3446SOL     OW21799   0.961   1.428   4.038  0.0401  0.1486  0.0569
 3446SOL    HW121800   0.935   1.353   4.091 -0.2796 -0.6716 -1.2656
 3446SOL    HW221801   0.966   1.501   4.101  0.3516 -1.2661  1.6626
 3447SOL     OW21802   0.873   1.603   1.174 -0.2267 -0.0548 -0.7039
 3447SOL    HW121803   0.900   1.581   1.085  2.3917 -0.8113  0.2458
 3447SOL    HW221804   0.858   1.513   1.204  0.6122 -0.1439 -0.5466
 3448SOL     OW21805   0.099   3.073   9.079 -0.0472  0.3885  0.1048
 3448SOL    HW121806   0.178   3.047   9.031  1.3648  2.5722  1.2822
 3448SOL    HW221807   0.071   3.148   9.027  1.3002  0.4819 -0.4962
 3449SOL     OW21808   3.094   0.373   3.666  0.2110 -0.0573 -0.5218
 3449SOL    HW121809   3.074   0.451   3.614  0.9760  1.0540  0.8390
 3449SOL    HW221810   3.141   0.417   3.737  0.4624 -0.2228 -0.5850
 3450SOL     OW21811   0.341   0.120   3.412 -0.9191  0.1262  0.1653
 3450SOL    HW121812   0.363   0.210   3.436  2.0461 -0.5063 -0.1792
 3450SOL    HW221813   0.316   0.076   3.492  2.5427 -1.7903  0.1910
 3451SOL     OW21814   3.168   1.364   4.714  0.4075 -0.6171 -0.0505
 3451SOL    HW121815   3.175   1.386   4.622 -0.7967 -1.6903 -0.4083
 3451SOL    HW221816   3.074   1.344   4.717 -0.2284  2.0810 -2.2584
 3452SOL     OW21817   3.039   1.148   3.446 -0.4367  0.4318 -0.0215
 3452SOL    HW121818   3.109   1.201   3.484  1.0735  0.0493 -2.2780
 3452SOL    HW221819   3.003   1.112   3.527 -2.1631 -1.4349 -1.6164
 3453SOL     OW21820   4.025   1.434  17.375 -0.1837  0.4331 -0.1043
 3453SOL    HW121821   3.972   1.513  17.367  0.9509  1.0374 -1.7370
 3453SOL    HW221822   4.104   1.485  17.396 -0.2463  0.3382  0.3664
 3454SOL     OW21823   1.553   0.474   0.552 -0.2618 -0.3319 -0.5277
 3454SOL    HW121824   1.503   0.513   0.480  0.5957  3.3637  0.8894
 3454SOL    HW221825   1.643   0.484   0.520 -0.7169  1.7803 -1.1332
 3455SOL     OW21826   4.709   0.179  11.159 -0.4598  0.1135 -0.1490
 3455SOL    HW121827   4.723   0.085  11.165 -2.6440 -0.2781 -1.3667
 3455SOL    HW221828   0.027   0.196  11.075  0.9397  0.2897  0.5971
 3456SOL     OW21829   4.462   3.960  17.058  0.2225  0.2385  0.2433
 3456SOL    HW121830   4.486   3.976  17.150  0.9005 -0.7026  0.2226
 3456SOL    HW221831   4.382   3.908  17.067  1.0694 -0.6313  2.8246
 3457SOL     OW21832   2.883   0.616   3.048  0.0144 -0.0850  0.5428
 3457SOL    HW121833   2.877   0.651   3.136  4.2548  0.3709  0.6679
 3457SOL    HW221834   2.793   0.589   3.029  0.2246 -0.6909  0.3993
 3458SOL     OW21835   3.697   1.097  17.214 -0.8667  0.2037  0.4088
 3458SOL    HW121836   3.638   1.108  17.140  0.4907  1.0428 -0.5447
 3458SOL    HW221837   3.658   1.144  17.288  0.1312 -0.9114  1.6465
 3459SOL     OW21838   3.115   0.689  10.399  0.0960  0.4499  0.4190
 3459SOL    HW121839   3.205   0.717  10.415  0.6859 -1.8329  1.1429
 3459SOL    HW221840   3.101   0.647  10.484 -1.2083 -1.4920 -0.7665
 3460SOL     OW21841   0.906   3.805   8.223  0.0053 -0.5085  0.1458
 3460SOL    HW121842   0.989   3.850   8.232  0.5922 -1.0365 -2.4089
 3460SOL    HW221843   0.845   3.877   8.207  1.3092  0.4475 -0.5066
 3461SOL     OW21844   4.671   0.955   0.098 -0.6576  0.0027 -0.6173
 3461SOL    HW121845   4.723   0.875   0.105  0.6074  0.8710  0.0004
 3461SOL    HW221846   0.012   1.022   0.117 -1.9078  0.4905  2.0844
 3462SOL     OW21847   0.852   4.535   4.398 -0.1582  0.2129  0.5781
 3462SOL    HW121848   0.871   4.572   4.484 -2.8825 -1.5152  1.9481
 3462SOL    HW221849   0.918   4.468   4.413  1.0709  0.8091 -2.1829
 3463SOL     OW21850   1.480   2.902   2.252 -0.1994 -0.2448  0.1554
 3463SOL    HW121851   1.437   2.986   2.271 -0.9758  0.0686 -2.9412
 3463SOL    HW221852   1.427   2.865   2.181  0.0195  2.2719 -1.3258
 3464SOL     OW21853   0.926   3.627  12.777  0.4844  0.0545  0.3551
 3464SOL    HW121854   0.910   3.625  12.682  0.7585  2.5430  0.2666
 3464SOL    HW221855   0.906   3.719  12.795 -0.1585  0.3259 -1.6829
 3465SOL     OW21856   2.746   4.141  17.236 -0.6292  0.3791 -0.2354
 3465SOL    HW121857   2.720   4.233  17.243 -1.2006  0.3302 -1.8288
 3465SOL    HW221858   2.701   4.102  17.311 -0.9479 -0.8591 -1.0822
 3466SOL     OW21859   0.880   1.702   6.462  0.0762  0.5812 -0.5733
 3466SOL    HW121860   0.929   1.683   6.382 -0.2625 -0.3897 -0.5551
 3466SOL    HW221861   0.955   1.714   6.520  0.4269 -0.2770 -0.8500
 3467SOL     OW21862   1.522   0.075  17.247  0.0699 -0.2520  0.1995
 3467SOL    HW121863   1.465   0.025  17.190 -0.2348 -0.7088  0.8940
 3467SOL    HW221864   1.606   0.036  17.222 -0.8337 -1.0925 -1.4674
 3468SOL     OW21865   0.302   4.473   7.119  0.0095  0.1816  0.1506
 3468SOL    HW121866   0.232   4.499   7.179  1.0230 -1.7564  2.1975
 3468SOL    HW221867   0.328   4.385   7.146 -0.8111  0.2915  1.3205
 3469SOL     OW21868   0.943   2.631  17.507  0.3493 -0.5665  0.8542
 3469SOL    HW121869   0.858   2.673  17.499  0.5796  0.5910  4.2180
 3469SOL    HW221870   0.985   2.687  17.573 -1.8116  0.8389  1.0281
 3470SOL     OW21871   1.965   3.054  13.086 -0.7934  0.2094  0.0313
 3470SOL    HW121872   1.981   3.142  13.120 -4.0070  1.3757 -1.4656
 3470SOL    HW221873   2.054   3.018  13.079  0.5612  3.3409  0.8372
 3471SOL     OW21874   4.116   1.492   8.575 -0.2715  0.0039 -0.0062
 3471SOL    HW121875   4.179   1.435   8.619 -2.4754 -2.0579  0.4200
 3471SOL    HW221876   4.164   1.520   8.497  0.3662 -1.1558 -0.0333
 3472SOL     OW21877   0.281   3.744  13.792  0.0934  0.3238 -0.1714
 3472SOL    HW121878   0.203   3.789  13.760  0.2806 -0.0007 -1.0849
 3472SOL    HW221879   0.349   3.777  13.734 -0.2418 -1.0832 -1.3791
 3473SOL     OW21880   0.568   1.021   0.549  0.0586 -0.1424 -0.0841
 3473SOL    HW121881   0.626   0.949   0.523  0.5853  1.5010 -3.4846
 3473SOL    HW221882   0.557   1.010   0.644  0.2091  0.2860 -0.0161
 3474SOL     OW21883   1.099   1.575   3.822 -0.0505 -0.6925  0.1530
 3474SOL    HW121884   1.179   1.627   3.829  0.1903 -1.4020  2.7858
 3474SOL    HW221885   1.082   1.561   3.915 -0.6003  0.8319  0.2900
 3475SOL     OW21886   0.047   0.999   7.044 -0.0112  0.1788 -0.1532
 3475SOL    HW121887   0.035   1.062   6.973  2.8279  1.3911  0.4468
 3475SOL    HW221888   4.686   0.996   7.087 -0.3519  0.9290 -0.7730
 3476SOL     OW21889   0.295   1.034   7.209 -0.0122  0.5934 -0.7731
 3476SOL    HW121890   0.217   0.994   7.170  0.7850 -0.4159 -1.3359
 3476SOL    HW221891   0.298   1.109   7.150 -0.6202  2.6068  1.7754
 3477SOL     OW21892   3.542   1.007   6.866  0.0321 -0.2782  0.1411
 3477SOL    HW121893   3.534   0.992   6.772  0.4527  2.3936 -0.3273
 3477SOL    HW221894   3.544   1.103   6.863  2.0359 -0.3114  0.4719
 3478SOL     OW21895   4.022   3.082  13.755 -0.4408 -0.1354  0.0980
 3478SOL    HW121896   4.066   3.134  13.822 -0.0760 -0.2919 -0.0210
 3478SOL    HW221897   4.094   3.072  13.693 -1.6959 -0.5689 -1.3054
 3479SOL     OW21898   1.964   3.767   6.049  0.0968  0.2332  1.2608
 3479SOL    HW121899   1.977   3.803   5.961  0.1949  0.7551  1.4871
 3479SOL    HW221900   2.004   3.682   6.033 -2.2551 -0.5782 -0.2748
 3480SOL     OW21901   0.262   2.652   9.338 -0.1133  0.2079  0.4333
 3480SOL    HW121902   0.172   2.656   9.304 -0.1917  0.8641  0.7142
 3480SOL    HW221903   0.250   2.689   9.426 -0.4752  0.8867  0.1035
 3481SOL     OW21904   2.820   4.553   3.816 -0.0493  0.1821 -0.1378
 3481SOL    HW121905   2.792   4.498   3.743 -0.7729  3.1500 -2.1084
 3481SOL    HW221906   2.781   4.501   3.887 -1.1599  0.1274 -0.7800
 3482SOL     OW21907   2.840   2.458   2.804  0.5852 -0.0346  0.0367
 3482SOL    HW121908   2.887   2.492   2.880  0.1315 -2.7159  1.5143
 3482SOL    HW221909   2.789   2.530   2.767 -3.3689 -2.5864  0.4901
 3483SOL     OW21910   0.333   4.320   0.699  0.1717  0.0177 -0.7360
 3483SOL    HW121911   0.270   4.392   0.697 -0.2615 -0.2635  2.9762
 3483SOL    HW221912   0.412   4.360   0.664 -1.2510  2.2271 -1.4415
 3484SOL     OW21913   0.310   4.339   7.808  0.2892  0.0285  0.6027
 3484SOL    HW121914   0.250   4.266   7.795 -1.2999  1.1776  1.5748
 3484SOL    HW221915   0.273   4.394   7.739 -0.1457 -0.3027  0.5723
 3485SOL     OW21916   0.875   2.540   5.332  0.3753  0.1108 -0.3796
 3485SOL    HW121917   0.884   2.632   5.306 -1.1149  0.4443  0.2794
 3485SOL    HW221918   0.948   2.524   5.392  0.5026  1.4169 -0.1699
 3486SOL     OW21919   3.406   2.383   1.486  0.5108  0.4668  0.3147
 3486SOL    HW121920   3.353   2.309   1.516 -1.7445  1.4298 -1.2646
 3486SOL    HW221921   3.336   2.437   1.449  0.0834 -0.1503  0.2169
 3487SOL     OW21922   4.515   0.480   5.791  0.0512  0.3830  0.4866
 3487SOL    HW121923   4.501   0.557   5.737 -1.2181  2.3304  3.5720
 3487SOL    HW221924   4.437   0.428   5.770  2.0304 -1.9507 -1.1049
 3488SOL     OW21925   0.952   0.663   2.304  0.2824 -0.1640  0.1247
 3488SOL    HW121926   0.935   0.618   2.222  1.2579  0.5250 -0.4513
 3488SOL    HW221927   1.038   0.624   2.316  1.4824  2.3851 -0.2654
 3489SOL     OW21928   3.699   3.702   9.271 -0.2294  0.2667  0.0239
 3489SOL    HW121929   3.791   3.720   9.289 -0.2433 -0.5634  0.9311
 3489SOL    HW221930   3.685   3.631   9.334 -0.7771  1.0854  0.8263
 3490SOL     OW21931   1.974   3.753   7.460 -0.0903 -0.8327 -0.1569
 3490SOL    HW121932   1.924   3.673   7.477 -0.5895 -0.5262 -0.1773
 3490SOL    HW221933   1.978   3.800   7.543 -1.0143 -0.5224 -0.2870
 3491SOL     OW21934   0.326   0.417   2.484 -0.0048 -0.3458 -0.3246
 3491SOL    HW121935   0.334   0.423   2.388 -2.7472  0.3645 -0.5154
 3491SOL    HW221936   0.290   0.505   2.497  0.5080 -0.2603  0.5212
 3492SOL     OW21937   0.952   4.300   9.779  0.2648  0.3950  0.5022
 3492SOL    HW121938   0.898   4.304   9.701 -1.7839  2.6046  2.0407
 3492SOL    HW221939   0.941   4.388   9.814  2.9856  0.5603  0.9691
 3493SOL     OW21940   3.888   0.296   2.099 -0.1310  0.1954  0.1889
 3493SOL    HW121941   3.926   0.383   2.085 -1.8491  0.7602 -1.0413
 3493SOL    HW221942   3.969   0.247   2.112 -0.1298  0.1483  0.0005
 3494SOL     OW21943   4.169   0.299  10.887 -0.5034  0.4002 -0.2835
 3494SOL    HW121944   4.109   0.268  10.955  2.0452 -1.2310  1.2074
 3494SOL    HW221945   4.247   0.296  10.942 -2.1791 -0.6922  2.0378
 3495SOL     OW21946   4.591   2.221  14.959 -0.1112 -0.0924  0.1914
 3495SOL    HW121947   4.608   2.228  15.053 -1.8149 -1.1395  0.5897
 3495SOL    HW221948   4.634   2.139  14.935  0.8748  0.2900  0.6767
 3496SOL     OW21949   1.499   0.955  11.047 -0.1304 -0.8534  0.7796
 3496SOL    HW121950   1.447   0.912  10.980  0.0532  0.1992 -0.0294
 3496SOL    HW221951   1.507   0.889  11.117 -1.0638 -1.0433  0.7152
 3497SOL     OW21952   3.545   2.146   8.862  0.0919 -0.0546 -0.0038
 3497SOL    HW121953   3.493   2.093   8.922  0.4339 -0.0012  0.3320
 3497SOL    HW221954   3.477   2.159   8.795  0.1754 -0.3204 -0.1410
 3498SOL     OW21955   3.617   3.349   4.522 -0.1059  0.6599 -0.4367
 3498SOL    HW121956   3.540   3.322   4.573 -0.9939  0.9092 -1.6623
 3498SOL    HW221957   3.566   3.393   4.454 -0.0919  0.1523 -0.7758
 3499SOL     OW21958   1.981   0.452   5.244 -0.2141  0.1063 -0.4658
 3499SOL    HW121959   2.007   0.526   5.298 -1.6469  0.5536 -0.3707
 3499SOL    HW221960   2.023   0.385   5.298  1.5482  1.5275 -0.0734
 3500SOL     OW21961   2.745   0.057   1.907  0.1210  0.1976  0.7714
 3500SOL    HW121962   2.655   0.029   1.892  0.4321 -0.9066  0.9533
 3500SOL    HW221963   2.746   0.130   1.969  0.6873  2.2731 -1.6899
 3501SOL     OW21964   1.826   0.549   5.021  0.2947 -0.7790 -0.0430
 3501SOL    HW121965   1.906   0.601   5.031 -0.9619  1.4952 -2.0607
 3501SOL    HW221966   1.827   0.501   5.104  2.1343 -0.9433 -0.1581
 3502SOL     OW21967   2.720   3.887  10.386 -0.3287  0.1868 -0.0163
 3502SOL    HW121968   2.795   3.870  10.329  0.3460  0.6110  0.7427
 3502SOL    HW221969   2.646   3.857  10.332 -0.5729  1.1786 -0.2309
 3503SOL     OW21970   1.245   2.984   0.873  0.5946  0.1789 -0.4852
 3503SOL    HW121971   1.281   3.043   0.940 -1.2270  2.0387 -1.1270
 3503SOL    HW221972   1.272   3.032   0.795  0.3073  0.5664 -0.3511
 3504SOL     OW21973   0.161   1.741  11.624  0.0828 -0.2953 -0.7000
 3504SOL    HW121974   0.139   1.696  11.705 -3.2419  1.1249 -0.8333
 3504SOL    HW221975   0.254   1.764  11.631 -0.0252 -0.5592  1.5331
 3505SOL     OW21976   0.219   3.822  16.224  0.1956  0.9647  0.3097
 3505SOL    HW121977   0.206   3.818  16.319  1.0706  0.1606  0.3883
 3505SOL    HW221978   0.307   3.786  16.216  0.2556  1.2850 -0.5499
 3506SOL     OW21979   4.529   4.462   1.151  0.2011  0.3434  0.0539
 3506SOL    HW121980   4.554   4.433   1.063  0.3679  0.2576  0.1290
 3506SOL    HW221981   4.588   4.410   1.205 -1.0986 -0.0907  1.0624
 3507SOL     OW21982   0.435   3.349   5.075  0.0578 -0.1176 -0.2253
 3507SOL    HW121983   0.493   3.319   5.145 -0.7344  0.3927  0.6447
 3507SOL    HW221984   0.357   3.300   5.100 -1.5939  2.4731 -0.3082
 3508SOL     OW21985   1.587   3.727   9.007 -0.1379  0.0206 -0.0241
 3508SOL    HW121986   1.538   3.803   9.040  0.6359  0.5745 -0.1361
 3508SOL    HW221987   1.553   3.736   8.918 -2.5294  2.8604  1.1600
 3509SOL     OW21988   1.908   1.983   4.963  0.1101 -0.4545  0.2055
 3509SOL    HW121989   1.907   2.074   4.993  0.2073 -0.1702 -0.6369
 3509SOL    HW221990   1.908   1.931   5.043 -0.4367 -2.6684 -1.2310
 3510SOL     OW21991   4.333   3.459  16.028 -0.2460  0.2402 -0.5094
 3510SOL    HW121992   4.322   3.371  16.065  0.5089 -0.8391 -2.8286
 3510SOL    HW221993   4.271   3.465  15.955  0.6279 -0.6968 -1.3211
 3511SOL     OW21994   0.511   2.906   1.035  0.2191 -0.6839 -0.0380
 3511SOL    HW121995   0.508   2.995   1.000  0.2627 -0.5617  0.2703
 3511SOL    HW221996   0.493   2.866   0.950  2.0847  0.5207 -0.9803
 3512SOL     OW21997   4.285   1.093   1.332  0.5288  0.5177 -0.1897
 3512SOL    HW121998   4.310   1.140   1.411  0.1046 -0.6988  0.6761
 3512SOL    HW221999   4.340   1.134   1.266 -1.3188  2.7895 -0.3037
 3513SOL     OW22000   0.162   2.215   4.365 -0.2497  0.0219 -0.2107
 3513SOL    HW122001   0.156   2.270   4.286 -1.5619  2.5327  1.6055
 3513SOL    HW222002   0.124   2.133   4.335 -0.3545  0.4421 -1.2616
 3514SOL     OW22003   1.792   2.551   6.050 -0.1345 -0.0916 -0.3826
 3514SOL    HW122004   1.830   2.465   6.068 -1.0400 -0.4843 -0.3174
 3514SOL    HW222005   1.775   2.531   5.957 -1.0229  0.5371 -0.3505
 3515SOL     OW22006   3.084   4.133   8.274 -0.6046  0.4419 -0.0651
 3515SOL    HW122007   3.080   4.126   8.179 -0.0737 -0.9643  0.0155
 3515SOL    HW222008   3.141   4.064   8.309  2.4641  3.0380 -0.0111
 3516SOL     OW22009   4.231   1.276  11.648  0.5431 -0.3144 -0.5400
 3516SOL    HW122010   4.284   1.197  11.656  0.7202  0.1791  3.0877
 3516SOL    HW222011   4.298   1.344  11.646  1.8583 -1.6159 -0.6492
 3517SOL     OW22012   0.985   2.561  16.796  0.2552 -0.1284 -0.2619
 3517SOL    HW122013   1.068   2.578  16.840  0.4076 -0.9225 -0.2417
 3517SOL    HW222014   1.016   2.556  16.705  0.2964  0.4488 -0.2789
 3518SOL     OW22015   2.570   4.217   1.891  0.0815  0.2623  0.4017
 3518SOL    HW122016   2.666   4.218   1.892  0.0935  0.6376 -0.6956
 3518SOL    HW222017   2.547   4.232   1.982  0.5694  0.5069  0.4861
 3519SOL     OW22018   2.731   1.163   2.642 -0.1184 -0.3377  0.5402
 3519SOL    HW122019   2.737   1.245   2.692  0.9852 -1.3693  2.0808
 3519SOL    HW222020   2.785   1.110   2.700  0.4193  0.7805  1.0786
 3520SOL     OW22021   0.472   1.448   7.863  0.1021 -0.5139  0.5598
 3520SOL    HW122022   0.416   1.521   7.836 -1.4397 -2.1819 -0.7839
 3520SOL    HW222023   0.495   1.486   7.948 -0.2456  1.1170 -0.0694
 3521SOL     OW22024   2.462   3.093   4.671  0.0870  0.7060  0.1500
 3521SOL    HW122025   2.440   3.020   4.729  1.0054 -1.1012 -1.7577
 3521SOL    HW222026   2.486   3.165   4.729 -1.8781  0.2688  1.5251
 3522SOL     OW22027   2.988   0.558   6.951 -0.2459 -0.1175  0.4323
 3522SOL    HW122028   2.930   0.620   6.996 -0.5299 -0.0092 -0.0851
 3522SOL    HW222029   2.939   0.477   6.958  0.1373 -0.5286 -1.6108
 3523SOL     OW22030   3.368   1.758   3.984 -0.2401 -0.7884  0.3295
 3523SOL    HW122031   3.436   1.751   4.051  1.7857 -0.4523 -1.6835
 3523SOL    HW222032   3.377   1.852   3.970  0.4717 -0.5967  2.0529
 3524SOL     OW22033   2.298   4.564   5.368  0.0711 -0.0161  0.2013
 3524SOL    HW122034   2.332   4.616   5.441 -1.8397  0.2939  0.8683
 3524SOL    HW222035   2.366   4.497   5.361  0.1715  0.3495 -2.1405
 3525SOL     OW22036   0.161   2.325   5.404  0.4418 -0.5555  0.2305
 3525SOL    HW122037   0.161   2.237   5.366  0.7700  0.0300 -1.1177
 3525SOL    HW222038   0.103   2.384   5.355  1.1783 -1.0835 -1.2676
 3526SOL     OW22039   0.218   3.483   4.954  0.2183  0.2277  0.0918
 3526SOL    HW122040   0.302   3.448   4.923  0.1489  0.2370 -0.1071
 3526SOL    HW222041   0.159   3.463   4.881 -3.2072 -1.0113  3.2186
 3527SOL     OW22042   2.649   3.112   2.106  0.1203 -0.4847 -0.0672
 3527SOL    HW122043   2.735   3.101   2.147  0.7990 -1.8078 -1.7923
 3527SOL    HW222044   2.673   3.093   2.015 -0.5388 -0.6281 -0.2073
 3528SOL     OW22045   4.608   4.659   7.562  0.3226  0.7406  0.2862
 3528SOL    HW122046   4.660   4.686   7.486  1.1106 -0.1854  0.4827
 3528SOL    HW222047   4.660   4.701   7.630  1.2210 -1.4006  0.9532
 3529SOL     OW22048   0.969   2.213  11.157 -0.3482  0.3505 -0.2695
 3529SOL    HW122049   0.999   2.235  11.069 -0.4932 -0.2611 -0.4708
 3529SOL    HW222050   0.999   2.123  11.145 -2.5068 -0.0218 -2.7603
 3530SOL     OW22051   3.744   2.717   3.592  0.8228 -0.0821  0.0680
 3530SOL    HW122052   3.790   2.766   3.523 -0.6953  1.2853  0.0306
 3530SOL    HW222053   3.825   2.686   3.632  0.1036 -0.6264  1.0874
 3531SOL     OW22054   4.055   4.255   5.369 -0.3310 -0.4465  0.1614
 3531SOL    HW122055   4.118   4.217   5.430 -0.5281  0.5675  0.9883
 3531SOL    HW222056   3.972   4.251   5.416 -1.9066 -0.0837 -2.5655
 3532SOL     OW22057   1.331   4.505   5.141  0.5550  0.6385 -0.7581
 3532SOL    HW122058   1.260   4.561   5.172  0.1267  0.5289 -1.5506
 3532SOL    HW222059   1.371   4.579   5.096  1.7817 -1.3366 -2.8736
 3533SOL     OW22060   4.386   2.370   1.990 -0.2828 -0.5056  0.0410
 3533SOL    HW122061   4.470   2.414   1.983 -0.0366 -0.8786  0.6153
 3533SOL    HW222062   4.391   2.318   1.910 -1.8640  1.4454 -1.3313
 3534SOL     OW22063   0.420   0.847   2.555 -0.6683  0.3731 -0.1439
 3534SOL    HW122064   0.432   0.838   2.461 -2.6461 -0.2282 -0.3545
 3534SOL    HW222065   0.499   0.893   2.582  0.6452 -0.4349 -2.6842
 3535SOL     OW22066   4.209   0.426   2.222 -0.0727 -0.2834 -0.2388
 3535SOL    HW122067   4.196   0.332   2.206  2.0607 -0.4276 -1.0838
 3535SOL    HW222068   4.176   0.433   2.311 -1.0078 -0.0585 -0.5977
 3536SOL     OW22069   3.957   3.870   7.439 -0.0273  0.7110 -0.6523
 3536SOL    HW122070   3.865   3.890   7.457  0.3776  0.4285  1.7495
 3536SOL    HW222071   3.956   3.827   7.354 -3.6557  0.4579 -0.4474
 3537SOL     OW22072   1.913   4.199   3.392  1.1364  0.1599 -0.3066
 3537SOL    HW122073   1.962   4.276   3.363  0.7718 -0.1145 -1.6497
 3537SOL    HW222074   1.835   4.221   3.342  1.1803  1.6728  0.2785
 3538SOL     OW22075   3.731   3.896   2.181  0.2003 -0.3450 -0.0933
 3538SOL    HW122076   3.731   3.990   2.166 -1.4098 -0.4616 -0.8454
 3538SOL    HW222077   3.761   3.879   2.091  0.6797 -0.1402  0.0289
 3539SOL     OW22078   0.549   0.441   8.405 -0.0106  0.2536 -0.2943
 3539SOL    HW122079   0.466   0.457   8.450 -0.0967 -0.4530 -0.1977
 3539SOL    HW222080   0.564   0.347   8.421  1.9072  0.6728  0.3933
 3540SOL     OW22081   2.796   4.063   8.323  0.2434  0.5083 -0.4113
 3540SOL    HW122082   2.891   4.072   8.322  0.1236  1.8267 -0.0435
 3540SOL    HW222083   2.769   4.153   8.304  0.3516  0.6901  0.3107
 3541SOL     OW22084   4.657   4.223   6.482 -0.6820  0.1139 -0.4670
 3541SOL    HW122085   4.607   4.305   6.473  1.4554  1.3308 -1.3124
 3541SOL    HW222086   0.003   4.254   6.538 -1.0130  1.0836 -0.5831
 3542SOL     OW22087   2.269   3.183   3.821  0.0644 -0.2632 -0.4130
 3542SOL    HW122088   2.295   3.161   3.732  1.4529  1.0246 -0.3156
 3542SOL    HW222089   2.177   3.156   3.821  0.0939 -0.3462  1.4833
 3543SOL     OW22090   3.582   3.044   0.409 -0.1296  0.1849  0.1250
 3543SOL    HW122091   3.674   3.031   0.432 -0.8948 -4.5696  0.4457
 3543SOL    HW222092   3.556   2.954   0.390  3.6197 -0.8205 -0.2613
 3544SOL     OW22093   2.375   3.415  16.361  0.1685  0.5376  0.2829
 3544SOL    HW122094   2.311   3.448  16.423  0.3995  2.1465 -0.3492
 3544SOL    HW222095   2.351   3.451  16.276 -3.9115  0.2666  1.3390
 3545SOL     OW22096   2.026   1.287   2.449 -0.2090  0.1093 -0.2592
 3545SOL    HW122097   2.014   1.372   2.490 -1.1704 -1.3133  2.3837
 3545SOL    HW222098   2.039   1.229   2.524  1.1645 -0.1640 -0.7079
 3546SOL     OW22099   3.526   3.922   3.458  0.6781 -0.6299  0.0467
 3546SOL    HW122100   3.580   3.970   3.394 -1.7985  1.6658 -0.2956
 3546SOL    HW222101   3.565   3.835   3.450  3.6052  0.7441 -0.7748
 3547SOL     OW22102   1.099   1.970   3.680 -0.5845  0.6851 -0.2598
 3547SOL    HW122103   1.019   2.019   3.659 -2.3008 -1.2093  1.9196
 3547SOL    HW222104   1.095   1.894   3.622 -2.5567  0.2467  0.4298
 3548SOL     OW22105   1.624   0.571  12.831 -0.1270  1.0316  0.2187
 3548SOL    HW122106   1.678   0.517  12.889 -1.6557  0.4880  1.1474
 3548SOL    HW222107   1.619   0.511  12.757  2.5603  1.2565 -0.1484
 3549SOL     OW22108   1.986   3.739   5.698  0.2193  0.2055 -0.0954
 3549SOL    HW122109   1.951   3.823   5.729 -1.2673  0.0898 -1.4683
 3549SOL    HW222110   2.076   3.764   5.677  0.2033 -0.2689 -0.7402
 3550SOL     OW22111   1.953   0.024   4.862 -0.0716 -0.4003  0.1670
 3550SOL    HW122112   1.970   0.118   4.871  1.5649 -0.6078 -0.7105
 3550SOL    HW222113   1.941   0.020   4.767  1.2949  1.0282 -0.0685
 3551SOL     OW22114   3.995   1.364  16.797 -0.2972  0.4935 -0.2379
 3551SOL    HW122115   3.903   1.391  16.792 -0.9810 -1.7139  0.3011
 3551SOL    HW222116   4.018   1.417  16.873 -0.0542  0.4721 -0.2955
 3552SOL     OW22117   2.186   2.975   2.440 -0.1542 -0.5815 -0.2371
 3552SOL    HW122118   2.133   2.930   2.375  0.2215 -0.2703 -0.7557
 3552SOL    HW222119   2.182   3.068   2.420 -1.1234 -0.4560  0.5424
 3553SOL     OW22120   1.098   0.594   4.681 -0.2048  0.0697  0.4299
 3553SOL    HW122121   1.169   0.630   4.627 -0.0914  0.9342  1.1612
 3553SOL    HW222122   1.016   0.612   4.636  0.1167  1.5673  0.4408
 3554SOL     OW22123   0.783   0.032  10.338  0.7742 -0.0972 -0.3462
 3554SOL    HW122124   0.730   4.689  10.380  1.2256 -1.0386 -1.3026
 3554SOL    HW222125   0.725   0.059  10.267 -0.0053 -1.1044 -0.0956
 3555SOL     OW22126   1.774   4.450   2.443  0.5760 -0.1225 -0.8001
 3555SOL    HW122127   1.732   4.461   2.528 -1.5320  3.1688 -2.2959
 3555SOL    HW222128   1.742   4.530   2.401 -1.3657 -0.2595  0.4673
 3556SOL     OW22129   4.425   4.491   8.348 -0.7487  0.7133  0.2079
 3556SOL    HW122130   4.461   4.580   8.347 -0.7704  0.6951 -1.9504
 3556SOL    HW222131   4.487   4.456   8.284 -1.0214  1.5249 -0.4943
 3557SOL     OW22132   1.800   1.184  10.647 -0.2177 -0.3246 -0.5176
 3557SOL    HW122133   1.745   1.117  10.688 -0.2001 -0.7642 -1.2154
 3557SOL    HW222134   1.777   1.260  10.700 -0.1418  0.4382 -1.5921
 3558SOL     OW22135   4.072   0.895   7.155 -0.4966 -0.1399  0.0253
 3558SOL    HW122136   4.069   0.826   7.089  2.1422  1.8263 -2.2141
 3558SOL    HW222137   4.157   0.935   7.132 -0.6318  0.8565  1.2361
 3559SOL     OW22138   2.438   4.132   8.552  0.3188 -0.1425 -0.4271
 3559SOL    HW122139   2.441   4.084   8.635  0.1611  1.0791  0.2703
 3559SOL    HW222140   2.520   4.177   8.573  1.1427 -0.2363 -3.3882
 3560SOL     OW22141   4.231   3.955  16.368 -0.3415  0.6469 -0.0730
 3560SOL    HW122142   4.315   4.000  16.357 -0.3413  1.0354  1.5306
 3560SOL    HW222143   4.178   3.998  16.301  2.2051  0.9377 -1.8987
 3561SOL     OW22144   1.122   0.027   3.517  0.5287  0.2354  0.7100
 3561SOL    HW122145   1.141   0.110   3.561  1.7624  0.0056  0.6173
 3561SOL    HW222146   1.104   4.699   3.594 -1.5869  0.1879  0.1976
 3562SOL     OW22147   2.705   2.990   6.919  0.0642 -0.2412  0.5719
 3562SOL    HW122148   2.701   2.948   6.833  1.6326  1.6701 -0.4463
 3562SOL    HW222149   2.737   3.077   6.895 -1.9635 -0.2420 -2.0850
 3563SOL     OW22150   4.519   0.876   1.774  0.1502 -0.5531  0.5401
 3563SOL    HW122151   4.476   0.950   1.816  1.3906  0.6787 -0.3421
 3563SOL    HW222152   4.444   0.849   1.722 -1.4970 -0.5051  2.9133
 3564SOL     OW22153   1.522   2.737   7.360  0.0148  0.1666 -0.0931
 3564SOL    HW122154   1.506   2.747   7.453 -2.0376  1.3541 -0.5906
 3564SOL    HW222155   1.437   2.763   7.326 -0.7722  0.8489  2.4494
 3565SOL     OW22156   3.686   1.286   3.362  0.3582 -0.0160  0.2572
 3565SOL    HW122157   3.669   1.212   3.304 -0.5432 -0.1934  0.7444
 3565SOL    HW222158   3.749   1.334   3.309 -2.4147  2.2743 -0.9659
 3566SOL     OW22159   1.392   1.701   0.805 -0.3847  0.7116 -0.0117
 3566SOL    HW122160   1.445   1.733   0.731  0.6532 -0.6029  0.1604
 3566SOL    HW222161   1.370   1.779   0.856  0.5723  0.1773  1.1917
 3567SOL     OW22162   0.423   4.182   5.375 -0.6302 -0.4299 -0.2274
 3567SOL    HW122163   0.392   4.097   5.406 -0.4321 -1.5296 -3.0669
 3567SOL    HW222164   0.431   4.227   5.460 -1.2896 -0.0829 -0.3488
 3568SOL     OW22165   4.664   0.575  14.419  0.1347 -0.0471  0.6706
 3568SOL    HW122166   0.016   0.542  14.374  0.7641 -0.2095  1.8783
 3568SOL    HW222167   4.682   0.538  14.506  0.7657 -1.0180  0.1221
 3569SOL     OW22168   1.605   4.427   1.973  0.2992  0.0605  0.5846
 3569SOL    HW122169   1.668   4.356   1.964  0.4286  0.2203  0.2551
 3569SOL    HW222170   1.524   4.374   1.968  0.5243 -0.2997  0.7395
 3570SOL     OW22171   3.087   1.047   0.683 -0.1773 -0.0896  0.2948
 3570SOL    HW122172   3.136   0.982   0.734  1.3326  0.0304 -1.0068
 3570SOL    HW222173   3.102   1.125   0.737  0.5774 -0.4425  0.5958
 3571SOL     OW22174   1.576   0.243   3.901 -0.2329  0.1980 -0.0713
 3571SOL    HW122175   1.620   0.222   3.819 -3.0972  2.4876 -2.1972
 3571SOL    HW222176   1.610   0.330   3.920  0.3624 -0.8759  3.7354
 3572SOL     OW22177   0.821   3.296   8.071 -0.0371  0.1855 -0.6117
 3572SOL    HW122178   0.811   3.366   8.135 -0.4786 -0.0746 -0.3913
 3572SOL    HW222179   0.778   3.319   7.989  1.0336  2.9411 -0.3676
 3573SOL     OW22180   2.028   2.977   1.670  0.0914  0.2732 -0.0542
 3573SOL    HW122181   1.983   3.042   1.616 -1.8630  0.4303  1.7478
 3573SOL    HW222182   2.019   2.905   1.608 -0.1528  0.7632 -0.5852
 3574SOL     OW22183   3.756   0.436   3.085  0.2737  0.0805 -0.3004
 3574SOL    HW122184   3.758   0.354   3.133 -0.1132  0.1123 -0.2263
 3574SOL    HW222185   3.668   0.472   3.099  1.2309  2.4222 -0.2717
 3575SOL     OW22186   2.485   1.026   3.705  0.0615  0.3203  0.2972
 3575SOL    HW122187   2.570   1.069   3.696  0.4012 -0.3601  0.2534
 3575SOL    HW222188   2.498   0.941   3.662 -1.0618  1.0952 -1.5191
 3576SOL     OW22189   2.678   4.495  14.128  0.4238  0.3148  0.1063
 3576SOL    HW122190   2.752   4.447  14.089  1.3557 -0.2556  2.5643
 3576SOL    HW222191   2.726   4.577  14.128  1.2593 -0.1725  0.9678
 3577SOL     OW22192   1.526   2.451  16.423 -0.4332  0.3690 -0.3627
 3577SOL    HW122193   1.472   2.422  16.497  1.4973  0.5643  1.1300
 3577SOL    HW222194   1.529   2.369  16.373 -0.4012 -0.8094  1.5700
 3578SOL     OW22195   1.500   0.790   4.219 -0.6217  0.0563  0.3753
 3578SOL    HW122196   1.410   0.812   4.243 -1.1074  0.0323 -1.4772
 3578SOL    HW222197   1.544   0.788   4.304 -1.5291  0.9863  0.8634
 3579SOL     OW22198   2.779   3.889   0.239  0.2547  0.0272  0.4995
 3579SOL    HW122199   2.795   3.834   0.316  0.4016 -3.6674 -2.1708
 3579SOL    HW222200   2.842   3.961   0.247  0.5833 -0.3271  1.1118
 3580SOL     OW22201   3.236   2.973  16.083  0.4631  0.5294  0.2752
 3580SOL    HW122202   3.179   2.904  16.049  0.5601  0.5195  0.1336
 3580SOL    HW222203   3.322   2.950  16.046  0.8327  0.3311  1.2543
 3581SOL     OW22204   2.240   1.437  13.817  0.2607  0.0722  0.7537
 3581SOL    HW122205   2.235   1.456  13.723 -0.3065 -1.2896  0.5162
 3581SOL    HW222206   2.177   1.504  13.845 -2.1345 -0.8807 -2.4029
 3582SOL     OW22207   4.259   0.306   6.272  0.4198  0.1247 -0.2626
 3582SOL    HW122208   4.186   0.320   6.333  0.7657  0.7455  0.0121
 3582SOL    HW222209   4.272   0.391   6.230 -0.8642  0.6853  0.4384
 3583SOL     OW22210   4.548   2.537   6.585 -0.1080  0.2888  0.0484
 3583SOL    HW122211   4.507   2.554   6.500  0.1132 -1.8431 -0.4897
 3583SOL    HW222212   4.514   2.606   6.641  1.5737  0.7642  0.4757
 3584SOL     OW22213   4.611   3.325   8.518  0.2275  0.4165 -0.3222
 3584SOL    HW122214   4.693   3.281   8.496  1.1222  0.4523  2.9144
 3584SOL    HW222215   4.573   3.266   8.583 -1.8013  2.1457  0.0733
 3585SOL     OW22216   0.897   3.519   4.333 -0.1759 -0.1161 -0.8821
 3585SOL    HW122217   0.906   3.504   4.239  3.4086  2.8420 -1.0224
 3585SOL    HW222218   0.818   3.573   4.331  1.4557  2.4249  1.8336
 3586SOL     OW22219   0.929   4.614  13.996  0.0304  0.3071  0.2489
 3586SOL    HW122220   0.877   4.553  13.944  0.9069 -0.6375  0.4642
 3586SOL    HW222221   0.874   4.692  14.003 -1.6197 -0.8096 -0.2494
 3587SOL     OW22222   4.127   2.446   3.672  0.2525  0.0963 -0.1708
 3587SOL    HW122223   4.219   2.464   3.691  0.6911  0.9119 -3.0996
 3587SOL    HW222224   4.132   2.358   3.636 -0.6376 -0.2439  0.5483
 3588SOL     OW22225   1.239   4.045  12.932 -0.3395 -0.4087  0.1547
 3588SOL    HW122226   1.208   4.075  12.846  0.8741 -1.6180 -0.7037
 3588SOL    HW222227   1.225   3.950  12.924  1.3201 -0.5915 -0.5721
 3589SOL     OW22228   1.149   0.065   0.009  0.1474 -0.0199  0.3410
 3589SOL    HW122229   1.169   0.029   0.095  1.1345 -1.0308 -0.3267
 3589SOL    HW222230   1.070   0.014  17.696 -0.3971  1.1419 -0.7521
 3590SOL     OW22231   2.550   3.013   3.923  0.4062 -0.0142 -0.2814
 3590SOL    HW122232   2.490   3.016   3.998  0.9429 -2.9051  0.2736
 3590SOL    HW222233   2.541   3.103   3.893 -0.1392  0.1066  0.2533
 3591SOL     OW22234   3.166   0.969  13.585  0.0996  0.0221 -0.2410
 3591SOL    HW122235   3.140   1.060  13.596  1.2491  0.1688  1.2030
 3591SOL    HW222236   3.257   0.982  13.559  0.0700  0.0153 -0.3500
 3592SOL     OW22237   1.853   3.877   8.720 -0.4935  0.0088 -0.7681
 3592SOL    HW122238   1.898   3.832   8.792  0.3607 -1.2995 -2.1213
 3592SOL    HW222239   1.807   3.804   8.678 -0.6611 -0.1694 -0.2726
 3593SOL     OW22240   1.174   1.209   9.172 -0.7450 -0.0588 -0.0304
 3593SOL    HW122241   1.137   1.297   9.162  3.3092  1.7329  1.0572
 3593SOL    HW222242   1.093   1.161   9.191 -0.8661  0.2144  0.1446
 3594SOL     OW22243   3.534   1.734  11.812 -0.5735  0.3133 -0.3094
 3594SOL    HW122244   3.460   1.795  11.808 -0.5344  0.3385 -0.5943
 3594SOL    HW222245   3.544   1.716  11.719 -1.3002  2.1890 -0.7476
 3595SOL     OW22246   0.238   2.672   7.762 -0.2283 -0.2525  0.3234
 3595SOL    HW122247   0.331   2.695   7.762 -0.5478  0.9768 -2.5845
 3595SOL    HW222248   0.197   2.758   7.768  0.8585  0.4516 -2.2660
 3596SOL     OW22249   0.392   1.324   1.622  0.2345 -0.1303 -0.7291
 3596SOL    HW122250   0.420   1.347   1.533  2.2470 -2.0075 -0.5812
 3596SOL    HW222251   0.297   1.318   1.610 -0.0100  2.0250  0.1885
 3597SOL     OW22252   2.157   3.384  12.214 -0.8172  0.2778  0.4445
 3597SOL    HW122253   2.070   3.405  12.180 -1.0276 -0.4683  0.5159
 3597SOL    HW222254   2.130   3.334  12.291  0.3651 -0.3922  0.4198
 3598SOL     OW22255   2.738   3.583   3.698 -0.3696 -0.0189  0.3108
 3598SOL    HW122256   2.702   3.547   3.780  2.3034  0.2503  1.6044
 3598SOL    HW222257   2.669   3.649   3.696  0.5586  0.9809  1.0712
 3599SOL     OW22258   0.305   4.556   3.617  0.0955  0.3740 -0.1394
 3599SOL    HW122259   0.309   4.501   3.695 -0.5219 -0.3037 -0.5835
 3599SOL    HW222260   0.395   4.586   3.602 -0.5356  2.6102  0.6235
 3600SOL     OW22261   1.705   3.716  10.612  0.2442  0.3596  0.1566
 3600SOL    HW122262   1.715   3.739  10.704  1.3965 -2.4349  0.7105
 3600SOL    HW222263   1.645   3.784  10.581  0.3106  0.5557  0.4560
 3601SOL     OW22264   2.331   0.958   9.593 -0.1118 -0.2800 -0.1442
 3601SOL    HW122265   2.298   1.047   9.605  1.2561  0.3278 -0.8467
 3601SOL    HW222266   2.417   0.993   9.568 -1.5378  3.0403 -0.5036
 3602SOL     OW22267   3.102   0.192   6.406  0.7534  0.2833 -0.0584
 3602SOL    HW122268   3.136   0.108   6.377  0.4947  0.9650 -2.3203
 3602SOL    HW222269   3.066   0.215   6.320  0.3156 -2.4910 -0.6249
 3603SOL     OW22270   3.340   0.095   2.365 -0.6623 -0.1844 -0.4485
 3603SOL    HW122271   3.321   0.125   2.454  2.4704 -0.2779  0.2580
 3603SOL    HW222272   3.431   0.066   2.369 -0.4269  0.2497 -2.9248
 3604SOL     OW22273   1.160   1.414   5.332 -0.1028 -0.3743 -0.3704
 3604SOL    HW122274   1.220   1.340   5.327  0.7831  0.2188  1.5351
 3604SOL    HW222275   1.142   1.423   5.238 -1.1643 -0.0905 -0.1293
 3605SOL     OW22276   3.313   2.790   4.930 -0.1480 -0.0208  0.7017
 3605SOL    HW122277   3.281   2.726   4.866  0.0141  0.4087  0.1940
 3605SOL    HW222278   3.230   2.836   4.946  0.8249  2.2273 -0.7354
 3606SOL     OW22279   2.578   2.521  14.789 -0.0083  0.0543  0.6175
 3606SOL    HW122280   2.653   2.472  14.824  0.1919 -0.5030 -0.5818
 3606SOL    HW222281   2.602   2.535  14.697 -0.1412  0.3187  0.6251
 3607SOL     OW22282   0.782   2.763  16.654 -0.1255 -0.1146 -0.1751
 3607SOL    HW122283   0.828   2.718  16.725  1.5513  0.5681 -0.8351
 3607SOL    HW222284   0.853   2.778  16.592 -1.6833  2.1461 -1.4383
 3608SOL     OW22285   3.473   2.220   3.595  0.2026 -0.4919  0.9174
 3608SOL    HW122286   3.402   2.279   3.622  2.0593  1.2004  2.1822
 3608SOL    HW222287   3.519   2.275   3.531 -1.3553  1.3054  1.3620
 3609SOL     OW22288   3.067   1.171  14.609 -0.2467  0.0871  0.0435
 3609SOL    HW122289   3.074   1.152  14.516 -0.7338 -2.0530  0.4429
 3609SOL    HW222290   3.155   1.190  14.643 -0.3827 -0.8285  0.9229
 3610SOL     OW22291   3.216   1.837  11.894  0.0841  0.1267  0.3469
 3610SOL    HW122292   3.260   1.767  11.942 -1.6483 -0.4347  1.1302
 3610SOL    HW222293   3.135   1.797  11.862  0.0579  0.7302 -0.3332
 3611SOL     OW22294   0.871   0.535   1.522 -0.1001 -0.3771 -0.4744
 3611SOL    HW122295   0.861   0.627   1.545 -0.2373 -0.5621  0.1859
 3611SOL    HW222296   0.966   0.532   1.535 -0.0827 -0.5254 -0.6332
 3612SOL     OW22297   1.196   2.012   1.409 -0.7100 -0.0966  0.0921
 3612SOL    HW122298   1.165   1.940   1.462 -1.7248  0.4163  0.2045
 3612SOL    HW222299   1.219   1.963   1.330 -1.2437  0.2902 -0.3096
 3613SOL     OW22300   4.160   3.756   1.664  0.7675  0.3971  0.7044
 3613SOL    HW122301   4.116   3.741   1.580  1.5065  1.5264  0.1240
 3613SOL    HW222302   4.168   3.665   1.693  0.1772 -0.7054 -2.5928
 3614SOL     OW22303   1.041   4.704  16.960  0.4083 -0.8591  0.0417
 3614SOL    HW122304   1.092   0.052  16.995  2.2383 -2.3099  0.4259
 3614SOL    HW222305   1.100   4.649  16.909  1.1866  0.7439 -0.7793
 3615SOL     OW22306   4.645   0.983  15.339 -0.6345 -0.2728  0.2661
 3615SOL    HW122307   4.593   0.942  15.270  1.9512 -1.4053 -1.0211
 3615SOL    HW222308   4.593   1.061  15.357  0.6125  0.6786 -0.2271
 3616SOL     OW22309   2.526   1.972  11.681  0.1012 -0.0180 -0.7594
 3616SOL    HW122310   2.564   1.927  11.605 -0.9006 -0.9499 -0.7129
 3616SOL    HW222311   2.514   1.900  11.744  1.8957  0.1970 -0.1697
 3617SOL     OW22312   0.617   3.818   7.439 -0.2844  0.7415  0.3629
 3617SOL    HW122313   0.659   3.897   7.404  1.2419  0.0617  0.6360
 3617SOL    HW222314   0.643   3.757   7.370  1.7786  1.0367  0.8659
 3618SOL     OW22315   2.189   2.845   0.292  0.6610 -0.8423 -0.2861
 3618SOL    HW122316   2.231   2.882   0.214  0.3634 -2.8671 -1.4041
 3618SOL    HW222317   2.216   2.906   0.360 -0.5953  1.0964 -1.5043
 3619SOL     OW22318   3.543   2.270   4.218  0.2764  0.3158  0.2510
 3619SOL    HW122319   3.567   2.362   4.210 -0.2513  0.5153  0.9408
 3619SOL    HW222320   3.624   2.224   4.197 -0.2653  0.1511 -1.4893
 3620SOL     OW22321   2.357   3.680   2.495  0.0743 -0.5789  0.3275
 3620SOL    HW122322   2.310   3.636   2.425 -0.1114 -1.6367  1.1150
 3620SOL    HW222323   2.367   3.764   2.451 -0.6480 -1.6104 -1.8291
 3621SOL     OW22324   0.736   2.283   2.104  0.3756 -0.5038  0.3059
 3621SOL    HW122325   0.690   2.206   2.138 -0.0299  0.2032  1.3530
 3621SOL    HW222326   0.806   2.246   2.051  0.7643 -1.7685  1.6786
 3622SOL     OW22327   1.906   3.944   1.590  0.6019  0.0424 -0.5449
 3622SOL    HW122328   1.813   3.925   1.605  1.3219 -3.0012  0.1712
 3622SOL    HW222329   1.891   3.975   1.500  0.7568  0.4059 -0.4452
 3623SOL     OW22330   2.541   4.396   2.890  0.3215 -0.3616  0.0917
 3623SOL    HW122331   2.532   4.405   2.985 -2.0712  1.1638 -0.2843
 3623SOL    HW222332   2.449   4.389   2.864 -0.1780  2.0406  1.2574
 3624SOL     OW22333   4.155   1.072   1.001 -0.4814 -0.1614 -0.4376
 3624SOL    HW122334   4.218   1.134   1.038  0.8702 -2.0585  0.4401
 3624SOL    HW222335   4.113   1.135   0.943 -0.6730 -0.4770 -0.6368
 3625SOL     OW22336   3.684   3.287   6.828  0.0071 -0.1261  0.1339
 3625SOL    HW122337   3.650   3.197   6.820 -0.2789 -0.2866  2.8289
 3625SOL    HW222338   3.733   3.291   6.911 -1.9396 -0.5256  1.3040
 3626SOL     OW22339   1.614   0.171   0.608  0.0605  0.2060 -0.3584
 3626SOL    HW122340   1.603   0.254   0.561 -2.0741  1.6286  2.6839
 3626SOL    HW222341   1.548   0.176   0.677  1.2208 -1.3721  0.8528
 3627SOL     OW22342   3.992   0.664   5.786  0.7373 -0.3002 -0.1059
 3627SOL    HW122343   3.937   0.601   5.834  0.8402 -0.6874 -0.4961
 3627SOL    HW222344   4.071   0.658   5.839  0.3696  1.1354  0.6083
 3628SOL     OW22345   4.499   1.467   3.930  0.3735 -0.2043 -0.4206
 3628SOL    HW122346   4.516   1.558   3.957 -0.5293  0.6896 -2.8633
 3628SOL    HW222347   4.574   1.454   3.871 -0.0147  1.6651 -1.3257
 3629SOL     OW22348   4.509   3.788   2.025 -0.6175  0.2483 -0.3957
 3629SOL    HW122349   4.567   3.733   2.078 -0.8767  0.0864 -0.2816
 3629SOL    HW222350   4.443   3.724   2.000 -0.8476  0.8741 -1.3850
 3630SOL     OW22351   0.769   1.084   7.762 -0.3278 -0.0383 -0.4502
 3630SOL    HW122352   0.692   1.067   7.708 -1.9413  0.6912  1.6136
 3630SOL    HW222353   0.779   1.011   7.823 -1.0944  0.9226  0.8131
 3631SOL     OW22354   1.133   2.136  17.460 -0.1238 -0.4753 -0.2528
 3631SOL    HW122355   1.072   2.104  17.526  0.8654 -1.5212  0.1657
 3631SOL    HW222356   1.122   2.231  17.461 -0.2140 -0.4872 -0.1061
 3632SOL     OW22357   4.074   3.084   7.385  0.5062  0.3789 -0.2625
 3632SOL    HW122358   3.984   3.080   7.353  0.0849 -0.0890  1.0021
 3632SOL    HW222359   4.047   3.112   7.472  1.4783  1.8835 -0.4363
 3633SOL     OW22360   0.035   3.344   3.907 -0.2264 -0.3253 -0.5343
 3633SOL    HW122361   0.055   3.284   3.835  2.3225  1.6703 -1.5097
 3633SOL    HW222362   0.095   3.413   3.878 -0.6994 -0.2144 -1.2205
 3634SOL     OW22363   3.546   3.929   9.239  0.3866  0.1747 -0.5697
 3634SOL    HW122364   3.603   3.855   9.263 -1.0274 -0.2357  1.5631
 3634SOL    HW222365   3.603   3.986   9.187  0.2907 -0.3483 -1.2417
 3635SOL     OW22366   0.536   3.942   3.869 -0.0245  0.4086 -0.1799
 3635SOL    HW122367   0.631   3.949   3.859 -0.0671  1.2784  0.0098
 3635SOL    HW222368   0.520   3.995   3.948  1.8480 -0.5047  0.8094
 3636SOL     OW22369   1.311   0.174   8.387 -0.4484 -0.2713 -0.2180
 3636SOL    HW122370   1.375   0.245   8.395 -3.5162  2.2164  2.0050
 3636SOL    HW222371   1.315   0.145   8.295 -2.3907 -0.5997 -0.1803
 3637SOL     OW22372   0.854   3.105   5.499  0.4349 -0.3005  0.0287
 3637SOL    HW122373   0.854   3.178   5.437  1.4383  1.8931  2.6097
 3637SOL    HW222374   0.800   3.049   5.443 -0.7362  1.3069 -0.4187
 3638SOL     OW22375   3.098   0.696   8.046  0.5280 -0.2272 -0.0917
 3638SOL    HW122376   3.014   0.696   8.092 -0.9178  1.1201 -2.6693
 3638SOL    HW222377   3.079   0.749   7.968 -2.1491 -2.8910 -1.2510
 3639SOL     OW22378   0.385   1.747   2.319  0.4408 -0.4721  0.2989
 3639SOL    HW122379   0.368   1.690   2.244  0.3844 -1.2646  0.9181
 3639SOL    HW222380   0.480   1.758   2.317  0.7537 -3.5739 -1.5189
 3640SOL     OW22381   0.932   2.125   3.255  0.3137 -0.5414 -0.6533
 3640SOL    HW122382   0.846   2.097   3.285  0.2247 -0.2474 -0.6297
 3640SOL    HW222383   0.968   2.167   3.332  0.2065 -1.2514 -0.2195
 3641SOL     OW22384   0.320   4.496  14.904  0.1184 -0.1272 -0.1689
 3641SOL    HW122385   0.319   4.403  14.926  0.3149 -0.3273 -1.0008
 3641SOL    HW222386   0.369   4.535  14.976  2.4622  1.5631 -2.6448
 3642SOL     OW22387   3.501   1.527   8.196  0.8304 -0.5240 -0.3603
 3642SOL    HW122388   3.457   1.603   8.235  0.8147 -0.2759 -0.8581
 3642SOL    HW222389   3.474   1.468   8.266 -0.3834  0.3724 -0.0622
 3643SOL     OW22390   4.037   4.035   6.254 -0.2401 -0.0050 -0.0402
 3643SOL    HW122391   3.968   3.998   6.309 -0.0006  0.4276  0.5489
 3643SOL    HW222392   3.974   4.069   6.190 -0.5776  0.8591  0.7648
 3644SOL     OW22393   1.966   4.269   4.330  0.3191  0.2923  1.2905
 3644SOL    HW122394   1.946   4.362   4.339  0.6261  1.1461 -6.2390
 3644SOL    HW222395   1.963   4.248   4.423  0.6197  1.5123  1.5821
 3645SOL     OW22396   1.221   4.649  11.201 -0.9057 -0.3222 -0.3873
 3645SOL    HW122397   1.236   0.015  11.175 -0.9644 -0.0657  0.4951
 3645SOL    HW222398   1.137   4.666  11.244 -0.1660  0.7732  0.6226
 3646SOL     OW22399   1.295   1.175   4.131 -0.2500 -0.4578 -0.3711
 3646SOL    HW122400   1.380   1.136   4.149 -1.1454 -2.2569 -0.0938
 3646SOL    HW222401   1.306   1.270   4.141 -1.4127 -0.2985 -0.5461
 3647SOL     OW22402   2.643   1.150  14.590 -0.1668 -0.3245  0.1983
 3647SOL    HW122403   2.567   1.206  14.606 -0.9598 -1.0167 -1.1493
 3647SOL    HW222404   2.601   1.083  14.537 -0.2235  0.1647 -0.3688
 3648SOL     OW22405   0.726   2.694  12.254  0.5140  0.3206  0.6927
 3648SOL    HW122406   0.822   2.698  12.247  0.2291  0.8323 -2.6310
 3648SOL    HW222407   0.705   2.727  12.167 -0.5241 -0.9810  0.4573
 3649SOL     OW22408   0.374   2.633   4.471  0.2540 -0.1698  0.1004
 3649SOL    HW122409   0.438   2.694   4.508 -2.5332  1.6089  1.9694
 3649SOL    HW222410   0.348   2.691   4.400  1.5327  1.7128  1.1814
 3650SOL     OW22411   1.442   0.246   6.041 -0.0234 -0.0326 -0.6468
 3650SOL    HW122412   1.397   0.249   6.125  0.7333 -0.9431 -0.2108
 3650SOL    HW222413   1.486   0.331   6.041  1.0787 -0.6247  1.4545
 3651SOL     OW22414   3.259   1.238   6.846 -0.4918 -0.1018 -0.1015
 3651SOL    HW122415   3.238   1.149   6.876  2.6874 -1.1389 -0.9748
 3651SOL    HW222416   3.288   1.231   6.755  0.9149  0.1654  0.3260
 3652SOL     OW22417   2.751   0.133   4.388  0.1050  0.1177  0.0365
 3652SOL    HW122418   2.798   0.050   4.383 -3.1591 -1.6878 -0.4198
 3652SOL    HW222419   2.803   0.183   4.451 -0.4518  0.5532  0.1532
 3653SOL     OW22420   0.830   4.352   3.216  0.2423  0.1234 -0.0629
 3653SOL    HW122421   0.865   4.423   3.271  0.6306 -0.0757 -0.0500
 3653SOL    HW222422   0.808   4.392   3.132 -1.5726  0.2296  0.4779
 3654SOL     OW22423   1.181   0.810  15.509 -0.9359 -0.5987 -0.5121
 3654SOL    HW122424   1.232   0.891  15.495  1.3265 -1.6444  1.6476
 3654SOL    HW222425   1.234   0.776  15.581 -0.2035  0.3387 -0.5936
 3655SOL     OW22426   1.071   4.334  11.414  0.1770 -0.5059 -0.1767
 3655SOL    HW122427   1.101   4.358  11.327 -0.2464  0.1277 -0.1495
 3655SOL    HW222428   1.026   4.416  11.432 -1.8368 -1.1162 -2.4343
 3656SOL     OW22429   2.595   2.896   8.727 -0.4857  0.0477  0.1105
 3656SOL    HW122430   2.563   2.806   8.736 -0.2757 -0.1220 -0.8286
 3656SOL    HW222431   2.690   2.901   8.721 -0.5207  0.8676  0.1714
 3657SOL     OW22432   2.104   0.158   5.916  0.1421  0.1980 -0.3875
 3657SOL    HW122433   2.056   0.130   5.838  1.6151 -0.8362 -0.9097
 3657SOL    HW222434   2.106   0.076   5.965 -0.0721  0.9960  0.9757
 3658SOL     OW22435   3.700   4.498  10.972 -0.0041  0.0885 -0.2371
 3658SOL    HW122436   3.713   4.453  10.888 -3.0651 -0.7547 -0.2508
 3658SOL    HW222437   3.713   4.422  11.029 -2.2580  2.0235  2.8484
 3659SOL     OW22438   1.776   0.751   9.450 -0.4194 -0.6546 -0.1626
 3659SOL    HW122439   1.835   0.792   9.513  0.8690 -1.4968 -0.8183
 3659SOL    HW222440   1.711   0.822   9.447 -3.3111 -3.2769  0.9938
 3660SOL     OW22441   0.424   3.377   6.952 -0.2056  0.0767  0.0085
 3660SOL    HW122442   0.514   3.403   6.931 -0.6371  0.3646 -1.4974
 3660SOL    HW222443   0.386   3.449   6.901  0.9995  0.4458 -0.3975
 3661SOL     OW22444   1.452   3.298   9.020 -0.0124  0.4747 -0.0977
 3661SOL    HW122445   1.413   3.374   8.975 -0.2720  0.4887  0.1481
 3661SOL    HW222446   1.528   3.340   9.061 -0.2716  2.8576 -2.0579
 3662SOL     OW22447   2.458   4.275   4.624 -0.4801 -0.5428 -0.3594
 3662SOL    HW122448   2.484   4.226   4.702  0.6484  1.3989  0.4989
 3662SOL    HW222449   2.519   4.349   4.624  0.6717 -1.5018 -1.6868
 3663SOL     OW22450   4.700   4.170   2.774 -0.1210 -0.1718  0.4740
 3663SOL    HW122451   4.628   4.225   2.806  0.6316 -0.0822  2.0446
 3663SOL    HW222452   0.051   4.196   2.825 -1.1706 -0.7087  2.3054
 3664SOL     OW22453   0.572   3.305   4.844  0.3672 -0.4538 -0.0993
 3664SOL    HW122454   0.522   3.293   4.925  1.0198  1.7515  0.6371
 3664SOL    HW222455   0.500   3.300   4.780  0.2612 -0.1412 -0.0056
 3665SOL     OW22456   2.854   1.861   8.051  0.2420  0.2145 -0.1824
 3665SOL    HW122457   2.760   1.844   8.040  0.1819  0.1656  0.4291
 3665SOL    HW222458   2.882   1.838   7.963 -0.1313 -1.9474  0.2641
 3666SOL     OW22459   1.039   0.359   2.896  0.3238  0.2938 -0.2072
 3666SOL    HW122460   1.061   0.349   2.988  0.5091 -1.8620 -0.4885
 3666SOL    HW222461   1.075   0.444   2.870  0.5272  0.2193 -0.1612
 3667SOL     OW22462   0.953   1.398   7.952 -0.5557  0.1580  0.3754
 3667SOL    HW122463   0.990   1.318   7.916  1.5229  0.6133  1.5165
 3667SOL    HW222464   0.882   1.415   7.889  0.0126 -1.3981 -0.6843
 3668SOL     OW22465   2.798   3.315   9.502 -0.1590  0.1502  0.1659
 3668SOL    HW122466   2.732   3.379   9.530 -1.6519 -1.3523  0.0837
 3668SOL    HW222467   2.879   3.363   9.482  0.4348  0.1659  2.5185
 3669SOL     OW22468   3.336   3.264  17.028  0.3663  0.0529  0.3354
 3669SOL    HW122469   3.278   3.201  17.072 -1.8927  1.7804 -0.1583
 3669SOL    HW222470   3.356   3.216  16.948 -0.7486 -1.3608  0.9031
 3670SOL     OW22471   0.076   2.804   6.667 -0.5398 -0.0014  0.4564
 3670SOL    HW122472   0.029   2.802   6.584 -2.4318  0.5616  1.5057
 3670SOL    HW222473   0.084   2.713   6.695  0.0801 -0.8561 -2.5716
 3671SOL     OW22474   2.149   3.243  14.589  0.0395 -0.0520  0.1779
 3671SOL    HW122475   2.140   3.154  14.624 -3.2984  0.0362 -0.4644
 3671SOL    HW222476   2.203   3.288  14.654 -0.1706 -0.7885  0.8613
 3672SOL     OW22477   2.072   0.766   0.178  0.3420  0.0136  0.1422
 3672SOL    HW122478   2.127   0.810   0.113  0.5816  0.5482  0.7133
 3672SOL    HW222479   1.995   0.803   0.135  0.3180 -0.1119  0.0742
 3673SOL     OW22480   4.386   1.157   3.456 -0.1154 -0.8989  0.4036
 3673SOL    HW122481   4.477   1.133   3.474 -0.5307 -2.3513  0.5482
 3673SOL    HW222482   4.370   1.095   3.385  0.6532  0.0359 -0.5870
 3674SOL     OW22483   1.003   0.156   2.733 -0.0859  0.1438  0.0364
 3674SOL    HW122484   1.007   0.189   2.643  1.2412 -3.2134 -1.1089
 3674SOL    HW222485   1.020   0.234   2.786 -1.0967  0.5927 -0.3033
 3675SOL     OW22486   3.153   1.953   2.901 -0.5316  0.4659 -0.3995
 3675SOL    HW122487   3.083   1.898   2.868  0.4049 -0.2708 -1.1598
 3675SOL    HW222488   3.192   1.987   2.821  1.9658  1.8513  1.4020
 3676SOL     OW22489   4.337   3.695   4.414 -0.0526 -0.4310 -0.3880
 3676SOL    HW122490   4.340   3.605   4.445  4.2849  0.0078  0.4861
 3676SOL    HW222491   4.311   3.740   4.495 -3.2905 -0.1922 -1.5561
 3677SOL     OW22492   0.089   3.679   3.688  0.0936 -0.4609  0.5441
 3677SOL    HW122493   0.045   3.705   3.769  0.6915 -1.6801  1.2683
 3677SOL    HW222494   0.100   3.584   3.694  1.5879 -0.2217  1.6967
 3678SOL     OW22495   2.803   3.539   0.887 -0.8240  0.1001  0.0198
 3678SOL    HW122496   2.809   3.572   0.977 -1.1004 -0.1579  0.1317
 3678SOL    HW222497   2.708   3.529   0.888 -1.0574  2.5061  1.1348
 3679SOL     OW22498   0.288   2.244   4.632  0.3565 -0.5608  0.2913
 3679SOL    HW122499   0.256   2.233   4.543 -1.0496  1.0795  0.6009
 3679SOL    HW222500   0.206   2.265   4.676  0.3018 -1.8767  0.8455
 3680SOL     OW22501   0.431   2.161   4.327 -0.4060 -0.2623  0.3247
 3680SOL    HW122502   0.336   2.173   4.327 -0.2958  0.6012  1.7417
 3680SOL    HW222503   0.458   2.249   4.354  0.8551 -0.8937  1.1283
 3681SOL     OW22504   3.684   3.970   7.448 -0.1481 -0.2230  0.1273
 3681SOL    HW122505   3.663   4.014   7.366 -0.1044  0.4261  0.4627
 3681SOL    HW222506   3.685   4.041   7.511 -1.2899 -0.6902  0.6555
 3682SOL     OW22507   3.527   1.207   9.023  0.5856  0.5294 -0.4264
 3682SOL    HW122508   3.513   1.113   9.033  0.1372  1.0199  3.7721
 3682SOL    HW222509   3.605   1.216   9.079  1.0544  0.1412 -1.0215
 3683SOL     OW22510   0.780   4.359   8.499 -0.3753  0.3069 -0.0224
 3683SOL    HW122511   0.707   4.412   8.530 -2.0073 -0.7539 -2.0220
 3683SOL    HW222512   0.748   4.356   8.408 -0.2539  0.1485 -0.0596
 3684SOL     OW22513   0.360   3.569   7.401  0.2978  0.0396 -0.2954
 3684SOL    HW122514   0.325   3.636   7.460 -0.0604  0.0749 -0.5416
 3684SOL    HW222515   0.407   3.619   7.334 -2.0601  0.1499 -1.9131
 3685SOL     OW22516   1.461   4.341   8.363 -0.2003  0.0668  0.0151
 3685SOL    HW122517   1.521   4.403   8.322  0.5456 -0.0412  0.9384
 3685SOL    HW222518   1.440   4.284   8.290 -2.3853  0.5548  0.2594
 3686SOL     OW22519   1.031   2.169   8.625 -0.0250  0.2205 -0.6349
 3686SOL    HW122520   0.987   2.253   8.641 -0.9510 -0.0166 -1.9332
 3686SOL    HW222521   1.120   2.183   8.655  0.3138 -1.4124 -0.8858
 3687SOL     OW22522   4.437   1.504   1.822 -0.3516 -0.1091  0.0088
 3687SOL    HW122523   4.507   1.484   1.884  0.5957  0.2068 -0.9459
 3687SOL    HW222524   4.361   1.511   1.879  1.4201 -0.3015  2.3977
 3688SOL     OW22525   1.035   0.893   7.169  0.1624  0.5373  0.2731
 3688SOL    HW122526   0.955   0.938   7.144 -0.8892 -1.3441  0.3071
 3688SOL    HW222527   0.997   0.805   7.166  0.1081  0.5546  0.4862
 3689SOL     OW22528   0.842   0.277   2.254 -0.0033  0.3787 -0.0897
 3689SOL    HW122529   0.906   0.319   2.311  2.4250 -0.2495 -2.3243
 3689SOL    HW222530   0.900   0.207   2.223  1.5678  1.7735 -0.2685
 3690SOL     OW22531   0.369   3.472   7.945  0.1664 -0.4546  0.3181
 3690SOL    HW122532   0.443   3.521   7.982 -0.1183 -0.9150  1.5044
 3690SOL    HW222533   0.381   3.382   7.975  2.6623  0.2356  1.4592
 3691SOL     OW22534   2.220   0.876   5.257 -0.3562  0.1566  0.1625
 3691SOL    HW122535   2.208   0.925   5.175 -0.3458 -0.9559 -0.5048
 3691SOL    HW222536   2.311   0.846   5.252 -0.8338 -1.0994 -0.8261
 3692SOL     OW22537   1.004   3.835   4.649 -0.2642  0.4109 -0.2459
 3692SOL    HW122538   0.959   3.844   4.733 -2.4079  3.6250 -1.7412
 3692SOL    HW222539   1.032   3.744   4.651 -0.5883  0.3538  1.7538
 3693SOL     OW22540   0.584   4.271  15.244 -0.1232  0.3009 -0.1128
 3693SOL    HW122541   0.545   4.192  15.281 -0.8743  0.5978 -0.2792
 3693SOL    HW222542   0.640   4.290  15.319  0.0072 -1.4640  0.2371
 3694SOL     OW22543   3.056   1.964   2.370  0.2370 -0.4819  0.3619
 3694SOL    HW122544   3.139   1.991   2.333  0.5079 -1.5761  0.1633
 3694SOL    HW222545   3.004   1.928   2.298  0.3707 -0.0137  0.0309
 3695SOL     OW22546   1.505   1.076   5.762 -0.5856  0.5724  0.4254
 3695SOL    HW122547   1.485   1.080   5.668 -2.8798  2.0911  0.9948
 3695SOL    HW222548   1.461   1.156   5.791 -0.5974 -0.3969  3.0521
 3696SOL     OW22549   0.792   2.411  14.202  0.2072 -0.0992 -0.4900
 3696SOL    HW122550   0.823   2.337  14.255 -0.5714  1.2480  1.8352
 3696SOL    HW222551   0.863   2.466  14.235  1.8357 -3.4916  1.7817
 3697SOL     OW22552   4.479   3.415   3.892 -0.1148  0.0385  0.2939
 3697SOL    HW122553   4.518   3.500   3.909  0.6715 -0.7891  2.7330
 3697SOL    HW222554   4.552   3.364   3.928  0.7378  2.5329  2.0699
 3698SOL     OW22555   1.326   1.671   5.255 -0.5155  0.2309  0.1825
 3698SOL    HW122556   1.263   1.711   5.195 -0.9457 -0.5117  0.1391
 3698SOL    HW222557   1.267   1.602   5.287  0.1071  0.2915  1.4593
 3699SOL     OW22558   3.461   3.445   3.624  0.5903  0.2127 -0.5806
 3699SOL    HW122559   3.534   3.387   3.599  0.7041 -0.4197  1.1892
 3699SOL    HW222560   3.410   3.387   3.680 -0.6290  0.4044 -1.5120
 3700SOL     OW22561   0.448   0.169   8.355  0.3381  0.3670 -0.4882
 3700SOL    HW122562   0.432   0.144   8.446 -0.1743  1.1023 -0.3774
 3700SOL    HW222563   0.361   0.152   8.320  0.0685 -0.0119  0.3483
 3701SOL     OW22564   1.247   1.336   7.471  0.1083 -0.1070  0.5124
 3701SOL    HW122565   1.211   1.262   7.519  0.8358  0.3466  1.7645
 3701SOL    HW222566   1.338   1.311   7.486  1.0781  1.7600 -2.2887
 3702SOL     OW22567   2.544   4.454   5.258 -0.2036 -0.9008 -0.1455
 3702SOL    HW122568   2.574   4.371   5.221  0.5884 -0.9816  0.6813
 3702SOL    HW222569   2.499   4.488   5.181 -0.3349 -3.3507 -1.1536
 3703SOL     OW22570   4.692   1.838   9.538 -1.0160 -0.2385 -0.2665
 3703SOL    HW122571   4.632   1.768   9.562  0.0190 -1.2119 -0.4990
 3703SOL    HW222572   0.025   1.844   9.615  0.1228  1.2410 -1.2532
 3704SOL     OW22573   1.361   1.219   5.362  0.5814 -0.0585 -0.2102
 3704SOL    HW122574   1.405   1.183   5.285  1.4448  0.2138  0.1554
 3704SOL    HW222575   1.410   1.171   5.428 -0.2846 -0.2999  0.2511
 3705SOL     OW22576   4.613   4.342   8.200  0.1606 -0.0347 -0.2111
 3705SOL    HW122577   4.707   4.329   8.218 -0.0458  1.2090  1.8241
 3705SOL    HW222578   4.570   4.289   8.266 -2.4135  0.7315 -1.3043
 3706SOL     OW22579   4.139   2.751  15.763  0.3753 -0.3840  0.2731
 3706SOL    HW122580   4.175   2.837  15.785 -0.0567 -0.4072  1.0659
 3706SOL    HW222581   4.161   2.737  15.671  0.7794 -0.1204  0.3316
 3707SOL     OW22582   1.384   3.136  11.910 -0.0035 -0.1786 -0.4302
 3707SOL    HW122583   1.353   3.057  11.954  0.4758 -1.2371 -1.9958
 3707SOL    HW222584   1.365   3.118  11.818 -1.9022  0.2028 -0.1163
 3708SOL     OW22585   3.399   0.703   4.473 -0.7242  0.4257 -0.8862
 3708SOL    HW122586   3.493   0.691   4.465 -0.6485  1.4577 -1.5790
 3708SOL    HW222587   3.380   0.696   4.567 -0.2070  0.2562 -0.7964
 3709SOL     OW22588   2.694   1.459   0.459 -0.5419  0.2770 -0.0071
 3709SOL    HW122589   2.713   1.488   0.548 -1.4096  4.3097 -1.1473
 3709SOL    HW222590   2.605   1.425   0.465  0.0743 -1.2298  0.5832
 3710SOL     OW22591   0.261   3.115  14.068 -0.2836  0.0592  0.2331
 3710SOL    HW122592   0.348   3.129  14.106 -0.2971  1.1794 -0.1438
 3710SOL    HW222593   0.296   3.122  13.979 -1.9168 -0.7944 -0.4654
 3711SOL     OW22594   0.735   3.732   9.184  0.0662  0.0116 -0.0612
 3711SOL    HW122595   0.730   3.680   9.104  1.6133 -0.4228  0.1356
 3711SOL    HW222596   0.810   3.689   9.225 -0.2095  0.8219  1.3184
 3712SOL     OW22597   0.648   0.917  17.361  0.0494 -0.4599  0.2810
 3712SOL    HW122598   0.572   0.948  17.409  0.7224  1.2433  0.2456
 3712SOL    HW222599   0.665   0.839  17.415  1.3378  0.7621  1.6546
 3713SOL     OW22600   3.422   2.363   8.622  0.0057 -0.3202  0.2833
 3713SOL    HW122601   3.409   2.271   8.644  1.4779 -0.4276  0.6658
 3713SOL    HW222602   3.426   2.403   8.709 -1.4433  0.8293 -0.1810
 3714SOL     OW22603   1.632   2.896  14.227  0.6168 -0.3740  0.2759
 3714SOL    HW122604   1.704   2.837  14.205  1.7933  0.3651  2.1430
 3714SOL    HW222605   1.660   2.966  14.169  0.2907  0.0956  0.6915
 3715SOL     OW22606   4.102   4.230   3.489  0.4479  0.2299  0.4470
 3715SOL    HW122607   4.058   4.312   3.511  0.4897 -0.0640  1.6287
 3715SOL    HW222608   4.111   4.234   3.394  0.9519 -0.2325  0.4734
 3716SOL     OW22609   1.569   0.804   4.867  0.5325 -0.1534  0.2096
 3716SOL    HW122610   1.511   0.872   4.831  0.8758  0.5126  0.9269
 3716SOL    HW222611   1.519   0.786   4.946 -0.1596 -1.1281 -0.4485
 3717SOL     OW22612   4.470   0.293   8.635 -0.1847  0.0204 -0.4351
 3717SOL    HW122613   4.439   0.345   8.710  0.8684 -1.4904  1.0356
 3717SOL    HW222614   4.405   0.316   8.569  0.6026  1.0828 -0.8415
 3718SOL     OW22615   2.841   1.007  15.062  0.4818  0.7709  0.0411
 3718SOL    HW122616   2.921   0.954  15.059  0.4285  0.8104 -2.2123
 3718SOL    HW222617   2.801   0.987  14.978  1.3798  1.4475 -0.5437
 3719SOL     OW22618   0.233   0.411  15.366 -0.4021 -0.8131 -0.4884
 3719SOL    HW122619   0.260   0.321  15.346  0.7881 -0.6251  0.3445
 3719SOL    HW222620   0.287   0.431  15.442 -0.1265 -0.6314 -0.7333
 3720SOL     OW22621   4.480   0.074   3.147 -0.2869  0.1122 -0.3957
 3720SOL    HW122622   4.408   0.136   3.154  1.3643  2.1177 -1.2586
 3720SOL    HW222623   4.428   4.721   3.127 -2.1496  1.0818  0.6052
 3721SOL     OW22624   4.484   1.581   5.151  0.1446  0.1885  0.2398
 3721SOL    HW122625   4.406   1.535   5.184  1.7980 -1.9139  1.1672
 3721SOL    HW222626   4.501   1.638   5.225 -2.8431 -0.5074  1.4570
 3722SOL     OW22627   3.979   0.847  13.415 -0.4749  0.7684 -0.2556
 3722SOL    HW122628   3.925   0.796  13.475  1.2735 -1.4790 -0.5821
 3722SOL    HW222629   4.035   0.774  13.387 -1.6905 -0.0807 -0.4518
 3723SOL     OW22630   3.415   3.402   8.665  0.5883 -0.0874 -0.2315
 3723SOL    HW122631   3.401   3.494   8.688  1.8619  0.1221 -0.2900
 3723SOL    HW222632   3.457   3.366   8.743  0.2880  1.1201  0.4905
 3724SOL     OW22633   4.191   1.890  11.885 -0.2784  0.2042 -0.1730
 3724SOL    HW122634   4.139   1.952  11.936 -2.7311 -1.3343 -0.8387
 3724SOL    HW222635   4.225   1.946  11.816  1.6067 -0.7516 -0.0387
 3725SOL     OW22636   3.490   1.380   5.388  0.3619  0.3295  0.2206
 3725SOL    HW122637   3.511   1.288   5.399  1.8915  0.5587 -0.7658
 3725SOL    HW222638   3.575   1.424   5.388  0.6500 -0.2139 -0.3527
 3726SOL     OW22639   4.715   0.974   3.941 -0.1765 -0.0165  0.1743
 3726SOL    HW122640   0.033   0.945   3.861 -0.9739 -1.4710  0.2713
 3726SOL    HW222641   0.055   0.957   4.009  2.6323  2.4430 -1.9047
 3727SOL     OW22642   1.619   1.349   2.255 -0.0341  0.8199 -0.0803
 3727SOL    HW122643   1.535   1.305   2.254  0.2154  0.3496 -0.5219
 3727SOL    HW222644   1.671   1.292   2.311 -1.5513 -0.6242 -0.1397
 3728SOL     OW22645   1.341   3.307   8.589 -0.2600 -0.1206 -0.0482
 3728SOL    HW122646   1.343   3.217   8.556 -0.5327  0.1270 -0.7454
 3728SOL    HW222647   1.320   3.359   8.511  1.0622 -0.8774 -0.9008
 3729SOL     OW22648   3.728   4.044  13.488 -0.3908  0.0012 -0.0958
 3729SOL    HW122649   3.770   3.963  13.462  0.8784 -0.1052  2.3422
 3729SOL    HW222650   3.743   4.035  13.582  3.2785 -1.8928 -0.8936
 3730SOL     OW22651   4.289   3.883   4.882  0.4454  0.3257  0.4701
 3730SOL    HW122652   4.210   3.929   4.855  0.9258  0.6079 -0.4560
 3730SOL    HW222653   4.319   3.861   4.793 -0.5469  0.7451  0.0313
 3731SOL     OW22654   4.666   3.460   2.525 -0.0884  0.2343  0.8646
 3731SOL    HW122655   4.574   3.485   2.534 -0.3294  0.0694 -1.1082
 3731SOL    HW222656   4.688   3.545   2.486  2.2246 -1.5078 -1.5824
 3732SOL     OW22657   0.722   2.220  12.120 -0.1292 -0.0769  0.6936
 3732SOL    HW122658   0.698   2.178  12.037  1.4137 -0.8857  0.6628
 3732SOL    HW222659   0.652   2.194  12.179 -1.2975 -0.5629 -0.8908
 3733SOL     OW22660   4.556   4.383   0.885 -0.9173 -0.0669  0.5356
 3733SOL    HW122661   4.497   4.315   0.851 -0.8316 -0.5498  1.3578
 3733SOL    HW222662   4.629   4.361   0.827  0.0043  4.5276 -0.0052
 3734SOL     OW22663   3.854   0.314   2.844 -0.2660  0.1124  0.3453
 3734SOL    HW122664   3.795   0.307   2.919 -0.8015  1.1869  0.0270
 3734SOL    HW222665   3.796   0.289   2.772  1.7794  0.8368 -1.5929
 3735SOL     OW22666   0.777   3.097  12.933  0.1937 -0.3546  0.9248
 3735SOL    HW122667   0.701   3.082  12.878 -0.3550 -1.0536  1.8742
 3735SOL    HW222668   0.820   3.173  12.894  0.4930 -0.3087  1.3365
 3736SOL     OW22669   3.878   4.652   7.779 -0.1295  0.3118 -0.2878
 3736SOL    HW122670   3.796   4.697   7.799 -0.6209 -2.3245  3.5163
 3736SOL    HW222671   3.852   4.595   7.707  0.0444 -1.9578  1.4496
 3737SOL     OW22672   3.260   2.750  10.224 -0.3469  0.1533 -0.2904
 3737SOL    HW122673   3.270   2.709  10.138 -0.4103  1.2579 -0.8248
 3737SOL    HW222674   3.308   2.682  10.271 -2.4349 -1.6238 -0.7303
 3738SOL     OW22675   0.709   0.909   3.071  0.1366  0.3922  0.0071
 3738SOL    HW122676   0.751   0.882   2.989 -0.9783  0.2519 -0.5182
 3738SOL    HW222677   0.737   0.828   3.114 -0.4761  0.6754  0.9363
 3739SOL     OW22678   4.486   1.661   5.401 -0.1662 -0.1877 -0.6718
 3739SOL    HW122679   4.532   1.624   5.477  0.2792  0.6055 -0.5617
 3739SOL    HW222680   4.436   1.735   5.435 -1.0589 -0.5114 -1.3150
 3740SOL     OW22681   3.940   2.625   8.644  0.7445  0.3097  0.1967
 3740SOL    HW122682   3.892   2.623   8.726 -0.8954 -0.0002 -0.7613
 3740SOL    HW222683   3.993   2.704   8.653 -1.9070  2.4789 -3.0369
 3741SOL     OW22684   4.005   1.586  16.981 -0.4892  0.1502  1.0621
 3741SOL    HW122685   4.077   1.621  17.034 -0.8415 -1.8078  2.8115
 3741SOL    HW222686   3.987   1.666  16.931 -0.3715 -1.1135 -0.9857
 3742SOL     OW22687   2.502   0.107   4.522  0.2236 -0.3170 -0.2122
 3742SOL    HW122688   2.467   0.059   4.447  2.4439 -0.5367 -1.0952
 3742SOL    HW222689   2.568   0.158   4.475  0.6236 -2.8683 -2.4069
 3743SOL     OW22690   4.380   0.803   2.864  0.1907 -0.1825  0.3759
 3743SOL    HW122691   4.416   0.808   2.952 -0.4647 -2.5592  0.7796
 3743SOL    HW222692   4.424   0.727   2.825 -0.9172 -1.4358  1.6004
 3744SOL     OW22693   0.574   2.809   4.513  0.1093  0.3791  0.1607
 3744SOL    HW122694   0.557   2.839   4.424  1.9938 -1.7508 -0.9094
 3744SOL    HW222695   0.634   2.876   4.547  1.3875 -1.5592  1.6947
 3745SOL     OW22696   0.070   3.263   5.663  0.5224  0.5317  0.5383
 3745SOL    HW122697   0.132   3.278   5.592  0.6404  1.2753  0.7933
 3745SOL    HW222698   4.718   3.314   5.638  0.2952  0.2529  0.6613
 3746SOL     OW22699   0.007   3.553  11.367 -0.0652  0.0116  0.3004
 3746SOL    HW122700   4.669   3.490  11.332  2.5135 -1.2998 -1.9804
 3746SOL    HW222701   0.093   3.537  11.330 -0.4891  2.3168 -1.6891
 3747SOL     OW22702   3.817   2.797   8.129 -0.1735  0.1764  0.3017
 3747SOL    HW122703   3.860   2.812   8.044 -2.8881 -2.2093 -1.5028
 3747SOL    HW222704   3.883   2.763   8.189  0.9578  2.0652  0.1194
 3748SOL     OW22705   0.046   1.416   1.844  0.0296  0.5301 -0.4092
 3748SOL    HW122706   0.142   1.416   1.840  0.0647  0.6467  0.5622
 3748SOL    HW222707   0.026   1.508   1.828 -1.7571  0.5623  2.1851
 3749SOL     OW22708   3.335   3.296   7.251 -0.8947  0.1685 -0.1444
 3749SOL    HW122709   3.408   3.356   7.234 -2.3815  2.5203  1.8929
 3749SOL    HW222710   3.261   3.339   7.209 -0.8639  0.6397  0.2758
 3750SOL     OW22711   0.094   2.906  10.155  1.0325  0.2701  0.2250
 3750SOL    HW122712   0.003   2.881  10.137  1.3422 -0.0385 -0.9036
 3750SOL    HW222713   0.137   2.877  10.075 -1.8403 -2.5128 -0.2982
 3751SOL     OW22714   2.127   2.149   5.690 -0.4530  0.2754 -0.2434
 3751SOL    HW122715   2.151   2.085   5.756  0.4001 -0.2455 -1.0613
 3751SOL    HW222716   2.043   2.187   5.717  0.3625  1.1174  1.0957
 3752SOL     OW22717   2.582   2.582   3.993  0.5117  0.3119  0.2672
 3752SOL    HW122718   2.581   2.649   4.061  0.8632  0.0255  0.5610
 3752SOL    HW222719   2.540   2.510   4.040  0.5740  0.1213  0.0322
 3753SOL     OW22720   4.156   0.620   9.039  0.0335 -0.6233  0.0015
 3753SOL    HW122721   4.137   0.595   9.129 -2.0768 -0.1368 -0.3132
 3753SOL    HW222722   4.086   0.580   8.987  0.2589 -0.7761 -0.1852
 3754SOL     OW22723   1.195   3.739   3.727 -0.1160  0.0244  0.2660
 3754SOL    HW122724   1.195   3.817   3.783 -1.3723  0.8545 -0.8651
 3754SOL    HW222725   1.237   3.678   3.787  0.5744  0.5200  0.2820
 3755SOL     OW22726   4.147   3.042   2.706  0.3646  0.5023  0.0671
 3755SOL    HW122727   4.190   2.959   2.686  0.6596  0.9631 -1.1868
 3755SOL    HW222728   4.083   3.061   2.637  2.0242  1.4134 -1.2446
 3756SOL     OW22729   3.369   0.052  14.222 -0.1877 -0.2276 -0.8660
 3756SOL    HW122730   3.392   0.121  14.160  3.3818 -0.1270  0.5623
 3756SOL    HW222731   3.276   0.069  14.238  0.2304  1.3645 -0.1285
 3757SOL     OW22732   0.399   2.118   8.500 -0.4703 -0.9205  0.3763
 3757SOL    HW122733   0.419   2.085   8.413  3.7123  1.4328  0.4529
 3757SOL    HW222734   0.304   2.117   8.508 -0.4385 -0.1708  0.9464
 3758SOL     OW22735   0.379   2.173   2.726  0.1016 -0.2946 -0.3072
 3758SOL    HW122736   0.347   2.138   2.643 -1.5682  1.1613 -0.2855
 3758SOL    HW222737   0.467   2.136   2.732  1.0464  2.2248  1.4725
 3759SOL     OW22738   4.010   0.511   2.946 -0.2663 -0.2162 -0.3051
 3759SOL    HW122739   3.927   0.539   2.986  0.7895  0.3208  1.5085
 3759SOL    HW222740   3.982   0.426   2.912  1.2111 -0.9102  0.2375
 3760SOL     OW22741   2.957   1.759   2.840 -0.3370  0.2791  0.2094
 3760SOL    HW122742   2.993   1.759   2.751  0.1328  0.5119  0.4008
 3760SOL    HW222743   2.873   1.719   2.817 -0.1033 -1.0584  1.7337
 3761SOL     OW22744   0.674   3.670   4.346 -0.0209 -0.0565 -0.1037
 3761SOL    HW122745   0.722   3.746   4.378 -0.1613 -0.1591  0.3644
 3761SOL    HW222746   0.597   3.704   4.302  0.4554  0.4851 -0.5078
 3762SOL     OW22747   4.535   2.244   9.997  0.5146  0.1159 -0.1177
 3762SOL    HW122748   4.553   2.162  10.043  0.0530  0.0041 -0.1358
 3762SOL    HW222749   4.478   2.217   9.925  1.3314 -0.3035 -0.6089
 3763SOL     OW22750   4.433   0.922  16.629 -0.3579 -0.5330 -1.0147
 3763SOL    HW122751   4.424   1.016  16.621  2.9942 -0.1307  0.0014
 3763SOL    HW222752   4.364   0.910  16.564 -1.0600 -0.4574 -0.2869
 3764SOL     OW22753   2.377   2.048   4.625  0.9226 -0.0583  0.0223
 3764SOL    HW122754   2.436   2.091   4.687  0.5517 -1.8137  1.5962
 3764SOL    HW222755   2.287   2.075   4.645 -0.0337 -3.0851 -0.2204
 3765SOL     OW22756   1.901   1.508   4.669 -0.2409 -0.5178  0.3563
 3765SOL    HW122757   1.837   1.560   4.620 -0.0128  0.5176  1.1548
 3765SOL    HW222758   1.972   1.572   4.659  0.2014 -0.8559  1.3788
 3766SOL     OW22759   4.264   1.828   2.651 -0.0657 -0.3075  0.1461
 3766SOL    HW122760   4.265   1.896   2.584 -0.5317  0.5746  1.0498
 3766SOL    HW222761   4.318   1.864   2.721 -0.4864 -0.3195  0.4720
 3767SOL     OW22762   1.937   2.613   1.830  0.2302 -0.2862 -0.1683
 3767SOL    HW122763   1.874   2.551   1.866  0.6924 -2.0026 -2.3127
 3767SOL    HW222764   2.011   2.608   1.890 -0.2198 -1.7404  0.2516
 3768SOL     OW22765   1.292   1.379   4.444  0.7103  0.0537 -0.1721
 3768SOL    HW122766   1.258   1.463   4.416  1.9625  0.8420  0.6651
 3768SOL    HW222767   1.385   1.401   4.452  0.5374  1.0538 -1.0037
 3769SOL     OW22768   1.286   4.317   5.678 -0.1529 -0.0848  0.0768
 3769SOL    HW122769   1.351   4.318   5.749  3.2985  2.3734 -3.1364
 3769SOL    HW222770   1.274   4.412   5.681 -1.9091 -0.2347 -1.8672
 3770SOL     OW22771   0.939   3.687  16.094 -0.0425  0.2014  0.8009
 3770SOL    HW122772   0.894   3.771  16.090 -0.8808 -0.3335 -0.9037
 3770SOL    HW222773   0.993   3.689  16.016 -3.8236  0.9710 -1.8248
 3771SOL     OW22774   4.632   3.794   4.660 -0.4612  0.1450 -0.4260
 3771SOL    HW122775   4.558   3.823   4.606 -0.5077 -0.6386 -0.7863
 3771SOL    HW222776   4.590   3.724   4.712  0.3842  0.1461  0.2541
 3772SOL     OW22777   1.833   0.358   8.560 -0.2651  0.2660  0.1070
 3772SOL    HW122778   1.843   0.453   8.562  0.7387  0.1825 -1.5322
 3772SOL    HW222779   1.902   0.324   8.617  0.6790  0.5404 -0.8984
 3773SOL     OW22780   2.018   2.105   6.871 -0.0568 -0.1333 -0.4683
 3773SOL    HW122781   2.068   2.031   6.836 -0.2786 -0.6779  0.3669
 3773SOL    HW222782   2.089   2.156   6.911  0.7031 -1.6451  0.1107
 3774SOL     OW22783   1.516   0.277   4.900  0.1241  0.5976 -0.4878
 3774SOL    HW122784   1.573   0.353   4.886  1.3861  0.1085  2.0515
 3774SOL    HW222785   1.428   0.301   4.871 -0.0352  1.9593  1.1454
 3775SOL     OW22786   4.254   0.906  10.183 -0.0930 -0.3680  0.4855
 3775SOL    HW122787   4.264   0.965  10.257  0.1100 -0.7536  0.7668
 3775SOL    HW222788   4.228   0.823  10.224  0.7393  0.0061  1.7672
 3776SOL     OW22789   1.142   0.559   9.008  0.5351  0.3623  0.6164
 3776SOL    HW122790   1.233   0.588   9.015  0.4334  0.0523  3.3975
 3776SOL    HW222791   1.123   0.574   8.916 -0.7751  1.9950  1.1489
 3777SOL     OW22792   1.802   2.807   3.555  0.2394 -0.3288  0.0743
 3777SOL    HW122793   1.843   2.893   3.555  1.9602 -1.1552 -1.4888
 3777SOL    HW222794   1.868   2.761   3.608 -0.6593 -0.9836  0.6265
 3778SOL     OW22795   3.265   0.195   9.995 -0.2619 -0.4060 -0.1088
 3778SOL    HW122796   3.330   0.124   9.991  2.3829  1.9227  1.2507
 3778SOL    HW222797   3.181   0.157   9.969 -0.5878  0.9638 -1.0255
 3779SOL     OW22798   3.639   0.573  15.911  0.6382  0.1216 -0.1813
 3779SOL    HW122799   3.705   0.525  15.861 -0.8291  0.1781 -2.1390
 3779SOL    HW222800   3.559   0.551  15.865  0.5927 -1.8944  0.8708
 3780SOL     OW22801   1.239   2.800   8.315  0.8550 -0.0646 -0.1546
 3780SOL    HW122802   1.282   2.854   8.382 -1.1434 -0.6768  1.6130
 3780SOL    HW222803   1.149   2.830   8.324  0.5931 -0.3583 -1.8909
 3781SOL     OW22804   1.451   2.811   3.729 -0.0472  0.3439  0.6209
 3781SOL    HW122805   1.479   2.840   3.642 -1.5264  0.1169  0.0708
 3781SOL    HW222806   1.359   2.834   3.719  0.2229  1.2855  0.2853
 3782SOL     OW22807   4.316   3.948   8.512 -0.6904 -0.6350  0.0506
 3782SOL    HW122808   4.250   4.015   8.494  1.0711  1.5591  1.8575
 3782SOL    HW222809   4.279   3.911   8.592 -0.3265 -0.6112  0.2299
 3783SOL     OW22810   4.059   3.266   8.811 -0.2244  0.5781 -0.3331
 3783SOL    HW122811   4.076   3.223   8.894 -1.2131 -1.4259 -1.1701
 3783SOL    HW222812   3.980   3.222   8.779 -0.4235  0.6649  0.0384
 3784SOL     OW22813   2.011   0.058  12.671 -0.3790  0.9467 -0.1681
 3784SOL    HW122814   2.041   0.111  12.598  1.9529 -1.4040 -0.8924
 3784SOL    HW222815   2.091   0.015  12.701 -1.1029  1.4671  2.5417
 3785SOL     OW22816   3.126   1.531  16.849  0.0672  0.4547  0.3939
 3785SOL    HW122817   3.053   1.506  16.906  1.3133 -0.0815  1.7313
 3785SOL    HW222818   3.171   1.447  16.855  0.6371  0.7714  0.4751
 3786SOL     OW22819   2.232   1.352   9.387 -0.0378  0.2595  0.3047
 3786SOL    HW122820   2.215   1.346   9.293 -1.2550 -0.2043  0.5590
 3786SOL    HW222821   2.320   1.314   9.390 -1.4385 -2.9358  0.9763
 3787SOL     OW22822   4.347   4.389   0.442 -0.5246 -0.3007  0.3152
 3787SOL    HW122823   4.304   4.385   0.357  0.2867  1.1007 -0.1638
 3787SOL    HW222824   4.437   4.361   0.427 -0.9013 -1.6271  0.5875
 3788SOL     OW22825   3.657   2.218   1.031  0.1523 -0.1863 -0.0316
 3788SOL    HW122826   3.720   2.161   1.074  0.3149  0.6504  0.8409
 3788SOL    HW222827   3.599   2.239   1.104  0.4561 -1.7273  0.6547
 3789SOL     OW22828   0.245   4.381   2.408  0.7753  0.0895 -0.1897
 3789SOL    HW122829   0.297   4.428   2.344  0.0424 -0.4658 -1.1974
 3789SOL    HW222830   0.218   4.299   2.367 -1.6879  0.2751  1.0754
 3790SOL     OW22831   3.040   1.544   5.304  0.4554  0.2002 -0.4580
 3790SOL    HW122832   3.063   1.499   5.385  1.4318  1.0032 -0.2941
 3790SOL    HW222833   2.945   1.556   5.311  0.6076  2.2020 -1.8086
 3791SOL     OW22834   3.297   3.123  10.742  0.6220 -0.1243  0.8271
 3791SOL    HW122835   3.372   3.070  10.768  1.4660  0.5711 -0.1719
 3791SOL    HW222836   3.251   3.120  10.826 -1.1736  0.3625 -0.1218
 3792SOL     OW22837   3.277   1.110   6.572  0.3367  0.2588 -0.2916
 3792SOL    HW122838   3.202   1.056   6.545  0.2286 -0.4193  1.3785
 3792SOL    HW222839   3.293   1.163   6.494  4.7760 -2.8980 -1.5293
 3793SOL     OW22840   3.134   1.515   6.890  0.1517 -0.7641 -0.1917
 3793SOL    HW122841   3.121   1.420   6.882 -0.0735 -0.6378 -1.3516
 3793SOL    HW222842   3.203   1.517   6.956 -0.3615  0.4118  0.3075
 3794SOL     OW22843   1.513   4.713  13.892  0.0785  0.1854  0.3490
 3794SOL    HW122844   1.448   4.679  13.954  0.5838  0.7020  1.1737
 3794SOL    HW222845   1.468   0.060  13.847 -2.0982 -0.0527  2.0806
 3795SOL     OW22846   4.219   2.017   4.718  0.0329 -0.5498 -0.2552
 3795SOL    HW122847   4.125   2.026   4.703 -0.1900 -3.3625 -0.6297
 3795SOL    HW222848   4.245   2.106   4.742 -1.4375  0.6359 -3.1133
 3796SOL     OW22849   0.890   3.896   7.016  0.0799  0.2372 -0.2812
 3796SOL    HW122850   0.900   3.905   7.111 -2.1831 -1.6446  0.1244
 3796SOL    HW222851   0.878   3.989   6.997  0.4442  0.8664  2.5163
 3797SOL     OW22852   3.937   0.972   0.714  0.7917  0.5642 -0.3689
 3797SOL    HW122853   3.928   1.067   0.705  1.5071  0.6606 -0.0672
 3797SOL    HW222854   3.857   0.934   0.677  0.2766  1.8711 -0.6407
 3798SOL     OW22855   2.003   3.891  10.964  0.3405  0.6994 -0.3821
 3798SOL    HW122856   2.030   3.961  10.904  1.0678  3.0213  2.6241
 3798SOL    HW222857   2.083   3.851  10.996 -0.1595 -0.8489 -1.1034
 3799SOL     OW22858   2.694   0.455  16.076  0.3162  0.5054 -0.6809
 3799SOL    HW122859   2.703   0.539  16.120  0.3569  0.4919 -0.6630
 3799SOL    HW222860   2.599   0.458  16.072  0.1667 -2.1595  0.5649
 3800SOL     OW22861   0.345   4.647   2.806  0.6130  0.1380 -0.7268
 3800SOL    HW122862   0.305   4.664   2.720 -1.5929 -0.9235  0.0933
 3800SOL    HW222863   0.276   4.599   2.852 -0.1083  0.3491 -1.5810
 3801SOL     OW22864   4.040   0.323   8.342  0.3238  0.1071 -0.5601
 3801SOL    HW122865   3.973   0.304   8.408  2.2790 -0.1970  1.3552
 3801SOL    HW222866   4.119   0.332   8.396  0.1003  0.0061 -0.2205
 3802SOL     OW22867   4.183   2.078   3.980 -0.2319  0.1220  0.2569
 3802SOL    HW122868   4.141   1.997   3.952  1.9679 -1.3755  1.2720
 3802SOL    HW222869   4.220   2.054   4.065 -1.2258 -2.5116 -0.0706
 3803SOL     OW22870   1.299   0.069   5.863 -1.0052  0.4838  0.1677
 3803SOL    HW122871   1.356   0.139   5.894 -2.0191  0.7660  1.4006
 3803SOL    HW222872   1.268   0.037   5.948 -1.7615  0.1765 -0.2207
 3804SOL     OW22873   4.061   4.556   8.212 -0.6690 -0.4533  0.5363
 3804SOL    HW122874   4.140   4.504   8.194 -1.0102 -0.6333 -0.4151
 3804SOL    HW222875   4.060   4.591   8.123 -0.7724 -1.1720  0.2512
 3805SOL     OW22876   4.535   4.538   8.640  0.4342 -0.0683 -0.0787
 3805SOL    HW122877   4.582   4.606   8.590  1.6961 -1.0802 -0.2619
 3805SOL    HW222878   4.444   4.568   8.647  0.4761 -0.1113  0.6227
 3806SOL     OW22879   3.330   2.823   3.751  0.4243 -0.3777  0.9360
 3806SOL    HW122880   3.264   2.793   3.688 -1.2910  0.4742  2.3409
 3806SOL    HW222881   3.407   2.822   3.694  0.7721 -0.8667  1.4210
 3807SOL     OW22882   0.923   0.583  13.411  0.1782 -0.1785  0.2719
 3807SOL    HW122883   0.853   0.525  13.442  1.8915 -1.1326  2.3470
 3807SOL    HW222884   1.003   0.540  13.442  0.0045 -1.2894 -0.8401
 3808SOL     OW22885   0.221   1.768   4.982  0.2485 -0.4161 -0.3013
 3808SOL    HW122886   0.137   1.778   4.938 -0.5492  2.4639  1.8699
 3808SOL    HW222887   0.237   1.677   4.958  1.2028 -0.0832 -0.9285
 3809SOL     OW22888   0.284   0.491   7.159 -0.0760 -0.5557 -0.4666
 3809SOL    HW122889   0.218   0.432   7.194 -0.2314  0.2344  0.5645
 3809SOL    HW222890   0.348   0.434   7.116  0.0834 -0.7225 -0.0070
 3810SOL     OW22891   0.474   3.484  10.871  0.2399 -0.3445 -0.1225
 3810SOL    HW122892   0.568   3.475  10.887  0.5185  0.0989 -1.5250
 3810SOL    HW222893   0.440   3.444  10.951 -0.1213  0.4977  0.1497
 3811SOL     OW22894   2.611   2.040   4.339  0.3713 -0.3135 -0.3692
 3811SOL    HW122895   2.624   1.945   4.334  1.6539 -0.2491  1.5816
 3811SOL    HW222896   2.518   2.054   4.325  0.1951 -1.4352 -0.2769
 3812SOL     OW22897   4.279   3.613   4.965 -0.6056  0.3243 -0.7648
 3812SOL    HW122898   4.313   3.702   4.959 -0.2808  0.2932  0.6547
 3812SOL    HW222899   4.214   3.615   4.895 -0.0627  5.4048 -1.1252
 3813SOL     OW22900   0.026   2.289   7.674  0.4503 -0.2891  0.3894
 3813SOL    HW122901   4.690   2.285   7.600 -1.3019 -0.2370  1.8196
 3813SOL    HW222902   4.719   2.214   7.725  0.4405  0.7142  1.8745
 3814SOL     OW22903   2.999   3.082   7.461  0.2876  0.4134  0.2701
 3814SOL    HW122904   2.975   3.152   7.401  2.0507  0.0453 -0.8563
 3814SOL    HW222905   3.093   3.095   7.474  0.4204 -2.0470  1.8180
 3815SOL     OW22906   4.351   4.100   9.101  0.1560  0.1171  0.3557
 3815SOL    HW122907   4.335   4.155   9.178 -1.5072 -0.5590  0.4852
 3815SOL    HW222908   4.299   4.023   9.123  0.7977 -0.3099  0.3747
 3816SOL     OW22909   4.441   0.764  10.566  0.1345 -0.1053 -0.1529
 3816SOL    HW122910   4.369   0.824  10.583  1.1082  1.3911 -1.2772
 3816SOL    HW222911   4.494   0.804  10.635  0.7576 -1.3827  0.1152
 3817SOL     OW22912   2.639   3.212   3.393 -0.0077  0.1159  0.7463
 3817SOL    HW122913   2.640   3.122   3.360  1.7092  0.6553 -0.6979
 3817SOL    HW222914   2.732   3.233   3.394 -0.3646  1.6582  1.0715
 3818SOL     OW22915   0.999   0.427   8.112  0.0084 -0.6166  0.1064
 3818SOL    HW122916   0.941   0.481   8.058 -1.7565 -3.1565 -0.5301
 3818SOL    HW222917   0.964   0.454   8.197 -1.6729  3.3259 -1.8609
 3819SOL     OW22918   1.387   0.083  15.253 -1.0943 -0.1275  0.2262
 3819SOL    HW122919   1.326   0.020  15.215  0.5113 -0.1127 -2.3621
 3819SOL    HW222920   1.458   0.076  15.189 -1.5751  2.0025 -0.5799
 3820SOL     OW22921   1.465   1.452   6.168  0.3636 -0.5473 -0.2304
 3820SOL    HW122922   1.430   1.363   6.167 -0.9047 -0.0656  0.9667
 3820SOL    HW222923   1.525   1.446   6.243 -0.6302 -0.2995  0.5955
 3821SOL     OW22924   3.509   4.090   1.998  0.0463  0.1206  0.0472
 3821SOL    HW122925   3.483   4.121   2.084 -0.3204 -1.9662  0.7048
 3821SOL    HW222926   3.583   4.141   1.966  1.2439 -0.5989  1.6888
 3822SOL     OW22927   4.428   0.643   7.121 -1.2974 -0.0442  0.0595
 3822SOL    HW122928   4.380   0.616   7.199  0.3050 -0.4981  0.8765
 3822SOL    HW222929   4.364   0.623   7.053 -1.8650  2.0217 -0.0387
 3823SOL     OW22930   2.828   4.242   1.864 -0.1615  0.0907 -0.4344
 3823SOL    HW122931   2.888   4.217   1.934 -0.5555  0.5307  0.0584
 3823SOL    HW222932   2.892   4.245   1.793  0.4249 -0.7999  0.0681
 3824SOL     OW22933   1.085   1.661   8.666 -0.5674 -0.5570  0.2028
 3824SOL    HW122934   1.036   1.743   8.672  0.5929  0.3053 -2.2473
 3824SOL    HW222935   1.174   1.683   8.639 -0.2997  0.1265  1.6087
 3825SOL     OW22936   0.898   1.275   3.496 -0.1135 -0.4292  0.8095
 3825SOL    HW122937   0.847   1.261   3.576  0.4434  0.0635  1.2477
 3825SOL    HW222938   0.985   1.293   3.531  0.2358  0.7366 -0.6454
 3826SOL     OW22939   0.688   2.765   2.324 -0.3618 -0.3952  0.0000
 3826SOL    HW122940   0.642   2.810   2.253  1.4976  0.3465 -0.7538
 3826SOL    HW222941   0.627   2.696   2.348  0.7272 -1.8681 -1.4644
 3827SOL     OW22942   0.845   1.410  15.510 -0.3708  0.5838  0.3936
 3827SOL    HW122943   0.831   1.503  15.526  1.7268  0.8048  0.9731
 3827SOL    HW222944   0.765   1.360  15.527 -0.6071 -0.3051 -3.3205
 3828SOL     OW22945   2.008   3.357   3.642 -0.0605  0.1177 -0.1050
 3828SOL    HW122946   2.065   3.311   3.581  0.0295 -0.0739  0.1238
 3828SOL    HW222947   2.069   3.425   3.671  1.1647 -1.0087 -0.0557
 3829SOL     OW22948   1.909   1.657   7.410  0.1344  0.0305 -0.2152
 3829SOL    HW122949   1.988   1.604   7.400  0.9489  0.8862  1.7127
 3829SOL    HW222950   1.899   1.696   7.323 -2.3316 -0.4220 -0.1376
 3830SOL     OW22951   1.212   2.785   6.568 -0.3185  0.0289 -0.2326
 3830SOL    HW122952   1.212   2.881   6.573 -0.5166 -0.1429  2.8240
 3830SOL    HW222953   1.304   2.775   6.591 -0.0255  0.6845 -1.0940
 3831SOL     OW22954   0.588   3.439   4.187 -0.2804  0.0893  0.2442
 3831SOL    HW122955   0.586   3.422   4.281  4.9980 -0.3885  0.3162
 3831SOL    HW222956   0.668   3.492   4.187 -0.4149  0.2918  0.0577
 3832SOL     OW22957   2.380   2.301   6.263  0.2553 -0.1186 -0.1275
 3832SOL    HW122958   2.305   2.355   6.288  0.7331 -0.1054  1.3073
 3832SOL    HW222959   2.395   2.345   6.180  0.0656 -0.2444 -0.2267
 3833SOL     OW22960   0.061   4.478   7.255 -0.0981  0.1662  0.0202
 3833SOL    HW122961   4.704   4.448   7.216 -0.1978  1.5006 -0.7787
 3833SOL    HW222962   0.093   4.391   7.281  1.9027  0.9220  0.0500
 3834SOL     OW22963   1.208   2.999   3.795 -0.5726  0.0365  0.1054
 3834SOL    HW122964   1.130   3.043   3.828 -0.9749  0.7841 -1.8622
 3834SOL    HW222965   1.250   3.076   3.756  3.7106 -1.3260  2.0606
 3835SOL     OW22966   0.762   0.390   2.597  0.0086 -0.5984 -0.3278
 3835SOL    HW122967   0.707   0.451   2.548 -0.6983 -0.8292  0.1753
 3835SOL    HW222968   0.699   0.342   2.651 -1.8201  0.7788 -1.2230
 3836SOL     OW22969   1.949   3.233   8.953 -0.1978  0.4541  0.1501
 3836SOL    HW122970   1.920   3.146   8.979  0.2223 -0.1735 -1.4572
 3836SOL    HW222971   2.041   3.222   8.926 -0.6276  0.1099 -1.1877
 3837SOL     OW22972   1.015   2.503   7.629  0.1236 -0.1068  0.7699
 3837SOL    HW122973   1.052   2.423   7.591 -3.2238 -2.2960  2.1074
 3837SOL    HW222974   1.063   2.569   7.577  1.6494 -0.9675  1.0804
 3838SOL     OW22975   1.568   0.475   2.800 -0.4878 -0.5554 -0.0307
 3838SOL    HW122976   1.488   0.430   2.825 -0.7989  1.0195  1.8558
 3838SOL    HW222977   1.634   0.429   2.853 -0.2073  0.3153  0.3810
 3839SOL     OW22978   0.723   4.608   5.680  0.0235 -0.4065 -0.7255
 3839SOL    HW122979   0.690   4.627   5.768 -0.9415 -2.1344 -0.7195
 3839SOL    HW222980   0.675   4.666   5.621 -0.2001  0.4300  0.2767
 3840SOL     OW22981   4.041   4.396   4.012 -0.8973  0.5191 -0.2458
 3840SOL    HW122982   4.093   4.342   3.953  1.4224  1.8726  0.5612
 3840SOL    HW222983   4.104   4.462   4.041  1.3155 -1.4759 -0.4859
 3841SOL     OW22984   3.828   1.990   3.218 -0.3181  0.2660 -0.0398
 3841SOL    HW122985   3.912   1.946   3.206 -0.5674 -0.3748  0.5927
 3841SOL    HW222986   3.773   1.916   3.194  1.6577 -1.3996  0.5501
 3842SOL     OW22987   2.532   0.014  12.325 -0.0814  0.3816 -0.5488
 3842SOL    HW122988   2.566   0.102  12.308 -1.1224  0.8648 -0.1051
 3842SOL    HW222989   2.454   0.034  12.376 -0.2653 -0.3902 -0.5318
 3843SOL     OW22990   3.952   2.185   9.093  0.1038  0.3803  0.3588
 3843SOL    HW122991   3.887   2.143   9.036 -0.1580  1.1225  0.1131
 3843SOL    HW222992   4.025   2.164   9.035  0.2084  0.3364  0.5054
 3844SOL     OW22993   4.282   4.498   1.248  0.2802  0.2403  0.0236
 3844SOL    HW122994   4.369   4.463   1.228  0.9030  2.5419 -1.2488
 3844SOL    HW222995   4.306   4.586   1.278  0.7635  0.6452 -1.5472
 3845SOL     OW22996   3.767   3.801   4.041  0.2432  0.0731 -0.3670
 3845SOL    HW122997   3.785   3.737   4.111 -0.8750  0.2255  0.0569
 3845SOL    HW222998   3.836   3.860   4.071 -1.2959  0.2445  2.8896
 3846SOL     OW22999   0.546   0.071  16.911  0.2922  0.0596  0.0246
 3846SOL    HW123000   0.628   0.119  16.902  0.5530 -0.5729 -0.8449
 3846SOL    HW223001   0.513   0.109  16.993 -0.8870 -0.8634 -0.0207
 3847SOL     OW23002   2.148   0.389   8.606 -0.0518  0.2835  0.9923
 3847SOL    HW123003   2.223   0.447   8.618 -0.2473  0.1877  2.7701
 3847SOL    HW223004   2.096   0.415   8.682  0.4265 -1.0121  1.7699
 3848SOL     OW23005   0.695   0.955  13.588 -0.4752 -0.3281  0.0060
 3848SOL    HW123006   0.761   0.949  13.520 -2.1887 -1.6259 -1.5394
 3848SOL    HW223007   0.634   1.025  13.564  0.8820  0.6430 -0.5721
 3849SOL     OW23008   1.287   3.726   5.429 -0.1041 -0.2900  0.0074
 3849SOL    HW123009   1.248   3.813   5.426  2.0107  0.6251 -0.9719
 3849SOL    HW223010   1.339   3.723   5.348  1.5885  0.3968  1.0727
 3850SOL     OW23011   2.196   4.370  16.000 -0.6026  0.3700 -0.6156
 3850SOL    HW123012   2.140   4.430  16.049  0.2490  2.7022 -2.4818
 3850SOL    HW223013   2.218   4.436  15.933  1.7561 -0.5596 -0.7641
 3851SOL     OW23014   0.975   0.532   5.870  0.0073 -0.5791  0.7219
 3851SOL    HW123015   1.041   0.501   5.808 -0.0614 -3.3525  2.0266
 3851SOL    HW223016   0.902   0.564   5.819 -1.1066  1.1474  3.4230
 3852SOL     OW23017   0.840   4.663  15.394  0.9085 -0.3127  0.3250
 3852SOL    HW123018   0.752   4.657  15.431  0.2445  0.7570 -1.1208
 3852SOL    HW223019   0.882   4.616  15.467  2.7914  2.5103  1.0684
 3853SOL     OW23020   2.444   0.322   3.550 -0.0030 -0.4171  0.3924
 3853SOL    HW123021   2.434   0.244   3.496 -1.2234 -1.3613  1.9697
 3853SOL    HW223022   2.387   0.386   3.508 -0.4242 -0.7868  0.3955
 3854SOL     OW23023   4.129   2.127   8.173  0.3290  0.3803 -0.2271
 3854SOL    HW123024   4.182   2.078   8.236  0.0846  1.0582  0.5074
 3854SOL    HW223025   4.051   2.073   8.158 -0.3125  0.5678  2.4085
 3855SOL     OW23026   1.675   3.563   5.322 -0.8183 -0.1781  0.3088
 3855SOL    HW123027   1.621   3.574   5.401  0.7911  2.7525  1.0381
 3855SOL    HW223028   1.761   3.549   5.363 -1.2172  0.5249  1.4156
 3856SOL     OW23029   3.817   0.625  12.341  0.2550  0.5859  0.0418
 3856SOL    HW123030   3.902   0.659  12.314  0.4056 -0.6937 -1.1217
 3856SOL    HW223031   3.836   0.547  12.394  0.9923  0.5990 -0.2182
 3857SOL     OW23032   2.258   3.464   6.649  0.3945 -0.0210 -0.1347
 3857SOL    HW123033   2.218   3.506   6.572  0.1538 -2.0987 -1.1502
 3857SOL    HW223034   2.216   3.378   6.653 -1.0327  0.5267 -2.9450
 3858SOL     OW23035   3.280   2.396   7.500  0.1181 -0.2834 -0.5230
 3858SOL    HW123036   3.319   2.368   7.583  1.6775  2.3915 -0.3515
 3858SOL    HW223037   3.257   2.485   7.530  2.1711 -0.5698  1.8918
 3859SOL     OW23038   3.318   3.869  13.647  0.2018  0.3289  0.2126
 3859SOL    HW123039   3.412   3.867  13.629  0.2786  0.0594  0.6388
 3859SOL    HW223040   3.296   3.943  13.590 -1.7568 -0.2010  0.2797
 3860SOL     OW23041   1.569   3.367   1.976 -0.2902  0.1283 -0.1958
 3860SOL    HW123042   1.475   3.383   1.962 -0.9677 -3.0963  0.8100
 3860SOL    HW223043   1.564   3.325   2.062 -1.6201 -0.3277 -0.4922
 3861SOL     OW23044   2.677   1.516  11.226  0.6496 -0.6513  0.2395
 3861SOL    HW123045   2.707   1.544  11.312  0.4791 -0.1850  0.1453
 3861SOL    HW223046   2.760   1.494  11.183  2.0154 -0.6717  2.9157
 3862SOL     OW23047   0.044   0.515   7.335  0.6538 -0.0296  0.0157
 3862SOL    HW123048   4.704   0.498   7.403  0.8704  1.8739  0.6694
 3862SOL    HW223049   0.059   0.425   7.304 -0.2365  0.0322 -0.6087
 3863SOL     OW23050   1.639   3.902   1.660 -0.3235  0.1096  0.1370
 3863SOL    HW123051   1.555   3.890   1.616  0.4358  1.4974 -1.6899
 3863SOL    HW223052   1.624   3.965   1.730 -1.7971 -1.0828  0.8965
 3864SOL     OW23053   2.124   3.464   9.422  0.5303 -0.3831 -0.1026
 3864SOL    HW123054   2.190   3.410   9.466  0.3209  0.2144  0.9286
 3864SOL    HW223055   2.180   3.536   9.395 -0.9297  1.4546  1.8203
 3865SOL     OW23056   4.041   3.744  16.369 -0.4069 -0.4509  0.3725
 3865SOL    HW123057   4.114   3.682  16.367 -1.5215 -1.7110 -1.2295
 3865SOL    HW223058   4.087   3.827  16.356  0.8810 -1.4796 -1.5268
 3866SOL     OW23059   2.977   3.217   7.705 -0.3468 -0.5834 -0.5030
 3866SOL    HW123060   2.974   3.152   7.634  0.4271  0.0619 -1.1282
 3866SOL    HW223061   3.016   3.295   7.664  0.5946 -0.7214  0.1363
 3867SOL     OW23062   3.320   1.397   3.221  0.3785 -0.0721  0.1483
 3867SOL    HW123063   3.396   1.361   3.267  1.0092  0.5522 -0.4093
 3867SOL    HW223064   3.309   1.478   3.270  2.4669 -0.1216  0.7121
 3868SOL     OW23065   4.095   3.819  16.064  0.3806 -0.2125  0.3947
 3868SOL    HW123066   4.034   3.745  16.066  1.2953 -0.9850 -0.1241
 3868SOL    HW223067   4.138   3.798  15.981  0.2493 -1.8637  0.7306
 3869SOL     OW23068   2.861   0.191  11.320 -0.3002 -0.1195 -0.0596
 3869SOL    HW123069   2.775   0.205  11.360 -0.0162  0.1580  0.4620
 3869SOL    HW223070   2.841   0.220  11.231  0.9895  0.6001 -0.1130
 3870SOL     OW23071   1.006   0.181  13.096  0.0910  0.1800 -0.7506
 3870SOL    HW123072   1.061   0.231  13.156  0.7078 -1.6797  0.2418
 3870SOL    HW223073   1.074   0.161  13.032  0.9110 -0.1625  0.2299
 3871SOL     OW23074   4.724   0.697   1.369 -0.7978 -0.0726  0.7153
 3871SOL    HW123075   4.708   0.609   1.403  0.8654 -0.2424  1.0756
 3871SOL    HW223076   4.634   0.727   1.360 -0.8051 -0.3341 -0.1373
 3872SOL     OW23077   1.107   0.892   3.161 -0.3564 -0.0416  0.2477
 3872SOL    HW123078   1.154   0.960   3.210  2.4958 -0.2090 -2.2772
 3872SOL    HW223079   1.022   0.892   3.205  0.3526 -0.4870  1.6344
 3873SOL     OW23080   3.861   2.715  15.817 -0.6879 -0.0988  0.1463
 3873SOL    HW123081   3.820   2.801  15.814 -0.3380  0.1292  1.9293
 3873SOL    HW223082   3.952   2.720  15.846 -0.2722  0.2422 -1.2180
 3874SOL     OW23083   3.343   2.283   1.975  0.7858 -0.0372  0.3712
 3874SOL    HW123084   3.295   2.327   1.904 -0.3732 -1.4856  0.2455
 3874SOL    HW223085   3.388   2.364   2.001  0.5793  0.1784  0.0650
 3875SOL     OW23086   4.481   4.422   7.120 -0.4932 -0.2055 -0.1327
 3875SOL    HW123087   4.489   4.336   7.162 -2.8647 -0.8527 -0.9537
 3875SOL    HW223088   4.419   4.405   7.049 -0.9151 -0.1110  0.2111
 3876SOL     OW23089   1.370   4.483   1.734 -0.8057 -0.1494 -0.3812
 3876SOL    HW123090   1.387   4.423   1.662  0.9535  0.1469 -0.2173
 3876SOL    HW223091   1.380   4.416   1.801 -0.6027 -0.9455 -1.2086
 3877SOL     OW23092   2.831   1.556   3.191 -0.4352  0.9054 -0.3549
 3877SOL    HW123093   2.850   1.478   3.138 -1.1151  1.1272 -0.9253
 3877SOL    HW223094   2.787   1.518   3.267 -1.9823  1.5669 -0.9280
 3878SOL     OW23095   3.597   3.871  11.796  0.1989 -0.2075 -0.6038
 3878SOL    HW123096   3.627   3.822  11.872 -1.8386 -0.8146 -0.1923
 3878SOL    HW223097   3.556   3.808  11.736 -2.4836  0.9360  0.0397
 3879SOL     OW23098   2.931   0.583  11.518 -0.2127 -0.0748  0.4977
 3879SOL    HW123099   2.922   0.487  11.513 -1.2831  0.0855 -0.7296
 3879SOL    HW223100   3.012   0.581  11.467  0.5729 -0.8024  1.7611
 3880SOL     OW23101   3.091   0.450   6.261  0.1703 -0.7932  0.1951
 3880SOL    HW123102   3.000   0.430   6.282  0.7539 -3.2625  0.3337
 3880SOL    HW223103   3.094   0.391   6.186  1.3860  0.7358 -0.9900
 3881SOL     OW23104   4.228   1.684  17.427  0.3041 -0.1216  0.8562
 3881SOL    HW123105   4.283   1.610  17.403  0.0618 -0.3430  0.9903
 3881SOL    HW223106   4.215   1.712  17.337  0.9734 -0.2711  0.7077
 3882SOL     OW23107   1.418   1.198   9.299  0.4083  0.0116  0.1375
 3882SOL    HW123108   1.381   1.246   9.373  0.9773  1.3431 -0.4488
 3882SOL    HW223109   1.339   1.179   9.249  0.9796  2.4188 -1.6878
 3883SOL     OW23110   0.014   1.530   9.090  0.0132  0.5940 -0.1974
 3883SOL    HW123111   4.717   1.605   9.035 -0.5716  0.3360 -0.3152
 3883SOL    HW223112   0.109   1.540   9.092  0.2958 -1.7731 -1.1127
 3884SOL     OW23113   2.344   0.072   3.408 -0.0666  0.5153 -0.4248
 3884SOL    HW123114   2.335   0.030   3.322  2.0925  0.2802 -0.5393
 3884SOL    HW223115   2.393   4.723   3.443 -0.0208  1.2640  1.0881
 3885SOL     OW23116   3.728   3.900   6.986 -0.5584 -0.5818  0.7161
 3885SOL    HW123117   3.780   3.841   6.931 -0.0063  0.2127  0.4021
 3885SOL    HW223118   3.799   3.937   7.038  0.2942 -1.1027 -0.0677
 3886SOL     OW23119   3.315   0.183   3.649  0.0134  0.4426  0.0443
 3886SOL    HW123120   3.366   0.200   3.728 -0.0248  0.1904  0.1241
 3886SOL    HW223121   3.226   0.206   3.676 -1.3343 -1.3887 -2.7972
 3887SOL     OW23122   4.050   4.519   6.120 -0.8312  0.4043  0.9580
 3887SOL    HW123123   4.077   4.434   6.154  1.1505  0.0894 -1.3006
 3887SOL    HW223124   4.054   4.493   6.027  1.5612  0.5869  0.9945
 3888SOL     OW23125   4.366   3.425   9.512  0.4053  0.2281 -0.1958
 3888SOL    HW123126   4.439   3.368   9.538  0.9516  0.2520 -1.7203
 3888SOL    HW223127   4.292   3.365   9.510  1.4827 -1.0658 -1.5478
 3889SOL     OW23128   3.238   1.293   2.731  0.0155 -0.4277  0.2216
 3889SOL    HW123129   3.235   1.370   2.673 -2.2429  0.7549  1.9084
 3889SOL    HW223130   3.144   1.279   2.733 -0.0828 -0.2654 -2.8161
 3890SOL     OW23131   2.875   0.812   4.298 -0.5202  0.2612 -0.2034
 3890SOL    HW123132   2.838   0.885   4.248 -2.0313  0.4769  1.2526
 3890SOL    HW223133   2.800   0.765   4.334 -1.0796 -0.1866 -1.9746
 3891SOL     OW23134   0.214   1.239   2.028  0.2075  0.2501 -0.3770
 3891SOL    HW123135   0.151   1.173   2.000 -0.9080  0.6303  1.2054
 3891SOL    HW223136   0.281   1.183   2.067  0.4782  1.0794  0.3639
 3892SOL     OW23137   3.476   1.476   4.065  0.0150  0.7127 -0.0941
 3892SOL    HW123138   3.551   1.429   4.029  0.5337  0.1346  1.7389
 3892SOL    HW223139   3.528   1.514   4.136 -1.2572  0.8886  0.7373
 3893SOL     OW23140   0.374   3.967   6.777  0.2924  1.0474 -0.1106
 3893SOL    HW123141   0.391   3.937   6.867  0.5968 -0.4149 -0.6571
 3893SOL    HW223142   0.361   4.060   6.793  0.3229  0.7897  1.4277
 3894SOL     OW23143   2.150   3.905   8.615  0.4561 -0.7143  0.2204
 3894SOL    HW123144   2.203   3.892   8.693  0.9535 -1.0244 -0.1633
 3894SOL    HW223145   2.057   3.903   8.638 -0.0172  0.0086 -1.6037
 3895SOL     OW23146   1.932   1.049   7.811 -0.3103 -0.3652 -0.4576
 3895SOL    HW123147   1.933   1.133   7.855 -2.4550  0.2123 -1.5347
 3895SOL    HW223148   1.862   1.062   7.747 -1.5666 -1.6656  0.6616
 3896SOL     OW23149   0.724   1.524  14.636  0.7390  0.3674 -0.0523
 3896SOL    HW123150   0.714   1.558  14.725 -0.0424 -0.0435  0.0162
 3896SOL    HW223151   0.640   1.482  14.620  1.5458 -0.3493 -2.3072
 3897SOL     OW23152   4.283   3.099  13.652  0.3617  0.0856  0.2573
 3897SOL    HW123153   4.295   3.142  13.567  0.2996 -1.0267 -0.3093
 3897SOL    HW223154   4.357   3.139  13.698 -0.2421  2.4130 -0.7619
 3898SOL     OW23155   4.271   3.866   4.615 -0.0984  0.0574 -0.1528
 3898SOL    HW123156   4.207   3.797   4.629 -1.0480  1.0155  0.2107
 3898SOL    HW223157   4.218   3.946   4.610 -0.5949 -0.2341  0.4060
 3899SOL     OW23158   3.702   0.520   1.398 -0.4388 -0.8231 -0.4938
 3899SOL    HW123159   3.755   0.498   1.321  0.5991 -2.4172  0.6593
 3899SOL    HW223160   3.667   0.607   1.384  0.1966 -0.6295 -0.8793
 3900SOL     OW23161   3.640   4.547   4.860 -0.0880  0.2416 -0.3389
 3900SOL    HW123162   3.655   4.573   4.950 -0.1959 -0.6255 -0.0729
 3900SOL    HW223163   3.638   4.635   4.822 -0.2379  0.9615  1.3791
 3901SOL     OW23164   3.240   2.674   8.602  0.5411  0.1453 -0.3213
 3901SOL    HW123165   3.264   2.605   8.540 -2.6163 -1.2041 -0.0716
 3901SOL    HW223166   3.302   2.657   8.673  0.8979 -1.7104 -1.0790
 3902SOL     OW23167   3.755   3.926   1.590  0.4216 -0.0847 -0.2105
 3902SOL    HW123168   3.773   3.842   1.548  0.6099  0.2961 -0.9061
 3902SOL    HW223169   3.776   3.975   1.510  0.7296  0.4816  0.2102
 3903SOL     OW23170   4.231   0.003   5.214  0.1393 -0.7991 -0.2419
 3903SOL    HW123171   4.262   0.004   5.305  1.2122  2.8690 -0.6645
 3903SOL    HW223172   4.171   4.654   5.224  0.5007 -0.8968  1.3176
 3904SOL     OW23173   1.835   2.244   6.390 -0.4575  0.5204 -0.0436
 3904SOL    HW123174   1.865   2.239   6.480 -1.3208  1.0135  0.2736
 3904SOL    HW223175   1.868   2.331   6.366  2.0547 -0.6169 -0.7175
 3905SOL     OW23176   2.333   3.766   6.665  0.8077  0.4686 -0.3765
 3905SOL    HW123177   2.319   3.768   6.759  2.6998 -0.8749 -0.0475
 3905SOL    HW223178   2.383   3.684   6.655 -0.0218 -0.1401  0.5573
 3906SOL     OW23179   0.115   2.489   8.154  0.4134 -0.8837 -0.1144
 3906SOL    HW123180   0.069   2.443   8.084 -0.8262 -2.4060  1.7174
 3906SOL    HW223181   0.108   2.413   8.212 -0.3048 -0.4118  0.4084
 3907SOL     OW23182   4.657   1.591   7.102 -0.2065 -0.1925  0.4424
 3907SOL    HW123183   4.630   1.543   7.180  1.0963 -1.5835  0.0536
 3907SOL    HW223184   4.573   1.588   7.057 -0.9078 -1.6842  1.8856
 3908SOL     OW23185   4.554   0.903   7.435 -0.1480  0.0565  0.6861
 3908SOL    HW123186   4.535   0.977   7.376  0.1254 -0.8733 -0.5689
 3908SOL    HW223187   4.468   0.862   7.433 -0.4570  0.7596 -1.2821
 3909SOL     OW23188   1.326   2.503   9.382 -0.3352 -0.2297  0.0874
 3909SOL    HW123189   1.318   2.582   9.329 -1.1458  0.7522  1.6539
 3909SOL    HW223190   1.312   2.548   9.465  2.1352  1.6643 -0.5187
 3910SOL     OW23191   1.443   0.002  15.514  0.2123  0.1008 -0.1199
 3910SOL    HW123192   1.360   4.718  15.560 -0.2354  0.6560 -0.8098
 3910SOL    HW223193   1.416   0.048  15.435  3.8942  3.5218  0.5968
 3911SOL     OW23194   2.761   2.269   3.202  0.1399 -0.3489  0.2151
 3911SOL    HW123195   2.845   2.224   3.210  0.4152  0.3057  1.0632
 3911SOL    HW223196   2.727   2.223   3.126 -2.6662  1.8995  0.1271
 3912SOL     OW23197   2.809   4.389   8.571 -0.9304 -0.3806 -0.4625
 3912SOL    HW123198   2.760   4.356   8.496  0.1260 -0.3541 -1.1571
 3912SOL    HW223199   2.893   4.349   8.550 -0.4755 -1.0701  2.6620
 3913SOL     OW23200   3.452   0.559  15.473  0.7699  0.1745  0.1321
 3913SOL    HW123201   3.489   0.551  15.385  0.0041  0.7619 -0.2504
 3913SOL    HW223202   3.357   0.552  15.462  0.7858 -0.4816  0.4123
 3914SOL     OW23203   2.269   3.800   1.259 -0.2568 -0.0644 -0.3949
 3914SOL    HW123204   2.195   3.749   1.290  0.0743 -0.8067 -0.8381
 3914SOL    HW223205   2.257   3.769   1.169 -0.0140 -0.5324 -0.2642
 3915SOL     OW23206   2.810   2.485   5.612  0.1074  0.5636  0.0485
 3915SOL    HW123207   2.746   2.554   5.630  0.3213  0.6952  0.3043
 3915SOL    HW223208   2.753   2.415   5.643  0.3773  0.4904  0.3744
 3916SOL     OW23209   0.280   4.005   6.024  0.7558  0.1382  0.1592
 3916SOL    HW123210   0.359   4.046   6.058  0.1838  0.9670  0.4962
 3916SOL    HW223211   0.208   4.040   6.077  1.5532  0.0877  1.2769
 3917SOL     OW23212   1.974   3.586   1.723 -0.3425 -0.1921  0.0345
 3917SOL    HW123213   1.931   3.645   1.785 -3.1267 -0.2985 -1.8231
 3917SOL    HW223214   2.064   3.589   1.758  0.4941  0.4027 -2.1744
 3918SOL     OW23215   4.199   3.669   3.555 -0.4144  0.0938  0.1125
 3918SOL    HW123216   4.201   3.678   3.460  1.7920  0.5969  0.2060
 3918SOL    HW223217   4.227   3.579   3.571 -3.3124 -0.9129 -0.4961
 3919SOL     OW23218   0.935   4.718   8.564  0.4016 -0.8497  0.0282
 3919SOL    HW123219   0.900   0.014   8.478  2.0205  0.8862 -0.2108
 3919SOL    HW223220   1.018   0.040   8.564 -0.3463  0.4457  2.4701
 3920SOL     OW23221   1.606   2.601   4.076 -0.1764 -0.0617  0.2708
 3920SOL    HW123222   1.565   2.687   4.088 -2.3648 -1.1379  0.6047
 3920SOL    HW223223   1.640   2.614   3.987  1.9658 -2.7561  0.7031
 3921SOL     OW23224   4.127   0.902   9.097  0.0839  0.0086 -0.1988
 3921SOL    HW123225   4.110   0.952   9.018 -0.6381  1.4978  0.9011
 3921SOL    HW223226   4.108   0.813   9.069 -1.7944  0.0889  0.8232
 3922SOL     OW23227   1.917   0.125   2.854 -0.2324  0.0971 -0.1321
 3922SOL    HW123228   1.882   0.060   2.915 -0.6714  0.7614  0.3325
 3922SOL    HW223229   1.834   0.134   2.808  0.0144  1.0574 -0.3919
 3923SOL     OW23230   2.941   2.450   9.009 -0.1740 -0.7144 -0.3442
 3923SOL    HW123231   2.899   2.504   8.942 -0.4841 -0.4804  0.0351
 3923SOL    HW223232   2.863   2.450   9.065 -0.4931 -2.2026 -0.7886
 3924SOL     OW23233   0.913   3.926  12.802 -0.3711  0.0184 -0.1211
 3924SOL    HW123234   0.893   3.901  12.892 -2.7310 -0.8731 -0.9048
 3924SOL    HW223235   1.004   3.956  12.812 -0.0181 -0.6280 -1.4150
 3925SOL     OW23236   3.485   2.677   3.564 -0.1039  0.2516 -0.3230
 3925SOL    HW123237   3.573   2.690   3.601 -0.2226  2.5596 -0.8726
 3925SOL    HW223238   3.494   2.602   3.506 -2.2231  0.1727 -0.5331
 3926SOL     OW23239   2.706   1.043   6.910  0.7266  0.6467  0.2219
 3926SOL    HW123240   2.672   1.123   6.871 -2.7683 -0.0490  1.8713
 3926SOL    HW223241   2.763   1.004   6.844 -3.2701 -2.2496 -1.4663
 3927SOL     OW23242   4.230   3.335   8.304  0.0660  0.6170  0.3397
 3927SOL    HW123243   4.231   3.335   8.400  0.6758  0.2881  0.3336
 3927SOL    HW223244   4.322   3.313   8.293 -0.0121  0.3535  0.2017
 3928SOL     OW23245   1.766   3.348  14.164  0.1042 -0.5276  0.5036
 3928SOL    HW123246   1.812   3.290  14.225  2.0082  0.7978  0.3280
 3928SOL    HW223247   1.796   3.436  14.187 -1.0436 -0.0568  0.2236
 3929SOL     OW23248   2.012   1.865   5.667 -0.6790 -0.3401  0.1407
 3929SOL    HW123249   2.056   1.922   5.730  0.1142 -0.8662  0.0698
 3929SOL    HW223250   1.921   1.884   5.686 -0.5341  0.9205 -0.4695
 3930SOL     OW23251   4.104   1.888   3.139 -0.0258 -0.0742  0.3466
 3930SOL    HW123252   4.071   1.902   3.050  0.7382  0.3596  0.1324
 3930SOL    HW223253   4.109   1.978   3.169 -2.0556  0.8988 -2.1456
 3931SOL     OW23254   2.221   0.173   4.572 -0.2170  0.8078 -0.4466
 3931SOL    HW123255   2.315   0.158   4.557 -0.1263 -0.6373  1.7044
 3931SOL    HW223256   2.195   0.081   4.575 -1.0193  0.9782 -2.2609
 3932SOL     OW23257   3.849   0.498   2.512 -0.3794 -0.3553 -0.3906
 3932SOL    HW123258   3.814   0.559   2.446 -1.4040  0.0225  0.4961
 3932SOL    HW223259   3.804   0.540   2.585  0.8265  1.6432 -0.8044
 3933SOL     OW23260   3.428   3.637   5.203 -0.4232  0.2267  0.3016
 3933SOL    HW123261   3.450   3.545   5.219 -2.2156 -0.2661 -0.0984
 3933SOL    HW223262   3.519   3.655   5.177  0.4171 -0.6308  2.6398
 3934SOL     OW23263   0.884   1.272  12.626 -0.4910 -0.4338  0.4062
 3934SOL    HW123264   0.963   1.236  12.668 -1.1005 -0.8179  1.2262
 3934SOL    HW223265   0.815   1.231  12.678 -1.2390  0.8297  0.3914
 3935SOL     OW23266   1.586   3.527   3.620 -0.5863 -0.0724  0.3499
 3935SOL    HW123267   1.627   3.610   3.595  0.7605 -1.0135 -0.5703
 3935SOL    HW223268   1.632   3.467   3.562  2.6263  3.1990 -0.4976
 3936SOL     OW23269   0.211   2.180   6.262 -0.0561  0.2690 -0.0143
 3936SOL    HW123270   0.253   2.146   6.340 -0.9490 -1.0834 -0.1232
 3936SOL    HW223271   0.290   2.214   6.219  0.3975  1.2963  1.6267
 3937SOL     OW23272   1.481   2.662   7.772 -0.5803  0.3716 -0.2622
 3937SOL    HW123273   1.433   2.593   7.727  1.8918  0.0818 -2.4064
 3937SOL    HW223274   1.476   2.727   7.701  2.0549 -1.4311 -2.0798
 3938SOL     OW23275   0.178   2.608  10.117 -0.3194 -0.2240  0.4612
 3938SOL    HW123276   0.191   2.677  10.052  0.4706  0.5531  1.4662
 3938SOL    HW223277   0.267   2.608  10.150 -0.4574 -0.4392  0.8235
 3939SOL     OW23278   3.944   1.444   4.233 -0.3267 -0.0800  0.3864
 3939SOL    HW123279   3.941   1.399   4.149 -1.3252 -1.5557  1.2053
 3939SOL    HW223280   4.033   1.477   4.246 -0.7702  2.2394 -2.4177
 3940SOL     OW23281   1.247   4.036  17.488  0.0575  1.1159 -0.5144
 3940SOL    HW123282   1.199   3.962  17.451 -0.1426  2.0205 -2.0501
 3940SOL    HW223283   1.320   4.045  17.427  0.5613  2.7141  0.3089
 3941SOL     OW23284   2.416   0.886   8.927 -0.3832  0.4531 -0.0990
 3941SOL    HW123285   2.352   0.909   8.860 -0.0466 -0.7450 -0.8276
 3941SOL    HW223286   2.374   0.879   9.013 -0.4830 -0.3821 -0.2127
 3942SOL     OW23287   2.878   2.175   8.894  0.0527  0.4475  0.3648
 3942SOL    HW123288   2.962   2.198   8.934  0.7994 -4.0699  1.4013
 3942SOL    HW223289   2.890   2.081   8.884  1.9204  0.6583  0.5901
 3943SOL     OW23290   3.434   4.331  17.596  0.0923  0.5257 -0.4407
 3943SOL    HW123291   3.510   4.338  17.653 -1.7172  1.7419  1.8650
 3943SOL    HW223292   3.450   4.240  17.574 -2.1443  0.2429 -0.8733
 3944SOL     OW23293   1.003   3.206   7.878 -0.0574 -0.4263 -0.1473
 3944SOL    HW123294   0.939   3.219   7.948 -0.0741  2.2338 -0.6349
 3944SOL    HW223295   0.949   3.212   7.799  2.1486  3.1713 -1.3873
 3945SOL     OW23296   2.497   4.509   7.543  0.2562  0.0987  0.0570
 3945SOL    HW123297   2.483   4.528   7.450 -0.9115 -0.3360  0.1505
 3945SOL    HW223298   2.455   4.425   7.557 -0.8845  0.8353  1.0501
 3946SOL     OW23299   3.562   0.818  12.065  0.0705  0.1112 -0.7640
 3946SOL    HW123300   3.549   0.735  12.110  0.6875  1.9764  2.8288
 3946SOL    HW223301   3.657   0.825  12.070  0.0896 -0.0223 -0.9633
 3947SOL     OW23302   4.657   3.698   0.407  0.4116 -0.5731 -0.3160
 3947SOL    HW123303   4.568   3.728   0.386  1.4068  1.1992 -2.0023
 3947SOL    HW223304   4.704   3.780   0.422 -1.7224  0.4408  0.8393
 3948SOL     OW23305   3.493   1.870   7.782  0.6792 -0.7256  0.3356
 3948SOL    HW123306   3.569   1.923   7.808  1.3288 -2.6211  2.2879
 3948SOL    HW223307   3.422   1.934   7.776  1.7313  0.6189  2.1678
 3949SOL     OW23308   0.352   3.631   6.798  0.0582 -0.4172 -0.5566
 3949SOL    HW123309   0.430   3.637   6.742 -0.2610  1.5235 -0.8101
 3949SOL    HW223310   0.288   3.656   6.731 -2.1542 -2.9648  0.6256
 3950SOL     OW23311   4.494   4.247   2.186 -0.2097  0.0153 -0.3942
 3950SOL    HW123312   4.533   4.170   2.229 -0.3987  1.0205  1.5738
 3950SOL    HW223313   4.425   4.205   2.135 -0.9983  0.4234  0.3496
 3951SOL     OW23314   1.154   4.450   5.955 -0.4258  0.5411  0.1314
 3951SOL    HW123315   1.159   4.356   5.939 -0.6489  0.4128  0.8122
 3951SOL    HW223316   1.228   4.473   6.011  1.6919 -1.7685 -1.7393
 3952SOL     OW23317   0.949   1.970   9.250  0.4202  0.0672  0.0727
 3952SOL    HW123318   0.864   2.014   9.251 -0.8436 -2.4208  1.6965
 3952SOL    HW223319   1.011   2.041   9.232  1.5251 -0.5213  1.5281
 3953SOL     OW23320   1.008   2.107  14.000 -0.4066  0.4094  0.1364
 3953SOL    HW123321   1.051   2.134  14.081 -0.2213  0.4733  0.0173
 3953SOL    HW223322   0.931   2.164  13.992 -1.0528 -0.1893  2.0968
 3954SOL     OW23323   0.633   1.542   8.332  0.0362  0.1927 -0.0842
 3954SOL    HW123324   0.697   1.553   8.401 -0.2164  0.8421  0.0476
 3954SOL    HW223325   0.664   1.461   8.290  0.5067  0.2047  0.2471
 3955SOL     OW23326   0.786   0.162  11.768 -0.2255 -0.5923 -0.0106
 3955SOL    HW123327   0.868   0.135  11.810 -0.1771  0.3703  0.5240
 3955SOL    HW223328   0.722   0.169  11.839  1.2872 -0.7312  1.3866
 3956SOL     OW23329   0.702   1.385   9.255 -0.4154  0.0576  0.1639
 3956SOL    HW123330   0.701   1.388   9.351 -0.0914  3.2623  0.0914
 3956SOL    HW223331   0.623   1.335   9.235  1.5854 -2.1974 -2.1079
 3957SOL     OW23332   0.467   1.597   5.703  0.0227  0.2787  0.0268
 3957SOL    HW123333   0.560   1.574   5.698  0.0435  0.6135 -1.0628
 3957SOL    HW223334   0.464   1.664   5.635 -0.5984  0.2361  0.0107
 3958SOL     OW23335   1.533   1.304   6.628 -0.6702  0.4399 -0.1164
 3958SOL    HW123336   1.557   1.296   6.720  3.3482 -2.9096 -1.4714
 3958SOL    HW223337   1.480   1.228   6.605 -0.6378  0.0969  0.9189
 3959SOL     OW23338   2.791   2.301  17.495 -0.3184 -0.2482  0.0223
 3959SOL    HW123339   2.742   2.330  17.572 -1.9591 -1.5889 -0.5084
 3959SOL    HW223340   2.776   2.207  17.506  1.0069 -0.3412  0.9976
 3960SOL     OW23341   0.204   0.629  16.359 -0.9684 -0.0779  0.4447
 3960SOL    HW123342   0.195   0.598  16.449 -0.1948  2.0623  1.2519
 3960SOL    HW223343   0.168   0.551  16.317 -0.9006  0.8038 -1.2463
 3961SOL     OW23344   0.925   4.630  15.830 -0.3909  0.7200  0.1057
 3961SOL    HW123345   0.908   4.572  15.755 -1.6312  2.7845 -1.2261
 3961SOL    HW223346   0.858   4.696  15.810 -0.2560  1.3262  1.7115
 3962SOL     OW23347   2.104   4.157  13.751 -0.3089 -0.5382  0.4202
 3962SOL    HW123348   2.100   4.175  13.845  0.9270 -0.6912  0.4895
 3962SOL    HW223349   2.199   4.162  13.741 -0.2677  0.7213  1.4595
 3963SOL     OW23350   4.212   3.868   5.788  0.6028 -0.1034  0.2557
 3963SOL    HW123351   4.186   3.930   5.856  1.9409  1.4076 -0.6239
 3963SOL    HW223352   4.136   3.811   5.799  1.1494 -0.5281  1.7502
 3964SOL     OW23353   1.414   3.152   8.111  0.0820 -0.0686 -0.0833
 3964SOL    HW123354   1.437   3.167   8.203  0.8968  1.6097 -0.5573
 3964SOL    HW223355   1.326   3.187   8.095  0.1842 -0.9202 -2.4849
 3965SOL     OW23356   4.152   2.441   0.477  0.1991  0.5516  0.2445
 3965SOL    HW123357   4.092   2.405   0.542 -1.2473  0.7921 -0.9642
 3965SOL    HW223358   4.094   2.473   0.409 -1.1865 -0.6551  0.8537
 3966SOL     OW23359   1.333   1.547   5.699  0.1818 -0.4745 -0.0869
 3966SOL    HW123360   1.255   1.591   5.667 -0.0787 -2.0229 -1.5475
 3966SOL    HW223361   1.363   1.500   5.621 -2.2252 -1.0704 -0.6503
 3967SOL     OW23362   0.984   2.504   4.084  0.2206 -0.3195  0.0009
 3967SOL    HW123363   1.008   2.533   3.996 -0.9989 -0.7219 -0.4688
 3967SOL    HW223364   0.956   2.414   4.065 -0.4243 -0.3813  1.2958
 3968SOL     OW23365   3.892   1.747   3.641  0.5068 -0.6231  0.8006
 3968SOL    HW123366   3.805   1.738   3.602 -0.0316 -0.7195  2.0300
 3968SOL    HW223367   3.936   1.672   3.602 -0.6809 -0.7279 -0.3397
 3969SOL     OW23368   2.948   1.222   5.411 -0.1279  0.1582  0.0335
 3969SOL    HW123369   3.016   1.155   5.408  0.5768  0.8550  0.6340
 3969SOL    HW223370   2.998   1.285   5.463 -1.8437 -0.0699  1.9524
 3970SOL     OW23371   3.932   3.358   7.987  0.4875  0.6049  0.5374
 3970SOL    HW123372   3.960   3.439   7.945  0.3265  1.7687  2.6735
 3970SOL    HW223373   3.938   3.387   8.077  2.5968  1.0710  0.2466
 3971SOL     OW23374   4.062   4.031   6.825 -0.2110  0.1494  0.0870
 3971SOL    HW123375   4.138   4.033   6.766  0.7962  1.3783  1.4021
 3971SOL    HW223376   4.007   3.976   6.770 -0.1449  1.1073 -0.9469
 3972SOL     OW23377   2.964   3.877   9.750  0.1156 -0.3157 -0.0522
 3972SOL    HW123378   3.051   3.913   9.732 -0.5532  0.6635 -1.2746
 3972SOL    HW223379   2.974   3.801   9.692 -0.5326 -1.2372  1.0610
 3973SOL     OW23380   1.673   4.619   0.504  0.2994  0.0356 -0.1066
 3973SOL    HW123381   1.727   4.586   0.576 -1.3502  0.0397  1.1363
 3973SOL    HW223382   1.670   4.713   0.526 -0.6769 -0.3104  1.2076
 3974SOL     OW23383   1.383   1.443   9.020  0.3750  0.3157  0.0243
 3974SOL    HW123384   1.318   1.390   8.974  1.1615 -0.9983  0.4216
 3974SOL    HW223385   1.348   1.532   9.016  0.8373  0.4647 -0.8497
 3975SOL     OW23386   1.034   3.895   6.326 -0.0219 -0.9161  0.2541
 3975SOL    HW123387   0.965   3.944   6.281  1.0718  0.0676 -0.3628
 3975SOL    HW223388   0.996   3.808   6.342 -0.7879 -0.5430  0.4421
 3976SOL     OW23389   2.164   0.650   7.875  0.3489 -0.1047 -0.0934
 3976SOL    HW123390   2.225   0.706   7.923  1.3191  0.4871 -2.0624
 3976SOL    HW223391   2.099   0.628   7.943 -0.0401  1.0373 -0.1037
 3977SOL     OW23392   0.081   2.305  14.701  0.6430  0.0269  0.4087
 3977SOL    HW123393   0.065   2.360  14.778  1.8612  1.2031 -0.1789
 3977SOL    HW223394   0.061   2.219  14.738 -0.8677  0.4943  0.6544
 3978SOL     OW23395   3.098   0.020   4.623  0.1434  0.1236  0.2486
 3978SOL    HW123396   3.056   4.697   4.551 -2.2987 -0.9006  2.3469
 3978SOL    HW223397   3.097   0.107   4.583  2.4837  1.3206  2.8378
 3979SOL     OW23398   0.437   0.078   6.181  0.4772 -0.0043 -0.1394
 3979SOL    HW123399   0.496   0.009   6.213  2.3946  0.9439 -1.5794
 3979SOL    HW223400   0.473   0.090   6.093  1.7213  1.9558  0.6417
 3980SOL     OW23401   4.671   4.024   5.079 -0.7186  0.0819  0.0173
 3980SOL    HW123402   4.698   4.113   5.100  0.7200 -0.4297  0.3016
 3980SOL    HW223403   4.575   4.032   5.078 -0.7876 -0.9384 -1.9974
 3981SOL     OW23404   2.739   0.303   7.721 -0.1214  0.4402  0.2158
 3981SOL    HW123405   2.650   0.288   7.752  0.9280 -2.0982  2.0288
 3981SOL    HW223406   2.782   0.225   7.757 -0.9317 -1.0340 -1.9951
 3982SOL     OW23407   0.851   4.403  10.637  0.1199 -0.2310 -0.0402
 3982SOL    HW123408   0.923   4.459  10.668 -0.1864  1.7242 -2.7670
 3982SOL    HW223409   0.893   4.356  10.565 -2.9309 -0.0804 -1.8836
 3983SOL     OW23410   4.195   1.050   4.689  0.5755  0.5407 -0.1904
 3983SOL    HW123411   4.275   1.100   4.702 -1.0001  2.4143  2.2581
 3983SOL    HW223412   4.133   1.107   4.734 -1.2309 -2.3963  1.0467
 3984SOL     OW23413   4.250   2.460   8.377  0.4825 -0.3807 -0.1344
 3984SOL    HW123414   4.187   2.440   8.446 -0.6269 -1.3814 -1.4453
 3984SOL    HW223415   4.204   2.412   8.308 -0.1053 -2.2278  1.5300
 3985SOL     OW23416   2.615   2.160   8.899 -0.4190 -0.2169  0.5392
 3985SOL    HW123417   2.610   2.249   8.865 -3.2533 -0.9258 -0.8922
 3985SOL    HW223418   2.710   2.153   8.905 -0.3061 -0.6311 -1.9335
 3986SOL     OW23419   4.062   2.681  17.443 -0.3116  0.7193 -0.7626
 3986SOL    HW123420   4.041   2.695  17.351 -0.0495  0.9031 -0.7974
 3986SOL    HW223421   4.037   2.762  17.487 -0.1542 -0.2875  1.1728
 3987SOL     OW23422   4.097   0.943  13.996 -0.6782  0.7194 -0.2277
 3987SOL    HW123423   4.159   0.996  13.945  1.5830 -2.8695 -1.1834
 3987SOL    HW223424   4.036   0.922  13.925 -2.2376  0.5671  1.1730
 3988SOL     OW23425   3.789   1.201   9.132  0.1965 -0.6419  0.1935
 3988SOL    HW123426   3.802   1.179   9.040  1.4410  2.7213 -0.4060
 3988SOL    HW223427   3.862   1.150   9.167  3.3362  2.9964 -1.2026
 3989SOL     OW23428   4.438   1.169   1.789  0.3330 -0.2086  0.2028
 3989SOL    HW123429   4.429   1.205   1.700  0.3815  0.1452  0.3397
 3989SOL    HW223430   4.401   1.238   1.844  2.3408  0.6496  0.4965
 3990SOL     OW23431   3.322   3.520   9.076  0.5167  0.1161  0.6108
 3990SOL    HW123432   3.416   3.503   9.085  0.6720  1.0735  0.8718
 3990SOL    HW223433   3.309   3.522   9.171 -0.2368  0.7377  0.4940
 3991SOL     OW23434   1.828   1.743   8.914  0.2806  0.4529  0.1372
 3991SOL    HW123435   1.826   1.725   8.821 -1.4796 -0.1005  0.2875
 3991SOL    HW223436   1.758   1.687   8.948 -0.2405  1.5737  0.9324
 3992SOL     OW23437   4.092   3.358   7.117 -0.7285  0.5246 -0.5018
 3992SOL    HW123438   4.023   3.368   7.182  0.0927  1.0707  0.2827
 3992SOL    HW223439   4.103   3.265   7.098 -0.7776  0.3852  0.1610
 3993SOL     OW23440   2.379   4.451   0.688 -0.2206  0.3757 -0.1912
 3993SOL    HW123441   2.428   4.370   0.699  1.0876  0.9206 -1.9494
 3993SOL    HW223442   2.359   4.439   0.595  1.6853 -0.8652 -0.4411
 3994SOL     OW23443   2.658   2.383  16.746  0.2995  0.4192  0.0702
 3994SOL    HW123444   2.637   2.290  16.739 -0.8586  0.6232  0.8548
 3994SOL    HW223445   2.740   2.377  16.696  1.0272  1.2061  1.1735
 3995SOL     OW23446   4.657   2.844   1.220 -0.1492  0.3294  0.3330
 3995SOL    HW123447   0.004   2.782   1.219 -1.3969 -1.0724 -1.6242
 3995SOL    HW223448   4.613   2.825   1.138 -1.3602 -2.4743  1.6226
 3996SOL     OW23449   3.784   3.368   2.583  0.1813 -0.0037  0.3345
 3996SOL    HW123450   3.813   3.440   2.639  2.5183  1.1226 -2.3113
 3996SOL    HW223451   3.690   3.385   2.590 -0.0997 -1.3822 -0.1979
 3997SOL     OW23452   1.745   0.271   2.231 -0.0760 -0.0110 -0.1928
 3997SOL    HW123453   1.731   0.258   2.138 -0.0337  1.2859 -0.3865
 3997SOL    HW223454   1.660   0.243   2.265  0.6638 -2.8105 -0.6896
 3998SOL     OW23455   2.161   1.438   2.047  0.2078 -0.3348  0.2973
 3998SOL    HW123456   2.077   1.400   2.073  0.2083 -0.4066  0.1968
 3998SOL    HW223457   2.129   1.513   1.996 -2.8944 -0.4759  2.0281
 3999SOL     OW23458   4.585   1.473   7.330  0.2601 -0.6002  0.3832
 3999SOL    HW123459   4.522   1.427   7.386  0.2548 -1.0118  0.0386
 3999SOL    HW223460   4.669   1.457   7.374  0.9688  0.6569 -0.5154
 4000SOL     OW23461   0.404   3.636  12.197 -0.1432  0.6201 -0.0135
 4000SOL    HW123462   0.483   3.633  12.143 -0.5534  0.3936 -0.6015
 4000SOL    HW223463   0.349   3.575  12.147  1.4989  0.5689 -1.7903
 4001SOL     OW23464   3.467   1.751  12.961  0.4320 -0.0206  0.1323
 4001SOL    HW123465   3.524   1.754  13.038 -1.6890 -0.5144  1.7401
 4001SOL    HW223466   3.382   1.752  13.005  0.8580 -0.7231  0.9720
 4002SOL     OW23467   2.348   0.046   1.308 -0.6623 -0.4079 -0.1083
 4002SOL    HW123468   2.410   0.020   1.376 -1.4846 -0.2144  0.7050
 4002SOL    HW223469   2.367   4.706   1.240  2.7345  3.6405 -3.0560
 4003SOL     OW23470   3.663   4.081   9.074  0.3100  0.4521  0.4201
 4003SOL    HW123471   3.697   4.026   9.003  1.3732  1.7413 -0.0646
 4003SOL    HW223472   3.619   4.155   9.032  0.3941  0.1228 -0.2514
 4004SOL     OW23473   2.436   2.636   3.306  0.2503  0.3139 -0.0216
 4004SOL    HW123474   2.424   2.623   3.212 -0.7609  1.6878 -0.0795
 4004SOL    HW223475   2.401   2.554   3.342  1.7287 -0.7495 -0.9622
 4005SOL     OW23476   4.507   4.199   7.313  0.3129  0.4208 -0.1291
 4005SOL    HW123477   4.590   4.159   7.336  0.5151  0.9308  0.0262
 4005SOL    HW223478   4.452   4.121   7.306  0.2161  0.4595  0.1958
 4006SOL     OW23479   4.596   4.220   2.505 -0.5724  0.4976 -0.1959
 4006SOL    HW123480   4.645   4.187   2.581 -1.5400 -2.0467 -0.6803
 4006SOL    HW223481   4.660   4.216   2.434  0.7853 -0.4337  1.0587
 4007SOL     OW23482   3.925   1.440  12.667  0.5499 -0.0499  0.7235
 4007SOL    HW123483   3.882   1.437  12.753 -0.6280 -0.1465  0.1344
 4007SOL    HW223484   3.864   1.492  12.616 -1.1629 -2.1911  0.5808
 4008SOL     OW23485   1.206   3.138   7.229  0.1750  0.0016 -0.3509
 4008SOL    HW123486   1.215   3.134   7.324 -2.2379 -0.0694 -0.1136
 4008SOL    HW223487   1.197   3.232   7.215 -0.6101  0.1503  1.2279
 4009SOL     OW23488   0.237   0.679   8.754 -0.0514 -0.5941 -0.0315
 4009SOL    HW123489   0.148   0.713   8.765  0.7166  1.6581 -0.7880
 4009SOL    HW223490   0.270   0.737   8.686  1.1566 -2.3166 -0.8950
 4010SOL     OW23491   0.021   4.301   8.590  0.0756 -0.1376 -0.3608
 4010SOL    HW123492   0.111   4.316   8.620  0.2618  1.3836 -1.6635
 4010SOL    HW223493   4.704   4.383   8.617 -1.2186 -1.2341  0.8756
 4011SOL     OW23494   1.795   2.964   8.597 -0.5218  0.0762  0.3246
 4011SOL    HW123495   1.875   2.989   8.643  0.7630 -0.5354 -1.5501
 4011SOL    HW223496   1.753   2.899   8.653 -1.9844 -0.1924 -1.0992
 4012SOL     OW23497   3.974   4.008   4.166  0.5149  0.3477 -0.2068
 4012SOL    HW123498   3.929   3.997   4.250  0.4425 -0.0389 -0.2965
 4012SOL    HW223499   4.056   4.056   4.182  0.4387 -0.7298  3.3325
 4013SOL     OW23500   0.639   3.538   6.919 -0.0703 -0.1032  0.8339
 4013SOL    HW123501   0.615   3.546   6.827 -0.2747 -0.2554  0.8733
 4013SOL    HW223502   0.723   3.493   6.913 -1.8793 -3.4006  0.0475
 4014SOL     OW23503   3.011   0.873   4.561  0.0221 -0.0336  0.2252
 4014SOL    HW123504   2.944   0.851   4.496 -0.0653 -1.4069  0.7853
 4014SOL    HW223505   3.062   0.943   4.520 -0.4847 -0.1774 -0.6658
 4015SOL     OW23506   1.038   4.145   0.913 -0.3845  0.4590  0.1527
 4015SOL    HW123507   1.100   4.103   0.972  0.7444  0.4792 -1.0257
 4015SOL    HW223508   0.965   4.117   0.968  0.0209  1.6906  1.2960
 4016SOL     OW23509   2.685   4.588  17.245  0.0487  0.0835 -0.6603
 4016SOL    HW123510   2.705   4.656  17.309 -0.9255 -0.7579  0.5239
 4016SOL    HW223511   2.776   4.583  17.216  0.9163 -1.4487  2.3638
 4017SOL     OW23512   4.394   0.169   2.459  0.2435 -0.1128 -0.7059
 4017SOL    HW123513   4.352   0.095   2.504  1.7762  2.1435  4.3442
 4017SOL    HW223514   4.372   0.147   2.368 -3.5046 -0.9474  0.3683
 4018SOL     OW23515   0.007   4.605   4.673 -0.0342 -0.2543 -0.2946
 4018SOL    HW123516   4.700   4.692   4.697 -0.4730 -0.6584  0.6069
 4018SOL    HW223517   4.687   4.559   4.743  1.4557 -0.0644  0.8025
 4019SOL     OW23518   1.419   3.793   0.684 -0.1599 -0.6070 -0.1414
 4019SOL    HW123519   1.381   3.784   0.597 -2.4219 -3.0602  1.0930
 4019SOL    HW223520   1.357   3.846   0.733  1.2012  1.5656 -0.7882
 4020SOL     OW23521   2.588   1.151   4.710  0.0018  0.5644  0.0791
 4020SOL    HW123522   2.644   1.155   4.787 -0.5445 -0.1133  0.5145
 4020SOL    HW223523   2.561   1.059   4.707 -2.6832  1.2842  2.8699
 4021SOL     OW23524   2.486   2.554   3.016 -0.2721  0.1392  0.4713
 4021SOL    HW123525   2.483   2.465   2.979  0.8566  0.9664 -1.6399
 4021SOL    HW223526   2.574   2.581   2.993  0.1516 -0.6031  1.2291
 4022SOL     OW23527   2.300   2.008  13.571 -0.3104 -0.7106 -0.3450
 4022SOL    HW123528   2.245   2.082  13.545 -0.2980 -0.1663  1.1503
 4022SOL    HW223529   2.228   1.945  13.578 -1.0361  0.1836  0.2720
 4023SOL     OW23530   4.023   3.033   9.010  0.8780 -0.5463 -0.1768
 4023SOL    HW123531   4.112   3.002   8.995  0.7457 -0.6861 -0.6531
 4023SOL    HW223532   3.968   2.962   8.976 -0.4318  0.1663  0.4575
 4024SOL     OW23533   0.954   0.020  12.792  0.1290  0.4812 -0.1487
 4024SOL    HW123534   0.989   0.049  12.708  1.8771 -0.3897  0.2773
 4024SOL    HW223535   0.917   0.096  12.835 -0.1616  1.1350 -1.5699
 4025SOL     OW23536   0.459   3.701   0.083 -0.1518  0.7771 -0.3866
 4025SOL    HW123537   0.474   3.791   0.056  1.1452  0.4742 -0.6351
 4025SOL    HW223538   0.529   3.692   0.146 -0.9985 -0.2915  0.3963
 4026SOL     OW23539   4.724   0.184   5.739  0.0348 -0.8476 -0.1524
 4026SOL    HW123540   4.640   0.139   5.748  0.8448 -2.4992 -0.8131
 4026SOL    HW223541   4.708   0.263   5.687  0.6568 -1.3210 -1.0563
 4027SOL     OW23542   0.833   1.719   2.639  0.3525  0.2084  0.4698
 4027SOL    HW123543   0.780   1.711   2.718 -0.0400  0.6293  0.2472
 4027SOL    HW223544   0.772   1.670   2.583  0.8044  0.7878 -0.5281
 4028SOL     OW23545   1.745   4.103  14.480  0.5934 -0.1223  0.3471
 4028SOL    HW123546   1.698   4.165  14.424 -1.2897  0.1250  2.1795
 4028SOL    HW223547   1.805   4.058  14.421 -0.2546 -2.0935  0.9593
 4029SOL     OW23548   3.558   3.328   8.869 -0.0295  0.2589  0.1614
 4029SOL    HW123549   3.572   3.407   8.923 -1.9007  0.4404  0.3902
 4029SOL    HW223550   3.554   3.269   8.944 -1.9403 -0.8935 -0.8775
 4030SOL     OW23551   2.097   0.615  15.422 -0.1720  0.1012 -0.7573
 4030SOL    HW123552   2.044   0.580  15.494 -1.3795 -0.2314 -1.8156
 4030SOL    HW223553   2.111   0.702  15.460 -0.1622  0.1851 -0.9549
 4031SOL     OW23554   0.660   3.002   5.815  0.3705  0.2984  0.0281
 4031SOL    HW123555   0.570   3.027   5.796  0.7571  0.3291 -1.7552
 4031SOL    HW223556   0.639   2.911   5.835 -0.6872  0.4048 -0.6386
 4032SOL     OW23557   3.384   4.524   8.009 -0.2122 -0.2601 -0.1405
 4032SOL    HW123558   3.346   4.473   7.937 -0.5802 -1.5092  0.9473
 4032SOL    HW223559   3.477   4.530   7.988  0.0122 -1.9476  0.3761
 4033SOL     OW23560   3.098   3.859   0.850 -0.4196 -0.3362  0.0191
 4033SOL    HW123561   3.152   3.884   0.924  0.3392 -0.0326 -0.6419
 4033SOL    HW223562   3.014   3.903   0.863 -1.3254 -1.6292 -1.3798
 4034SOL     OW23563   2.020   0.593   2.780 -0.1298  0.0089  0.3116
 4034SOL    HW123564   2.109   0.617   2.755  0.0242 -0.9429 -0.0612
 4034SOL    HW223565   2.039   0.509   2.823  0.2489 -0.1678 -0.2037
 4035SOL     OW23566   0.988   0.991   9.207 -0.3532  0.0816  0.4599
 4035SOL    HW123567   0.999   0.996   9.302 -0.9149 -1.1977  0.5907
 4035SOL    HW223568   0.896   1.002   9.186  0.0974  2.2400 -0.3997
 4036SOL     OW23569   2.920   3.229   2.656 -0.0796  0.4060 -0.0517
 4036SOL    HW123570   2.925   3.139   2.621 -0.0556 -0.1175  1.3237
 4036SOL    HW223571   2.832   3.256   2.631 -0.5924  0.9254  2.3515
 4037SOL     OW23572   4.104   0.284   7.424  0.0855  0.0895  0.2211
 4037SOL    HW123573   4.068   0.203   7.388 -2.1861  1.6439 -1.0272
 4037SOL    HW223574   4.168   0.262   7.492 -0.3537 -1.3412  0.1601
 4038SOL     OW23575   1.741   1.396   6.872  0.3619 -0.7800  0.3625
 4038SOL    HW123576   1.747   1.448   6.952  0.8085  1.4909 -1.1693
 4038SOL    HW223577   1.727   1.307   6.907  1.1548 -1.0164  0.0690
 4039SOL     OW23578   2.985   0.755  10.160  0.2529 -0.0676  0.0828
 4039SOL    HW123579   2.898   0.716  10.161  0.1885  0.0749 -0.0750
 4039SOL    HW223580   3.015   0.737  10.250 -2.0450  4.6126  1.7998
 4040SOL     OW23581   3.854   0.372  14.276 -0.1796 -0.4220 -0.3371
 4040SOL    HW123582   3.836   0.465  14.267  0.4363 -0.1766  1.0961
 4040SOL    HW223583   3.768   0.342  14.244 -0.3089 -3.3066  2.6870
 4041SOL     OW23584   2.564   3.190   5.328 -0.0967  0.4772 -0.4401
 4041SOL    HW123585   2.565   3.285   5.315  1.0415  0.2937 -1.7285
 4041SOL    HW223586   2.511   3.177   5.407  1.1127  2.1090  0.6431
 4042SOL     OW23587   3.158   0.654   4.962 -0.2313 -0.0509  0.5398
 4042SOL    HW123588   3.075   0.607   4.974 -0.2862 -0.1731 -0.3266
 4042SOL    HW223589   3.217   0.622   5.031  2.0410 -0.5205 -1.6464
 4043SOL     OW23590   2.200   0.904  16.140  0.6567  0.6276 -0.6778
 4043SOL    HW123591   2.133   0.917  16.207  0.7493 -0.2355 -0.4182
 4043SOL    HW223592   2.188   0.989  16.098  0.5875 -0.0970 -2.1380
 4044SOL     OW23593   1.007   1.689   6.212 -0.3932  0.1128 -0.1950
 4044SOL    HW123594   0.987   1.717   6.122  0.8477  0.4513 -0.3721
 4044SOL    HW223595   1.099   1.665   6.204 -0.0180  1.2301  0.8324
 4045SOL     OW23596   2.174   2.440   1.189  0.6103  0.0512  0.2568
 4045SOL    HW123597   2.135   2.502   1.251 -0.4886 -1.1519  0.7458
 4045SOL    HW223598   2.268   2.460   1.187  0.4541  0.7726  0.0644
 4046SOL     OW23599   4.347   4.356   6.880  0.1757  0.3534  0.5345
 4046SOL    HW123600   4.421   4.395   6.833 -2.4034  3.1113 -1.2335
 4046SOL    HW223601   4.277   4.399   6.830 -1.1362  0.2134  2.2872
 4047SOL     OW23602   4.323   1.231   4.914  0.0242  0.1138  0.2016
 4047SOL    HW123603   4.348   1.139   4.919  2.0631  0.7968  2.2986
 4047SOL    HW223604   4.383   1.271   4.976  0.6557 -1.7246  0.7669
 4048SOL     OW23605   2.413   2.051   6.545 -0.3663  0.0177  0.1369
 4048SOL    HW123606   2.402   2.095   6.461 -1.2968  2.9524  1.8239
 4048SOL    HW223607   2.376   1.965   6.524  3.1842 -1.8977  1.6665
 4049SOL     OW23608   2.529   1.326   7.040  0.2374 -0.0754  0.0126
 4049SOL    HW123609   2.551   1.303   6.950  0.9706  0.1304  0.1444
 4049SOL    HW223610   2.599   1.297   7.098  0.1750  1.3339  0.7848
 4050SOL     OW23611   1.029   3.511   4.637 -0.9643  0.1701  0.6888
 4050SOL    HW123612   0.936   3.510   4.660 -0.7050  0.3395  1.7490
 4050SOL    HW223613   1.039   3.437   4.577 -3.6590  2.6268 -2.7072
 4051SOL     OW23614   0.706   2.068   6.446  0.1541 -0.0028  0.7089
 4051SOL    HW123615   0.704   2.093   6.538 -2.0775  0.4273  0.5397
 4051SOL    HW223616   0.774   2.001   6.447  1.6712  1.4478 -3.2953
 4052SOL     OW23617   1.717   0.455   6.485 -0.3024 -0.1928 -0.4869
 4052SOL    HW123618   1.627   0.430   6.502 -0.3977  0.9351  0.6763
 4052SOL    HW223619   1.711   0.546   6.456 -1.9695 -0.4125 -0.8072
 4053SOL     OW23620   0.588   3.413   7.512 -0.4041  0.2327  0.7772
 4053SOL    HW123621   0.527   3.475   7.473 -0.5639 -0.9478 -0.8566
 4053SOL    HW223622   0.535   3.334   7.502  2.7834 -1.7334 -0.5489
 4054SOL     OW23623   0.896   3.179   3.541  0.5002 -0.0460  0.5702
 4054SOL    HW123624   0.979   3.179   3.589  0.2618  1.6412  0.9811
 4054SOL    HW223625   0.860   3.093   3.560  0.4107 -0.4623 -1.5361
 4055SOL     OW23626   4.442   1.725   0.364  0.3794 -0.5054 -0.5038
 4055SOL    HW123627   4.401   1.807   0.336 -0.4658 -0.5452  0.6334
 4055SOL    HW223628   4.508   1.720   0.295  0.5217  1.8389 -0.5304
 4056SOL     OW23629   3.878   0.833   4.503  0.0623 -0.4934  0.4003
 4056SOL    HW123630   3.827   0.913   4.492  1.5003  0.1601 -1.5944
 4056SOL    HW223631   3.968   0.864   4.504 -0.4106  0.8871 -0.4146
 4057SOL     OW23632   0.737   3.846  17.478 -0.5889  0.1001  0.4501
 4057SOL    HW123633   0.697   3.847  17.565  1.7841  1.9063  1.4989
 4057SOL    HW223634   0.770   3.935  17.480  0.7196 -0.3273 -1.5048
 4058SOL     OW23635   4.466   2.031   9.040  0.2990 -0.1068  0.0711
 4058SOL    HW123636   4.407   1.984   9.100  1.5847  0.6531  1.9194
 4058SOL    HW223637   4.528   1.961   9.021 -0.1064 -0.3293 -0.4403
 4059SOL     OW23638   4.679   0.409  11.317 -0.4778  0.3790 -0.3914
 4059SOL    HW123639   0.040   0.396  11.354 -0.6596  2.5542  0.7906
 4059SOL    HW223640   4.679   0.343  11.248  2.8635  0.0708 -0.0850
 4060SOL     OW23641   0.431   0.878   0.911 -0.3749 -0.8653  0.0443
 4060SOL    HW123642   0.407   0.816   0.842 -3.4048  0.2638  0.0956
 4060SOL    HW223643   0.511   0.919   0.879 -0.7280 -0.2346 -0.0251
 4061SOL     OW23644   0.127   0.665   4.711 -0.1753 -0.3000  0.6132
 4061SOL    HW123645   0.174   0.715   4.645  1.7884 -2.2824  0.5109
 4061SOL    HW223646   0.171   0.691   4.792  0.9445  1.7040 -0.6414
 4062SOL     OW23647   3.585   0.905   3.673 -0.8414  0.3904 -0.5381
 4062SOL    HW123648   3.490   0.912   3.679 -0.9993 -1.3222 -1.0386
 4062SOL    HW223649   3.600   0.826   3.725 -0.1615 -1.8278 -4.0481
 4063SOL     OW23650   3.702   1.971   5.487 -0.0632  0.0123 -0.4297
 4063SOL    HW123651   3.649   1.997   5.562 -0.0798 -1.3638  0.0500
 4063SOL    HW223652   3.769   1.913   5.524  0.7898  0.5420 -1.1403
 4064SOL     OW23653   2.650   2.606  14.197  0.0254 -0.1111 -0.4890
 4064SOL    HW123654   2.585   2.643  14.258  1.8214 -1.9651  2.5334
 4064SOL    HW223655   2.620   2.516  14.189 -0.0747 -0.0600 -0.6860
 4065SOL     OW23656   4.061   1.257  17.164 -0.4726  0.1414  0.5436
 4065SOL    HW123657   4.035   1.307  17.242 -0.8181 -1.9299  1.7660
 4065SOL    HW223658   4.096   1.175  17.198 -1.2747 -0.1682  0.6227
 4066SOL     OW23659   1.377   1.667   0.420  0.1960  0.4138 -0.1518
 4066SOL    HW123660   1.325   1.679   0.500  0.8986  2.6825 -0.0531
 4066SOL    HW223661   1.465   1.642   0.446  0.8667  0.0197 -2.7944
 4067SOL     OW23662   1.949   0.110   5.714  0.1519 -0.7240 -0.9381
 4067SOL    HW123663   1.885   0.042   5.698  0.2725 -1.1168  0.2057
 4067SOL    HW223664   1.937   0.167   5.638  0.5966 -2.2635 -2.1631
 4068SOL     OW23665   2.285   3.461   3.784 -0.1589  0.0719 -0.2264
 4068SOL    HW123666   2.295   3.366   3.790 -1.3679  0.0650  1.6987
 4068SOL    HW223667   2.223   3.459   3.857  0.0658 -0.7307 -0.0608
 4069SOL     OW23668   3.186   3.529   7.865  0.0494 -0.2615 -0.2114
 4069SOL    HW123669   3.261   3.532   7.925  1.5504  0.9430 -2.1348
 4069SOL    HW223670   3.113   3.535   7.926 -0.0235  0.5711 -0.3846
 4070SOL     OW23671   0.038   1.575  12.772  0.3048 -1.0320 -0.0005
 4070SOL    HW123672   4.715   1.587  12.690 -0.5853  1.1289  0.8450
 4070SOL    HW223673   4.707   1.600  12.845 -0.5681 -1.7186 -0.4566
 4071SOL     OW23674   3.510   4.410  11.251 -0.5358 -0.0934  0.5459
 4071SOL    HW123675   3.601   4.396  11.227 -0.5950  2.2436 -1.0433
 4071SOL    HW223676   3.463   4.344  11.200 -0.0963 -0.6753  0.8915
 4072SOL     OW23677   1.747   3.336   3.005 -0.1906  0.2616  0.2622
 4072SOL    HW123678   1.747   3.425   2.970 -0.0077  0.3619  0.5091
 4072SOL    HW223679   1.822   3.294   2.963  1.0537  1.4495  1.2987
 4073SOL     OW23680   4.490   4.167   8.403  0.7607 -0.3507  0.2662
 4073SOL    HW123681   4.459   4.084   8.366  0.5368  0.1055 -0.5924
 4073SOL    HW223682   4.528   4.136   8.485  1.0761  0.0890  0.2882
 4074SOL     OW23683   1.920   3.842   7.697  0.1339 -0.2504  0.1624
 4074SOL    HW123684   1.989   3.883   7.748  0.8531 -0.6622 -0.4727
 4074SOL    HW223685   1.873   3.788   7.761 -0.0558  0.4973  0.6473
 4075SOL     OW23686   4.320   2.608  15.913 -0.1848  0.1635  0.0266
 4075SOL    HW123687   4.247   2.649  15.866 -0.5498 -0.5838 -0.0642
 4075SOL    HW223688   4.383   2.679  15.922 -0.7025  0.8205 -1.4932
 4076SOL     OW23689   1.477   1.234  14.785 -0.0578  0.5161 -0.3889
 4076SOL    HW123690   1.467   1.191  14.870  2.9045 -2.2293 -1.4262
 4076SOL    HW223691   1.557   1.284  14.803  0.5907 -0.2079 -1.3030
 4077SOL     OW23692   0.296   2.221   3.508 -0.9885  0.4616  0.0876
 4077SOL    HW123693   0.387   2.192   3.503 -0.9702  0.7181 -1.0381
 4077SOL    HW223694   0.280   2.226   3.414 -1.5004  0.3076  0.1663
 4078SOL     OW23695   2.785   0.727   5.803  0.2195 -0.5159  0.5903
 4078SOL    HW123696   2.817   0.659   5.862 -0.7787 -2.2972 -0.9515
 4078SOL    HW223697   2.792   0.696   5.713 -2.4527 -1.0490  0.5791
 4079SOL     OW23698   2.955   4.404  17.447  0.1321  0.1353  0.1644
 4079SOL    HW123699   3.000   4.469  17.393  0.1275  0.3643  0.4382
 4079SOL    HW223700   2.886   4.367  17.391  0.7700 -1.9263  0.7511
 4080SOL     OW23701   4.109   4.186   3.789  0.3385 -0.4397  0.2197
 4080SOL    HW123702   4.118   4.175   3.695 -0.5147 -2.4753  0.3723
 4080SOL    HW223703   4.188   4.144   3.824  2.6160  1.3813 -2.8177
 4081SOL     OW23704   0.114   2.867  17.249  0.4540 -0.0947 -0.0933
 4081SOL    HW123705   0.086   2.957  17.229  0.3897  0.0931  0.8327
 4081SOL    HW223706   0.207   2.889  17.259 -0.1021  1.6559  1.3732
 4082SOL     OW23707   0.363   0.267   3.053  0.6795  0.3180  0.0773
 4082SOL    HW123708   0.284   0.222   3.081  0.1678  0.3065 -1.3537
 4082SOL    HW223709   0.331   0.351   3.021  1.0642 -0.2069 -1.7258
 4083SOL     OW23710   2.532   4.587  10.362 -0.9837 -0.1314  0.2302
 4083SOL    HW123711   2.538   4.494  10.384  1.1266 -0.5212 -1.9853
 4083SOL    HW223712   2.602   4.625  10.415  1.7134 -1.0915 -2.6329
 4084SOL     OW23713   2.654   1.776   4.444 -0.1411 -0.0409 -0.2320
 4084SOL    HW123714   2.564   1.786   4.476 -0.0562 -0.1336  0.0404
 4084SOL    HW223715   2.669   1.681   4.449  1.3457  0.0473 -3.3030
 4085SOL     OW23716   0.203   0.628   8.322  0.4197 -0.1197  0.2425
 4085SOL    HW123717   0.178   0.710   8.364  0.1164  0.8567 -1.8708
 4085SOL    HW223718   0.297   0.640   8.333  0.4821  0.9954 -1.5598
 4086SOL     OW23719   0.949   2.240   2.444  0.0084  0.6724 -0.5064
 4086SOL    HW123720   0.952   2.335   2.454  0.9270  0.7369 -1.3621
 4086SOL    HW223721   0.885   2.209   2.508  0.6842 -0.4548 -0.3778
 4087SOL     OW23722   1.262   3.167   0.679  0.3631 -0.1962 -0.1771
 4087SOL    HW123723   1.222   3.160   0.592 -3.8497  0.6783  1.7058
 4087SOL    HW223724   1.293   3.257   0.673  3.6548 -1.3342 -0.3021
 4088SOL     OW23725   1.633   1.413   6.377 -0.3272 -0.0244  0.0102
 4088SOL    HW123726   1.714   1.364   6.393  0.0400  0.4404 -0.4134
 4088SOL    HW223727   1.582   1.395   6.456  0.7583  0.6027  0.8727
 4089SOL     OW23728   3.752   4.420   7.259  0.1608  0.4992 -0.0380
 4089SOL    HW123729   3.774   4.494   7.314 -1.3412  2.0915 -1.5578
 4089SOL    HW223730   3.802   4.448   7.182  0.4807  0.1997  0.0605
 4090SOL     OW23731   4.582   3.594  16.106 -0.2801 -0.7063  0.8105
 4090SOL    HW123732   4.551   3.651  16.177  0.9098 -0.0046  0.7614
 4090SOL    HW223733   4.502   3.552  16.076 -1.2174  0.5587  1.5282
 4091SOL     OW23734   0.971   2.935   1.715 -0.3189  0.2179 -0.6799
 4091SOL    HW123735   1.007   2.890   1.639 -1.0188 -1.4011 -0.0560
 4091SOL    HW223736   1.046   2.960   1.768 -0.4211  1.0131 -0.9079
 4092SOL     OW23737   1.023   4.619   2.538  0.2439  0.2217 -0.7235
 4092SOL    HW123738   0.967   4.547   2.508 -0.9502  1.2185 -0.9001
 4092SOL    HW223739   0.965   4.657   2.604  1.2488  0.7006 -0.1255
 4093SOL     OW23740   2.789   2.139  15.060  0.0034 -0.5836 -0.5276
 4093SOL    HW123741   2.722   2.082  15.099 -0.9314  0.9309  0.1183
 4093SOL    HW223742   2.856   2.137  15.127  0.7692  0.6531 -1.2644
 4094SOL     OW23743   1.801   0.538   5.528  0.5587 -0.1680  0.2087
 4094SOL    HW123744   1.821   0.538   5.622  0.3581 -1.8028  0.2463
 4094SOL    HW223745   1.803   0.443   5.517  1.8483  0.0853 -1.7353
 4095SOL     OW23746   1.335   1.873  10.543 -0.2169  0.3904  0.1781
 4095SOL    HW123747   1.290   1.806  10.595 -0.0790  0.3628  0.2614
 4095SOL    HW223748   1.326   1.958  10.586  1.2751  0.6233  0.0081
 4096SOL     OW23749   1.820   1.214   7.080  0.3512  0.1604  0.3091
 4096SOL    HW123750   1.876   1.172   7.145  0.1239  0.0809  0.4560
 4096SOL    HW223751   1.739   1.164   7.092 -0.4316  1.3190 -0.1882
 4097SOL     OW23752   2.792   2.150  16.127  0.7681 -0.2865  0.0240
 4097SOL    HW123753   2.812   2.105  16.046 -0.0172 -1.0363  0.2456
 4097SOL    HW223754   2.880   2.141  16.165  0.9215  1.0076 -0.0143
 4098SOL     OW23755   1.381   0.991   4.748  0.3639  0.2939  0.4880
 4098SOL    HW123756   1.366   1.078   4.712  3.7662  0.7868  0.2611
 4098SOL    HW223757   1.349   1.010   4.836 -2.9438  0.1347 -0.6824
 4099SOL     OW23758   2.865   2.535   4.393  0.2064  0.1465  0.1473
 4099SOL    HW123759   2.860   2.544   4.298 -1.9455 -0.8734  0.1856
 4099SOL    HW223760   2.849   2.441   4.399 -0.1171  0.2250  0.4816
 4100SOL     OW23761   3.576   4.040   8.671 -0.1788  0.2241  0.1482
 4100SOL    HW123762   3.609   4.074   8.589  2.0062 -3.1138 -0.3740
 4100SOL    HW223763   3.644   4.014   8.733  0.6982 -1.5878 -1.5891
 4101SOL     OW23764   1.005   4.706   5.567  0.1300  0.1707 -0.3341
 4101SOL    HW123765   0.960   0.030   5.498 -0.7470 -0.6444 -0.3510
 4101SOL    HW223766   0.959   4.623   5.560  1.1776 -0.3968 -0.4087
 4102SOL     OW23767   1.129   3.696   4.375 -0.0968 -0.4224 -0.4408
 4102SOL    HW123768   1.056   3.641   4.404  2.7433 -3.3211  1.3240
 4102SOL    HW223769   1.150   3.656   4.291  1.5436 -1.3657  0.4225
 4103SOL     OW23770   1.504   0.400  17.346 -0.1597 -0.7676  0.0617
 4103SOL    HW123771   1.484   0.312  17.315  1.9274 -1.0886 -0.3326
 4103SOL    HW223772   1.455   0.408  17.428 -0.1185 -0.8880  0.0973
 4104SOL     OW23773   3.338   0.670  10.130 -0.2551 -0.1062 -0.0586
 4104SOL    HW123774   3.300   0.758  10.131  0.1919  0.0805  0.3441
 4104SOL    HW223775   3.277   0.625  10.188 -1.5359  3.1882  1.1940
 4105SOL     OW23776   4.555   3.114   7.115  0.2182  0.3968  0.6267
 4105SOL    HW123777   4.567   3.110   7.020  0.2857 -0.8426  0.6865
 4105SOL    HW223778   4.491   3.044   7.129  0.8705 -0.3934 -0.3605
 4106SOL     OW23779   0.966   2.887   8.415  0.1092  0.2140 -0.1072
 4106SOL    HW123780   0.973   2.942   8.494  0.2773 -0.8098  0.5832
 4106SOL    HW223781   0.919   2.946   8.355 -1.2562 -0.8463 -0.0884
 4107SOL     OW23782   2.096   4.554   5.170  0.1853  0.4376 -0.2780
 4107SOL    HW123783   2.119   4.465   5.144 -1.0620 -0.7558  2.6168
 4107SOL    HW223784   2.162   4.565   5.239  0.1410  0.1359 -0.1854
 4108SOL     OW23785   3.111   3.359  10.846 -0.0548  0.3905 -0.3887
 4108SOL    HW123786   3.018   3.380  10.835 -0.3409  0.0855  1.3376
 4108SOL    HW223787   3.120   3.282  10.902  3.0353  1.2563  0.2790
 4109SOL     OW23788   0.644   1.938   2.513  0.1045  0.5068 -0.1041
 4109SOL    HW123789   0.666   1.882   2.439  3.0623  0.1210  1.0381
 4109SOL    HW223790   0.550   1.938   2.495 -0.1946  1.8989  1.4739
 4110SOL     OW23791   1.771   1.291  11.400  0.2434  0.2711  0.3066
 4110SOL    HW123792   1.737   1.212  11.443  0.0983  1.0416  1.5875
 4110SOL    HW223793   1.802   1.335  11.479  2.4811 -0.0329 -0.3864
 4111SOL     OW23794   3.574   4.691  12.889  0.2358 -0.0787  0.0147
 4111SOL    HW123795   3.661   4.651  12.887  0.2947 -0.2500  4.4862
 4111SOL    HW223796   3.527   4.609  12.873 -1.4097  1.0552 -0.8754
 4112SOL     OW23797   1.017   4.654   6.559 -0.7312  0.2293 -0.2427
 4112SOL    HW123798   0.991   0.011   6.519  0.7594  1.7960  2.0272
 4112SOL    HW223799   0.955   4.595   6.516 -1.9470  0.6674  0.9056
 4113SOL     OW23800   0.780   4.340   4.734  0.7709  0.1018  0.0819
 4113SOL    HW123801   0.796   4.322   4.827 -1.8496  0.8071  0.6788
 4113SOL    HW223802   0.844   4.409   4.719  2.0594 -1.2449 -0.5961
 4114SOL     OW23803   3.526   0.063   3.472 -0.1392  0.3380 -0.0515
 4114SOL    HW123804   3.576   0.083   3.551 -0.7897  0.2033  0.3864
 4114SOL    HW223805   3.444   0.080   3.518  0.2643  0.0467  0.7748
 4115SOL     OW23806   3.284   2.076   5.417  0.3981  0.4146  0.3928
 4115SOL    HW123807   3.230   2.007   5.380 -0.5360  1.1111  0.4651
 4115SOL    HW223808   3.314   2.125   5.341 -1.8802  2.4370  0.8054
 4116SOL     OW23809   2.766   2.028   5.493 -0.0370  0.1092  0.4668
 4116SOL    HW123810   2.808   2.087   5.430 -5.4335  3.1244 -0.3572
 4116SOL    HW223811   2.826   1.954   5.495  0.8520  0.8101 -0.2273
 4117SOL     OW23812   1.343   1.136  13.841 -0.7662  0.1626  0.5136
 4117SOL    HW123813   1.369   1.044  13.839  0.3270  0.5123 -1.1802
 4117SOL    HW223814   1.259   1.135  13.887 -2.7116  0.1779 -3.0975
 4118SOL     OW23815   0.272   1.724  12.680 -0.2439 -0.1372 -0.9524
 4118SOL    HW123816   0.214   1.670  12.735  3.0280 -1.4919  1.1539
 4118SOL    HW223817   0.359   1.700  12.710 -2.3305 -2.6240  3.1677
 4119SOL     OW23818   0.144   4.240   6.651 -0.1604  0.1497  0.6909
 4119SOL    HW123819   0.147   4.198   6.736 -0.1010  1.3030  1.2584
 4119SOL    HW223820   0.187   4.320   6.682  1.5258 -0.2503 -0.6126
 4120SOL     OW23821   4.385   3.140  11.013  0.3744 -0.2375 -0.0490
 4120SOL    HW123822   4.422   3.163  10.928  0.3697  1.3966  0.3891
 4120SOL    HW223823   4.299   3.181  11.009  1.1916  1.2991 -1.9999
 4121SOL     OW23824   0.702   1.228   0.281  0.3970 -0.1113  0.9661
 4121SOL    HW123825   0.746   1.313   0.289 -0.9109  0.6353  0.2139
 4121SOL    HW223826   0.630   1.248   0.342  0.6256 -0.8808  1.4921
 4122SOL     OW23827   2.041   0.280   2.194  0.3902  0.0911 -0.2294
 4122SOL    HW123828   1.993   0.246   2.118  1.1827 -0.5403 -0.4442
 4122SOL    HW223829   1.973   0.267   2.259  0.0002  2.5085 -0.1450
 4123SOL     OW23830   3.448   1.113  11.485 -0.7229  0.2528  0.0928
 4123SOL    HW123831   3.497   1.072  11.557 -2.1803 -1.0805  0.3315
 4123SOL    HW223832   3.475   1.204  11.497 -0.0059  0.1324 -0.5599
 4124SOL     OW23833   1.036   3.038  12.698  0.5740  0.4131  0.5402
 4124SOL    HW123834   1.087   3.119  12.705  1.8916 -0.2964 -0.8034
 4124SOL    HW223835   0.964   3.056  12.637  0.9753  0.0120 -0.0465
 4125SOL     OW23836   2.735   3.556   6.213  0.3829 -0.2293  0.1193
 4125SOL    HW123837   2.826   3.534   6.233  0.7133 -0.6739 -1.8286
 4125SOL    HW223838   2.734   3.616   6.138  2.5354 -0.4202 -0.0674
 4126SOL     OW23839   3.065   0.668   6.006  0.0551  0.3829 -0.1473
 4126SOL    HW123840   2.994   0.684   6.069  0.3026  1.6243 -0.1803
 4126SOL    HW223841   3.090   0.578   6.028  0.5487 -0.2329 -3.2236
 4127SOL     OW23842   0.285   1.739   3.640 -0.1846  0.2490 -0.3510
 4127SOL    HW123843   0.270   1.834   3.646 -0.0532  0.2624 -0.2414
 4127SOL    HW223844   0.370   1.734   3.683  0.2350 -1.1532 -1.3597
 4128SOL     OW23845   4.430   2.208   5.824 -0.3067  1.1896 -0.1737
 4128SOL    HW123846   4.341   2.173   5.825 -1.0370  3.0614 -0.3444
 4128SOL    HW223847   4.434   2.238   5.734  1.6007 -0.2400 -0.5574
 4129SOL     OW23848   2.129   2.362   7.235 -0.2726  0.6929  0.3611
 4129SOL    HW123849   2.204   2.398   7.283  0.0586  1.9704 -1.1164
 4129SOL    HW223850   2.176   2.357   7.152 -1.2553 -1.1863 -0.0861
 4130SOL     OW23851   3.677   4.579   8.140  0.4366 -0.2710 -0.3678
 4130SOL    HW123852   3.707   4.489   8.133 -1.8141 -1.3490  3.6962
 4130SOL    HW223853   3.612   4.577   8.210  1.4670  0.3644  0.6079
 4131SOL     OW23854   1.448   1.062   3.036  0.4147  0.7568  0.1735
 4131SOL    HW123855   1.396   1.058   2.956 -0.5594 -0.4152  0.8651
 4131SOL    HW223856   1.512   1.128   3.011 -0.8041  1.4087 -1.2597
 4132SOL     OW23857   0.642   0.032   6.460 -0.3481  0.4192 -0.2477
 4132SOL    HW123858   0.655   0.037   6.554 -0.6036 -1.4546 -0.1078
 4132SOL    HW223859   0.709   0.087   6.419 -1.1887  0.2043 -1.9461
 4133SOL     OW23860   2.680   3.738   6.766  0.1132  0.1067 -1.2380
 4133SOL    HW123861   2.661   3.645   6.780 -1.2317  0.9579  2.6518
 4133SOL    HW223862   2.766   3.744   6.808 -0.5286  0.2960  0.0626
 4134SOL     OW23863   1.863   0.535   3.485  0.1620  0.5559 -0.1810
 4134SOL    HW123864   1.824   0.474   3.423 -0.0697  2.2425 -1.7209
 4134SOL    HW223865   1.853   0.617   3.437 -1.8255  0.8789  0.8084
 4135SOL     OW23866   3.159   3.264   9.040  0.3984  0.4252 -0.1210
 4135SOL    HW123867   3.156   3.229   9.129  2.6768  5.7159  2.0906
 4135SOL    HW223868   3.238   3.318   9.048  0.3790  0.4508 -0.1014
 4136SOL     OW23869   2.771   2.725   9.580 -0.0037 -0.0825 -0.3039
 4136SOL    HW123870   2.855   2.687   9.605  0.3677 -0.2191 -1.7545
 4136SOL    HW223871   2.739   2.645   9.539  2.9654 -1.9424  1.0143
 4137SOL     OW23872   0.406   1.042  16.064 -0.5270 -0.0326  0.9006
 4137SOL    HW123873   0.351   0.975  16.104 -0.9731  1.8253  3.3646
 4137SOL    HW223874   0.384   1.124  16.109  2.2240  0.5753  1.1341
 4138SOL     OW23875   2.701   2.768   5.455  0.5457 -0.1538  0.0635
 4138SOL    HW123876   2.769   2.703   5.435 -0.5046 -1.0695 -0.5706
 4138SOL    HW223877   2.635   2.722   5.507  1.6584  0.2833  1.8468
 4139SOL     OW23878   3.688   0.112   6.205 -0.2249 -0.7375 -0.2291
 4139SOL    HW123879   3.650   0.098   6.292  0.2395  1.5752  0.3355
 4139SOL    HW223880   3.736   0.030   6.191  1.4528  0.4270 -1.3606
 4140SOL     OW23881   1.773   1.246   7.399 -0.1566  0.0429 -0.0833
 4140SOL    HW123882   1.832   1.187   7.353  0.4524 -0.5600  1.4614
 4140SOL    HW223883   1.835   1.285   7.461 -0.9255  1.0412  0.0595
 4141SOL     OW23884   3.268   1.873   5.050  0.3388  0.0875 -0.1712
 4141SOL    HW123885   3.217   1.894   5.128  0.4013  0.0219 -0.1111
 4141SOL    HW223886   3.351   1.844   5.088  0.7621  2.5644  0.7540
 4142SOL     OW23887   2.469   1.426   5.330  0.2099 -0.2126 -0.4762
 4142SOL    HW123888   2.467   1.349   5.272  1.1665 -0.4116 -0.2385
 4142SOL    HW223889   2.561   1.447   5.320  0.2216  0.2853  0.7143
 4143SOL     OW23890   0.117   1.506  11.426 -0.1368 -0.5459 -0.6124
 4143SOL    HW123891   0.149   1.578  11.481 -0.9743  0.8187 -1.9059
 4143SOL    HW223892   0.043   1.545  11.379 -0.1257  1.2050  0.8411
 4144SOL     OW23893   0.629   2.132   7.339  0.3031 -0.3742 -0.2469
 4144SOL    HW123894   0.640   2.184   7.419  2.2869 -1.6124  0.2738
 4144SOL    HW223895   0.538   2.150   7.316  0.0063 -0.7473  0.6530
 4145SOL     OW23896   3.938   3.315   3.634  0.2693  0.4868  0.1669
 4145SOL    HW123897   3.897   3.388   3.681 -1.1546  0.1670 -0.5652
 4145SOL    HW223898   4.030   3.342   3.626 -0.0033  1.2462 -0.4085
 4146SOL     OW23899   1.872   1.476   9.223 -0.0961 -0.0743 -0.2365
 4146SOL    HW123900   1.883   1.484   9.128  2.3212  0.4640  0.0853
 4146SOL    HW223901   1.848   1.384   9.232  0.1915  0.1926  3.0669
 4147SOL     OW23902   0.306   1.060   4.476  0.7975 -0.3086 -0.5476
 4147SOL    HW123903   0.328   1.070   4.383  1.4489  1.3424 -0.2321
 4147SOL    HW223904   0.217   1.095   4.487  1.1244  0.5082 -0.4577
 4148SOL     OW23905   0.290   0.847   6.578 -0.5080 -0.3596  0.6291
 4148SOL    HW123906   0.328   0.925   6.617 -1.6169  0.7361 -0.4965
 4148SOL    HW223907   0.227   0.890   6.520 -1.2673 -0.6088  1.2562
 4149SOL     OW23908   4.550   2.034  15.366  0.0994  0.5484 -0.3399
 4149SOL    HW123909   4.593   2.112  15.331 -0.8501  1.0676 -0.3711
 4149SOL    HW223910   4.517   1.988  15.288 -1.7328  0.7906  0.2758
 4150SOL     OW23911   2.480   2.274  14.710  0.2368 -0.1504  0.2471
 4150SOL    HW123912   2.405   2.244  14.762 -1.5863  2.8341 -0.6972
 4150SOL    HW223913   2.459   2.367  14.708  1.4690  0.1053 -1.0227
 4151SOL     OW23914   2.560   4.502   1.354 -0.3423  0.4654  0.3410
 4151SOL    HW123915   2.592   4.428   1.406 -2.6624 -0.5680  0.3049
 4151SOL    HW223916   2.642   4.520   1.307  0.2043 -0.0368  1.1167
 4152SOL     OW23917   3.120   2.616   9.369 -0.0140  0.2809  0.5473
 4152SOL    HW123918   3.155   2.586   9.285 -0.0465 -0.8122  0.9213
 4152SOL    HW223919   3.070   2.690   9.334  1.6105  1.3921  0.6131
 4153SOL     OW23920   1.928   4.073   7.244 -0.3919  0.0199  0.1380
 4153SOL    HW123921   1.887   4.149   7.202 -1.5420 -0.4057  0.5150
 4153SOL    HW223922   1.960   4.098   7.330 -2.0051 -2.2431  1.3910
 4154SOL     OW23923   0.657   0.852   3.564  0.2504 -0.2324 -0.3329
 4154SOL    HW123924   0.562   0.840   3.563  0.1185  0.7586  0.5839
 4154SOL    HW223925   0.684   0.768   3.525  0.2988 -0.4200  0.1037
 4155SOL     OW23926   1.810   2.866   9.535 -0.0100 -0.0268 -0.2990
 4155SOL    HW123927   1.821   2.775   9.505 -1.5319 -1.1637  2.5171
 4155SOL    HW223928   1.870   2.911   9.475  0.5351  1.6774  1.5361
 4156SOL     OW23929   2.036   4.334   1.437  0.4846 -0.1845 -0.1135
 4156SOL    HW123930   2.062   4.309   1.526  1.6351  0.1064 -0.3702
 4156SOL    HW223931   2.106   4.398   1.425  0.9422 -0.5322  0.6951
 4157SOL     OW23932   4.671   1.063   7.831  0.2568 -0.8946  0.3301
 4157SOL    HW123933   4.612   1.113   7.889 -1.7026 -0.0573 -2.3515
 4157SOL    HW223934   4.657   0.982   7.879 -1.6111 -1.7484 -1.6208
 4158SOL     OW23935   3.985   0.607  17.483  0.0726 -0.1014  0.1351
 4158SOL    HW123936   4.036   0.684  17.507 -1.1686  0.7683 -0.0390
 4158SOL    HW223937   3.905   0.621  17.532 -0.2461 -0.8688 -0.1511
 4159SOL     OW23938   1.334   4.316   4.407 -0.1202  0.1217  0.0929
 4159SOL    HW123939   1.278   4.247   4.443 -0.3441  0.0885 -0.3152
 4159SOL    HW223940   1.276   4.385   4.374 -0.5784 -0.7393 -0.9157
 4160SOL     OW23941   1.394   3.946   9.039 -0.8173  0.1542 -0.0064
 4160SOL    HW123942   1.378   4.018   9.101 -1.7836  0.4325 -0.5670
 4160SOL    HW223943   1.304   3.938   9.007 -1.1280 -3.5083  1.7624
 4161SOL     OW23944   0.939   1.037   6.044  0.1684 -0.2977  0.2084
 4161SOL    HW123945   1.009   0.975   6.021 -0.0876  0.4959 -2.7072
 4161SOL    HW223946   0.955   1.040   6.138  1.1495  1.8377 -0.0419
 4162SOL     OW23947   3.024   0.195   7.431  0.1644 -0.1842  0.6823
 4162SOL    HW123948   2.955   0.254   7.399 -0.9193 -0.6602  2.1637
 4162SOL    HW223949   3.063   0.247   7.501  2.6764 -3.2917  1.5561
 4163SOL     OW23950   3.397   1.467   6.571  0.4576 -0.3957  0.3090
 4163SOL    HW123951   3.454   1.408   6.523  2.1736  0.5154  1.2095
 4163SOL    HW223952   3.391   1.528   6.498  1.7812  0.5957  1.0240
 4164SOL     OW23953   4.673   2.416  12.889  0.1421  0.4403  0.0015
 4164SOL    HW123954   0.020   2.459  12.843  1.2779 -0.1742  1.2164
 4164SOL    HW223955   4.681   2.328  12.852 -1.0288 -0.0507  0.9463
 4165SOL     OW23956   1.231   3.193   7.486  0.0912 -0.3668  0.0074
 4165SOL    HW123957   1.183   3.261   7.534 -0.0449 -0.6020  0.1997
 4165SOL    HW223958   1.243   3.138   7.563  0.7603  0.1758  0.2870
 4166SOL     OW23959   4.463   1.519   9.842  0.2177  0.4105 -0.2165
 4166SOL    HW123960   4.473   1.500   9.935 -1.3558  1.3278  0.1484
 4166SOL    HW223961   4.374   1.484   9.831 -0.7206  2.2570  1.6155
 4167SOL     OW23962   0.451   4.446   2.117  0.4589 -0.1378 -0.7713
 4167SOL    HW123963   0.495   4.362   2.102 -0.3382 -0.6138 -0.4307
 4167SOL    HW223964   0.384   4.456   2.050 -1.5038 -1.8644  0.9374
 4168SOL     OW23965   2.452   0.316   2.849  0.4100 -0.4974 -0.0004
 4168SOL    HW123966   2.469   0.261   2.772  0.9029 -0.1056 -0.1660
 4168SOL    HW223967   2.534   0.363   2.862 -0.5456  0.8634  1.1290
 4169SOL     OW23968   0.626   0.545   2.424 -0.6996  0.2801  0.1210
 4169SOL    HW123969   0.602   0.632   2.392 -0.8415 -0.3898 -1.6130
 4169SOL    HW223970   0.665   0.509   2.344  1.8685  0.6743  1.1933
 4170SOL     OW23971   4.482   4.614   6.158 -0.0096  0.1065  0.1110
 4170SOL    HW123972   4.424   4.543   6.133 -1.7411  2.5409 -2.7935
 4170SOL    HW223973   4.564   4.575   6.188  0.6897  0.1546 -1.7308
 4171SOL     OW23974   2.030   4.120   2.690 -0.4626 -0.3128  0.1906
 4171SOL    HW123975   2.019   4.085   2.779  2.0743  0.0087  0.6449
 4171SOL    HW223976   1.952   4.080   2.652 -0.7237 -0.9707  1.4056
 4172SOL     OW23977   4.178   4.531  16.064  0.0924 -0.6277 -0.0203
 4172SOL    HW123978   4.087   4.510  16.086 -0.5497  2.7690  0.5998
 4172SOL    HW223979   4.161   4.577  15.982 -0.1844 -0.2640  0.2416
 4173SOL     OW23980   2.680   2.975   3.224 -0.0065 -0.0656  0.0254
 4173SOL    HW123981   2.755   2.968   3.165 -0.0175  1.1299 -0.1265
 4173SOL    HW223982   2.710   2.922   3.298 -1.0154  2.2281  2.1148
 4174SOL     OW23983   0.359   4.391   6.296 -0.3022 -0.4063  0.5750
 4174SOL    HW123984   0.404   4.466   6.335  0.2929 -0.1074 -0.6723
 4174SOL    HW223985   0.279   4.434   6.267  0.7377  0.5529 -0.9158
 4175SOL     OW23986   0.215   1.658   9.955 -0.3384  0.6400  0.3248
 4175SOL    HW123987   0.139   1.706   9.923 -1.1779 -0.0976  1.2104
 4175SOL    HW223988   0.253   1.633   9.870 -1.7261 -1.2320  0.2488
 4176SOL     OW23989   1.476   0.223  12.835  0.5504 -0.0561  0.4626
 4176SOL    HW123990   1.499   0.207  12.926  0.3883  0.5298  0.6037
 4176SOL    HW223991   1.557   0.213  12.786 -0.0624  0.6747 -0.6984
 4177SOL     OW23992   2.516   3.195   6.649  0.0408  0.1557 -0.1230
 4177SOL    HW123993   2.512   3.209   6.744  3.0054  0.5842 -0.0532
 4177SOL    HW223994   2.444   3.133   6.634  1.1616 -1.5708  1.6801
 4178SOL     OW23995   1.388   4.241   2.968 -0.2263 -0.1888 -0.3911
 4178SOL    HW123996   1.328   4.306   3.004 -0.9616 -0.2089 -1.5811
 4178SOL    HW223997   1.321   4.174   2.953  0.5526 -1.2280  0.7612
 4179SOL     OW23998   2.923   3.763  15.624  0.1539  0.3201  0.7318
 4179SOL    HW123999   2.994   3.751  15.688  0.3937 -0.8777  0.2288
 4179SOL    HW224000   2.982   3.765  15.548 -0.8497  0.0845 -0.0441
 4180SOL     OW24001   3.634   3.421  10.077 -0.3198 -0.5668 -0.5082
 4180SOL    HW124002   3.715   3.386  10.038 -0.0668  0.3691 -0.8187
 4180SOL    HW224003   3.672   3.464  10.153  2.6038 -0.5671 -1.9502
 4181SOL     OW24004   0.553   0.823   1.656  0.3508  0.3292  0.8365
 4181SOL    HW124005   0.475   0.872   1.684 -0.0930 -0.1535  0.4499
 4181SOL    HW224006   0.527   0.796   1.568  2.2344  1.9595 -0.2105
 4182SOL     OW24007   3.321   4.366  17.359  0.0013 -0.0559 -0.1129
 4182SOL    HW124008   3.395   4.349  17.301 -0.6342 -1.6083 -0.4541
 4182SOL    HW224009   3.371   4.383  17.438  1.0861 -0.8766 -0.6238
 4183SOL     OW24010   3.878   4.295  15.698 -0.0945 -0.2483  0.0642
 4183SOL    HW124011   3.807   4.232  15.687  0.1621 -0.5885  0.3977
 4183SOL    HW224012   3.941   4.255  15.639 -0.3592 -1.2775  0.4937
 4184SOL     OW24013   0.016   3.850   7.633  0.5133 -0.0711 -0.1007
 4184SOL    HW124014   4.707   3.762   7.650 -0.6619  0.8187  2.1301
 4184SOL    HW224015   4.665   3.901   7.608  0.2892 -0.1779  0.3792
 4185SOL     OW24016   1.641   4.644   4.102  0.5514  0.2842  0.6431
 4185SOL    HW124017   1.700   4.712   4.070  1.4013 -0.3657  0.8410
 4185SOL    HW224018   1.611   4.678   4.186  0.5660 -1.2549  1.2548
 4186SOL     OW24019   0.187   2.386   8.884 -0.6115 -0.0180  0.3027
 4186SOL    HW124020   0.183   2.443   8.962 -0.7029  0.7590 -0.2678
 4186SOL    HW224021   0.135   2.315   8.922  1.4635 -0.9233  1.4626
 4187SOL     OW24022   2.642   1.498   4.467 -0.0458 -0.3680  0.2167
 4187SOL    HW124023   2.573   1.507   4.533 -0.5097  4.5508 -0.8985
 4187SOL    HW224024   2.681   1.412   4.484  0.5950 -0.2925 -0.9034
 4188SOL     OW24025   0.000   3.773   0.913 -0.4692 -0.3251 -0.8546
 4188SOL    HW124026   0.092   3.751   0.897  0.5503  2.6714  0.7330
 4188SOL    HW224027   4.702   3.716   0.986 -0.2780 -0.9767 -1.3027
 4189SOL     OW24028   3.423   1.227   4.411 -0.1936 -0.1490  0.2476
 4189SOL    HW124029   3.516   1.249   4.418 -0.0875 -0.3140 -0.7696
 4189SOL    HW224030   3.399   1.260   4.325  0.0029 -1.1043 -0.1647
 4190SOL     OW24031   2.200   1.094   5.417 -0.6888  0.0608  0.3281
 4190SOL    HW124032   2.156   1.153   5.357  1.0072 -0.2615 -1.2352
 4190SOL    HW224033   2.201   1.016   5.362  1.0804 -0.4690  1.0936
 4191SOL     OW24034   3.508   4.680   7.136 -0.4947  0.5771  0.5211
 4191SOL    HW124035   3.537   4.609   7.079 -0.8080 -0.5145  1.7336
 4191SOL    HW224036   3.498   4.627   7.215 -1.5308  0.2190  0.1531
 4192SOL     OW24037   1.784   2.092   2.343 -0.6826 -0.2191  0.6833
 4192SOL    HW124038   1.821   2.179   2.356  0.9722 -0.3110 -3.4139
 4192SOL    HW224039   1.857   2.036   2.367  1.5564  3.2318  1.7741
 4193SOL     OW24040   4.283   0.778   1.951 -0.3333 -0.1827 -0.1165
 4193SOL    HW124041   4.316   0.856   1.997 -1.2275 -0.2719  0.6818
 4193SOL    HW224042   4.333   0.713   2.001  0.5012  0.9554  0.5493
 4194SOL     OW24043   1.270   3.008   6.078 -0.4966 -0.4730 -0.1057
 4194SOL    HW124044   1.246   2.953   6.004  0.6244  0.3981 -1.1280
 4194SOL    HW224045   1.349   2.970   6.117  0.3368 -0.4801 -1.7813
 4195SOL     OW24046   2.820   0.324   4.747 -0.3851  0.1158 -0.0511
 4195SOL    HW124047   2.736   0.371   4.746 -0.2803  0.3482  1.8856
 4195SOL    HW224048   2.793   0.240   4.783  1.0988  0.2173  1.2868
 4196SOL     OW24049   2.451   3.012   4.196 -0.1225 -0.5237 -0.1227
 4196SOL    HW124050   2.410   2.932   4.228  2.1100 -0.9252  1.7440
 4196SOL    HW224051   2.473   3.055   4.279 -1.6395  2.2725 -1.1731
 4197SOL     OW24052   1.249   1.682   8.246 -0.4036  0.3064  0.6108
 4197SOL    HW124053   1.274   1.637   8.165  0.4139  0.1653  0.9413
 4197SOL    HW224054   1.275   1.614   8.307  0.2291 -0.8236 -0.9252
 4198SOL     OW24055   0.187   0.420  11.446  0.2521  0.3054 -0.1934
 4198SOL    HW124056   0.188   0.515  11.433  1.2668  0.6197  2.1165
 4198SOL    HW224057   0.281   0.401  11.450 -0.4025 -3.0241 -0.9098
 4199SOL     OW24058   4.692   1.876   7.065  0.4082 -0.0367  0.0440
 4199SOL    HW124059   4.714   1.784   7.051  0.5011  0.2016 -1.3086
 4199SOL    HW224060   0.053   1.911   7.043  0.9623 -1.0082  0.6624
 4200SOL     OW24061   3.085   1.878   5.762 -0.5525 -0.2654 -0.6988
 4200SOL    HW124062   3.170   1.835   5.767 -0.9191 -1.1817 -2.1458
 4200SOL    HW224063   3.043   1.848   5.843 -0.6328 -1.4558 -1.1832
 4201SOL     OW24064   0.247   1.284   2.690  0.6387  0.3590 -0.3439
 4201SOL    HW124065   0.294   1.251   2.614 -0.0944  0.9033 -1.0303
 4201SOL    HW224066   0.260   1.206   2.745  0.6408  0.3723 -0.3254
 4202SOL     OW24067   0.666   3.269   5.905 -0.4973 -0.1214  0.1256
 4202SOL    HW124068   0.750   3.299   5.870 -0.6327 -2.0120 -1.8025
 4202SOL    HW224069   0.667   3.178   5.877 -0.4242  0.4674 -1.7789
 4203SOL     OW24070   2.990   4.718   4.118  0.4541  0.1032 -0.0525
 4203SOL    HW124071   2.913   4.661   4.120  1.2273 -0.9673 -0.6851
 4203SOL    HW224072   2.963   0.031   4.035  1.7309  1.7355  0.2835
 4204SOL     OW24073   4.341   3.438   6.474  0.1127  0.3793 -0.1028
 4204SOL    HW124074   4.432   3.454   6.452  0.2619 -0.2275  0.0822
 4204SOL    HW224075   4.313   3.468   6.388 -2.4725  0.3364  0.7113
 4205SOL     OW24076   3.695   0.184   5.281 -0.2024 -0.1652  0.1951
 4205SOL    HW124077   3.680   0.221   5.194  0.1397  0.5265  0.4351
 4205SOL    HW224078   3.777   0.220   5.314 -0.3057  1.5984 -1.4927
 4206SOL     OW24079   2.745   0.660  10.232 -0.1854  0.3762 -0.2911
 4206SOL    HW124080   2.784   0.573  10.246  3.1587  1.9383  0.1798
 4206SOL    HW224081   2.655   0.635  10.211  0.9104 -3.3801 -0.4699
 4207SOL     OW24082   3.118   0.196  13.281  0.2562  0.2718 -0.7205
 4207SOL    HW124083   3.181   0.143  13.328  0.9411  0.9634 -0.8505
 4207SOL    HW224084   3.172   0.263  13.238  0.9192 -0.0594 -0.3939
 4208SOL     OW24085   0.817   0.397  13.089  0.3666 -0.1393 -0.5091
 4208SOL    HW124086   0.887   0.343  13.124  0.0705 -0.4172 -0.3530
 4208SOL    HW224087   0.860   0.418  13.006 -0.6439 -1.1380 -1.2837
 4209SOL     OW24088   0.469   2.043   4.683 -0.3557 -0.7701  0.1421
 4209SOL    HW124089   0.555   2.054   4.642 -0.5222  0.1757  0.0426
 4209SOL    HW224090   0.420   2.123   4.667  0.8333  0.1125  0.9027
 4210SOL     OW24091   4.111   3.586   5.899  0.2330 -1.0309  0.3101
 4210SOL    HW124092   4.070   3.659   5.945  1.1764 -1.3133  1.6092
 4210SOL    HW224093   4.036   3.571   5.842 -1.7151 -0.5347  2.7567
 4211SOL     OW24094   2.079   3.864   6.573 -0.1082 -0.1287 -0.0224
 4211SOL    HW124095   2.171   3.845   6.590  0.4760  1.9180 -0.8408
 4211SOL    HW224096   2.035   3.808   6.637 -1.0308  0.8042  0.1632
 4212SOL     OW24097   3.969   1.321   6.998  0.0244  0.0320 -0.5264
 4212SOL    HW124098   3.993   1.340   7.089  0.2053  2.7834 -1.1615
 4212SOL    HW224099   3.974   1.403   6.949  1.7885 -0.5449 -1.3429
 4213SOL     OW24100   2.956   1.084   6.307  0.0483  0.5742 -0.0257
 4213SOL    HW124101   3.034   1.134   6.331  0.8268 -0.9037  0.5053
 4213SOL    HW224102   2.897   1.151   6.341 -0.2928 -1.4322  3.3649
 4214SOL     OW24103   0.030   3.076   8.405  0.4492 -0.3655 -0.0517
 4214SOL    HW124104   0.040   2.989   8.443  0.7112 -0.6379 -0.7453
 4214SOL    HW224105   4.699   3.061   8.329 -0.6919 -0.8365  0.8737
 4215SOL     OW24106   1.918   0.765   2.992  0.2975 -0.4154  0.1103
 4215SOL    HW124107   1.940   0.702   2.923 -2.0125 -1.5911  0.4434
 4215SOL    HW224108   1.828   0.741   3.012  0.4631  0.1548  1.5503
 4216SOL     OW24109   2.932   1.225   3.193 -0.3181 -0.1236  0.4239
 4216SOL    HW124110   2.947   1.187   3.280 -1.7473 -0.0561  0.7083
 4216SOL    HW224111   3.011   1.276   3.176 -1.4008  1.0755 -0.8895
 4217SOL     OW24112   2.545   0.027   5.225 -0.1226 -0.6371 -0.2973
 4217SOL    HW124113   2.592   0.057   5.303 -1.1131  1.2853 -0.4492
 4217SOL    HW224114   2.576   4.662   5.235  1.5085 -0.1398 -0.8067
 4218SOL     OW24115   4.467   3.216   8.274  0.2847  0.1074 -0.1552
 4218SOL    HW124116   4.520   3.223   8.353  0.6175 -1.1985 -0.2645
 4218SOL    HW224117   4.515   3.163   8.210  0.1002  0.1070 -0.2935
 4219SOL     OW24118   3.096   4.092   5.609  0.3276  0.0271  0.2969
 4219SOL    HW124119   3.160   4.042   5.659  1.4920 -0.1878 -1.4073
 4219SOL    HW224120   3.155   4.118   5.538  2.0661 -0.0646  1.7267
 4220SOL     OW24121   2.880   4.312  16.997  0.4955  0.3312  0.2754
 4220SOL    HW124122   2.947   4.311  17.066  0.0766  1.4314  0.6883
 4220SOL    HW224123   2.933   4.267  16.931  0.5569  1.4364 -0.4189
 4221SOL     OW24124   2.949   0.459   2.187  0.3530 -0.0000  0.1256
 4221SOL    HW124125   2.907   0.535   2.148 -1.2104 -1.0119 -0.1329
 4221SOL    HW224126   3.020   0.444   2.125  0.6440 -0.0568  0.4709
 4222SOL     OW24127   0.025   1.626   4.327  0.5008 -0.3885  0.5001
 4222SOL    HW124128   4.657   1.604   4.328  0.3368  0.2620 -0.4334
 4222SOL    HW224129   0.028   1.690   4.398  0.0118  0.7411 -0.4815
 4223SOL     OW24130   2.940   3.778  14.053 -0.3310  0.3432  0.0136
 4223SOL    HW124131   2.935   3.729  13.971  0.3947  0.0682  0.1284
 4223SOL    HW224132   2.846   3.797  14.060 -0.4197 -0.8634  2.0733
 4224SOL     OW24133   4.088   1.635  14.610 -0.4619  0.5365  0.2295
 4224SOL    HW124134   4.023   1.575  14.574 -0.6078 -0.1294  1.6015
 4224SOL    HW224135   4.171   1.606  14.572  0.0362  0.4735  1.3446
 4225SOL     OW24136   1.704   1.112   2.061 -0.0444 -0.0370  0.0181
 4225SOL    HW124137   1.639   1.115   1.991 -0.0888  1.4988  0.1142
 4225SOL    HW224138   1.740   1.200   2.048 -2.7107  1.1755  0.9192
 4226SOL     OW24139   3.419   0.722   4.189 -0.4096  0.3091  0.1571
 4226SOL    HW124140   3.399   0.731   4.282 -0.8883 -0.3123  0.1146
 4226SOL    HW224141   3.507   0.759   4.189  0.4180 -1.6476  2.1827
 4227SOL     OW24142   4.711   1.093  11.349 -0.0276 -0.8356  0.0567
 4227SOL    HW124143   4.619   1.119  11.347  0.0562 -0.6210 -0.8371
 4227SOL    HW224144   0.033   1.175  11.334 -0.6893 -0.6958 -1.2203
 4228SOL     OW24145   0.099   2.214   7.272  0.4010 -0.2450  0.0411
 4228SOL    HW124146   0.096   2.157   7.349  0.8903 -1.7132 -1.0114
 4228SOL    HW224147   0.187   2.251   7.273  0.0986  0.4032  2.7393
 4229SOL     OW24148   4.723   4.376   7.741  0.0135 -0.1716  0.5440
 4229SOL    HW124149   0.040   4.412   7.663  1.7384  0.5549  1.8042
 4229SOL    HW224150   4.707   4.286   7.713  2.8171 -0.6683  0.5386
 4230SOL     OW24151   1.319   2.544   8.308 -0.5059 -0.7438 -0.0061
 4230SOL    HW124152   1.291   2.636   8.304  1.4714 -0.1757 -0.9457
 4230SOL    HW224153   1.236   2.500   8.291 -0.8700  0.8748 -2.4147
 4231SOL     OW24154   3.773   3.073   3.361 -0.3010 -0.0890 -0.2737
 4231SOL    HW124155   3.834   3.003   3.382 -1.4689 -0.1278  2.9756
 4231SOL    HW224156   3.836   3.137   3.326 -0.0543 -1.3258 -2.1009
 4232SOL     OW24157   0.827   1.470   7.518  0.0209 -0.4324  0.0534
 4232SOL    HW124158   0.788   1.454   7.604 -1.2429 -0.4304 -0.5179
 4232SOL    HW224159   0.829   1.382   7.480 -0.5070 -1.2991  2.0296
 4233SOL     OW24160   1.779   0.056   8.917 -0.4700  0.3912 -0.4072
 4233SOL    HW124161   1.857   0.017   8.958  0.5733  1.5770 -1.2548
 4233SOL    HW224162   1.706   0.008   8.956  0.6661  1.0533  2.5509
 4234SOL     OW24163   4.428   0.653  13.440  0.8642  0.3317 -0.0275
 4234SOL    HW124164   4.421   0.748  13.431  0.7907  0.2714 -0.6336
 4234SOL    HW224165   4.434   0.634  13.533 -0.6253  2.3807  0.4832
 4235SOL     OW24166   0.501   1.792   7.995 -0.6061 -0.0444 -0.1784
 4235SOL    HW124167   0.575   1.814   7.938 -1.8792  2.2114 -0.9511
 4235SOL    HW224168   0.532   1.841   8.071 -1.0300 -1.4602  0.9182
 4236SOL     OW24169   0.417   1.813   8.387  0.1753  0.5466  0.4824
 4236SOL    HW124170   0.334   1.792   8.432 -0.5019 -1.1451 -1.5570
 4236SOL    HW224171   0.384   1.778   8.305  0.3030 -0.4815  0.8674
 4237SOL     OW24172   3.362   4.651   0.484 -0.7582  0.3311 -0.0446
 4237SOL    HW124173   3.362   4.564   0.443  0.8010 -0.6646  2.0690
 4237SOL    HW224174   3.315   4.704   0.420  3.0537  1.6137 -1.7415
 4238SOL     OW24175   0.547   2.573   8.212 -0.3726 -0.2314  0.0077
 4238SOL    HW124176   0.509   2.555   8.126 -1.1222  0.9996  0.0828
 4238SOL    HW224177   0.625   2.518   8.213  1.4845  2.3574 -0.9140
 4239SOL     OW24178   3.848   2.036   8.655  0.0057  0.3404  0.4357
 4239SOL    HW124179   3.823   2.055   8.746 -0.3339  1.9417  0.0168
 4239SOL    HW224180   3.837   2.120   8.610 -0.8028 -0.5825 -1.0679
 4240SOL     OW24181   0.420   1.198   7.837  1.2189  0.2478 -0.1473
 4240SOL    HW124182   0.429   1.290   7.862  1.2870  0.3308 -0.4733
 4240SOL    HW224183   0.360   1.169   7.905 -0.8474  1.2784 -1.5304
 4241SOL     OW24184   2.242   0.299   9.190 -0.2039 -0.5914 -0.1970
 4241SOL    HW124185   2.293   0.301   9.109 -0.2964  0.6772 -0.2231
 4241SOL    HW224186   2.286   0.237   9.248  0.2198  1.4306  1.6418
 4242SOL     OW24187   2.874   0.700   3.386  0.5824  0.5831 -0.1496
 4242SOL    HW124188   2.916   0.739   3.463  0.0332 -0.4298  0.6626
 4242SOL    HW224189   2.897   0.763   3.318  0.6298 -0.3129 -0.9501
 4243SOL     OW24190   3.433   1.453   6.124 -0.2025  0.5465 -0.3606
 4243SOL    HW124191   3.463   1.539   6.156 -1.2086  1.4615 -1.8672
 4243SOL    HW224192   3.338   1.462   6.134 -0.4847 -1.4849 -1.3872
 4244SOL     OW24193   1.437   2.362  16.675 -0.2201  0.3875  0.3880
 4244SOL    HW124194   1.445   2.447  16.717 -1.2936  0.1507  1.0658
 4244SOL    HW224195   1.347   2.340  16.698 -0.0944  0.8859  1.3645
 4245SOL     OW24196   4.670   0.557   7.020 -0.5269 -0.2490 -0.1180
 4245SOL    HW124197   4.584   0.570   7.060  0.1982 -1.7647  1.9521
 4245SOL    HW224198   4.655   0.568   6.926 -0.0050  0.3384 -0.1368
 4246SOL     OW24199   2.017   4.622   8.791  0.6456 -0.0072  0.1208
 4246SOL    HW124200   1.966   4.598   8.713 -0.1020 -0.5029  0.7616
 4246SOL    HW224201   1.975   4.563   8.854  1.1402  1.3684  1.7349
 4247SOL     OW24202   4.369   1.521   7.673 -0.2332 -0.3092  0.5812
 4247SOL    HW124203   4.402   1.451   7.616  0.1557 -1.7798  2.6129
 4247SOL    HW224204   4.279   1.529   7.640 -0.0320 -1.4014 -0.2535
 4248SOL     OW24205   2.558   2.083  16.544  0.6863 -0.0420 -0.5889
 4248SOL    HW124206   2.583   2.126  16.626  0.0754 -0.9695  0.0814
 4248SOL    HW224207   2.483   2.034  16.579  1.2226 -0.4285  0.0106
 4249SOL     OW24208   1.884   1.245  16.290 -0.4855  0.3066  0.1040
 4249SOL    HW124209   1.910   1.159  16.257  3.3219  1.7189 -0.5356
 4249SOL    HW224210   1.823   1.222  16.360 -0.3127 -2.1233 -0.5240
 4250SOL     OW24211   0.092   3.783  15.551 -0.0105  0.3331  0.3702
 4250SOL    HW124212   0.073   3.731  15.473  1.0776  2.5115 -1.3159
 4250SOL    HW224213   0.141   3.722  15.606 -1.8182 -1.0452  0.4768
 4251SOL     OW24214   1.230   1.422   1.977  0.1965  1.0218 -0.1362
 4251SOL    HW124215   1.177   1.411   1.898  0.3174  0.8184 -0.1881
 4251SOL    HW224216   1.160   1.446   2.037 -0.4560 -1.1936 -0.0382
 4252SOL     OW24217   0.201   4.426   8.082 -0.8228 -0.6413 -0.2130
 4252SOL    HW124218   0.172   4.423   8.173  0.4886  0.5237  0.2580
 4252SOL    HW224219   0.156   4.352   8.042 -0.1871 -1.0795 -0.1207
 4253SOL     OW24220   4.085   2.776   7.910 -0.0052  0.5201  0.1419
 4253SOL    HW124221   4.068   2.683   7.893  0.5517  0.2825  0.8596
 4253SOL    HW224222   4.120   2.782   7.999 -2.2891 -0.9097  1.1256
 4254SOL     OW24223   2.946   1.947   8.472 -0.1185 -0.1605  0.1230
 4254SOL    HW124224   2.868   1.907   8.511  1.1954 -0.3789  2.5059
 4254SOL    HW224225   2.948   1.891   8.394  1.0554 -0.2867  0.2486
 4255SOL     OW24226   3.419   0.202  14.993 -0.4507  0.1137 -0.4116
 4255SOL    HW124227   3.496   0.153  15.022  0.5464  0.2163 -2.8710
 4255SOL    HW224228   3.433   0.207  14.898  2.2212 -1.2605 -0.0840
 4256SOL     OW24229   4.519   2.201   8.416  0.0516 -0.1463 -0.2693
 4256SOL    HW124230   4.570   2.132   8.459 -0.0584 -1.6262 -2.5000
 4256SOL    HW224231   4.435   2.195   8.463 -1.0369  2.4145 -1.9011
 4257SOL     OW24232   1.358   4.589  14.978  0.0163 -0.6162 -0.5461
 4257SOL    HW124233   1.426   4.649  15.009 -1.6289  1.9942 -2.0127
 4257SOL    HW224234   1.357   4.611  14.885 -0.4821  0.7440 -0.2243
 4258SOL     OW24235   0.555   2.808   3.413 -0.0862  0.0160  0.0934
 4258SOL    HW124236   0.601   2.744   3.467 -0.2660 -1.5823 -1.6690
 4258SOL    HW224237   0.621   2.875   3.394  0.8476 -1.1465 -0.7482
 4259SOL     OW24238   2.252   3.075   7.017  1.0927  0.2448  0.1239
 4259SOL    HW124239   2.286   3.079   7.106 -1.5246  2.9473  1.0226
 4259SOL    HW224240   2.334   3.072   6.968  0.5249 -0.2067 -0.8118
 4260SOL     OW24241   3.205   1.125   5.465 -0.2261  0.2443 -0.8154
 4260SOL    HW124242   3.225   1.042   5.420 -0.4621  0.3268 -1.0691
 4260SOL    HW224243   3.229   1.104   5.555 -0.5564 -1.4910 -1.1264
 4261SOL     OW24244   0.839   0.910   6.938 -0.4622  0.4066  0.1619
 4261SOL    HW124245   0.768   0.858   6.974  0.6240 -1.3373 -0.2118
 4261SOL    HW224246   0.907   0.847   6.915  0.6633  2.0403 -1.0080
 4262SOL     OW24247   1.964   4.308   0.172  0.4758 -0.4355  0.0551
 4262SOL    HW124248   1.935   4.369   0.240  0.4360 -1.6676  1.1425
 4262SOL    HW224249   1.974   4.378   0.108 -3.9172  0.5532  0.4358
 4263SOL     OW24250   1.392   1.727   6.107  0.1387  0.2104 -0.0358
 4263SOL    HW124251   1.433   1.641   6.115 -1.5420 -0.5658  0.2382
 4263SOL    HW224252   1.366   1.742   6.198  0.9637 -2.0496  0.5609
 4264SOL     OW24253   1.650   0.449   6.902 -0.1011 -0.3668  0.2655
 4264SOL    HW124254   1.633   0.543   6.904  0.6444 -0.2130 -0.6498
 4264SOL    HW224255   1.566   0.422   6.937 -1.1983  0.0985 -2.0434
 4265SOL     OW24256   2.565   4.655   8.322  0.1614  0.6299 -0.2835
 4265SOL    HW124257   2.488   4.668   8.265 -0.8371 -0.7248  0.7483
 4265SOL    HW224258   2.536   4.672   8.411 -1.1432 -0.2179 -0.5420
 4266SOL     OW24259   0.073   0.102   6.296  0.3612  0.7816  0.5836
 4266SOL    HW124260   0.068   0.098   6.201  0.0808  2.7399  0.4946
 4266SOL    HW224261   0.053   0.195   6.307 -1.5890  0.3607  0.5818
 4267SOL     OW24262   1.950   3.505   9.825  0.2815  0.2177 -0.0421
 4267SOL    HW124263   1.880   3.550   9.872 -1.2225 -0.1990 -1.8777
 4267SOL    HW224264   2.025   3.550   9.863  0.5990  0.0428 -0.4568
 4268SOL     OW24265   4.450   2.809   3.672  0.7809 -0.2991 -0.1764
 4268SOL    HW124266   4.461   2.902   3.656  1.1670 -0.2008  0.6830
 4268SOL    HW224267   4.354   2.816   3.670  0.8720  1.2510  1.2700
 4269SOL     OW24268   1.105   3.808   8.908  0.1747 -0.6327  0.1114
 4269SOL    HW124269   1.020   3.838   8.942  0.7890  2.1681 -0.8548
 4269SOL    HW224270   1.101   3.713   8.919  0.1998 -0.6639 -0.1675
 4270SOL     OW24271   3.720   1.195   1.999 -0.1943 -0.1025  0.5183
 4270SOL    HW124272   3.630   1.165   1.984 -0.9910  2.2246  0.7246
 4270SOL    HW224273   3.708   1.289   1.994 -1.8297 -0.4434 -1.9476
 4271SOL     OW24274   2.039   0.693   4.321  0.3994  0.4982  0.4232
 4271SOL    HW124275   2.112   0.678   4.381  1.8616  2.6633 -0.8351
 4271SOL    HW224276   2.050   0.788   4.322  1.5427  0.3661  0.1625
 4272SOL     OW24277   3.190   1.664  15.219  0.2206  0.3072  0.5560
 4272SOL    HW124278   3.206   1.581  15.175 -1.0997 -0.9026  2.3593
 4272SOL    HW224279   3.209   1.731  15.153  0.2335 -2.2270 -2.0084
 4273SOL     OW24280   3.381   0.304   1.974  0.7215 -0.1417 -0.1806
 4273SOL    HW124281   3.439   0.229   1.962  0.0306 -0.4354 -1.5765
 4273SOL    HW224282   3.308   0.271   1.923  0.5609 -1.7482  1.0624
 4274SOL     OW24283   1.033   0.143   5.790  0.3771 -0.1570 -0.2644
 4274SOL    HW124284   1.127   0.134   5.806  0.3008  0.5204  0.5906
 4274SOL    HW224285   1.017   0.078   5.721 -0.7273  1.3421 -1.4253
 4275SOL     OW24286   1.954   4.000   6.219 -0.1990  0.2591  0.3410
 4275SOL    HW124287   1.860   3.984   6.224 -0.3220  0.5164 -1.3235
 4275SOL    HW224288   1.981   3.926   6.166 -2.2582 -0.1667 -0.1278
 4276SOL     OW24289   0.162   3.604  15.359  0.6000  0.0062 -0.1596
 4276SOL    HW124290   0.224   3.568  15.422  0.8551 -0.1078 -0.4794
 4276SOL    HW224291   0.225   3.589  15.289 -0.5006 -0.7919 -0.9910
 4277SOL     OW24292   3.510   2.953   4.252 -0.9376  0.3782 -0.4032
 4277SOL    HW124293   3.520   2.859   4.263  0.8874  0.7325  1.0235
 4277SOL    HW224294   3.573   2.984   4.317 -2.3790  0.8965  0.7569
 4278SOL     OW24295   2.991   0.558   0.279  0.1006 -0.0600 -0.0491
 4278SOL    HW124296   3.036   0.588   0.358 -1.5773  0.2961  0.7837
 4278SOL    HW224297   3.059   0.501   0.243 -0.7975 -0.1316 -1.6422
 4279SOL     OW24298   4.531   4.419   5.863 -0.6612 -0.3130 -0.1472
 4279SOL    HW124299   4.593   4.447   5.795  0.0519  1.2798  1.1362
 4279SOL    HW224300   4.563   4.329   5.871 -0.1011  0.0569  1.8660
 4280SOL     OW24301   0.061   1.799  17.077  0.3432 -0.1593  0.0255
 4280SOL    HW124302   0.062   1.732  17.145 -2.1446 -0.2769 -0.0610
 4280SOL    HW224303   0.089   1.883  17.113 -0.0630 -1.2616  2.8356
 4281SOL     OW24304   2.910   3.211   3.344 -0.3252  0.4490 -0.6480
 4281SOL    HW124305   2.953   3.268   3.407  1.2592 -0.7679 -0.6515
 4281SOL    HW224306   2.986   3.195   3.288 -1.0914  0.2143 -1.6310
 4282SOL     OW24307   3.052   2.777   3.927 -0.5950 -0.5921  0.7075
 4282SOL    HW124308   3.059   2.704   3.866  0.0016 -1.1863  1.4810
 4282SOL    HW224309   3.086   2.843   3.867 -2.0510  1.0547  1.7025
 4283SOL     OW24310   0.861   2.742   3.395 -0.0056  0.3671  0.0021
 4283SOL    HW124311   0.955   2.737   3.380 -0.5289 -0.4456 -2.9688
 4283SOL    HW224312   0.833   2.758   3.305  2.9189 -1.5722 -1.2379
 4284SOL     OW24313   0.379   0.616  11.958  0.4735 -0.1264 -0.5525
 4284SOL    HW124314   0.447   0.624  12.025  0.5721  0.2399 -0.6952
 4284SOL    HW224315   0.322   0.694  11.960 -0.2975 -0.6722 -1.0334
 4285SOL     OW24316   3.843   3.887   1.954 -0.0303  0.2860  0.5494
 4285SOL    HW124317   3.859   3.929   1.870 -1.9179 -3.4010 -1.6353
 4285SOL    HW224318   3.936   3.871   1.972 -0.2375 -0.5148  0.8835
 4286SOL     OW24319   4.266   2.582   2.231  0.0209 -0.3589  0.4869
 4286SOL    HW124320   4.223   2.499   2.249  0.9276 -0.5431  1.8698
 4286SOL    HW224321   4.262   2.587   2.136 -0.4565  2.6022  0.6496
 4287SOL     OW24322   1.794   3.518   7.572  0.0835 -0.0876 -0.1673
 4287SOL    HW124323   1.806   3.486   7.661  0.2236  1.7421  0.4656
 4287SOL    HW224324   1.772   3.441   7.519 -0.3506 -0.4168  0.4892
 4288SOL     OW24325   1.168   0.287   0.322 -0.3969  0.3413  0.1132
 4288SOL    HW124326   1.200   0.221   0.384 -0.8265  0.2934  0.2817
 4288SOL    HW224327   1.112   0.233   0.267  2.7211 -1.4860 -1.2398
 4289SOL     OW24328   2.938   1.475   4.375  0.9617 -0.6154 -0.5195
 4289SOL    HW124329   2.967   1.521   4.454 -1.0035 -1.7171  0.8311
 4289SOL    HW224330   3.018   1.476   4.322  1.1785 -0.7493 -0.1880
 4290SOL     OW24331   2.548   2.076  10.378 -0.5250  0.3349  0.4808
 4290SOL    HW124332   2.528   2.015  10.307  1.5130  0.5177 -0.2696
 4290SOL    HW224333   2.495   2.147  10.343 -0.0966 -0.6613 -2.1868
 4291SOL     OW24334   3.627   2.448   0.337  0.3458 -0.5068 -0.2054
 4291SOL    HW124335   3.599   2.523   0.286 -0.2659 -1.7893 -1.7667
 4291SOL    HW224336   3.550   2.391   0.334  0.3816 -0.5315 -0.6532
 4292SOL     OW24337   0.749   3.905   0.041  0.6130 -0.5778  0.5255
 4292SOL    HW124338   0.713   3.861   0.117  0.9586  0.6458  1.3936
 4292SOL    HW224339   0.702   3.987   0.053 -1.6150 -1.9949  1.5012
 4293SOL     OW24340   0.679   4.256  14.960 -0.1704 -0.0963 -0.1347
 4293SOL    HW124341   0.671   4.300  15.045  2.0113 -0.5760  0.3088
 4293SOL    HW224342   0.773   4.271  14.953  0.0867 -1.4229  0.5353
 4294SOL     OW24343   3.610   2.141   7.113  0.1974 -0.5274 -0.4504
 4294SOL    HW124344   3.654   2.190   7.182  0.8613 -0.4340 -0.9354
 4294SOL    HW224345   3.570   2.200   7.049 -2.4501 -2.1100 -0.2823
 4295SOL     OW24346   1.079   4.622   4.879 -0.1096  0.1915 -0.5515
 4295SOL    HW124347   1.048   4.657   4.962 -1.5911  2.0068 -1.8604
 4295SOL    HW224348   1.157   4.677   4.875  0.3875 -0.4614  0.0398
 4296SOL     OW24349   3.177   3.099  16.312 -0.0465 -0.3449  0.2692
 4296SOL    HW124350   3.232   3.057  16.245 -0.0467 -0.7188  0.5047
 4296SOL    HW224351   3.092   3.070  16.281 -0.1532  3.2340 -2.7864
 4297SOL     OW24352   2.271   1.939   8.889 -0.2250  0.1384  0.3963
 4297SOL    HW124353   2.229   2.025   8.899 -0.9351  0.0122 -1.5041
 4297SOL    HW224354   2.216   1.891   8.951 -1.1685 -0.0481 -0.5707
 4298SOL     OW24355   1.570   3.181   9.478  0.1453 -0.2372 -0.4607
 4298SOL    HW124356   1.660   3.167   9.508 -0.4060  1.2395  1.9123
 4298SOL    HW224357   1.539   3.257   9.527  1.8933  0.7172 -0.8379
 4299SOL     OW24358   1.146   0.251   3.129  0.2826  0.8720 -0.0227
 4299SOL    HW124359   1.213   0.183   3.141 -2.1028 -1.8623 -2.4209
 4299SOL    HW224360   1.075   0.230   3.189  1.1658  0.0034  0.7314
 4300SOL     OW24361   4.072   2.038   2.615 -0.2201  0.3946 -0.3775
 4300SOL    HW124362   4.084   2.133   2.625  0.8095 -0.0516  2.5640
 4300SOL    HW224363   4.122   2.018   2.535 -1.8223  2.2746 -1.8587
 4301SOL     OW24364   4.155   4.281   4.901  0.3060 -0.0699 -0.3493
 4301SOL    HW124365   4.220   4.346   4.929 -2.5067  2.1717  1.0503
 4301SOL    HW224366   4.078   4.335   4.884  1.6295  1.7735 -0.5933
 4302SOL     OW24367   1.750   2.491   8.117  0.1131 -0.2819 -0.4026
 4302SOL    HW124368   1.810   2.522   8.184  0.6172 -0.0148 -0.9750
 4302SOL    HW224369   1.683   2.453   8.173 -2.6479  0.4532 -3.1642
 4303SOL     OW24370   0.907   2.851   0.198  0.3710  0.0626  0.0523
 4303SOL    HW124371   0.941   2.816   0.116  0.2910  1.6163 -0.6426
 4303SOL    HW224372   0.848   2.779   0.223  1.2511  0.1156  2.2551
 4304SOL     OW24373   1.546   4.448  17.507 -0.8288  0.1971  0.2812
 4304SOL    HW124374   1.502   4.402  17.436 -1.2381  0.0189  0.6506
 4304SOL    HW224375   1.491   4.524  17.526  0.1384  0.7031  1.0856
 4305SOL     OW24376   0.053   1.240   6.605  0.5760 -0.4852  0.6213
 4305SOL    HW124377   0.085   1.159   6.564 -0.2142 -1.1279  1.2839
 4305SOL    HW224378   0.070   1.300   6.532  0.0504 -0.5704  0.4283
 4306SOL     OW24379   3.538   3.668  13.671  0.5602 -0.2218 -0.3768
 4306SOL    HW124380   3.596   3.596  13.694 -0.0731 -0.4039  0.6517
 4306SOL    HW224381   3.561   3.670  13.578  0.4682  0.8670 -0.3842
 4307SOL     OW24382   3.060   0.841   7.799 -0.2846 -0.1326 -0.1447
 4307SOL    HW124383   3.089   0.924   7.760 -0.7653  1.2578  2.4384
 4307SOL    HW224384   2.977   0.820   7.758 -1.0209  0.8309  0.8289
 4308SOL     OW24385   1.920   4.499   3.547  0.1111 -0.2329 -0.1869
 4308SOL    HW124386   1.904   4.527   3.456  1.6967 -1.5654 -0.8874
 4308SOL    HW224387   2.016   4.498   3.547  0.1153  0.1220 -0.0754
 4309SOL     OW24388   3.505   4.557   2.558  0.3585  0.2994  0.6067
 4309SOL    HW124389   3.553   4.627   2.515  1.0698 -0.6271 -0.1339
 4309SOL    HW224390   3.502   4.600   2.643  2.2464  1.0603  0.2867
 4310SOL     OW24391   3.304   1.462  13.192  0.2915 -0.4560  0.0241
 4310SOL    HW124392   3.272   1.380  13.230  0.0803 -1.3455 -2.0578
 4310SOL    HW224393   3.397   1.441  13.199  0.6995  1.1777 -0.4211
 4311SOL     OW24394   0.002   2.807   7.167  0.5588  0.0576  0.2206
 4311SOL    HW124395   4.690   2.840   7.085  0.3940 -0.4837  0.0739
 4311SOL    HW224396   4.697   2.716   7.169 -0.3272  0.3561 -0.0798
 4312SOL     OW24397   2.151   2.421   4.069 -0.3105  0.0190  0.2925
 4312SOL    HW124398   2.132   2.397   3.979 -1.4296 -1.7894  1.0144
 4312SOL    HW224399   2.109   2.506   4.084 -0.8125 -0.2566  0.4212
 4313SOL     OW24400   1.159   2.805   3.594 -0.3530 -0.0601  0.3473
 4313SOL    HW124401   1.183   2.846   3.677  1.6598 -1.2327  0.3426
 4313SOL    HW224402   1.226   2.738   3.579 -0.2297  0.4496 -1.4407
 4314SOL     OW24403   0.960   2.223   8.039  0.3543  0.1205 -0.1904
 4314SOL    HW124404   1.001   2.185   8.116 -1.4030  0.1515  0.7622
 4314SOL    HW224405   0.978   2.317   8.046 -0.5577  0.2272  0.7114
 4315SOL     OW24406   1.415   4.374  11.575  0.0150  0.3673  0.1687
 4315SOL    HW124407   1.394   4.334  11.491  0.3269  1.7662 -0.5894
 4315SOL    HW224408   1.405   4.296  11.629 -1.6012 -1.0696 -2.2270
 4316SOL     OW24409   4.285   4.644   3.456 -0.2817 -0.3630  0.2276
 4316SOL    HW124410   4.287   4.589   3.377 -0.6024  0.1284 -0.1166
 4316SOL    HW224411   4.320   4.582   3.520 -2.2644  0.6458  2.2819
 4317SOL     OW24412   4.191   2.492   6.304  0.2303 -0.4459  0.0622
 4317SOL    HW124413   4.214   2.417   6.359  1.5925 -1.4435 -1.8709
 4317SOL    HW224414   4.128   2.456   6.241 -0.2947  0.8070 -0.1250
 4318SOL     OW24415   2.363   2.783   1.461 -0.5267 -0.0227  0.3221
 4318SOL    HW124416   2.327   2.734   1.534 -0.3853  1.0697  1.1321
 4318SOL    HW224417   2.459   2.787   1.470 -0.5117  1.1595 -0.3899
 4319SOL     OW24418   2.217   2.667  15.725  0.3104  0.2302  0.7109
 4319SOL    HW124419   2.203   2.706  15.811 -0.3374  0.0741  0.6768
 4319SOL    HW224420   2.308   2.639  15.733  0.9481  2.2259  0.5357
 4320SOL     OW24421   4.415   1.304   8.224 -0.1014 -0.3939  0.4502
 4320SOL    HW124422   4.484   1.269   8.280  0.3750  0.7110  0.5506
 4320SOL    HW224423   4.383   1.377   8.278  2.5457  2.5663 -1.9314
 4321SOL     OW24424   2.374   2.667  16.083  1.0734  0.0846 -0.3453
 4321SOL    HW124425   2.468   2.674  16.064  1.0341  0.3681 -0.4323
 4321SOL    HW224426   2.364   2.572  16.087 -3.0817  0.4830 -2.2684
 4322SOL     OW24427   4.088   3.336  13.542  0.0916  0.2420 -0.0852
 4322SOL    HW124428   4.024   3.308  13.608  1.4755  0.4240  1.3332
 4322SOL    HW224429   4.052   3.300  13.461 -0.3969  0.4446  0.0357
 4323SOL     OW24430   1.990   0.690   7.660  0.1446  0.4345  0.2383
 4323SOL    HW124431   1.939   0.616   7.694 -1.0474  0.7520 -0.8427
 4323SOL    HW224432   2.057   0.687   7.728  0.5499 -1.3374 -0.2478
 4324SOL     OW24433   1.287   0.405  12.784  0.4651  0.4106 -0.8636
 4324SOL    HW124434   1.278   0.407  12.879  0.4820  2.3143 -0.8966
 4324SOL    HW224435   1.351   0.333  12.780  1.1182  0.9481 -0.0404
 4325SOL     OW24436   0.492   2.123   9.918  0.7260  0.2405 -0.0465
 4325SOL    HW124437   0.558   2.061   9.949  0.2306 -0.3387 -0.1353
 4325SOL    HW224438   0.447   2.149   9.999  0.8306 -1.5957  0.5988
 4326SOL     OW24439   4.218   1.521  14.166 -0.1818 -0.1998 -0.2464
 4326SOL    HW124440   4.147   1.547  14.107 -0.2096  1.7047  0.6253
 4326SOL    HW224441   4.203   1.579  14.241 -1.8439 -0.0613 -0.6804
 4327SOL     OW24442   3.997   3.578  11.734  0.0036 -0.4851  0.4784
 4327SOL    HW124443   4.062   3.551  11.798  0.9152  0.9277  0.1644
 4327SOL    HW224444   3.915   3.554  11.777  1.1520 -1.8650  1.8863
 4328SOL     OW24445   2.622   1.006   7.901 -0.3469 -0.3063 -0.4520
 4328SOL    HW124446   2.716   1.023   7.906 -0.2415 -0.9961 -0.0527
 4328SOL    HW224447   2.584   0.991   7.988 -2.0984  0.3238 -1.1090
 4329SOL     OW24448   3.977   2.031   4.412  0.4281  0.4777 -0.1187
 4329SOL    HW124449   3.965   2.050   4.505 -0.9392 -2.3828  0.3150
 4329SOL    HW224450   4.003   2.118   4.381 -0.9038  0.3409 -1.6275
 4330SOL     OW24451   3.039   4.610  16.864 -0.1637  0.1547 -0.3863
 4330SOL    HW124452   3.058   4.526  16.821 -0.4312 -0.8314  1.4332
 4330SOL    HW224453   3.077   4.681  16.812 -2.4135  0.7000 -1.2863
 4331SOL     OW24454   3.020   0.132   7.915 -0.4115  0.0470  0.2208
 4331SOL    HW124455   3.102   0.105   7.873 -0.0402 -0.4066  1.2454
 4331SOL    HW224456   2.963   0.098   7.847 -2.4587 -0.1698  2.0576
 4332SOL     OW24457   1.734   0.915   5.131  0.3126  0.1017 -0.1095
 4332SOL    HW124458   1.739   0.833   5.180 -1.0627 -0.5270 -1.0371
 4332SOL    HW224459   1.679   0.896   5.055  1.6647 -1.0291 -0.8057
 4333SOL     OW24460   3.850   1.526   0.274 -0.1720  0.6322 -0.0683
 4333SOL    HW124461   3.895   1.565   0.349  0.0430  0.3200 -0.0334
 4333SOL    HW224462   3.844   1.602   0.215 -1.8836 -0.3820 -1.2142
 4334SOL     OW24463   1.326   3.761   4.577 -0.5530 -0.0750 -0.0179
 4334SOL    HW124464   1.250   3.760   4.520 -0.5547 -2.9210  0.0519
 4334SOL    HW224465   1.318   3.856   4.583  1.0597  0.0922 -0.7470
 4335SOL     OW24466   2.224   1.236   6.453  0.1033  0.7498 -0.7397
 4335SOL    HW124467   2.173   1.279   6.384  0.5646 -2.5609 -3.0954
 4335SOL    HW224468   2.296   1.212   6.395  2.4420 -1.2882  2.9875
 4336SOL     OW24469   0.501   1.652   1.082  0.0932  0.0763 -0.4542
 4336SOL    HW124470   0.460   1.579   1.034 -0.1924  0.2400 -0.4590
 4336SOL    HW224471   0.533   1.713   1.015  0.5150 -0.8021 -1.0585
 4337SOL     OW24472   3.265   3.670   3.771  0.0595 -0.5570  0.1201
 4337SOL    HW124473   3.207   3.741   3.745  1.2185 -0.0908 -1.1944
 4337SOL    HW224474   3.351   3.690   3.734 -0.0967 -1.4120 -0.7133
 4338SOL     OW24475   0.388   4.001  10.118 -0.1726 -0.1365 -0.2377
 4338SOL    HW124476   0.454   4.020  10.185  0.4438 -0.6915 -0.6817
 4338SOL    HW224477   0.448   3.973  10.049 -1.7913 -1.7898 -0.9618
 4339SOL     OW24478   2.846   3.164   0.048  0.2767 -0.3365 -0.3938
 4339SOL    HW124479   2.827   3.223  17.677  0.1808  1.3393  0.9817
 4339SOL    HW224480   2.862   3.077   0.010  0.8144 -0.9227  1.1793
 4340SOL     OW24481   4.292   2.263  11.253 -0.1605  0.0079  0.6719
 4340SOL    HW124482   4.312   2.212  11.174  1.3913  0.1531  0.9798
 4340SOL    HW224483   4.196   2.261  11.259 -0.2725  0.1002 -1.0476
 4341SOL     OW24484   4.569   2.155   6.708  0.5162  0.2109 -0.7172
 4341SOL    HW124485   4.566   2.093   6.781 -0.5199  0.8460 -0.2032
 4341SOL    HW224486   4.659   2.162   6.678  0.7930  2.0007  0.5032
 4342SOL     OW24487   1.096   2.460   4.944 -0.4334  0.0046  0.1950
 4342SOL    HW124488   1.029   2.392   4.956 -0.6201 -0.0618 -1.2274
 4342SOL    HW224489   1.144   2.415   4.875 -0.0298  1.7640 -0.6636
 4343SOL     OW24490   4.021   2.792   7.161  0.1057  0.7333 -0.4153
 4343SOL    HW124491   4.085   2.835   7.218  1.3707 -1.2622 -0.3452
 4343SOL    HW224492   4.063   2.716   7.121 -1.6760  0.6657 -2.2087
 4344SOL     OW24493   0.715   2.682  14.081  0.5518  0.1815 -0.7427
 4344SOL    HW124494   0.691   2.593  14.108 -2.0785  1.2331  0.3485
 4344SOL    HW224495   0.734   2.717  14.168 -0.9857 -0.8359 -0.0051
 4345SOL     OW24496   0.405   0.580   1.741  0.0855 -0.0192  0.2628
 4345SOL    HW124497   0.366   0.595   1.655  1.2838 -0.1550 -0.2957
 4345SOL    HW224498   0.467   0.651   1.752 -0.1440  0.1105  0.6992
 4346SOL     OW24499   1.934   0.609  12.846  0.6169  0.0789 -0.2383
 4346SOL    HW124500   1.904   0.533  12.895 -0.9048 -0.3624 -1.8538
 4346SOL    HW224501   2.023   0.577  12.836  0.4335 -0.8649  1.1278
 4347SOL     OW24502   1.303   2.803   8.962  0.3375  0.1011  0.1932
 4347SOL    HW124503   1.352   2.730   8.999  0.4063 -0.6609 -1.4276
 4347SOL    HW224504   1.368   2.873   8.962  1.4308 -0.9333  1.1399
 4348SOL     OW24505   1.302   2.030   8.513  0.0239  0.6660  0.2013
 4348SOL    HW124506   1.374   2.049   8.573  0.3962 -0.3000  0.0658
 4348SOL    HW224507   1.239   2.099   8.534 -1.3133 -0.5112  0.1175
 4349SOL     OW24508   0.231   3.526  11.209  0.0514  0.4773 -0.4244
 4349SOL    HW124509   0.298   3.592  11.229  1.6468 -2.0398  2.4019
 4349SOL    HW224510   0.283   3.475  11.147 -0.5878 -0.0262 -0.5463
 4350SOL     OW24511   1.568   0.906   2.480  0.4047  0.4720 -0.1428
 4350SOL    HW124512   1.593   0.912   2.388  2.7025 -3.7147  0.2078
 4350SOL    HW224513   1.492   0.964   2.484  1.6313  2.1268 -0.8586
 4351SOL     OW24514   2.747   1.154   3.696  0.5365 -0.4633 -0.1530
 4351SOL    HW124515   2.840   1.165   3.716  0.5735  1.7492 -1.4537
 4351SOL    HW224516   2.736   1.245   3.667  1.1404 -0.8489 -1.5694
 4352SOL     OW24517   1.619   4.017  11.597 -0.2792 -0.2162 -0.1911
 4352SOL    HW124518   1.674   4.095  11.605  0.8564 -0.7977 -2.2276
 4352SOL    HW224519   1.683   3.955  11.633 -1.1271 -1.6536 -1.1602
 4353SOL     OW24520   1.670   0.315   9.939 -0.5242 -0.0862 -0.3796
 4353SOL    HW124521   1.671   0.310   9.844  0.1820 -0.5016 -0.3455
 4353SOL    HW224522   1.656   0.222   9.952 -2.3912  0.1707 -0.6107
 4354SOL     OW24523   3.623   2.517  16.604  0.4359 -0.9609  0.2080
 4354SOL    HW124524   3.557   2.573  16.643  1.6896  0.4338  0.3483
 4354SOL    HW224525   3.569   2.442  16.581 -0.2044 -0.7071  0.8839
 4355SOL     OW24526   3.705   4.353   9.818 -0.1209  0.3040 -0.4467
 4355SOL    HW124527   3.775   4.381   9.758  0.7599 -0.5281  0.1790
 4355SOL    HW224528   3.747   4.376   9.901  1.6353  0.7217 -1.4361
 4356SOL     OW24529   4.606   2.566   1.935 -0.1144  0.3553  0.3687
 4356SOL    HW124530   4.533   2.611   1.893  0.7949 -0.0744 -1.7074
 4356SOL    HW224531   4.669   2.585   1.866 -1.6604  3.0698 -0.3231
 4357SOL     OW24532   2.624   0.043   4.755 -0.3718 -0.2765 -0.4192
 4357SOL    HW124533   2.567   0.067   4.682 -0.2333 -0.8246 -0.7073
 4357SOL    HW224534   2.565   0.049   4.829  0.4840  3.0328 -0.0179
 4358SOL     OW24535   2.849   2.400   4.078 -0.3767 -0.0326  0.2827
 4358SOL    HW124536   2.900   2.390   3.997 -2.4957 -1.3462 -0.8790
 4358SOL    HW224537   2.857   2.493   4.101 -0.8074  0.4416 -1.4572
 4359SOL     OW24538   2.788   4.142   7.513  0.3941 -0.1723 -0.2933
 4359SOL    HW124539   2.871   4.185   7.496  0.8743 -1.1702 -0.4784
 4359SOL    HW224540   2.760   4.181   7.596  0.4723  0.7516 -0.6988
 4360SOL     OW24541   3.574   1.433   5.806 -0.6966  0.4097 -0.2884
 4360SOL    HW124542   3.635   1.504   5.827  0.4697 -0.3193 -1.2049
 4360SOL    HW224543   3.535   1.417   5.892 -1.6749 -2.7795 -1.3258
 4361SOL     OW24544   3.364   1.972   7.228 -0.0116  0.4556  0.4023
 4361SOL    HW124545   3.455   1.995   7.246  0.2364  0.5496 -0.9925
 4361SOL    HW224546   3.346   1.919   7.306  0.8759 -1.5244 -0.7405
 4362SOL     OW24547   2.352   2.655  14.888  0.3491  0.0210  0.1659
 4362SOL    HW124548   2.438   2.635  14.849  0.5927  0.9285  0.2497
 4362SOL    HW224549   2.329   2.588  14.952  1.3771 -2.4904 -2.0666
 4363SOL     OW24550   0.739   2.921   1.305 -0.1674  0.1549 -0.6249
 4363SOL    HW124551   0.666   2.870   1.269 -0.4874 -0.6630  1.1556
 4363SOL    HW224552   0.735   3.000   1.252 -1.9604 -0.1385 -0.9455
 4364SOL     OW24553   2.666   4.353  17.348  0.8107 -0.1725  0.0343
 4364SOL    HW124554   2.598   4.356  17.415 -0.3405 -1.6313 -1.0544
 4364SOL    HW224555   2.665   4.439  17.306 -0.1853  0.0729  0.5852
 4365SOL     OW24556   2.883   1.696  15.172 -0.5490 -0.1570  0.4861
 4365SOL    HW124557   2.972   1.729  15.184 -0.6881  0.1138  0.7489
 4365SOL    HW224558   2.852   1.748  15.098 -0.5259 -0.2175  0.4337
 4366SOL     OW24559   4.461   2.600   2.497 -0.3592  0.4367  0.0741
 4366SOL    HW124560   4.469   2.544   2.420  0.0762  1.9666 -1.0049
 4366SOL    HW224561   4.462   2.536   2.567 -3.3984  0.8948  0.5549
 4367SOL     OW24562   1.493   2.229  11.048  0.1668 -0.0055  0.1929
 4367SOL    HW124563   1.582   2.217  11.081  1.2457 -0.1648 -2.7220
 4367SOL    HW224564   1.502   2.210  10.954  0.9557  3.1526 -0.3778
 4368SOL     OW24565   2.480   4.491   6.211  0.4200 -0.1688 -0.4348
 4368SOL    HW124566   2.561   4.533   6.240  0.2015  0.4139 -0.6776
 4368SOL    HW224567   2.456   4.443   6.290 -0.2850  0.9828  0.0414
 4369SOL     OW24568   0.578   4.542   4.522 -0.0351 -0.6997 -0.2262
 4369SOL    HW124569   0.665   4.563   4.488  0.7471 -1.1398  1.5265
 4369SOL    HW224570   0.570   4.605   4.594  3.0941  0.5924 -1.0271
 4370SOL     OW24571   2.357   1.631   2.109 -0.4005 -0.0277  0.4317
 4370SOL    HW124572   2.314   1.548   2.089  0.8187 -0.5498 -0.0185
 4370SOL    HW224573   2.284   1.688   2.083  0.3933  0.2113 -1.2353
 4371SOL     OW24574   1.304   1.916  15.406 -0.7496 -0.1268 -0.5351
 4371SOL    HW124575   1.213   1.893  15.422 -0.6858 -0.1548 -0.2128
 4371SOL    HW224576   1.333   1.842  15.352 -0.3878 -1.8199  1.9643
 4372SOL     OW24577   1.880   0.575  17.176  0.4750 -0.7827 -0.2361
 4372SOL    HW124578   1.887   0.567  17.081 -0.7305 -2.4353 -0.1908
 4372SOL    HW224579   1.963   0.620  17.193  0.4413 -0.9036  0.2563
 4373SOL     OW24580   4.115   0.821  11.695 -0.0969  0.0027  0.1391
 4373SOL    HW124581   4.160   0.866  11.767 -2.4570  0.4484  1.3228
 4373SOL    HW224582   4.189   0.773  11.657  0.0070  1.6494 -1.7373
 4374SOL     OW24583   0.922   0.781   2.613  0.3461  0.8065  0.1603
 4374SOL    HW124584   0.965   0.856   2.573  0.4610  0.3289 -0.6193
 4374SOL    HW224585   0.915   0.720   2.539  1.5939  0.0400  0.6734
 4375SOL     OW24586   2.354   1.732   3.714  0.4537 -0.7589 -0.1736
 4375SOL    HW124587   2.425   1.682   3.756  0.3585 -1.1816 -0.5185
 4375SOL    HW224588   2.401   1.785   3.649 -0.4462 -0.1152 -0.2928
 4376SOL     OW24589   0.404   3.201  13.520  0.8013 -0.7867  0.7457
 4376SOL    HW124590   0.328   3.251  13.489  0.3765 -2.0807 -0.2985
 4376SOL    HW224591   0.464   3.269  13.550 -0.4708  0.3924  0.6334
 4377SOL     OW24592   3.806   1.706   2.962 -0.1311 -0.1451  0.1940
 4377SOL    HW124593   3.782   1.704   3.055  3.4478  0.2814  1.1240
 4377SOL    HW224594   3.736   1.653   2.924 -1.0409  1.2255 -0.0365
 4378SOL     OW24595   2.622   1.658   2.139  0.0233  0.2244 -0.5562
 4378SOL    HW124596   2.528   1.641   2.134  0.0899  0.6276 -3.3460
 4378SOL    HW224597   2.643   1.629   2.050 -0.7486 -1.5929 -0.1532
 4379SOL     OW24598   3.243   1.646   8.467 -0.4275  0.6441 -0.3421
 4379SOL    HW124599   3.183   1.657   8.394  0.3609 -0.5611 -1.1893
 4379SOL    HW224600   3.275   1.556   8.461  0.5851  0.8520  1.7909
 4380SOL     OW24601   1.436   3.938   0.148  0.1475  0.4144 -0.1657
 4380SOL    HW124602   1.483   3.855   0.137  1.1039  0.5708  2.6912
 4380SOL    HW224603   1.347   3.903   0.146  0.2153  0.0884  2.2446
 4381SOL     OW24604   2.034   2.318   8.587 -0.1456 -0.1455  0.1445
 4381SOL    HW124605   2.018   2.403   8.545  1.2435 -0.5012 -1.1186
 4381SOL    HW224606   1.981   2.329   8.665 -1.0173  1.3519 -0.6721
 4382SOL     OW24607   2.015   3.180  16.961 -0.0264 -0.3272 -0.3931
 4382SOL    HW124608   2.069   3.213  17.032  0.0837  2.0566 -1.5794
 4382SOL    HW224609   1.942   3.150  17.015 -1.3229  1.2517 -1.2759
 4383SOL     OW24610   2.371   1.285  16.872 -0.1519 -0.1589  0.2224
 4383SOL    HW124611   2.356   1.359  16.932  0.2426  0.0092  0.1134
 4383SOL    HW224612   2.321   1.220  16.921  1.3566 -1.5762 -0.1149
 4384SOL     OW24613   1.101   1.572  16.703 -0.3429 -0.0112  0.0547
 4384SOL    HW124614   1.127   1.539  16.789  2.4093  0.9101 -0.4283
 4384SOL    HW224615   1.188   1.573  16.663 -0.4504  2.0676 -0.1479
 4385SOL     OW24616   4.100   1.550   7.551  0.0612 -0.2166 -0.7436
 4385SOL    HW124617   4.149   1.610   7.493 -0.1080 -0.5013 -1.1797
 4385SOL    HW224618   4.087   1.617   7.619  0.8598 -1.9560  1.1129
 4386SOL     OW24619   0.179   4.646   8.522  0.3379 -0.2195 -0.4434
 4386SOL    HW124620   0.162   4.634   8.615 -0.2804 -0.1914 -0.5538
 4386SOL    HW224621   0.151   0.011   8.505  1.1041  0.0433 -0.3065
 4387SOL     OW24622   0.491   4.490   1.405  0.2237  0.5531  0.3632
 4387SOL    HW124623   0.474   4.459   1.494  0.9880  0.9317  0.6373
 4387SOL    HW224624   0.403   4.480   1.367  0.1376  0.3358  0.6172
 4388SOL     OW24625   3.332   3.742  14.857  0.3723 -0.5594  0.2346
 4388SOL    HW124626   3.333   3.780  14.945  2.4912 -0.4203  0.1443
 4388SOL    HW224627   3.238   3.727  14.853  0.0980  1.2274 -0.0857
 4389SOL     OW24628   2.665   0.134   2.684  0.5345 -1.0030  0.6832
 4389SOL    HW124629   2.651   0.090   2.601  0.2424 -2.2414  1.3922
 4389SOL    HW224630   2.695   0.066   2.745 -1.4442  0.0895  2.8980
 4390SOL     OW24631   2.106   1.767  10.917  0.1517 -0.6094 -0.2395
 4390SOL    HW124632   2.164   1.841  10.932  0.6367 -1.1337  0.5184
 4390SOL    HW224633   2.107   1.721  11.001 -0.8065  0.8787  0.5798
 4391SOL     OW24634   0.075   1.505   5.838  0.4639  0.3287 -0.4790
 4391SOL    HW124635   0.165   1.486   5.812  0.3890 -0.4927 -0.1562
 4391SOL    HW224636   0.094   1.578   5.896 -4.1408  1.7565 -0.7542
 4392SOL     OW24637   3.898   2.271   0.439 -0.8898  0.2360 -0.3233
 4392SOL    HW124638   3.838   2.201   0.413  0.4979 -0.7296 -0.9324
 4392SOL    HW224639   3.930   2.237   0.523  1.5654  3.1475 -0.0920
 4393SOL     OW24640   3.707   3.066  11.479  0.7117  0.7910 -0.1036
 4393SOL    HW124641   3.723   2.979  11.443  1.7615  1.0130 -0.1739
 4393SOL    HW224642   3.727   3.125  11.407 -0.4401  1.9888  0.5406
 4394SOL     OW24643   2.072   4.052   6.960  0.0243  0.2322 -0.2339
 4394SOL    HW124644   2.117   4.111   7.020  0.5493  0.5224 -0.9104
 4394SOL    HW224645   1.981   4.054   6.992  0.1502  0.1094  0.1302
 4395SOL     OW24646   2.667   3.956   5.035  0.5573  0.2060 -0.2028
 4395SOL    HW124647   2.682   3.910   4.953 -0.2201  0.1202 -0.2928
 4395SOL    HW224648   2.589   3.910   5.067 -0.8158  4.7260  3.0631
 4396SOL     OW24649   0.443   0.962   9.779  0.6057 -0.5155  0.2874
 4396SOL    HW124650   0.394   0.881   9.767 -0.1386 -0.5709  3.7222
 4396SOL    HW224651   0.392   1.009   9.845  0.1185  0.7166 -0.9460
 4397SOL     OW24652   1.026   1.104   4.762  0.3075 -0.7764 -0.2163
 4397SOL    HW124653   1.073   1.173   4.715 -0.9502  0.1179 -0.1491
 4397SOL    HW224654   1.051   1.127   4.851 -0.6818  0.1887 -0.1961
 4398SOL     OW24655   4.635   0.792   4.789 -0.6328  0.1235 -0.5741
 4398SOL    HW124656   4.560   0.737   4.765 -0.7214 -0.2000  0.4430
 4398SOL    HW224657   4.709   0.755   4.741  0.7791 -1.2940  2.6844
 4399SOL     OW24658   1.153   3.693   7.068 -0.2552  0.0474 -0.6361
 4399SOL    HW124659   1.231   3.720   7.019 -1.1048  0.3837 -1.8011
 4399SOL    HW224660   1.088   3.702   6.998  0.2556 -1.6591 -1.3246
 4400SOL     OW24661   0.345   1.106   8.132  0.1236  0.1603 -0.3786
 4400SOL    HW124662   0.360   1.195   8.164  2.2160 -1.1426  2.2475
 4400SOL    HW224663   0.436   1.077   8.122  0.7971  2.7613 -1.7688
 4401SOL     OW24664   0.698   4.172   7.377 -0.1627 -0.2308  0.1776
 4401SOL    HW124665   0.701   4.267   7.382 -0.3772 -0.1307 -1.6657
 4401SOL    HW224666   0.750   4.150   7.300  1.8153  0.9151  1.2007
 4402SOL     OW24667   3.158   3.529   2.195 -0.5957 -0.6231  0.3295
 4402SOL    HW124668   3.179   3.610   2.241 -1.7021  0.1291 -0.5319
 4402SOL    HW224669   3.159   3.550   2.102 -1.3793  1.9736  0.9018
 4403SOL     OW24670   1.899   4.611   9.555  0.2459 -0.3473  0.3557
 4403SOL    HW124671   1.980   4.635   9.509  0.1914 -1.5281 -0.3764
 4403SOL    HW224672   1.864   4.557   9.483  1.9149  0.9987 -1.4740
 4404SOL     OW24673   0.605   0.442   7.885 -0.7987 -0.0541  0.5077
 4404SOL    HW124674   0.628   0.351   7.863  3.9783  1.1198  0.6559
 4404SOL    HW224675   0.560   0.421   7.967  0.3146 -1.9983  0.6350
 4405SOL     OW24676   2.996   1.404   2.695  0.7038  0.4294  0.0837
 4405SOL    HW124677   2.905   1.405   2.726  0.8155 -1.2650  0.4726
 4405SOL    HW224678   2.984   1.439   2.607 -1.7279 -0.2001  0.1845
 4406SOL     OW24679   0.375   2.294   1.059 -0.0905 -0.4828  0.5233
 4406SOL    HW124680   0.282   2.271   1.063 -0.0254 -0.7443  0.5260
 4406SOL    HW224681   0.358   2.376   1.012 -1.0899 -0.1208  1.5302
 4407SOL     OW24682   1.284   0.254   6.809 -0.1943 -0.0018  0.0580
 4407SOL    HW124683   1.311   0.268   6.899 -2.2795  1.9031  0.3813
 4407SOL    HW224684   1.356   0.215   6.759 -1.4483 -0.6216 -1.2907
 4408SOL     OW24685   2.212   4.574   4.588 -0.2085  0.1566  0.1127
 4408SOL    HW124686   2.245   4.486   4.572 -4.1190 -1.0298 -1.3484
 4408SOL    HW224687   2.118   4.558   4.580  0.2038 -1.1205 -2.3013
 4409SOL     OW24688   1.039   3.028  17.395 -0.0033 -0.0461  0.6765
 4409SOL    HW124689   0.969   3.084  17.429  1.2838  1.8237  0.2431
 4409SOL    HW224690   1.082   2.983  17.467  1.3900  1.1948  0.6108
 4410SOL     OW24691   1.381   2.586   7.988  0.3406  0.0361 -0.2584
 4410SOL    HW124692   1.390   2.636   8.069  0.6420  0.4827 -0.5719
 4410SOL    HW224693   1.444   2.625   7.928  1.8053 -0.1862  1.1266
 4411SOL     OW24694   3.555   2.775  11.733  0.0944 -0.3946 -0.7150
 4411SOL    HW124695   3.494   2.703  11.747 -0.3380  0.4534  1.8801
 4411SOL    HW224696   3.638   2.732  11.753 -0.5682 -1.3235  0.0448
 4412SOL     OW24697   0.479   2.199   7.003  0.5882  0.2918  0.2406
 4412SOL    HW124698   0.567   2.237   6.997  1.9341 -2.5832  1.9997
 4412SOL    HW224699   0.483   2.123   6.945  2.2563  0.2614  0.4015
 4413SOL     OW24700   0.262   2.916   5.171  0.4085  0.6671  0.2043
 4413SOL    HW124701   0.342   2.900   5.122 -0.8915  0.7892 -1.9480
 4413SOL    HW224702   0.204   2.856   5.123  1.8754  0.1209 -0.8738
 4414SOL     OW24703   2.205   2.130   6.133  0.3549 -1.1184  0.2466
 4414SOL    HW124704   2.293   2.164   6.150 -0.4034  0.5822  0.7172
 4414SOL    HW224705   2.168   2.127   6.222  1.6453 -0.8993  0.7887
 4415SOL     OW24706   3.720   3.052   2.073  0.0163 -0.7902  0.2365
 4415SOL    HW124707   3.811   3.065   2.101 -0.7646  0.9149  1.9931
 4415SOL    HW224708   3.721   2.957   2.065  0.8420 -0.5815 -2.0421
 4416SOL     OW24709   4.198   1.478   1.954  0.4145 -0.0535  1.1180
 4416SOL    HW124710   4.116   1.429   1.954 -0.1921  0.9508 -0.0097
 4416SOL    HW224711   4.161   1.560   1.987  2.1983  1.3881 -0.4519
 4417SOL     OW24712   0.927   2.224   1.891 -0.0723 -0.2277 -0.6919
 4417SOL    HW124713   0.892   2.229   1.803  0.8367  0.3289 -1.0210
 4417SOL    HW224714   0.955   2.133   1.886  1.2874  0.1934 -0.8240
 4418SOL     OW24715   1.082   1.767   1.261 -0.4163 -0.1556 -0.3633
 4418SOL    HW124716   1.004   1.719   1.233 -0.5206 -0.7867  1.0056
 4418SOL    HW224717   1.061   1.852   1.222 -1.6610  0.6436  2.0547
 4419SOL     OW24718   3.095   0.320   8.278  0.2402  0.0806 -0.1433
 4419SOL    HW124719   3.013   0.344   8.234  0.3791  2.1373  0.7122
 4419SOL    HW224720   3.083   0.236   8.323  2.6786 -0.6351 -0.8454
 4420SOL     OW24721   3.482   3.819   3.711 -0.2022 -0.2971  0.6607
 4420SOL    HW124722   3.500   3.851   3.622  1.5359 -0.7646  0.8501
 4420SOL    HW224723   3.568   3.831   3.751 -1.2028  1.4309  2.3283
 4421SOL     OW24724   2.566   0.561   3.665 -0.4795 -0.1625  0.2558
 4421SOL    HW124725   2.527   0.485   3.621 -1.2222  0.1195  0.4139
 4421SOL    HW224726   2.657   0.536   3.654 -1.4881 -2.5661 -2.7110
 4422SOL     OW24727   0.679   1.181   1.477  0.2509  0.4722 -0.4419
 4422SOL    HW124728   0.638   1.095   1.468  0.4694  0.4451 -1.1627
 4422SOL    HW224729   0.604   1.237   1.456 -0.2212  0.9294  2.3948
 4423SOL     OW24730   3.325   4.408   4.194 -0.0669 -0.4915  0.2454
 4423SOL    HW124731   3.322   4.504   4.187  1.2108 -0.4887 -0.2650
 4423SOL    HW224732   3.231   4.395   4.197  0.0201 -1.1832 -0.2684
 4424SOL     OW24733   3.384   1.281   7.999 -0.4164  0.3681  0.2218
 4424SOL    HW124734   3.355   1.229   8.074  1.8208  0.4801  1.1584
 4424SOL    HW224735   3.454   1.324   8.047 -1.2719  1.3020  0.6397
 4425SOL     OW24736   1.219   2.924  12.002 -0.7051 -0.3437 -0.3017
 4425SOL    HW124737   1.226   2.838  12.043  1.3627 -0.9034 -1.8339
 4425SOL    HW224738   1.135   2.963  12.025 -0.0125  0.5064  0.7972
 4426SOL     OW24739   4.078   1.626   0.461 -0.8875  0.5527  0.4902
 4426SOL    HW124740   4.067   1.717   0.488 -1.6229  1.1130 -1.6787
 4426SOL    HW224741   4.173   1.615   0.468 -0.5862  0.9135 -3.1514
 4427SOL     OW24742   1.076   3.038  14.791 -0.6717 -0.3999  0.0262
 4427SOL    HW124743   1.010   2.970  14.796 -1.4312  0.3026 -0.4538
 4427SOL    HW224744   1.029   3.105  14.742  1.4297  0.0938 -1.3243
 4428SOL     OW24745   1.823   2.516   2.132  0.3243 -0.4184 -0.1322
 4428SOL    HW124746   1.817   2.459   2.055  0.5097 -0.6706  0.0418
 4428SOL    HW224747   1.854   2.597   2.091  2.8467 -0.9208  0.8204
 4429SOL     OW24748   1.693   3.640   3.196  0.1050 -0.0321  0.4885
 4429SOL    HW124749   1.668   3.619   3.106  1.3909 -1.0725  0.3749
 4429SOL    HW224750   1.778   3.596   3.200 -0.2894 -0.7926  0.7251
 4430SOL     OW24751   3.298   3.227   4.984 -0.1768  0.6648 -0.1148
 4430SOL    HW124752   3.237   3.197   5.051 -0.0462  0.3095 -0.1559
 4430SOL    HW224753   3.236   3.241   4.912 -0.9389  1.9140  0.7677
 4431SOL     OW24754   0.572   2.658   4.759  0.2890 -0.0993  0.4056
 4431SOL    HW124755   0.546   2.569   4.737  1.1134  0.4813 -2.8881
 4431SOL    HW224756   0.612   2.701   4.683 -0.4573  0.0945  0.1259
 4432SOL     OW24757   4.142   0.264   1.350 -0.4086  0.5680  0.2675
 4432SOL    HW124758   4.121   0.337   1.291  1.7563  1.3778  0.5037
 4432SOL    HW224759   4.053   0.229   1.359  0.1203 -1.6027 -3.0005
 4433SOL     OW24760   0.811   4.351   7.933 -0.3904  0.2253  0.2634
 4433SOL    HW124761   0.872   4.379   7.865 -0.9130  0.4174 -0.1227
 4433SOL    HW224762   0.834   4.259   7.948 -0.0972  0.0863 -1.0279
 4434SOL     OW24763   1.016   0.820   1.754  0.0620 -0.5524  0.4657
 4434SOL    HW124764   1.044   0.776   1.674 -0.9517 -1.3915  0.5730
 4434SOL    HW224765   0.923   0.797   1.765  0.1891 -0.7784  1.0752
 4435SOL     OW24766   0.867   2.200   1.470 -0.2216  0.1301 -0.1185
 4435SOL    HW124767   0.875   2.282   1.519 -1.5800  0.5086 -0.5348
 4435SOL    HW224768   0.854   2.141   1.545  1.4713  0.7642  0.6845
 4436SOL     OW24769   2.038   2.257   3.805  0.0393  0.0743  0.3267
 4436SOL    HW124770   1.986   2.328   3.842  0.9312  1.1796 -0.5195
 4436SOL    HW224771   1.975   2.205   3.755  1.4929 -1.3183 -0.0950
 4437SOL     OW24772   4.533   0.619  12.653 -0.0060 -0.7158  0.0429
 4437SOL    HW124773   4.554   0.637  12.562  0.1088 -0.9672  0.0208
 4437SOL    HW224774   4.596   0.680  12.691  0.8177 -0.5116 -1.6732
 4438SOL     OW24775   1.730   3.299   3.490  0.1961  0.2398  0.2074
 4438SOL    HW124776   1.822   3.318   3.472 -0.3029  0.9661 -1.6319
 4438SOL    HW224777   1.701   3.275   3.402 -1.2258 -1.9439  1.2823
 4439SOL     OW24778   0.183   0.565   6.391  0.0887  0.4220  0.3119
 4439SOL    HW124779   0.156   0.622   6.319 -0.0849 -0.0005  0.0415
 4439SOL    HW224780   0.123   0.581   6.463  1.1990 -0.4544  1.4262
 4440SOL     OW24781   1.754   0.305   2.963  0.2138 -0.1676  0.5289
 4440SOL    HW124782   1.741   0.322   3.056  4.3385 -0.5855  1.1630
 4440SOL    HW224783   1.832   0.250   2.961 -0.2579 -0.8658  1.3952
 4441SOL     OW24784   4.441   4.602   4.297  0.0370 -0.2411 -0.3923
 4441SOL    HW124785   4.475   4.675   4.348 -1.3623  1.5698 -2.0534
 4441SOL    HW224786   4.369   4.577   4.355  0.3876 -0.7360 -0.1784
 4442SOL     OW24787   3.886   0.478   1.198 -0.0916  0.2634 -0.7883
 4442SOL    HW124788   3.978   0.464   1.176 -0.1243  1.9885 -1.9990
 4442SOL    HW224789   3.841   0.502   1.117 -0.9751 -0.4515 -0.5082
 4443SOL     OW24790   1.742   0.832   8.871 -0.3056 -0.4231 -0.1922
 4443SOL    HW124791   1.684   0.873   8.935  0.8327  0.5178  0.2349
 4443SOL    HW224792   1.756   0.748   8.916 -0.2529 -1.0683 -1.4346
 4444SOL     OW24793   0.391   3.535   8.624  0.6010 -0.3188 -0.4709
 4444SOL    HW124794   0.429   3.537   8.712 -2.7091  0.7820  0.9116
 4444SOL    HW224795   0.356   3.447   8.611 -0.9209  0.1354  0.5805
 4445SOL     OW24796   1.706   1.250   9.239 -0.5671  0.0767  0.3171
 4445SOL    HW124797   1.614   1.228   9.253 -0.2913 -1.7483 -0.6772
 4445SOL    HW224798   1.750   1.165   9.236 -1.5516 -0.5134  2.2028
 4446SOL     OW24799   2.710   1.242   4.491  0.5311  0.5192 -0.5340
 4446SOL    HW124800   2.669   1.166   4.533  1.1114  1.0327  0.9672
 4446SOL    HW224801   2.788   1.209   4.446  0.3328 -1.3572  0.4981
 4447SOL     OW24802   1.426   0.853   7.125 -0.2252  0.0790 -0.2103
 4447SOL    HW124803   1.380   0.775   7.095 -0.9695  0.3529  0.1931
 4447SOL    HW224804   1.476   0.823   7.201  1.7697 -1.2694 -2.0559
 4448SOL     OW24805   1.220   4.072   1.104  0.0413  0.3674  0.1400
 4448SOL    HW124806   1.166   4.046   1.179  0.3986 -0.3791  0.1384
 4448SOL    HW224807   1.255   4.154   1.137 -0.1070  1.0782 -1.4545
 4449SOL     OW24808   4.187   1.112   7.395 -0.2039 -0.3996  0.2253
 4449SOL    HW124809   4.175   1.163   7.475 -3.4957 -1.1320  0.2065
 4449SOL    HW224810   4.123   1.044   7.416 -0.3975 -0.0209  0.8278
 4450SOL     OW24811   2.825   0.896   8.652  0.0443 -0.8601 -0.0652
 4450SOL    HW124812   2.741   0.881   8.609  0.3385  2.1377 -1.6971
 4450SOL    HW224813   2.889   0.838   8.612  1.7187  0.2423  0.9850
 4451SOL     OW24814   4.182   1.271   0.603  0.2403 -0.0166  0.1615
 4451SOL    HW124815   4.210   1.224   0.524 -2.3908 -2.8331  0.8898
 4451SOL    HW224816   4.234   1.351   0.596  0.3069 -0.3267 -2.7388
 4452SOL     OW24817   0.867   0.690  17.205  0.3223  0.3102 -0.2764
 4452SOL    HW124818   0.849   0.598  17.187  0.2643  0.0236  1.2732
 4452SOL    HW224819   0.853   0.679  17.299 -0.0094 -0.5098 -0.4187
 4453SOL     OW24820   2.197   1.667   5.687  0.2377  0.1510 -0.0861
 4453SOL    HW124821   2.124   1.729   5.685 -0.5783 -0.7416  1.5815
 4453SOL    HW224822   2.209   1.660   5.782 -0.9510  0.3460  0.0785
 4454SOL     OW24823   2.489   2.982   1.680 -0.4757  0.6951 -0.1939
 4454SOL    HW124824   2.551   2.911   1.664 -1.1513  0.0518  0.0625
 4454SOL    HW224825   2.463   2.951   1.767  0.6794  0.1027 -0.0574
 4455SOL     OW24826   0.469   1.526  15.387  0.0562  0.0804 -0.1756
 4455SOL    HW124827   0.541   1.587  15.368  0.3741 -0.2797 -0.1239
 4455SOL    HW224828   0.521   1.450  15.416  0.5914 -0.7543 -3.3354
 4456SOL     OW24829   2.988   2.436   8.205  0.1907  0.1224  0.4504
 4456SOL    HW124830   2.913   2.422   8.147  1.1269 -1.5175 -0.3821
 4456SOL    HW224831   2.986   2.358   8.259  2.5283 -0.7557 -0.7025
 4457SOL     OW24832   3.059   1.091   8.093 -0.7387  0.3732  0.4256
 4457SOL    HW124833   3.114   1.042   8.154 -0.6128 -0.4349 -0.3358
 4457SOL    HW224834   3.049   1.173   8.141  2.5827  2.4250 -2.3608
 4458SOL     OW24835   4.304   1.967   7.598  0.5068 -0.0231  0.1364
 4458SOL    HW124836   4.383   2.005   7.560 -0.3675  1.1223 -0.5250
 4458SOL    HW224837   4.237   2.034   7.582  0.3553 -0.5108 -1.2870
 4459SOL     OW24838   2.131   3.280   7.258  0.0915  0.5798 -0.1477
 4459SOL    HW124839   2.213   3.320   7.227 -0.2153  1.3722  0.0782
 4459SOL    HW224840   2.155   3.199   7.302  1.7262  1.4201  0.5125
 4460SOL     OW24841   0.482   1.184   4.756  0.0466  0.3316 -0.2982
 4460SOL    HW124842   0.452   1.248   4.692  1.5950  1.5348  0.1835
 4460SOL    HW224843   0.482   1.242   4.832 -3.0557  0.6450 -0.5244
 4461SOL     OW24844   4.397   1.115  10.879  0.3338  0.1218 -0.2132
 4461SOL    HW124845   4.306   1.136  10.901 -0.0033 -1.3967 -0.1613
 4461SOL    HW224846   4.421   1.067  10.958  0.9117  0.6687 -0.0534
 4462SOL     OW24847   3.365   4.531   8.809 -0.8561 -0.0520  0.0731
 4462SOL    HW124848   3.433   4.546   8.744 -0.8295 -0.1272  0.0835
 4462SOL    HW224849   3.326   4.449   8.779  1.3214 -0.0352 -2.7739
 4463SOL     OW24850   0.055   3.792  15.968 -0.4600 -0.0833 -0.4331
 4463SOL    HW124851   0.059   3.835  16.053  0.3637 -2.5759  0.8020
 4463SOL    HW224852   4.704   3.737  15.986 -0.7746  0.3808 -0.3380
 4464SOL     OW24853   3.849   3.804   3.761  0.1940  0.0545 -0.3364
 4464SOL    HW124854   3.859   3.899   3.750 -0.1156  0.0582 -0.6035
 4464SOL    HW224855   3.799   3.811   3.842 -0.7061  0.7632 -0.9509
 4465SOL     OW24856   3.369   0.909  12.721  0.6144 -0.4565  0.1349
 4465SOL    HW124857   3.448   0.960  12.710 -0.7939  1.4374 -1.1438
 4465SOL    HW224858   3.329   0.913  12.635  2.7063 -1.3008 -0.8695
 4466SOL     OW24859   4.664   1.105  17.466 -0.1234  0.0740  0.4116
 4466SOL    HW124860   4.725   1.118  17.538  0.1939 -1.9716  0.5114
 4466SOL    HW224861   4.695   1.019  17.438 -1.7742  0.2350 -1.9534
 4467SOL     OW24862   2.505   2.069   6.239 -0.2728  0.1994  0.3612
 4467SOL    HW124863   2.471   2.155   6.261 -0.1803 -0.0076  1.3012
 4467SOL    HW224864   2.529   2.090   6.148 -3.4226  1.0265 -0.2701
 4468SOL     OW24865   0.879   0.424   0.321  0.0125 -0.6103 -0.0936
 4468SOL    HW124866   0.910   0.348   0.273  0.8550  1.0348 -2.1804
 4468SOL    HW224867   0.802   0.430   0.266  0.0601 -1.5044 -0.2478
 4469SOL     OW24868   2.302   2.595   6.566  0.4003 -0.2582  0.4864
 4469SOL    HW124869   2.260   2.524   6.518 -0.5265  1.0796 -0.7020
 4469SOL    HW224870   2.286   2.574   6.658  0.5698 -0.4531  0.4708
 4470SOL     OW24871   3.560   3.915   4.317 -0.4116  0.4085  0.3112
 4470SOL    HW124872   3.505   3.871   4.381 -0.4019 -2.2486 -1.5268
 4470SOL    HW224873   3.524   4.004   4.318 -2.7124 -0.5484  1.4340
 4471SOL     OW24874   1.956   3.465  17.544 -0.5539  0.4073 -0.1369
 4471SOL    HW124875   1.930   3.549  17.582 -0.3862 -0.3361  1.6388
 4471SOL    HW224876   1.977   3.500  17.457 -2.0529 -1.1810 -1.1430
 4472SOL     OW24877   0.787   0.763   7.714  0.0175 -0.7376 -0.1781
 4472SOL    HW124878   0.786   0.827   7.785 -2.5237  2.3104 -2.9542
 4472SOL    HW224879   0.693   0.763   7.696 -0.7281  0.9949  3.6701
 4473SOL     OW24880   0.388   2.425   3.863 -0.0625 -0.0037 -0.1299
 4473SOL    HW124881   0.438   2.370   3.924 -1.2190  0.0218  0.8516
 4473SOL    HW224882   0.330   2.473   3.921 -0.2497 -0.4789  0.0795
 4474SOL     OW24883   4.659   2.230  13.809  0.0497  0.2757  0.4898
 4474SOL    HW124884   4.642   2.136  13.812  1.9289 -0.1429 -1.4945
 4474SOL    HW224885   4.657   2.241  13.904 -1.6198 -1.1357  0.6161
 4475SOL     OW24886   0.103   0.937  15.801 -0.4736  0.0740 -0.1759
 4475SOL    HW124887   0.047   0.972  15.732  0.3681 -0.7777 -1.2886
 4475SOL    HW224888   0.189   0.952  15.763 -0.3931 -1.3855 -0.5936
 4476SOL     OW24889   1.535   3.653  15.523  0.6280  0.6078 -1.7236
 4476SOL    HW124890   1.595   3.727  15.524  1.7973 -0.3914  1.8230
 4476SOL    HW224891   1.594   3.582  15.500  1.1988 -0.7410  3.7803
 4477SOL     OW24892   1.484   1.862   4.256 -0.8033 -0.0237  0.2808
 4477SOL    HW124893   1.544   1.934   4.234 -2.6533  0.7343 -2.2293
 4477SOL    HW224894   1.539   1.785   4.243 -0.3918  0.1709  0.8615
 4478SOL     OW24895   3.879   2.772   4.444  0.2326 -0.3203  0.3163
 4478SOL    HW124896   3.873   2.761   4.349 -0.1890 -0.1348  0.3174
 4478SOL    HW224897   3.793   2.811   4.463  0.2184 -0.3714  0.3566
 4479SOL     OW24898   0.807   0.311  12.109 -0.3812  0.2263 -0.4338
 4479SOL    HW124899   0.817   0.223  12.144 -0.7709 -0.2939 -1.6069
 4479SOL    HW224900   0.718   0.292  12.078  0.0762  0.1457 -1.7098
 4480SOL     OW24901   3.444   0.779   2.081  0.0756 -0.1106  0.1713
 4480SOL    HW124902   3.396   0.722   2.141 -0.9333  0.0240 -0.5046
 4480SOL    HW224903   3.477   0.716   2.017  1.2330 -0.2446  0.9010
 4481SOL     OW24904   3.292   0.794   7.369 -0.0908 -0.0513 -0.2942
 4481SOL    HW124905   3.351   0.825   7.301 -1.5738  1.7973 -0.7505
 4481SOL    HW224906   3.327   0.843   7.444  0.8482 -2.1338  0.6215
 4482SOL     OW24907   3.850   3.930   4.401 -0.5801  0.8733  0.4703
 4482SOL    HW124908   3.760   3.912   4.374  0.3920 -1.3637 -1.3261
 4482SOL    HW224909   3.864   3.845   4.444 -2.4843  0.0604 -0.5367
 4483SOL     OW24910   3.997   2.791  15.465 -0.0622  0.2054  0.2795
 4483SOL    HW124911   4.012   2.746  15.382 -3.4376 -0.1309 -0.1283
 4483SOL    HW224912   3.983   2.716  15.523 -2.0835  1.8801  1.9382
 4484SOL     OW24913   3.302   3.648  13.357 -0.0874  0.0208 -0.2036
 4484SOL    HW124914   3.307   3.703  13.278 -2.1460  2.1945  1.1981
 4484SOL    HW224915   3.394   3.620  13.361 -0.1754 -0.2463 -0.0718
 4485SOL     OW24916   2.081   3.254   9.834 -0.1829  0.5522 -0.1557
 4485SOL    HW124917   2.022   3.329   9.824 -0.9936 -0.1209 -0.3553
 4485SOL    HW224918   2.027   3.175   9.836 -0.9718  1.0983  0.0168
 4486SOL     OW24919   2.772   0.135   7.206 -0.5025 -0.1930  0.2103
 4486SOL    HW124920   2.829   0.156   7.132  1.0109 -1.6797  0.9628
 4486SOL    HW224921   2.695   0.114   7.154  0.6645 -0.4565 -1.4247
 4487SOL     OW24922   2.905   2.134   7.084  0.1055  0.0795 -0.0303
 4487SOL    HW124923   3.000   2.127   7.092  0.2785  1.1875 -1.0982
 4487SOL    HW224924   2.899   2.230   7.085 -1.6721 -0.0336  1.4275
 4488SOL     OW24925   3.863   4.653   2.988  0.0166  0.3491  0.1166
 4488SOL    HW124926   3.928   4.689   2.928 -0.0994  0.5368  0.1018
 4488SOL    HW224927   3.801   0.001   2.985  0.5078  0.8295  1.7182
 4489SOL     OW24928   3.049   3.267   1.277  0.3542 -0.4417  0.1019
 4489SOL    HW124929   3.081   3.351   1.242 -0.7345  0.4820  1.3470
 4489SOL    HW224930   2.992   3.288   1.350 -0.7815 -0.9778 -0.6229
 4490SOL     OW24931   4.217   0.839   1.275  0.5043  0.0307  0.3264
 4490SOL    HW124932   4.286   0.829   1.209 -0.1763 -1.7574 -0.1105
 4490SOL    HW224933   4.231   0.932   1.295 -1.3221  0.3321  0.1420
 4491SOL     OW24934   3.110   2.138   8.599  0.7009 -0.1351  0.1143
 4491SOL    HW124935   3.073   2.052   8.579 -1.7371  1.3841 -1.9564
 4491SOL    HW224936   3.133   2.123   8.691  0.1885  0.8852  0.4087
 4492SOL     OW24937   2.406   2.691   3.736  0.2293 -0.1072  0.3107
 4492SOL    HW124938   2.460   2.713   3.812 -0.5350 -1.3756  1.2206
 4492SOL    HW224939   2.409   2.595   3.738 -1.7532 -0.1386  1.5850
 4493SOL     OW24940   3.944   0.134   4.380  0.2963 -0.3087  0.1225
 4493SOL    HW124941   3.983   0.155   4.295  0.5163  0.4170  0.4032
 4493SOL    HW224942   4.019   0.088   4.419 -0.6018 -1.5634  0.3453
 4494SOL     OW24943   0.013   3.520   6.880 -1.0549  0.0255 -0.3479
 4494SOL    HW124944   4.722   3.614   6.884  0.4588  0.3770 -2.4436
 4494SOL    HW224945   0.063   3.501   6.959 -2.4161 -2.7168 -0.1591
 4495SOL     OW24946   3.117   3.636   1.693 -0.3789 -0.2457  0.9244
 4495SOL    HW124947   3.056   3.602   1.627  0.0626  1.6656 -0.4840
 4495SOL    HW224948   3.174   3.696   1.644 -1.6728 -0.5619 -0.9533
 4496SOL     OW24949   0.198   3.693   1.255  0.2731  0.3667 -0.8030
 4496SOL    HW124950   0.123   3.654   1.209  0.3561 -1.2138  0.4520
 4496SOL    HW224951   0.161   3.781   1.267  2.3763  1.0247  0.9283
 4497SOL     OW24952   3.672   1.251   7.633 -0.0892  0.2541 -0.4314
 4497SOL    HW124953   3.705   1.284   7.549 -0.9117  3.1706  0.3785
 4497SOL    HW224954   3.618   1.180   7.600 -0.2977  0.0168  0.4352
 4498SOL     OW24955   2.368   0.558  17.019  0.1728  0.7222  0.1885
 4498SOL    HW124956   2.376   0.476  16.971  0.8549  0.7574  0.2427
 4498SOL    HW224957   2.382   0.622  16.949  0.5454  0.1662 -0.2390
 4499SOL     OW24958   3.574   4.089  17.570  0.3566 -0.3657 -0.0406
 4499SOL    HW124959   3.653   4.125  17.530 -1.1222  1.1744 -1.5721
 4499SOL    HW224960   3.577   3.999  17.538  1.5759 -0.5203  0.4748
 4500SOL     OW24961   4.635   2.416   4.079 -0.5755 -0.3485  0.0156
 4500SOL    HW124962   4.628   2.480   4.150  1.9365  0.8746 -0.8043
 4500SOL    HW224963   4.544   2.388   4.068 -0.5095 -0.9473  1.0002
 4501SOL     OW24964   3.805   0.390   5.526 -0.0924  0.4105 -0.3617
 4501SOL    HW124965   3.882   0.348   5.488 -0.1503  0.5867 -0.6830
 4501SOL    HW224966   3.777   0.453   5.459  1.5386 -0.5167 -1.9114
 4502SOL     OW24967   4.287   3.174   6.128  0.0939 -0.3913  0.6144
 4502SOL    HW124968   4.318   3.191   6.039 -1.9231  0.0313 -0.0217
 4502SOL    HW224969   4.203   3.129   6.118 -0.8697  0.8354  3.1054
 4503SOL     OW24970   3.398   0.266  15.333  0.2775 -0.2969  0.5711
 4503SOL    HW124971   3.370   0.184  15.293 -0.7687  1.5699 -2.5537
 4503SOL    HW224972   3.423   0.233  15.419 -1.8709  0.9766  1.6641
 4504SOL     OW24973   3.055   3.690  13.413  0.6209 -0.1898 -0.0494
 4504SOL    HW124974   3.089   3.689  13.503  2.2038  3.5164 -0.6036
 4504SOL    HW224975   3.140   3.699  13.370  0.4018  0.5260 -0.3267
 4505SOL     OW24976   3.318   0.434   8.448  0.2473  0.0596  0.8056
 4505SOL    HW124977   3.246   0.393   8.399 -1.2428  0.7500  2.3949
 4505SOL    HW224978   3.346   0.503   8.388 -1.6793  0.5138  0.4014
 4506SOL     OW24979   4.225   2.160   5.480  0.2044 -0.0433 -0.0858
 4506SOL    HW124980   4.176   2.204   5.411  1.1243  2.4528  0.8598
 4506SOL    HW224981   4.251   2.240   5.526  1.7910  0.3552 -1.7069
 4507SOL     OW24982   3.097   3.498   6.812 -0.0722  0.0436  0.0111
 4507SOL    HW124983   3.192   3.484   6.812 -0.2762 -1.3193 -2.1507
 4507SOL    HW224984   3.084   3.491   6.717  0.6287 -0.2123 -0.0677
 4508SOL     OW24985   1.245   3.523   1.292  0.4541  0.3946  0.1204
 4508SOL    HW124986   1.319   3.582   1.303 -0.3675  1.4358  0.0125
 4508SOL    HW224987   1.174   3.587   1.283  0.8260  1.0177  1.5542
 4509SOL     OW24988   2.314   2.680  12.371  0.4675  0.6350  0.1213
 4509SOL    HW124989   2.320   2.662  12.277 -1.5380 -0.1497  0.1348
 4509SOL    HW224990   2.376   2.752  12.381 -2.3049  3.2585 -1.3483
 4510SOL     OW24991   0.951   0.257   1.488 -0.6634  0.0396  0.2307
 4510SOL    HW124992   0.890   0.324   1.519  0.4549  1.4844 -0.6968
 4510SOL    HW224993   0.909   0.219   1.411  1.5504  1.9825 -1.9376
 4511SOL     OW24994   1.152   1.157   5.549  0.4407 -0.0999 -0.7964
 4511SOL    HW124995   1.105   1.239   5.566 -0.5770 -1.0254  0.7752
 4511SOL    HW224996   1.229   1.189   5.502  2.6137 -1.8660  1.6187
 4512SOL     OW24997   0.781   2.289   6.086  0.2760 -0.0884  0.1964
 4512SOL    HW124998   0.813   2.344   6.157 -0.3548 -1.3606  1.4586
 4512SOL    HW224999   0.836   2.328   6.018 -0.2621 -2.7688 -1.7879
 4513SOL     OW25000   4.679   4.362  17.627 -0.1591 -0.2527 -0.0604
 4513SOL    HW125001   4.626   4.406  17.560  1.2624  1.2317 -0.1935
 4513SOL    HW225002   4.614   4.346  17.696 -1.1165  2.0276 -0.4410
 4514SOL     OW25003   4.218   0.676   4.894 -0.2217  0.0231 -0.6711
 4514SOL    HW125004   4.142   0.685   4.837  0.4071  1.4324 -1.2785
 4514SOL    HW225005   4.176   0.640   4.972 -1.0652 -0.6820 -1.4366
 4515SOL     OW25006   3.085   0.065  14.289 -0.1303  0.2493 -0.1937
 4515SOL    HW125007   3.032   0.135  14.252  1.0997  2.0392  1.4127
 4515SOL    HW225008   3.060   0.070  14.381 -0.4530  1.7043 -0.3672
 4516SOL     OW25009   3.829   2.180   1.451  0.2165  0.3819  0.3719
 4516SOL    HW125010   3.741   2.189   1.415  0.1547 -1.8714 -0.0537
 4516SOL    HW225011   3.817   2.195   1.545  0.1290 -1.9584  0.7225
 4517SOL     OW25012   1.847   3.588   9.266 -0.8232  0.1473 -0.3656
 4517SOL    HW125013   1.863   3.524   9.335  0.5392 -1.5164 -2.2204
 4517SOL    HW225014   1.851   3.669   9.316 -0.7690  0.7014 -1.2638
 4518SOL     OW25015   4.155   1.865   9.008 -0.1383 -0.1549 -0.1052
 4518SOL    HW125016   4.197   1.792   8.963  0.4164  0.2098 -0.1781
 4518SOL    HW225017   4.096   1.826   9.073  0.3897 -0.1643  0.3643
 4519SOL     OW25018   3.839   1.563   7.492  0.9591  0.2875 -0.0625
 4519SOL    HW125019   3.930   1.532   7.499  1.0371  0.8703  1.4175
 4519SOL    HW225020   3.824   1.598   7.580  2.4189  0.2872  0.2027
 4520SOL     OW25021   2.333   3.690   7.334  0.1800  0.4497  0.1354
 4520SOL    HW125022   2.259   3.738   7.298 -0.1337  0.9320  1.4288
 4520SOL    HW225023   2.293   3.638   7.403  0.4172  0.5417  0.3385
 4521SOL     OW25024   0.773   0.761   1.792  0.5978  0.4605 -0.5252
 4521SOL    HW125025   0.694   0.767   1.740 -0.5415 -1.2877  0.9774
 4521SOL    HW225026   0.727   0.741   1.873  0.5435  0.3732 -0.5781
 4522SOL     OW25027   2.911   1.698   8.308  0.2333 -0.2069  0.2916
 4522SOL    HW125028   2.872   1.735   8.229 -1.0414 -1.2647  0.4142
 4522SOL    HW225029   2.987   1.653   8.273  0.4089  0.2759  0.0484
 4523SOL     OW25030   4.189   0.647   3.154 -0.5876  0.4073 -0.2177
 4523SOL    HW125031   4.113   0.591   3.133  1.0062 -1.1856 -1.7463
 4523SOL    HW225032   4.256   0.583   3.129 -0.2692  0.1721  1.2698
 4524SOL     OW25033   1.817   3.766   1.138  0.0443 -0.5995 -0.7483
 4524SOL    HW125034   1.798   3.680   1.176 -0.2828 -0.1940  0.0136
 4524SOL    HW225035   1.903   3.774   1.181 -0.3086  0.7344 -0.3084
 4525SOL     OW25036   2.575   2.708  13.162 -0.0305  0.4567  0.6467
 4525SOL    HW125037   2.643   2.697  13.228 -0.8415 -1.9975  1.0651
 4525SOL    HW225038   2.601   2.794  13.130 -0.5071  0.2626 -0.2455
 4526SOL     OW25039   0.546   0.567   5.575 -0.0034 -0.4112  0.5124
 4526SOL    HW125040   0.540   0.501   5.506 -0.9962  1.3168 -1.0627
 4526SOL    HW225041   0.453   0.565   5.597  0.2224 -0.3580  1.4667
 4527SOL     OW25042   0.648   0.419   2.166  0.1055 -0.3093 -0.3924
 4527SOL    HW125043   0.698   0.349   2.208  1.6833  0.2499 -1.3432
 4527SOL    HW225044   0.556   0.400   2.182 -0.1810  0.0320 -1.6076
 4528SOL     OW25045   4.655   0.715   1.972 -0.5918  0.3502 -0.0931
 4528SOL    HW125046   4.657   0.632   1.924  2.1524  0.9929 -1.1438
 4528SOL    HW225047   4.626   0.780   1.907  0.5789 -1.0286 -2.0073
 4529SOL     OW25048   0.502   0.128  14.680  0.0880  0.4685 -0.1005
 4529SOL    HW125049   0.516   0.061  14.747 -0.2541  0.4334 -0.0633
 4529SOL    HW225050   0.583   0.178  14.673 -0.8073  2.1366  1.2913
 4530SOL     OW25051   0.250   3.005   6.918 -0.7905 -0.1646  0.1511
 4530SOL    HW125052   0.215   3.092   6.898 -0.1940 -0.2336 -1.2053
 4530SOL    HW225053   0.179   2.954   6.958 -0.9090 -0.1834 -0.0779
 4531SOL     OW25054   0.947   3.076   3.191 -0.6891 -0.5193  0.1676
 4531SOL    HW125055   1.009   3.070   3.118 -0.5518  0.4304  0.2121
 4531SOL    HW225056   0.991   3.024   3.259  1.3404 -0.3190 -0.9978
 4532SOL     OW25057   2.241   3.508   0.861 -0.1880 -0.3412 -0.9313
 4532SOL    HW125058   2.318   3.471   0.817 -0.3971 -2.4165  0.4873
 4532SOL    HW225059   2.169   3.508   0.798 -0.5124 -1.3792 -0.5512
 4533SOL     OW25060   4.635   3.421   0.355  0.5820  0.4468 -0.6444
 4533SOL    HW125061   4.654   3.511   0.381 -1.8773  0.9000 -0.4340
 4533SOL    HW225062   4.553   3.415   0.405  1.5983  2.3637  1.2536
 4534SOL     OW25063   0.148   2.016   2.277  0.5362 -0.0035  0.1248
 4534SOL    HW125064   0.162   1.922   2.265  0.4480 -0.0932  0.7422
 4534SOL    HW225065   0.217   2.055   2.223  1.1690  2.1437  2.4918
 4535SOL     OW25066   3.490   2.275   3.162  0.1824 -0.0307 -0.3054
 4535SOL    HW125067   3.582   2.255   3.145  0.2339  1.2975 -1.6518
 4535SOL    HW225068   3.448   2.191   3.179  0.7594 -0.6553 -2.0757
 4536SOL     OW25069   2.165   2.191   8.957  0.1349  0.1053  0.4416
 4536SOL    HW125070   2.171   2.177   9.052 -0.4248  1.2166  0.6373
 4536SOL    HW225071   2.071   2.187   8.941 -0.1867  2.9312  1.5207
 4537SOL     OW25072   1.658   3.192   6.737  0.2624  0.3862 -0.3337
 4537SOL    HW125073   1.582   3.185   6.795  1.3145  1.6036  1.1986
 4537SOL    HW225074   1.729   3.161   6.792  1.2682  1.3258 -1.1116
 4538SOL     OW25075   4.060   3.409   4.377  0.3175  0.3088  0.0223
 4538SOL    HW125076   4.015   3.368   4.450  0.2601 -0.5336 -0.4938
 4538SOL    HW225077   4.045   3.502   4.395  0.9188 -0.0587  2.3368
 4539SOL     OW25078   1.318   2.368   6.992  0.4548 -0.5714 -0.3436
 4539SOL    HW125079   1.241   2.315   6.971 -0.6630  1.3153 -0.9463
 4539SOL    HW225080   1.384   2.317   6.945  0.4560  1.1286 -2.1773
 4540SOL     OW25081   0.046   0.592   4.128 -0.3983 -0.0838 -0.0570
 4540SOL    HW125082   0.132   0.629   4.111 -0.7069  0.7304  0.1731
 4540SOL    HW225083   0.034   0.530   4.055  1.4976 -0.7847  0.2314
 4541SOL     OW25084   1.703   3.892  11.058 -0.1517  0.0712  0.1735
 4541SOL    HW125085   1.665   3.882  11.145  1.9893 -1.7339  0.9250
 4541SOL    HW225086   1.794   3.915  11.076  0.0009  0.2796 -0.8709
 4542SOL     OW25087   3.767   1.708   8.654 -0.1943 -0.1602  0.2897
 4542SOL    HW125088   3.754   1.726   8.560 -0.0815 -1.9448 -0.0755
 4542SOL    HW225089   3.830   1.779   8.667  0.9179 -1.1935  0.4773
 4543SOL     OW25090   4.528   3.968   2.242  0.2146  0.0035  0.2695
 4543SOL    HW125091   4.506   3.915   2.318  2.0389 -1.3445 -0.1287
 4543SOL    HW225092   4.510   3.907   2.170  0.5225  1.5719 -1.1407
 4544SOL     OW25093   1.824   0.811   7.466 -0.0572 -0.0121 -0.2217
 4544SOL    HW125094   1.830   0.762   7.548  1.7207  0.0205 -0.3310
 4544SOL    HW225095   1.909   0.789   7.428 -0.4024  1.7289 -2.0276
 4545SOL     OW25096   2.744   3.173   8.226 -0.3148  0.0991  0.0569
 4545SOL    HW125097   2.798   3.137   8.295  0.1713 -1.8608 -1.3425
 4545SOL    HW225098   2.765   3.118   8.150 -1.6263 -0.3158 -0.0184
 4546SOL     OW25099   4.125   1.441  10.731 -0.0606  0.2491  0.0068
 4546SOL    HW125100   4.126   1.462  10.824 -0.1075  0.2752  0.0016
 4546SOL    HW225101   4.217   1.413  10.727  0.0613  0.6915 -0.2985
 4547SOL     OW25102   2.729   2.885   0.278 -0.1827  0.2039  0.4761
 4547SOL    HW125103   2.742   2.978   0.293 -0.9732  0.0180  2.4627
 4547SOL    HW225104   2.637   2.872   0.256 -0.3654  1.7293  0.3467
 4548SOL     OW25105   1.059   3.208  11.759  0.1455  0.5016 -0.2055
 4548SOL    HW125106   1.149   3.190  11.731  0.2052  1.5231 -0.6722
 4548SOL    HW225107   1.011   3.171  11.685 -3.3080  2.4602  1.0498
 4549SOL     OW25108   2.231   1.285   4.809  0.1230 -0.1333  0.0081
 4549SOL    HW125109   2.246   1.244   4.724 -0.0005 -1.0680  0.4415
 4549SOL    HW225110   2.135   1.288   4.810  0.1143 -0.4106 -0.3203
 4550SOL     OW25111   0.734   3.661  10.509 -0.4677  0.2598 -0.3268
 4550SOL    HW125112   0.715   3.574  10.475  1.6604 -0.6956  0.9268
 4550SOL    HW225113   0.654   3.710  10.491 -0.8708 -0.6507 -1.0194
 4551SOL     OW25114   3.709   2.952   5.446  0.6040 -0.1561  0.1463
 4551SOL    HW125115   3.619   2.955   5.478  0.7495  1.5936  0.4006
 4551SOL    HW225116   3.748   2.898   5.514 -0.9721 -0.6208  0.6677
 4552SOL     OW25117   2.661   2.356   0.007  0.4094 -0.2928  0.0982
 4552SOL    HW125118   2.580   2.335   0.052  0.4133  1.2229  0.8313
 4552SOL    HW225119   2.669   2.444   0.044 -0.8973  0.2899 -1.0390
 4553SOL     OW25120   1.116   2.665   3.877  0.2164  0.0166 -0.4416
 4553SOL    HW125121   1.155   2.739   3.923  0.5592  0.6119 -1.7101
 4553SOL    HW225122   1.026   2.696   3.887  0.5099  0.3242  1.2269
 4554SOL     OW25123   4.137   2.806  11.826  0.4415 -0.1300 -0.0364
 4554SOL    HW125124   4.094   2.883  11.862 -0.8620 -0.5097 -0.7840
 4554SOL    HW225125   4.206   2.784  11.889  0.5160  0.6843  0.1667
 4555SOL     OW25126   3.446   0.287   4.895  0.1077  0.0143 -0.3480
 4555SOL    HW125127   3.371   0.248   4.939  1.1014 -1.2856  0.1908
 4555SOL    HW225128   3.395   0.336   4.830  1.1955  0.3614 -0.9436
 4556SOL     OW25129   3.300   3.497  10.727 -0.6154 -0.3134  0.5036
 4556SOL    HW125130   3.233   3.436  10.759 -0.5789 -0.9674 -0.6593
 4556SOL    HW225131   3.241   3.545  10.669  0.9598  1.7340  0.5798
 4557SOL     OW25132   4.022   2.364   8.537  0.2566  0.2432 -0.0147
 4557SOL    HW125133   4.016   2.455   8.566  0.1049 -0.2379  1.4479
 4557SOL    HW225134   3.930   2.358   8.513 -0.3746 -0.3690  2.5281
 4558SOL     OW25135   0.566   3.961   8.737 -0.5120 -0.2626 -0.1207
 4558SOL    HW125136   0.654   3.999   8.748 -0.6260 -0.2074  0.6061
 4558SOL    HW225137   0.537   4.017   8.664 -0.1196  0.0344 -0.0541
 4559SOL     OW25138   0.360   1.711   3.078  0.0873 -0.1641 -0.3369
 4559SOL    HW125139   0.284   1.676   3.032  0.1037  0.5214 -0.8854
 4559SOL    HW225140   0.362   1.803   3.052  1.2951 -0.4677 -1.3138
 4560SOL     OW25141   2.152   3.613   5.091 -0.2118 -0.5241 -0.4410
 4560SOL    HW125142   2.213   3.612   5.018 -0.9372  3.2767 -1.0589
 4560SOL    HW225143   2.147   3.517   5.101 -1.2171 -0.4952 -0.6278
 4561SOL     OW25144   0.001   3.812   3.137 -0.0197 -0.3449  0.5076
 4561SOL    HW125145   0.094   3.824   3.157  0.5906 -1.5218 -1.5332
 4561SOL    HW225146   4.716   3.834   3.044 -0.8113 -0.1284  0.6489
 4562SOL     OW25147   3.733   0.618   5.358  0.5543 -0.3921 -0.4188
 4562SOL    HW125148   3.789   0.677   5.408  0.8766 -1.2852  0.2843
 4562SOL    HW225149   3.752   0.652   5.271  0.9244  3.1383  1.0655
 4563SOL     OW25150   4.677   2.882   6.931  0.1095 -0.2822 -0.6163
 4563SOL    HW125151   4.651   2.966   6.893 -0.8625  0.0728  0.8520
 4563SOL    HW225152   4.690   2.829   6.853  1.8211 -0.1281 -0.4397
 4564SOL     OW25153   0.644   4.080  10.545  0.2381 -0.0021  0.5347
 4564SOL    HW125154   0.615   4.169  10.568  0.5817  0.7231 -1.8720
 4564SOL    HW225155   0.595   4.024  10.605 -0.0102 -0.8647 -0.4866
 4565SOL     OW25156   1.885   2.163   8.992 -0.0144  0.6571  0.3726
 4565SOL    HW125157   1.926   2.118   9.067 -1.1464 -2.8468 -1.1161
 4565SOL    HW225158   1.794   2.179   9.014 -0.0011  1.7308 -0.3901
 4566SOL     OW25159   4.524   4.091  11.470 -0.4794 -0.1253 -0.4184
 4566SOL    HW125160   4.449   4.049  11.512 -0.4550 -0.7718 -1.0240
 4566SOL    HW225161   4.495   4.150  11.400  2.7238  0.0292 -1.5909
 4567SOL     OW25162   0.268   0.626   1.491 -0.2090  0.0832  0.3538
 4567SOL    HW125163   0.317   0.683   1.432  1.2114  0.1158  1.5939
 4567SOL    HW225164   0.181   0.633   1.450  0.3015 -0.1582 -0.7713
 4568SOL     OW25165   0.622   1.075   6.174  0.1775  0.0139 -0.3707
 4568SOL    HW125166   0.555   1.089   6.241  2.3765  1.3127  1.5745
 4568SOL    HW225167   0.618   0.979   6.181  1.1091 -0.0093 -0.0541
 4569SOL     OW25168   3.533   2.591   2.455  0.2829  0.1982  0.1535
 4569SOL    HW125169   3.466   2.622   2.394 -1.3269 -0.2033  1.7129
 4569SOL    HW225170   3.605   2.570   2.395  0.9626 -1.9305  1.6940
 4570SOL     OW25171   3.298   3.519   9.341 -0.6660  0.1214 -0.0345
 4570SOL    HW125172   3.298   3.598   9.394 -0.2016  0.0171  0.1249
 4570SOL    HW225173   3.249   3.466   9.403  1.0394 -3.0377 -1.3884
 4571SOL     OW25174   4.126   0.073   4.595 -0.0591  0.2378  0.1823
 4571SOL    HW125175   4.058   0.100   4.657 -0.6307 -2.1441  0.5913
 4571SOL    HW225176   4.186   0.148   4.596 -1.5490  1.4392 -0.0587
 4572SOL     OW25177   3.360   1.302   0.887 -0.3380  0.3822  0.7143
 4572SOL    HW125178   3.297   1.348   0.943  0.3112 -0.7195  2.3562
 4572SOL    HW225179   3.305   1.306   0.809 -0.5395 -0.0434  0.8336
 4573SOL     OW25180   2.549   4.023   7.354 -0.0995  0.2040  0.5091
 4573SOL    HW125181   2.526   3.973   7.433 -0.7349 -0.6845 -0.2383
 4573SOL    HW225182   2.611   4.078   7.402  1.3778 -0.6777 -0.4005
 4574SOL     OW25183   2.200   2.902   3.066  0.2282 -0.4453  0.1081
 4574SOL    HW125184   2.243   2.911   3.151 -1.6614 -2.2244  1.2483
 4574SOL    HW225185   2.215   2.809   3.050  1.3433 -0.1441 -0.6010
 4575SOL     OW25186   0.993   4.381  15.227 -0.4208 -0.1393 -0.5779
 4575SOL    HW125187   0.995   4.336  15.142  1.3410  2.2677 -1.7802
 4575SOL    HW225188   0.918   4.433  15.197 -1.1645  0.5471  2.5776
 4576SOL     OW25189   3.957   1.594   8.374 -0.0502 -0.5974 -0.4416
 4576SOL    HW125190   3.999   1.555   8.451  3.1009  0.1867 -1.7241
 4576SOL    HW225191   4.033   1.622   8.322 -0.9120  1.9412 -0.3473
 4577SOL     OW25192   0.599   1.856   1.778 -0.5573  0.4454 -0.1853
 4577SOL    HW125193   0.536   1.830   1.711  0.3594  0.0486 -0.8849
 4577SOL    HW225194   0.623   1.767   1.803  0.2576  0.8581  0.4914
 4578SOL     OW25195   1.914   2.022   8.301 -0.1628  0.3641  0.5227
 4578SOL    HW125196   1.925   2.098   8.244  0.8598 -1.7505 -2.0292
 4578SOL    HW225197   1.987   2.046   8.359  0.0886  0.4543  0.1659
 4579SOL     OW25198   3.757   3.583   3.645 -0.2628 -0.1009 -0.1277
 4579SOL    HW125199   3.690   3.575   3.713 -0.5742 -1.6212 -0.6194
 4579SOL    HW225200   3.794   3.671   3.653  1.1169 -0.6265 -0.7018
 4580SOL     OW25201   3.702   3.739   8.095  0.4322 -0.2405 -0.4753
 4580SOL    HW125202   3.772   3.795   8.128  0.5006 -0.9079  0.5012
 4580SOL    HW225203   3.635   3.768   8.156  2.5175  2.2198  0.6418
 4581SOL     OW25204   1.512   1.102   5.163  0.3182 -0.4993 -0.7605
 4581SOL    HW125205   1.452   1.055   5.105 -0.5468 -0.0765 -0.2131
 4581SOL    HW225206   1.570   1.035   5.199 -0.3704  0.2194  1.7287
 4582SOL     OW25207   3.413   3.307   9.768 -0.2148  0.0810  0.0668
 4582SOL    HW125208   3.481   3.249   9.733  0.8095  0.1569  1.9642
 4582SOL    HW225209   3.345   3.309   9.701  0.0540 -0.5765 -0.2342
 4583SOL     OW25210   2.878   3.128   2.283 -0.0097  0.0294  0.2737
 4583SOL    HW125211   2.890   3.223   2.291 -0.1735  0.1810 -1.2134
 4583SOL    HW225212   2.957   3.100   2.328  0.0295 -2.2586 -1.2472
 4584SOL     OW25213   2.637   0.889   0.842  0.4178  0.0459  0.5723
 4584SOL    HW125214   2.565   0.921   0.787  0.1557 -4.3679 -1.6196
 4584SOL    HW225215   2.591   0.863   0.922 -1.0297  2.3775  0.4981
 4585SOL     OW25216   2.366   4.116  12.267  0.0771  0.2812 -0.2790
 4585SOL    HW125217   2.417   4.077  12.196  0.3482 -0.9023  0.5474
 4585SOL    HW225218   2.293   4.159  12.224  1.7335  0.2464 -3.1290
 4586SOL     OW25219   2.454   2.838   3.498  0.0641 -0.2528  0.5508
 4586SOL    HW125220   2.456   2.801   3.586 -2.2914 -1.9191 -0.1123
 4586SOL    HW225221   2.444   2.768   3.434  0.7649  0.6540 -0.5682
 4587SOL     OW25222   0.357   1.442   5.328  0.5004 -0.6602  0.9374
 4587SOL    HW125223   0.314   1.527   5.330  1.6968 -0.0616  1.4804
 4587SOL    HW225224   0.311   1.393   5.260 -0.7731  2.1275 -0.1900
 4588SOL     OW25225   4.660   2.223  12.160  0.1091 -0.5149 -0.0624
 4588SOL    HW125226   4.571   2.212  12.194 -1.0204  1.2383 -2.4483
 4588SOL    HW225227   4.665   2.318  12.169  2.6768 -0.4648 -1.9627
 4589SOL     OW25228   2.492   3.877   7.570  0.3624 -0.1031  0.6094
 4589SOL    HW125229   2.545   3.871   7.650 -0.0630  0.1238  0.9057
 4589SOL    HW225230   2.424   3.930   7.611 -0.5067 -1.6061  1.0928
 4590SOL     OW25231   0.323   0.020   9.075 -0.4918  0.4840 -0.1717
 4590SOL    HW125232   0.410   4.710   9.054 -0.0325  0.5516  1.6069
 4590SOL    HW225233   0.351   0.108   9.100  1.6241 -0.5669  1.1952
 4591SOL     OW25234   2.930   0.228   5.393  0.2583  0.1296  0.1067
 4591SOL    HW125235   2.947   0.320   5.413 -0.2777  0.2473  0.0224
 4591SOL    HW225236   2.860   0.248   5.330  1.1039  2.1689 -0.1810
 4592SOL     OW25237   2.870   2.660   6.143  0.2321 -0.1413 -0.5982
 4592SOL    HW125238   2.801   2.631   6.082  0.0054 -0.6900 -0.0809
 4592SOL    HW225239   2.851   2.602   6.217 -3.6663  2.1922  0.2617
 4593SOL     OW25240   1.255   0.657  15.953  0.3556 -0.0951 -0.5756
 4593SOL    HW125241   1.164   0.682  15.971  0.4200 -0.1916 -0.1326
 4593SOL    HW225242   1.276   0.610  16.033 -0.1600 -1.0275 -0.9909
 4594SOL     OW25243   0.798   3.564   3.799 -0.2260  0.8744 -0.3562
 4594SOL    HW125244   0.803   3.629   3.729  0.4887  0.7913 -0.3843
 4594SOL    HW225245   0.883   3.521   3.789 -0.0507  0.4815  2.9380
 4595SOL     OW25246   4.427   4.038  12.810  0.7331  0.3931 -0.2058
 4595SOL    HW125247   4.346   4.035  12.759  1.4545 -0.4442 -1.3169
 4595SOL    HW225248   4.425   4.124  12.853  0.3116  1.5222 -2.4704
 4596SOL     OW25249   2.239   0.010   2.904 -0.3917 -0.1177  0.4610
 4596SOL    HW125250   2.269   0.043   2.989  1.7023 -0.0970 -0.2800
 4596SOL    HW225251   2.159   0.062   2.900  0.7039  1.5966  0.7065
 4597SOL     OW25252   1.237   2.633   2.721  0.1761 -0.1455 -0.0576
 4597SOL    HW125253   1.268   2.607   2.634  0.3698 -1.5958  0.4529
 4597SOL    HW225254   1.183   2.559   2.745 -1.4098  0.6272 -1.1897
 4598SOL     OW25255   4.541   1.972   1.246 -0.1641 -0.4228  0.3264
 4598SOL    HW125256   4.503   1.979   1.334 -1.9346 -3.9118 -0.1715
 4598SOL    HW225257   4.612   2.035   1.260  0.0428 -1.0072  1.9803
 4599SOL     OW25258   3.690   4.362   6.690  0.3902 -0.6151 -0.0267
 4599SOL    HW125259   3.639   4.334   6.615 -0.7551  0.7084  0.2603
 4599SOL    HW225260   3.699   4.277   6.732 -0.9251 -1.5709 -1.7136
 4600SOL     OW25261   0.251   3.507   3.871  0.1966 -0.7601 -0.1900
 4600SOL    HW125262   0.313   3.578   3.883  0.9181 -1.1697 -1.5283
 4600SOL    HW225263   0.309   3.432   3.857  0.8545  0.2996 -3.0874
 4601SOL     OW25264   3.404   3.186   4.599 -0.1399 -0.1648 -0.1631
 4601SOL    HW125265   3.372   3.179   4.509  1.8614  2.4851 -1.0750
 4601SOL    HW225266   3.331   3.147   4.647  1.7833 -2.5041  0.9043
 4602SOL     OW25267   2.988   4.017  14.811 -0.0952  0.2826 -0.6681
 4602SOL    HW125268   2.981   4.075  14.887  3.9745 -1.3573  0.9496
 4602SOL    HW225269   3.033   4.075  14.749  1.4847  2.7363  2.7698
 4603SOL     OW25270   2.709   0.461   8.331  0.4420  0.0557 -0.2886
 4603SOL    HW125271   2.788   0.426   8.289 -0.4429 -0.4185 -1.5563
 4603SOL    HW225272   2.698   0.405   8.408  0.7699  1.6306  0.9043
 4604SOL     OW25273   1.183   0.437   6.429 -0.0089 -0.6131 -0.1898
 4604SOL    HW125274   1.146   0.377   6.364  1.9325 -1.3254 -0.6196
 4604SOL    HW225275   1.235   0.481   6.363  0.4879 -1.3923 -0.3211
 4605SOL     OW25276   1.027   2.493   8.357 -0.1069  0.1919  0.1699
 4605SOL    HW125277   0.997   2.549   8.428  0.1485  0.9106 -0.2906
 4605SOL    HW225278   0.997   2.411   8.396 -1.7473  0.5936 -0.2420
 4606SOL     OW25279   4.579   0.960  10.695  0.4428 -0.0357  0.4902
 4606SOL    HW125280   4.661   1.004  10.718  0.0083  0.9755  0.1134
 4606SOL    HW225281   4.522   0.995  10.763  1.0242 -0.8019  1.3768
 4607SOL     OW25282   0.608   0.944   4.351  0.3726 -0.2409  0.6658
 4607SOL    HW125283   0.590   0.992   4.432  1.7155 -0.0209  0.8367
 4607SOL    HW225284   0.624   0.857   4.388 -2.2582 -2.5300 -3.5672
 4608SOL     OW25285   0.542   1.551  13.396  0.6200 -0.2985 -0.0304
 4608SOL    HW125286   0.509   1.523  13.482 -2.3157  1.1264 -0.7010
 4608SOL    HW225287   0.511   1.642  13.401 -1.2257 -0.9210 -0.1108
 4609SOL     OW25288   2.722   2.057   6.617  0.0347 -0.4867 -0.1185
 4609SOL    HW125289   2.638   2.046   6.573  0.0895  0.3610 -0.4408
 4609SOL    HW225290   2.706   2.133   6.674 -1.9723 -0.7266 -0.3460
 4610SOL     OW25291   3.117   2.512   6.776 -0.0341  0.3605 -0.5660
 4610SOL    HW125292   3.159   2.465   6.848  1.0662 -0.1548 -1.5362
 4610SOL    HW225293   3.071   2.582   6.823 -0.4687 -0.6457  0.4974
 4611SOL     OW25294   3.088   1.978   2.003  0.0632 -0.1178  0.1392
 4611SOL    HW125295   3.029   1.903   1.992 -0.4095  0.7284 -3.1044
 4611SOL    HW225296   3.036   2.046   1.960  2.5347  1.1688 -0.7959
 4612SOL     OW25297   2.793   1.283   6.384  0.2254  0.5581 -0.2254
 4612SOL    HW125298   2.795   1.313   6.475 -0.8215  2.3602 -0.7826
 4612SOL    HW225299   2.757   1.364   6.348  1.1785  1.2391  0.3637
 4613SOL     OW25300   1.422   3.746  10.785  0.0145 -0.0411 -0.0580
 4613SOL    HW125301   1.483   3.694  10.837  0.1592  1.4215  1.2352
 4613SOL    HW225302   1.462   3.833  10.787 -2.0394  0.9040 -0.0796
 4614SOL     OW25303   0.094   2.855   8.534 -0.0419 -0.2422  0.7320
 4614SOL    HW125304   0.144   2.796   8.591 -0.1402 -1.8494 -0.8663
 4614SOL    HW225305   0.101   2.804   8.454 -2.2292  1.2407 -0.3735
 4615SOL     OW25306   0.094   3.883  16.470 -0.3569  0.6668  0.0094
 4615SOL    HW125307   0.022   3.901  16.531  0.5924 -0.1878  1.3750
 4615SOL    HW225308   0.056   3.915  16.388 -0.9901 -0.8877 -0.3022
 4616SOL     OW25309   2.674   2.754  14.924 -0.2494 -0.0780 -0.5133
 4616SOL    HW125310   2.657   2.665  14.892 -1.7791  0.4704 -1.2430
 4616SOL    HW225311   2.678   2.735  15.018 -1.8943 -0.5405 -0.5284
 4617SOL     OW25312   3.217   1.031   4.137  0.8777 -0.6956 -0.1675
 4617SOL    HW125313   3.305   0.997   4.153  0.7356 -0.7649  0.4883
 4617SOL    HW225314   3.244   1.123   4.132  0.6211 -0.4239  3.4925
 4618SOL     OW25315   2.027   4.175  16.412 -0.2748 -0.0398 -0.4731
 4618SOL    HW125316   1.977   4.094  16.423 -0.5960  0.2234 -0.0148
 4618SOL    HW225317   2.025   4.184  16.317 -0.1537  0.2100 -0.4515
 4619SOL     OW25318   1.628   3.547   2.710  0.0848  0.2755 -0.2040
 4619SOL    HW125319   1.687   3.554   2.635  0.7755 -1.3814  0.1656
 4619SOL    HW225320   1.559   3.498   2.664 -0.7923  2.1769 -0.8902
 4620SOL     OW25321   0.565   1.015   7.251  0.7095 -0.5327 -0.1357
 4620SOL    HW125322   0.470   1.001   7.248  0.2231  2.6035  0.5937
 4620SOL    HW225323   0.573   1.083   7.318  1.6198  0.1377 -0.9258
 4621SOL     OW25324   1.070   2.206   5.140 -0.0520 -0.8097 -0.4236
 4621SOL    HW125325   1.003   2.239   5.080 -1.3212  0.0177  1.4441
 4621SOL    HW225326   1.136   2.170   5.081  0.5780  1.2281 -0.9213
 4622SOL     OW25327   0.055   3.087   2.157  0.0284 -0.2644  0.1012
 4622SOL    HW125328   4.692   3.119   2.137  0.1437  0.0647  0.1133
 4622SOL    HW225329   0.095   3.087   2.071 -0.4836 -1.0947 -0.1345
 4623SOL     OW25330   3.395   2.901   8.532  0.4109 -0.0975  1.0697
 4623SOL    HW125331   3.301   2.880   8.529  0.7181 -1.2995 -0.1656
 4623SOL    HW225332   3.418   2.890   8.439  1.7796  1.3310  1.2563
 4624SOL     OW25333   4.070   2.589   6.984  0.3030 -0.0871 -0.2766
 4624SOL    HW125334   3.984   2.617   6.952  0.3870 -2.4668 -2.5772
 4624SOL    HW225335   4.111   2.548   6.908  0.7704 -2.0679  1.0484
 4625SOL     OW25336   0.763   4.239   5.937 -0.1607  0.6036 -0.4461
 4625SOL    HW125337   0.678   4.204   5.963 -1.1798  1.1856 -2.9313
 4625SOL    HW225338   0.741   4.283   5.855 -0.1031 -1.5972 -1.6581
 4626SOL     OW25339   1.606   3.381   4.278  0.7314 -0.1795 -0.0958
 4626SOL    HW125340   1.601   3.331   4.360 -2.7141  0.0698 -0.1670
 4626SOL    HW225341   1.600   3.469   4.315 -0.1378 -0.1895 -0.2105
 4627SOL     OW25342   2.112   2.177   1.109  0.6466  0.1921  0.6647
 4627SOL    HW125343   2.114   2.273   1.107 -0.9504  0.1730 -1.1378
 4627SOL    HW225344   2.189   2.157   1.163  0.8781 -1.4765 -0.2942
 4628SOL     OW25345   4.638   2.634   4.850  0.1575  0.2170 -0.4285
 4628SOL    HW125346   4.567   2.589   4.805 -2.1027  2.8929  0.4958
 4628SOL    HW225347   4.625   2.602   4.939 -0.1776  0.2590 -0.4617
 4629SOL     OW25348   3.092   4.339   3.705  0.3098 -0.0350 -0.3084
 4629SOL    HW125349   3.026   4.281   3.743 -1.0978  2.2629  0.7108
 4629SOL    HW225350   3.054   4.426   3.709 -0.2708 -0.2964 -0.1983
 4630SOL     OW25351   1.993   3.524   0.306  0.1550  0.4578  0.5063
 4630SOL    HW125352   2.004   3.593   0.241  3.2181  0.9600  1.5898
 4630SOL    HW225353   2.085   3.499   0.312 -0.4044 -1.9485 -0.6545
 4631SOL     OW25354   2.768   1.394   0.002 -0.0751  0.2911  0.1106
 4631SOL    HW125355   2.678   1.364  17.693  0.2419 -0.9310  0.7975
 4631SOL    HW225356   2.771   1.393   0.098  0.2644  2.2078  0.1190
 4632SOL     OW25357   0.543   4.714   5.468 -0.4434  0.0974 -0.3635
 4632SOL    HW125358   0.500   0.036   5.396 -0.0946 -1.0317 -1.3139
 4632SOL    HW225359   0.503   0.018   5.550  0.3394 -0.0940  0.0844
 4633SOL     OW25360   4.153   1.545   6.900  0.0260  0.1957  0.2128
 4633SOL    HW125361   4.061   1.569   6.889 -0.2622 -0.4619  1.2348
 4633SOL    HW225362   4.183   1.539   6.809 -1.0901 -2.3633  0.0348
 4634SOL     OW25363   3.273   2.300   9.398 -0.4530 -0.3881 -0.6058
 4634SOL    HW125364   3.359   2.265   9.423 -0.2400  1.6721  1.6181
 4634SOL    HW225365   3.229   2.313   9.482 -1.5748 -1.6558 -1.0036
 4635SOL     OW25366   1.217   4.701   5.278 -0.1661 -0.4107 -0.9601
 4635SOL    HW125367   1.246   0.014   5.361 -1.9168 -1.9148  0.3387
 4635SOL    HW225368   1.188   0.055   5.235  0.7883  1.4097  1.7620
 4636SOL     OW25369   0.276   2.054   9.782  0.3694  0.5905 -0.5149
 4636SOL    HW125370   0.222   2.133   9.781 -0.6016 -0.0801 -1.4107
 4636SOL    HW225371   0.363   2.084   9.806  1.0499 -1.3725 -0.5089
 4637SOL     OW25372   4.397   3.814   6.088 -0.2182  0.3778 -0.3317
 4637SOL    HW125373   4.457   3.748   6.124 -1.3141  0.1207  1.0406
 4637SOL    HW225374   4.320   3.762   6.110 -0.0594  0.1409 -0.3409
 4638SOL     OW25375   0.770   1.672  15.518 -0.2503  0.3354 -0.2716
 4638SOL    HW125376   0.785   1.696  15.427 -1.0754 -0.5283 -0.6307
 4638SOL    HW225377   0.708   1.739  15.547  0.0942  0.9851 -1.0285
 4639SOL     OW25378   1.311   1.417   3.107 -0.2635 -0.1011  0.4300
 4639SOL    HW125379   1.349   1.333   3.081  0.7996  0.0449  1.5264
 4639SOL    HW225380   1.326   1.413   3.201  2.0302 -0.0432  0.0690
 4640SOL     OW25381   3.913   3.844  13.411 -0.1126 -0.1064 -0.0422
 4640SOL    HW125382   3.935   3.866  13.320 -2.0071  1.6096 -0.0797
 4640SOL    HW225383   3.991   3.869  13.460 -0.6626 -3.0685  2.3135
 4641SOL     OW25384   3.044   1.398  10.183  0.1439 -0.7103  0.3283
 4641SOL    HW125385   2.979   1.344  10.228  0.9448 -0.5060  1.7345
 4641SOL    HW225386   3.069   1.456  10.255  0.3997 -0.2098 -0.1608
 4642SOL     OW25387   0.977   0.531   5.517 -0.4880 -0.3119 -0.0099
 4642SOL    HW125388   0.946   0.440   5.510 -0.6112 -0.3190  0.6240
 4642SOL    HW225389   0.901   0.564   5.564 -2.5903 -1.7534 -2.4543
 4643SOL     OW25390   4.356   3.851   4.183 -0.0360  0.0504  0.5324
 4643SOL    HW125391   4.364   3.777   4.243  0.4117 -0.0310  0.3730
 4643SOL    HW225392   4.303   3.912   4.235 -2.2523  0.1148 -1.7836
 4644SOL     OW25393   2.385   4.369   1.712  0.3061 -0.1727  0.2292
 4644SOL    HW125394   2.414   4.333   1.796  0.8477  0.3293  0.2554
 4644SOL    HW225395   2.298   4.330   1.702  0.6688 -0.5012 -1.7464
 4645SOL     OW25396   2.716   2.220   5.224  0.1248 -0.3193  0.3723
 4645SOL    HW125397   2.629   2.260   5.219 -0.4058 -1.5061  0.1521
 4645SOL    HW225398   2.696   2.135   5.186 -0.1518 -0.0279 -0.1261
 4646SOL     OW25399   1.895   3.320   4.215 -0.1167  0.3385 -0.0308
 4646SOL    HW125400   1.848   3.400   4.191 -0.5533  0.0169 -0.2203
 4646SOL    HW225401   1.873   3.266   4.140 -0.1255 -1.2209  1.1012
 4647SOL     OW25402   1.438   1.715   9.138 -0.5197  0.1802 -0.3456
 4647SOL    HW125403   1.503   1.674   9.195  0.7381 -0.0252 -1.9043
 4647SOL    HW225404   1.365   1.730   9.197 -3.8213  0.3842 -4.5150
 4648SOL     OW25405   0.500   1.089   5.228  0.0099 -0.2233  0.5622
 4648SOL    HW125406   0.415   1.133   5.227  0.4809  0.7016  0.8202
 4648SOL    HW225407   0.467   1.003   5.254 -0.8061  0.3557  1.4576
 4649SOL     OW25408   4.494   4.666   8.897 -0.0182  0.0042  0.2095
 4649SOL    HW125409   4.561   4.719   8.939  1.0219 -0.2547 -1.1182
 4649SOL    HW225410   4.541   4.647   8.815  1.7452  2.0641  0.7684
 4650SOL     OW25411   3.677   2.088   4.023 -0.2544  0.0548  0.4427
 4650SOL    HW125412   3.746   2.128   3.970 -1.0519 -0.1736 -0.7716
 4650SOL    HW225413   3.606   2.110   3.962  0.9485  1.9767 -0.2871
 4651SOL     OW25414   3.531   1.849   6.519  0.2466  0.4544  0.0621
 4651SOL    HW125415   3.482   1.785   6.468  0.1282 -0.7343  1.6665
 4651SOL    HW225416   3.523   1.803   6.602  0.6046  2.1083  1.0182
 4652SOL     OW25417   4.703   0.025   7.281  0.5260  0.0751  0.6278
 4652SOL    HW125418   0.023   4.668   7.299 -0.2387 -0.5839 -0.4604
 4652SOL    HW225419   4.661   0.005   7.198  1.8250 -2.1671  0.4949
 4653SOL     OW25420   1.357   0.393   1.711  0.8854  0.3113  0.0209
 4653SOL    HW125421   1.325   0.453   1.778  0.6451  0.1571  0.0444
 4653SOL    HW225422   1.448   0.382   1.739  0.6188 -3.4655 -0.6756
 4654SOL     OW25423   0.793   2.272  13.977  0.3284 -0.1052 -0.0068
 4654SOL    HW125424   0.726   2.203  13.978  1.7167 -1.5200 -2.2535
 4654SOL    HW225425   0.776   2.320  14.058 -2.5778  0.5736 -1.0205
 4655SOL     OW25426   1.738   0.089   3.422 -0.4005 -0.1353  0.1104
 4655SOL    HW125427   1.761   0.013   3.369  0.4465 -0.2764  0.6717
 4655SOL    HW225428   1.654   0.106   3.380  0.2282  0.0910 -1.0654
 4656SOL     OW25429   0.651   2.709   6.349 -0.1201 -0.0894 -0.0786
 4656SOL    HW125430   0.710   2.668   6.286 -1.6810 -1.8981 -0.3385
 4656SOL    HW225431   0.699   2.702   6.431  0.4679  0.0792 -0.4065
 4657SOL     OW25432   2.644   4.119   0.192 -0.0143  0.6596  0.6534
 4657SOL    HW125433   2.729   4.158   0.171 -0.4750  1.5256  0.4032
 4657SOL    HW225434   2.667   4.028   0.175 -0.2398  0.2308  2.6330
 4658SOL     OW25435   1.654   0.539   4.818 -0.2763  0.4082 -0.0313
 4658SOL    HW125436   1.719   0.529   4.888 -1.4688  0.2347  1.0612
 4658SOL    HW225437   1.630   0.632   4.815  0.7234  0.6324 -0.8861
 4659SOL     OW25438   0.740   0.082  12.399  0.0986 -0.0770  0.0933
 4659SOL    HW125439   0.694   0.166  12.407  0.7315  0.1924  0.8885
 4659SOL    HW225440   0.772   0.082  12.308 -0.6054  0.4256 -0.1580
 4660SOL     OW25441   4.588   3.461   5.897  0.5113 -0.2281  0.3846
 4660SOL    HW125442   4.666   3.486   5.848 -0.9858  1.8817 -0.9568
 4660SOL    HW225443   4.512   3.519   5.886  1.4431  1.0701  0.7513
 4661SOL     OW25444   2.149   2.336  10.111  0.0679  0.5171 -0.4614
 4661SOL    HW125445   2.077   2.397  10.097 -0.7033  0.4122  3.0218
 4661SOL    HW225446   2.093   2.262  10.131  2.1422 -0.9318 -0.0515
 4662SOL     OW25447   3.786   3.331   5.632  0.3225  0.0405 -0.1272
 4662SOL    HW125448   3.713   3.315   5.572 -0.8718  0.8397  1.0819
 4662SOL    HW225449   3.766   3.284   5.713 -2.5215  1.2728 -0.1053
 4663SOL     OW25450   4.558   3.347   6.140  0.0731 -0.2462 -0.0589
 4663SOL    HW125451   4.604   3.265   6.121 -0.6815 -0.4365 -1.0078
 4663SOL    HW225452   4.568   3.391   6.056  0.5480  0.2092  0.2329
 4664SOL     OW25453   3.367   2.637   0.345 -0.6308  0.0240  0.0370
 4664SOL    HW125454   3.438   2.700   0.331 -0.4697 -0.6115 -1.9407
 4664SOL    HW225455   3.293   2.698   0.342 -2.2477 -1.8622  1.8337
 4665SOL     OW25456   1.136   4.210   9.124  0.3277  0.5036 -0.4393
 4665SOL    HW125457   1.172   4.298   9.124  0.9446  0.2418 -1.5700
 4665SOL    HW225458   1.127   4.194   9.218 -1.6934 -0.8676 -0.8708
 4666SOL     OW25459   3.230   2.954   1.835  0.2290  0.4766  0.3445
 4666SOL    HW125460   3.147   2.996   1.811 -0.4819 -1.4851 -0.6339
 4666SOL    HW225461   3.294   3.003   1.784  1.9578 -1.0109  1.1181
 4667SOL     OW25462   2.211   3.910   5.373  0.3014  0.0716  0.3622
 4667SOL    HW125463   2.182   3.912   5.281 -1.1944  1.9779  0.8783
 4667SOL    HW225464   2.284   3.847   5.371  1.0298  0.8533  3.2283
 4668SOL     OW25465   1.884   0.106   6.787 -0.3517  0.3091  0.0319
 4668SOL    HW125466   1.973   0.095   6.756 -0.3724  1.0957 -0.3109
 4668SOL    HW225467   1.875   0.200   6.771 -0.0177  0.2109 -0.7028
 4669SOL     OW25468   1.778   3.431   7.818  0.4662  0.6294 -0.1933
 4669SOL    HW125469   1.786   3.374   7.895 -0.4004 -1.4583 -1.6491
 4669SOL    HW225470   1.683   3.426   7.812  0.4702 -0.7629  0.9647
 4670SOL     OW25471   1.969   0.372   9.175  0.2654 -0.4393  0.1267
 4670SOL    HW125472   2.062   0.350   9.173 -0.0131 -1.7276  2.4345
 4670SOL    HW225473   1.972   0.458   9.132  1.9047 -1.0429 -0.9452
 4671SOL     OW25474   1.916   3.335   4.527  0.2677 -0.1787 -0.2676
 4671SOL    HW125475   1.927   3.315   4.435 -1.5076 -1.4947 -0.1832
 4671SOL    HW225476   1.826   3.369   4.523  0.3488 -0.0474 -0.9064
 4672SOL     OW25477   0.864   2.797   4.340 -1.2811 -0.5260  0.0509
 4672SOL    HW125478   0.903   2.861   4.399  1.3354 -1.6754 -0.3924
 4672SOL    HW225479   0.787   2.843   4.309  0.2532  2.1942  0.3140
 4673SOL     OW25480   2.317   3.421   9.659  0.0714  0.1660  0.4130
 4673SOL    HW125481   2.344   3.353   9.722 -0.1986 -0.5231 -0.2149
 4673SOL    HW225482   2.407   3.438   9.631 -0.2438 -0.2379 -0.8367
 4674SOL     OW25483   2.259   1.808   3.176  0.3059  0.2199  0.5429
 4674SOL    HW125484   2.294   1.726   3.209  0.5418  0.6057  1.2340
 4674SOL    HW225485   2.221   1.837   3.259  0.7501  1.1800  0.4162
 4675SOL     OW25486   4.032   1.267   0.813 -0.1902  0.1625 -0.1777
 4675SOL    HW125487   3.941   1.248   0.790  0.5509 -0.4324 -2.5613
 4675SOL    HW225488   4.080   1.271   0.731  3.4143  1.4714  2.0041
 4676SOL     OW25489   2.309   1.495  17.038 -0.4416  0.0322 -0.0388
 4676SOL    HW125490   2.277   1.575  16.995  0.6943  0.5393  0.0554
 4676SOL    HW225491   2.309   1.517  17.132 -0.5376 -2.4581  0.5448
 4677SOL     OW25492   4.191   0.968   6.710  0.1581  0.4021  0.6263
 4677SOL    HW125493   4.190   1.025   6.786  0.4421 -0.2219  1.1012
 4677SOL    HW225494   4.153   1.032   6.650  0.8891  1.0750  0.8877
 4678SOL     OW25495   3.207   0.053  11.979  0.0476 -0.3922 -0.6346
 4678SOL    HW125496   3.120   0.023  11.952  0.0170  0.2397 -1.2204
 4678SOL    HW225497   3.178   0.140  12.006 -0.0756 -1.1375  1.6209
 4679SOL     OW25498   0.855   4.056  13.434  0.3692  0.0900 -0.0612
 4679SOL    HW125499   0.845   4.027  13.524  0.0883 -1.3760 -0.5597
 4679SOL    HW225500   0.812   3.983  13.388  1.7054  0.7575 -2.3461
 4680SOL     OW25501   0.310   0.243   6.548  0.4071 -0.0398 -1.1466
 4680SOL    HW125502   0.256   0.291   6.611  2.2728 -1.1844  1.3364
 4680SOL    HW225503   0.390   0.295   6.546  0.5282 -0.2347 -1.2847
 4681SOL     OW25504   1.704   3.184  13.312 -0.6931 -0.2312 -0.0897
 4681SOL    HW125505   1.624   3.234  13.325 -1.3819 -1.5127  0.7077
 4681SOL    HW225506   1.680   3.130  13.236 -0.9438  1.3162 -1.0942
 4682SOL     OW25507   2.441   3.444   4.157 -0.6627 -0.3047  0.4490
 4682SOL    HW125508   2.429   3.357   4.194  1.7146 -1.5602 -1.7112
 4682SOL    HW225509   2.396   3.511   4.208  0.7682  0.3456  0.8843
 4683SOL     OW25510   0.624   1.624   4.913 -0.5413 -0.5923 -0.0159
 4683SOL    HW125511   0.603   1.633   4.820  1.8655 -0.0108 -0.5124
 4683SOL    HW225512   0.586   1.706   4.945 -1.7478 -1.0483 -0.2890
 4684SOL     OW25513   3.689   2.647   7.777  0.1384  0.4330  0.4151
 4684SOL    HW125514   3.617   2.684   7.827  1.5143  0.9958  2.0048
 4684SOL    HW225515   3.652   2.578   7.723 -0.3332 -0.2185  1.5643
 4685SOL     OW25516   2.614   3.762   2.357  0.2535  0.1021  0.9413
 4685SOL    HW125517   2.558   3.833   2.388 -3.8438 -3.8440  2.5231
 4685SOL    HW225518   2.631   3.714   2.438  2.0352  1.1261  1.1732
 4686SOL     OW25519   1.168   4.635  13.869  0.4977 -0.0874  0.7116
 4686SOL    HW125520   1.225   4.585  13.927  1.3157  0.4136  0.3516
 4686SOL    HW225521   1.094   4.640  13.929  0.3370 -2.2315  0.6878
 4687SOL     OW25522   4.534   4.495   2.247 -0.2687  0.4677  0.0357
 4687SOL    HW125523   4.531   4.401   2.228  0.2631 -0.0065  2.3617
 4687SOL    HW225524   4.476   4.493   2.323  2.0281  1.2487  1.8014
 4688SOL     OW25525   0.977   0.447   6.624  0.1411 -0.2108  0.0915
 4688SOL    HW125526   0.929   0.487   6.696  1.8351  0.4234  0.8582
 4688SOL    HW225527   1.042   0.511   6.595 -0.0504 -0.3596 -0.6755
 4689SOL     OW25528   1.949   2.675   7.961  0.2436  0.2975  0.1617
 4689SOL    HW125529   1.912   2.749   8.010  0.1927  0.1944  0.2792
 4689SOL    HW225530   1.867   2.632   7.936  1.2618 -1.8039  0.4647
 4690SOL     OW25531   0.482   0.375   5.367  0.6282 -0.3752 -0.1716
 4690SOL    HW125532   0.521   0.305   5.314 -1.4081 -1.1041 -0.7409
 4690SOL    HW225533   0.487   0.445   5.302 -0.0800 -0.5513 -0.4179
 4691SOL     OW25534   3.669   4.507   2.238  0.2756 -0.0505  0.0598
 4691SOL    HW125535   3.588   4.461   2.259  1.0775 -0.2752  2.7174
 4691SOL    HW225536   3.649   4.554   2.157 -0.1686  0.6057  0.5531
 4692SOL     OW25537   3.915   1.981   6.043 -0.2815 -0.2006 -0.3969
 4692SOL    HW125538   3.850   2.051   6.032  0.9714  0.9036 -0.7272
 4692SOL    HW225539   3.989   2.026   6.083 -0.7781  0.5535 -0.3146
 4693SOL     OW25540   1.500   2.863   6.715  0.0803  0.1755  0.3003
 4693SOL    HW125541   1.548   2.925   6.660 -1.7071 -0.7926 -2.3053
 4693SOL    HW225542   1.569   2.826   6.770  2.5991  3.0694 -0.8680
 4694SOL     OW25543   3.286   0.195   9.128  0.1719  0.1546 -0.4182
 4694SOL    HW125544   3.243   0.197   9.043  0.0897  0.5220 -0.3696
 4694SOL    HW225545   3.343   0.118   9.126 -0.8918 -0.6621  0.4563
 4695SOL     OW25546   1.034   1.860   7.248 -0.1134  0.1635 -0.6417
 4695SOL    HW125547   0.995   1.808   7.178  1.6761  1.3122 -2.4515
 4695SOL    HW225548   0.949   1.883   7.287  0.5812  0.4570  0.6961
 4696SOL     OW25549   0.407   2.768   0.832  0.0836  0.7759  0.1853
 4696SOL    HW125550   0.350   2.743   0.759  3.7068 -2.7627 -1.4613
 4696SOL    HW225551   0.495   2.742   0.804 -1.1337 -0.2589 -2.6932
 4697SOL     OW25552   3.978   1.933   3.775 -0.7636  0.1806 -0.4481
 4697SOL    HW125553   3.956   1.883   3.853 -0.4177 -1.5694 -1.4820
 4697SOL    HW225554   3.934   1.880   3.708 -1.3692 -2.8056  2.3325
 4698SOL     OW25555   0.686   4.098  10.018 -0.5254  0.0414  0.6269
 4698SOL    HW125556   0.624   4.025  10.010 -1.4586  0.9831 -0.5215
 4698SOL    HW225557   0.737   4.082   9.938  0.4067  2.1788  0.8144
 4699SOL     OW25558   1.734   1.149   2.866 -0.0646  0.0771  0.1384
 4699SOL    HW125559   1.718   1.075   2.807 -2.6906  0.1997  0.6849
 4699SOL    HW225560   1.818   1.128   2.905 -1.2773 -0.7200  2.3352
 4700SOL     OW25561   3.304   3.533  17.034  0.1451  0.0428  0.1003
 4700SOL    HW125562   3.316   3.439  17.025 -0.1256 -0.2146  2.4724
 4700SOL    HW225563   3.265   3.545  17.121 -0.7336 -0.4395 -0.2265
 4701SOL     OW25564   2.452   1.862   2.382 -0.1894 -0.0583  0.4116
 4701SOL    HW125565   2.534   1.899   2.349 -0.1679 -0.7625 -0.3176
 4701SOL    HW225566   2.431   1.800   2.312 -0.1865 -0.6848  0.9747
 4702SOL     OW25567   2.803   3.856  16.669  0.2138 -0.7255  0.3583
 4702SOL    HW125568   2.880   3.811  16.635  0.7025 -0.5232  1.2047
 4702SOL    HW225569   2.732   3.817  16.619 -0.4902 -0.3909  1.1071
 4703SOL     OW25570   1.471   0.652   0.132  0.1017 -1.0632 -0.0416
 4703SOL    HW125571   1.424   0.726   0.169  2.0829  1.0072 -1.6953
 4703SOL    HW225572   1.470   0.674   0.039  0.8191 -1.0052 -0.0392
 4704SOL     OW25573   1.180   2.074   2.375  0.0471  0.1945 -0.6036
 4704SOL    HW125574   1.251   2.101   2.433 -0.2464  1.1057 -0.6730
 4704SOL    HW225575   1.103   2.114   2.414  1.0984  1.2738  0.3301
 4705SOL     OW25576   3.971   3.222   3.262  0.0517 -0.7360 -0.0548
 4705SOL    HW125577   3.993   3.206   3.170 -0.2535 -0.8630 -0.1042
 4705SOL    HW225578   3.972   3.317   3.256 -0.8713 -0.7493 -0.3709
 4706SOL     OW25579   2.949   1.516   5.742 -0.1511 -0.0164  0.3672
 4706SOL    HW125580   2.883   1.539   5.676 -2.4532 -1.1881  2.2743
 4706SOL    HW225581   3.023   1.494   5.685  1.0230  0.4401  1.7196
 4707SOL     OW25582   2.138   0.436   3.217  0.3456  0.2262  0.0939
 4707SOL    HW125583   2.160   0.351   3.181 -0.7486  0.0274 -0.1024
 4707SOL    HW225584   2.146   0.424   3.311  1.1075 -2.2095 -0.2988
 4708SOL     OW25585   3.979   3.440   2.367 -0.3036  0.2064 -0.5549
 4708SOL    HW125586   3.916   3.495   2.322 -0.3759 -0.2821 -1.0530
 4708SOL    HW225587   3.932   3.409   2.445  2.7849 -1.9636  0.4708
 4709SOL     OW25588   2.442   1.245   3.385 -0.4316  0.1437 -0.2438
 4709SOL    HW125589   2.409   1.184   3.320 -0.1883  0.9789 -1.1417
 4709SOL    HW225590   2.530   1.212   3.403 -0.6699  0.8908  2.4013
 4710SOL     OW25591   3.054   3.541   3.120 -0.0657  0.0583  0.4389
 4710SOL    HW125592   3.102   3.459   3.128  0.6817  0.5285  0.8865
 4710SOL    HW225593   2.996   3.542   3.197  0.1444 -0.3852  0.6008
 4711SOL     OW25594   0.948   1.567  12.788  0.1072  0.2786  0.1103
 4711SOL    HW125595   0.878   1.556  12.724  1.6975 -1.5538 -1.3004
 4711SOL    HW225596   1.024   1.593  12.736 -0.0541 -0.9665 -0.7124
 4712SOL     OW25597   4.525   2.817   2.100 -0.0697  0.1804  0.4098
 4712SOL    HW125598   4.537   2.726   2.073 -0.1803 -0.2895  1.9593
 4712SOL    HW225599   4.541   2.816   2.194 -1.1646 -0.2513  0.5940
 4713SOL     OW25600   4.572   0.422   3.406  0.5168  0.0155  0.4249
 4713SOL    HW125601   4.644   0.359   3.407 -0.8831 -1.5204  3.4569
 4713SOL    HW225602   4.584   0.468   3.489 -0.1810  0.5584  0.2239
 4714SOL     OW25603   4.658   3.188  14.697  0.2780  0.3267  0.1674
 4714SOL    HW125604   4.621   3.250  14.635  0.6038  0.2086 -0.1488
 4714SOL    HW225605   0.017   3.171  14.656  1.0037  1.1305  1.3471
 4715SOL     OW25606   3.463   0.403   2.248 -0.2788 -0.2911 -0.3415
 4715SOL    HW125607   3.533   0.457   2.211 -1.2168  2.6495  2.1239
 4715SOL    HW225608   3.473   0.329   2.189  0.5430 -0.0413 -0.5188
 4716SOL     OW25609   2.313   1.777   5.982 -0.4556 -0.2747  0.1385
 4716SOL    HW125610   2.253   1.766   6.057 -0.8576 -4.9911 -0.8210
 4716SOL    HW225611   2.399   1.777   6.024 -0.3517 -0.7486 -0.0662
 4717SOL     OW25612   0.121   1.429   8.328  0.4718  0.3102 -0.5744
 4717SOL    HW125613   0.175   1.464   8.398 -0.1698 -0.3705  0.2657
 4717SOL    HW225614   0.053   1.496   8.322 -0.1147 -0.2528 -0.3688
 4718SOL     OW25615   1.578   0.278   3.197  0.4772 -0.5616  0.4953
 4718SOL    HW125616   1.534   0.199   3.230 -1.6503  0.5628  0.3722
 4718SOL    HW225617   1.501   0.332   3.178  2.2039  1.4311 -0.7521
 4719SOL     OW25618   1.049   3.625   2.641 -0.0530 -0.0156 -0.8221
 4719SOL    HW125619   1.051   3.535   2.609 -0.5395  0.2650 -1.6663
 4719SOL    HW225620   1.020   3.606   2.730  0.8516  1.9157 -0.1262
 4720SOL     OW25621   0.860   2.048   2.212 -0.5141 -0.1675 -0.0322
 4720SOL    HW125622   0.887   2.107   2.282 -0.0724  1.2548 -1.4085
 4720SOL    HW225623   0.911   2.082   2.139 -0.5931  1.3489  0.6260
 4721SOL     OW25624   2.623   1.844   4.835  0.1368 -0.4211  0.0188
 4721SOL    HW125625   2.689   1.787   4.796 -0.2218 -1.0037  0.2665
 4721SOL    HW225626   2.569   1.780   4.882 -1.5124  1.1680  0.3013
 4722SOL     OW25627   4.544   1.811  16.118 -0.2942 -0.5817 -0.2511
 4722SOL    HW125628   4.566   1.854  16.036 -0.2412  0.3708  0.2574
 4722SOL    HW225629   4.593   1.729  16.112 -0.5997 -0.7429 -0.5283
 4723SOL     OW25630   1.907   2.410  17.172 -0.0495 -0.2105 -0.2272
 4723SOL    HW125631   1.964   2.486  17.172  0.5950 -0.6913  0.9311
 4723SOL    HW225632   1.826   2.450  17.202  0.0234 -0.6487  0.5580
 4724SOL     OW25633   4.415   0.021   5.765  0.1150 -0.5018  0.1761
 4724SOL    HW125634   4.444   0.006   5.855 -1.0933  2.5104  1.0649
 4724SOL    HW225635   4.319   0.022   5.765  0.1083 -1.3145  0.0635
 4725SOL     OW25636   4.127   1.793   3.997  0.0147  0.3402  0.0455
 4725SOL    HW125637   4.143   1.721   4.059  0.2843  0.8106  0.5143
 4725SOL    HW225638   4.155   1.751   3.915  1.9601 -1.4568  1.6189
 4726SOL     OW25639   3.516   0.577   1.889 -0.2874  0.6465 -0.0588
 4726SOL    HW125640   3.506   0.490   1.928 -1.0740  1.6375  1.8943
 4726SOL    HW225641   3.444   0.588   1.827 -0.3037 -1.4070 -0.4176
 4727SOL     OW25642   2.662   3.402  10.253 -0.8397 -0.0430 -0.3706
 4727SOL    HW125643   2.692   3.342  10.321 -0.9729  0.4541  0.1317
 4727SOL    HW225644   2.627   3.339  10.191 -0.9015  0.1874 -0.5707
 4728SOL     OW25645   2.384   3.694   8.222  0.1911  0.1605  0.4848
 4728SOL    HW125646   2.448   3.664   8.287 -1.8396 -3.1366  0.9818
 4728SOL    HW225647   2.387   3.787   8.246  1.8955  0.0075  0.8757
 4729SOL     OW25648   3.013   2.691   6.936 -0.5770 -0.5967  0.3307
 4729SOL    HW125649   3.026   2.783   6.960  0.2644 -0.9286  1.1089
 4729SOL    HW225650   2.918   2.699   6.922 -0.2172  3.6508  0.3804
 4730SOL     OW25651   2.898   0.323  17.414 -0.2740  0.6079 -0.2838
 4730SOL    HW125652   2.916   0.329  17.508 -0.1598 -2.2193 -0.1325
 4730SOL    HW225653   2.984   0.326  17.372 -0.3950  1.5968 -0.4690
 4731SOL     OW25654   4.613   1.009  16.361  0.8072 -0.4797  0.6145
 4731SOL    HW125655   4.586   1.048  16.445 -1.5674  0.2678 -0.4992
 4731SOL    HW225656   4.563   0.927  16.356 -0.6621  0.5070 -0.6504
 4732SOL     OW25657   1.527   4.046   6.861  0.8209  0.2861  0.6703
 4732SOL    HW125658   1.611   4.079   6.892  0.3071  1.7655  0.4879
 4732SOL    HW225659   1.507   4.113   6.795  1.5951 -0.8962 -0.7782
 4733SOL     OW25660   3.594   4.514   5.967  0.3141  0.5437  0.1394
 4733SOL    HW125661   3.638   4.450   5.911  0.2635  1.1150 -0.5542
 4733SOL    HW225662   3.668   4.553   6.013 -1.1743  2.3909  0.9874
 4734SOL     OW25663   0.274   0.353   5.999  0.3019 -0.2436 -0.7534
 4734SOL    HW125664   0.368   0.354   5.981  0.4464  0.2869  0.0565
 4734SOL    HW225665   0.267   0.358   6.094 -1.0633  0.4335 -0.8798
 4735SOL     OW25666   3.931   3.722  13.730 -0.2469 -0.2087 -0.0965
 4735SOL    HW125667   3.885   3.691  13.808 -1.7796 -1.0728 -1.3494
 4735SOL    HW225668   3.902   3.813  13.728  1.8018  0.4642  0.6424
 4736SOL     OW25669   1.498   1.284   2.832 -0.5855  0.1260  0.2584
 4736SOL    HW125670   1.569   1.261   2.892  0.0058  1.2283 -0.0255
 4736SOL    HW225671   1.471   1.197   2.803  1.2596 -0.3439 -0.0472
 4737SOL     OW25672   0.648   4.695   5.133 -0.2309  0.0206 -0.2299
 4737SOL    HW125673   0.673   0.015   5.052  2.5277  0.0146  0.5852
 4737SOL    HW225674   0.583   4.635   5.099  0.6058  1.1593 -3.8023
 4738SOL     OW25675   0.240   0.957   5.091 -0.1054 -0.5037 -0.2916
 4738SOL    HW125676   0.160   0.906   5.078 -0.6900  0.4531 -0.4458
 4738SOL    HW225677   0.209   0.999   5.172 -1.0288 -0.2752 -0.7669
 4739SOL     OW25678   0.064   0.925  16.076 -0.4141  0.5639  0.9264
 4739SOL    HW125679   4.713   0.867  16.076 -0.7257  0.9894 -0.5132
 4739SOL    HW225680   0.084   0.944  15.985  1.5755  0.7259  1.3812
 4740SOL     OW25681   2.010   2.796   0.049  0.4224 -0.0374 -0.1333
 4740SOL    HW125682   2.029   2.786   0.142 -3.2434 -1.0172  0.5058
 4740SOL    HW225683   2.082   2.856   0.032 -1.5288  1.6888 -2.3001
 4741SOL     OW25684   2.699   1.866  16.751  0.6888 -0.0212 -0.1230
 4741SOL    HW125685   2.760   1.898  16.818  0.3663 -1.9683  1.0992
 4741SOL    HW225686   2.616   1.910  16.770 -0.4606 -1.8102 -0.9971
 4742SOL     OW25687   4.015   2.961  11.303 -0.1282 -0.2384  0.0018
 4742SOL    HW125688   4.085   2.976  11.239  0.4645 -2.0423  0.2294
 4742SOL    HW225689   4.063   2.931  11.380  1.0435 -0.0918 -0.6687
 4743SOL     OW25690   3.322   3.238   2.408 -0.2723  0.1056 -0.0176
 4743SOL    HW125691   3.272   3.294   2.468 -1.5880  0.0223 -1.0442
 4743SOL    HW225692   3.387   3.302   2.377  2.7176 -1.7265  2.4710
 4744SOL     OW25693   0.603   1.515   2.149 -0.4728  0.2338 -0.1226
 4744SOL    HW125694   0.661   1.544   2.079  0.3792  0.3554  0.6235
 4744SOL    HW225695   0.516   1.530   2.112 -1.5428 -0.6723  2.0404
 4745SOL     OW25696   2.348   4.449  17.308  0.0642  0.0364  1.1255
 4745SOL    HW125697   2.354   4.420  17.399 -0.2170  0.7210  1.3563
 4745SOL    HW225698   2.279   4.398  17.264  0.0667 -2.1934  3.7084
 4746SOL     OW25699   3.180   3.361   1.576 -0.1056  0.0691 -0.1375
 4746SOL    HW125700   3.104   3.417   1.562  1.4534  2.2523 -0.0481
 4746SOL    HW225701   3.240   3.420   1.529 -0.8681  1.6959  0.9230
 4747SOL     OW25702   0.352   3.453   2.850  0.0189 -0.2346 -0.0264
 4747SOL    HW125703   0.313   3.443   2.763 -1.5303 -0.9837  0.7377
 4747SOL    HW225704   0.373   3.363   2.876  1.5624  0.6774  1.8479
 4748SOL     OW25705   3.657   1.977   8.478 -0.0552 -0.8081 -0.2635
 4748SOL    HW125706   3.720   1.920   8.432 -1.0502 -1.1729 -1.1602
 4748SOL    HW225707   3.709   1.989   8.557 -1.5820 -0.7757  0.7235
 4749SOL     OW25708   1.507   0.087  16.031  0.1472 -0.6607 -0.1415
 4749SOL    HW125709   1.427   0.132  16.056  1.0427  1.2722 -0.7365
 4749SOL    HW225710   1.489   0.084  15.937  0.8417  1.4913 -0.3497
 4750SOL     OW25711   2.565   4.174  13.655 -0.1550  0.6919  0.2812
 4750SOL    HW125712   2.507   4.201  13.727 -0.3079  0.8253  0.1078
 4750SOL    HW225713   2.600   4.255  13.618  0.6366  0.5586  0.7481
 4751SOL     OW25714   1.127   0.527   7.587 -0.4066  0.3539 -0.1606
 4751SOL    HW125715   1.057   0.564   7.534 -2.4505 -2.1496  0.8176
 4751SOL    HW225716   1.076   0.505   7.664  0.6137  1.8756  0.9577
 4752SOL     OW25717   3.021   2.357   1.686 -0.2722  0.3793 -0.5277
 4752SOL    HW125718   3.030   2.424   1.618 -1.4977  1.3036  0.2127
 4752SOL    HW225719   3.077   2.292   1.646 -1.0933 -0.6135 -0.0591
 4753SOL     OW25720   3.172   2.428   3.955  0.4966  0.2814  0.2467
 4753SOL    HW125721   3.238   2.478   3.908  0.5576  0.5110  0.5777
 4753SOL    HW225722   3.106   2.418   3.887  0.4689  1.1164  0.1533
 4754SOL     OW25723   0.733   0.673   8.372 -0.5272 -0.4381 -0.1764
 4754SOL    HW125724   0.714   0.582   8.394  1.1131 -0.3571  1.6124
 4754SOL    HW225725   0.802   0.665   8.306 -0.5696 -1.9919 -0.0248
 4755SOL     OW25726   3.860   2.682   0.838  0.3056  0.0812  0.4986
 4755SOL    HW125727   3.818   2.597   0.824 -0.8115  0.4324  1.7712
 4755SOL    HW225728   3.946   2.645   0.855  0.3900  0.3381  0.6199
 4756SOL     OW25729   3.459   0.510   3.467  0.4643  0.0795 -0.5184
 4756SOL    HW125730   3.422   0.424   3.444 -0.9038  0.2727  0.9875
 4756SOL    HW225731   3.383   0.555   3.505 -0.8648  0.2297 -3.3035
 4757SOL     OW25732   3.830   2.173   3.828 -0.0731 -0.2274  0.0619
 4757SOL    HW125733   3.841   2.235   3.756  0.5791 -0.2092  0.1794
 4757SOL    HW225734   3.874   2.094   3.798  0.5651  0.7805 -1.6006
 4758SOL     OW25735   2.319   0.603   3.093 -0.0930  0.4539 -0.1233
 4758SOL    HW125736   2.257   0.530   3.092  1.5490 -0.9590  0.8587
 4758SOL    HW225737   2.274   0.649   3.163 -2.2894 -2.7124  0.5407
 4759SOL     OW25738   2.632   1.461   1.681  0.0104 -0.1631  0.3590
 4759SOL    HW125739   2.589   1.528   1.628  1.9786  0.7608 -0.0844
 4759SOL    HW225740   2.680   1.406   1.618 -0.7896  1.4007 -1.6043
 4760SOL     OW25741   2.440   0.668   6.892  0.0086 -1.1332  0.2487
 4760SOL    HW125742   2.502   0.740   6.895 -0.6707 -0.6546  2.5216
 4760SOL    HW225743   2.462   0.631   6.977  0.6418 -0.0988  0.5360
 4761SOL     OW25744   3.637   3.916   5.769 -0.2475 -0.5475 -0.0057
 4761SOL    HW125745   3.730   3.928   5.791 -0.2022 -2.9132  1.0395
 4761SOL    HW225746   3.624   3.837   5.821 -2.0639 -0.8086 -0.8955
 4762SOL     OW25747   3.500   1.137   6.058 -0.1569 -0.1545 -0.2597
 4762SOL    HW125748   3.542   1.199   6.117  1.1400 -2.0842  0.8507
 4762SOL    HW225749   3.420   1.188   6.045  0.0813 -0.3085 -2.4292
 4763SOL     OW25750   3.411   0.005   5.129 -0.2481 -0.8444 -0.2022
 4763SOL    HW125751   3.373   0.060   5.198  1.5610 -0.9858  0.8969
 4763SOL    HW225752   3.364   0.023   5.048 -0.5592  1.2721  0.4408
 4764SOL     OW25753   4.183   0.535  15.775  0.0088 -0.0189  0.0338
 4764SOL    HW125754   4.144   0.544  15.689  1.7412  2.9414 -0.4362
 4764SOL    HW225755   4.275   0.537  15.749  0.3022  2.3372  1.2063
 4765SOL     OW25756   3.102   0.589  12.032 -0.7814 -0.5614  0.2480
 4765SOL    HW125757   3.168   0.643  11.988  0.1934 -1.7740  0.2320
 4765SOL    HW225758   3.042   0.560  11.964 -1.8991 -1.1855  1.5047
 4766SOL     OW25759   0.702   0.688   4.396 -0.4855 -0.1589  0.2642
 4766SOL    HW125760   0.783   0.735   4.417 -0.7519  0.3062  0.2593
 4766SOL    HW225761   0.723   0.606   4.440  1.4695  0.4905  0.5434
 4767SOL     OW25762   1.296   0.983   6.016 -0.2519 -0.3094  0.1011
 4767SOL    HW125763   1.250   0.982   5.932  1.0796  1.9148 -0.6494
 4767SOL    HW225764   1.263   0.905   6.061 -0.0941 -0.7784 -0.5905
 4768SOL     OW25765   0.323   3.779   4.823 -0.0149 -0.0798  0.4870
 4768SOL    HW125766   0.331   3.723   4.746  0.1754  0.6754 -0.0534
 4768SOL    HW225767   0.255   3.837   4.788 -1.4853 -2.3184 -0.3768
 4769SOL     OW25768   3.352   1.688  13.371 -0.0813 -0.1338  0.0818
 4769SOL    HW125769   3.312   1.617  13.321  2.2468 -1.6918  0.4407
 4769SOL    HW225770   3.332   1.767  13.321  2.7958  0.5138 -0.0464
 4770SOL     OW25771   0.791   2.019   5.768 -0.3595  0.3919  0.0663
 4770SOL    HW125772   0.718   2.074   5.738 -1.0025 -0.4589  0.0818
 4770SOL    HW225773   0.758   1.932   5.789  0.7953 -0.0430  0.0919
 4771SOL     OW25774   0.329   1.760  12.993  0.0209  0.2806 -0.0613
 4771SOL    HW125775   0.381   1.776  13.071 -0.1014 -1.5697  0.3959
 4771SOL    HW225776   0.389   1.698  12.951 -0.5659  0.3255 -0.9837
 4772SOL     OW25777   0.874   4.131   7.607 -0.6332  0.1805 -0.0231
 4772SOL    HW125778   0.873   4.044   7.646 -2.3753  1.0168  1.8728
 4772SOL    HW225779   0.810   4.125   7.536 -2.0787  0.7140  1.2207
 4773SOL     OW25780   2.664   3.870   1.981  0.3774  0.6604 -0.4476
 4773SOL    HW125781   2.577   3.859   2.019  1.8695 -0.7944  2.5361
 4773SOL    HW225782   2.709   3.922   2.048 -0.3473  1.3655 -0.5189
 4774SOL     OW25783   1.099   2.585   2.050 -0.0743  0.5507 -0.4999
 4774SOL    HW125784   1.039   2.617   2.117  1.0761  2.1198 -0.2157
 4774SOL    HW225785   1.050   2.582   1.968  0.4007 -0.2021 -0.7658
 4775SOL     OW25786   4.085   1.770   7.710 -0.7001 -0.1218 -0.8266
 4775SOL    HW125787   4.048   1.758   7.798  1.0485  0.1016 -0.0562
 4775SOL    HW225788   4.155   1.833   7.726  1.2180 -2.4226 -0.2189
 4776SOL     OW25789   1.414   3.813   6.681 -0.0697 -0.6938  0.6056
 4776SOL    HW125790   1.361   3.844   6.607 -0.9481  0.9288  1.9050
 4776SOL    HW225791   1.484   3.877   6.675 -0.2313 -0.3139  2.8404
 4777SOL     OW25792   3.558   1.955  14.394  0.5980 -0.0800  0.0729
 4777SOL    HW125793   3.482   2.006  14.422  1.8374  1.1943  1.1838
 4777SOL    HW225794   3.517   1.870  14.385  1.4561 -0.6964  1.8661
 4778SOL     OW25795   1.640   3.954   0.795 -0.0029  0.0865 -0.2927
 4778SOL    HW125796   1.607   3.988   0.712  1.8404  1.7308 -0.3541
 4778SOL    HW225797   1.603   3.866   0.794  0.1907 -0.0097  1.5383
 4779SOL     OW25798   1.547   1.817  17.566  0.0534  0.5694  0.2251
 4779SOL    HW125799   1.481   1.865  17.517  0.6940  0.4001 -0.7932
 4779SOL    HW225800   1.616   1.884  17.559  1.3213 -1.0884 -2.9915
 4780SOL     OW25801   3.107   1.804   6.475  0.8058  0.2221  0.2052
 4780SOL    HW125802   3.090   1.889   6.516 -0.4989 -1.3426  2.8635
 4780SOL    HW225803   3.018   1.773   6.459  0.1380  1.2984  1.9094
 4781SOL     OW25804   1.133   3.596  16.652  0.2429 -0.1531  0.3385
 4781SOL    HW125805   1.045   3.590  16.614  0.3952  0.3228 -0.0839
 4781SOL    HW225806   1.140   3.691  16.648  1.6497 -0.2456  0.4324
 4782SOL     OW25807   3.495   4.485   7.352  0.1686 -0.2153  0.4403
 4782SOL    HW125808   3.559   4.429   7.307 -0.5491 -1.2833  0.7494
 4782SOL    HW225809   3.419   4.451   7.306 -1.0039 -0.0649  2.2667
 4783SOL     OW25810   1.937   1.164   4.469 -0.0074  0.0167 -0.1944
 4783SOL    HW125811   1.907   1.242   4.423  0.6569  1.8350  2.4198
 4783SOL    HW225812   1.938   1.195   4.560  0.9614 -0.0575 -0.1784
 4784SOL     OW25813   3.826   0.013   8.545 -0.0658 -0.0664  0.5975
 4784SOL    HW125814   3.891   0.014   8.616  0.8822 -2.2744 -0.2283
 4784SOL    HW225815   3.879   4.697   8.478 -0.5743  0.5211 -0.1599
 4785SOL     OW25816   2.343   3.292  12.064 -0.3101  0.5632  0.0306
 4785SOL    HW125817   2.422   3.334  12.097  0.2243  1.5007 -2.4819
 4785SOL    HW225818   2.276   3.325  12.124  0.6204  1.5972  0.5045
 4786SOL     OW25819   2.160   3.611   7.035 -0.5290 -0.9362 -0.3351
 4786SOL    HW125820   2.203   3.680   6.985  0.5843 -1.8696 -0.6504
 4786SOL    HW225821   2.127   3.661   7.110 -1.4090 -0.3976 -1.0817
 4787SOL     OW25822   1.873   0.517  10.627  0.3888  0.8494  0.4020
 4787SOL    HW125823   1.780   0.542  10.627 -0.0881 -0.8976  1.8367
 4787SOL    HW225824   1.875   0.503  10.722  1.9266  1.8167  0.5000
 4788SOL     OW25825   1.130   0.618   2.806  0.3357 -0.2023 -0.1432
 4788SOL    HW125826   1.091   0.682   2.746 -0.4234 -0.3331  0.2097
 4788SOL    HW225827   1.224   0.635   2.801  0.6839 -2.2677 -0.5370
 4789SOL     OW25828   2.087   4.632   2.397 -0.0631 -0.3695 -0.1798
 4789SOL    HW125829   2.097   4.625   2.302 -2.6035  0.9340 -0.5315
 4789SOL    HW225830   2.062   4.541   2.412 -1.2436 -0.1988 -1.1245
 4790SOL     OW25831   2.334   2.700   7.056 -0.2017 -0.1029  0.3137
 4790SOL    HW125832   2.295   2.728   7.139 -0.1054 -0.5294  0.5036
 4790SOL    HW225833   2.415   2.751   7.062 -1.1136  1.4524 -0.4314
 4791SOL     OW25834   0.890   2.581   2.716  0.0969 -0.1197 -0.6817
 4791SOL    HW125835   0.911   2.579   2.623  0.7738 -2.0310 -0.4930
 4791SOL    HW225836   0.885   2.487   2.733 -3.2882 -0.0139 -1.1982
 4792SOL     OW25837   3.457   4.695   6.097 -0.1245  0.5620  0.0407
 4792SOL    HW125838   3.534   0.023   6.116  1.3403 -2.1429  1.5957
 4792SOL    HW225839   3.488   4.621   6.045  0.2826  0.6449  0.1626
 4793SOL     OW25840   2.125   2.798   4.545  0.1873 -0.0346  0.0660
 4793SOL    HW125841   2.185   2.761   4.609  1.9042  0.7014 -1.1051
 4793SOL    HW225842   2.075   2.860   4.597 -0.2680 -1.1420  0.9373
 4794SOL     OW25843   0.785   1.295   8.986  0.1979 -0.5333  0.0775
 4794SOL    HW125844   0.806   1.202   8.998  1.4701 -0.0129  1.8164
 4794SOL    HW225845   0.783   1.315   9.079 -0.5791  2.1537 -0.5291
 4795SOL     OW25846   4.609   1.593   2.655 -0.2085 -0.1488  0.1927
 4795SOL    HW125847   4.604   1.670   2.597  0.4612 -1.4375 -1.5931
 4795SOL    HW225848   4.701   1.566   2.651  0.4494  2.1572 -0.4829
 4796SOL     OW25849   4.143   2.289   2.687  0.0485  0.3316  0.6739
 4796SOL    HW125850   4.148   2.297   2.782  0.9919  0.0273  0.6391
 4796SOL    HW225851   4.234   2.269   2.668 -0.2580 -0.5462  0.1304
 4797SOL     OW25852   2.165   2.206  14.960  0.6093 -0.2460  0.3763
 4797SOL    HW125853   2.198   2.290  14.993 -2.0490  0.2712  1.6994
 4797SOL    HW225854   2.077   2.239  14.939  0.2607 -1.1740  0.3784
 4798SOL     OW25855   0.873   2.785   3.903  0.0132 -0.0251  0.1120
 4798SOL    HW125856   0.817   2.861   3.916  1.5835  1.0548  0.5055
 4798SOL    HW225857   0.809   2.714   3.911  2.2330 -2.0488 -0.1862
 4799SOL     OW25858   3.808   0.916   9.841  0.2371  0.0879  0.6471
 4799SOL    HW125859   3.821   0.869   9.759 -0.6466  2.9134 -1.1182
 4799SOL    HW225860   3.715   0.897   9.857 -0.5382  1.6284 -2.0108
 4800SOL     OW25861   0.950   1.020  17.340  0.5383 -0.3926  0.2831
 4800SOL    HW125862   0.907   1.092  17.386  3.0314  1.0233  0.3684
 4800SOL    HW225863   1.027   1.073  17.320  0.2304 -0.8616 -2.1916
 4801SOL     OW25864   0.240   3.627   3.370 -0.1768 -0.1084  0.1974
 4801SOL    HW125865   0.241   3.538   3.404  1.0127 -0.3713 -0.5101
 4801SOL    HW225866   0.169   3.611   3.308  0.6768 -2.6573 -0.1310
 4802SOL     OW25867   0.390   0.740   6.879 -0.0643 -0.4496  0.4962
 4802SOL    HW125868   0.383   0.661   6.824  1.3384  0.0137 -0.3467
 4802SOL    HW225869   0.296   0.740   6.896 -0.1031 -3.7632  0.3476
 4803SOL     OW25870   2.617   3.670  10.214  0.1356 -0.2678  0.5321
 4803SOL    HW125871   2.529   3.666  10.251 -0.6488 -0.4197 -1.3453
 4803SOL    HW225872   2.637   3.577  10.220  0.8054 -0.1880 -0.3929
 4804SOL     OW25873   4.421   2.189   2.584 -0.6925 -0.3164  0.6633
 4804SOL    HW125874   4.496   2.134   2.561 -1.6220 -1.6572  0.8354
 4804SOL    HW225875   4.443   2.186   2.677 -0.7305  0.5566  0.7033
 4805SOL     OW25876   4.671   0.825   3.035  0.8271  0.2529  0.0465
 4805SOL    HW125877   4.697   0.859   2.949  0.2518  2.8012  0.8989
 4805SOL    HW225878   4.698   0.733   3.037  0.6911  0.1700 -1.6777
 4806SOL     OW25879   1.731   4.635   3.023  0.0630 -0.3132  0.8350
 4806SOL    HW125880   1.646   4.656   2.985  1.4555  1.1872 -1.4625
 4806SOL    HW225881   1.750   4.549   2.986 -0.6867 -0.3385  0.5161
 4807SOL     OW25882   1.021   3.865   7.274  0.1559 -0.4309  0.3105
 4807SOL    HW125883   1.083   3.807   7.230  1.5034  0.4938  0.9905
 4807SOL    HW225884   1.071   3.922   7.333 -0.5598 -0.1133  0.6106
 4808SOL     OW25885   2.564   3.470   5.320  0.0636  0.1258  0.1133
 4808SOL    HW125886   2.476   3.505   5.337 -0.1771 -0.2500 -0.3640
 4808SOL    HW225887   2.620   3.547   5.326  1.1537 -0.6518 -0.0148
 4809SOL     OW25888   3.727   1.068   4.555  0.3471 -0.4517  0.1590
 4809SOL    HW125889   3.788   1.135   4.525  0.4304 -0.7071 -0.2358
 4809SOL    HW225890   3.702   1.096   4.643 -0.9241  0.0237 -0.3443
 4810SOL     OW25891   1.477   1.990   3.591  0.6929  0.3448 -0.4060
 4810SOL    HW125892   1.397   1.947   3.559  1.1202 -0.7592  0.0254
 4810SOL    HW225893   1.431   2.074   3.600 -0.1185 -0.2263  0.8573
 4811SOL     OW25894   3.964   4.300   1.170  0.3672  0.4862  0.6120
 4811SOL    HW125895   4.032   4.240   1.200  0.6093  1.0943  1.2778
 4811SOL    HW225896   3.892   4.279   1.230 -1.6104  0.1234 -1.8995
 4812SOL     OW25897   1.752   3.990  17.495  0.0747 -0.0401  0.4492
 4812SOL    HW125898   1.791   4.074  17.473  0.1400 -0.3728 -0.7055
 4812SOL    HW225899   1.740   3.998  17.590 -0.4047 -0.2867  0.4106
 4813SOL     OW25900   4.087   2.037   6.448 -0.1673  0.1838 -0.2337
 4813SOL    HW125901   4.108   1.979   6.375  1.1971 -0.2485  0.5033
 4813SOL    HW225902   4.161   2.097   6.452 -0.4149  0.5411 -0.9497
 4814SOL     OW25903   2.635   1.163   0.627 -0.2233 -0.4307  0.5705
 4814SOL    HW125904   2.569   1.100   0.654 -0.3868 -0.1359  0.8478
 4814SOL    HW225905   2.585   1.239   0.598 -0.4967 -0.2618  1.4818
 4815SOL     OW25906   2.054   3.004   1.947 -1.0060  0.3340 -0.3591
 4815SOL    HW125907   2.065   3.099   1.947 -3.0952  0.5632  0.3274
 4815SOL    HW225908   2.040   3.005   1.853 -1.2605  0.5668 -0.3183
 4816SOL     OW25909   0.647   1.670   4.650  0.1055 -0.5960 -0.2634
 4816SOL    HW125910   0.718   1.606   4.653 -0.2188 -0.9687 -0.6440
 4816SOL    HW225911   0.605   1.653   4.567  1.2362 -1.3199 -0.6890
 4817SOL     OW25912   1.802   0.351   3.310  0.3140 -0.4769  0.0786
 4817SOL    HW125913   1.822   0.267   3.351 -1.0907  0.2696  2.2683
 4817SOL    HW225914   1.716   0.331   3.271  0.4589  0.3404 -0.6771
 4818SOL     OW25915   4.610   3.875   5.825 -0.2297 -0.5661  0.1489
 4818SOL    HW125916   4.703   3.854   5.821 -0.3228 -0.9497 -0.0700
 4818SOL    HW225917   4.586   3.838   5.911 -0.8623  1.7731  0.9770
 4819SOL     OW25918   4.422   2.133   5.038 -0.1824  0.5225 -0.7063
 4819SOL    HW125919   4.409   2.220   5.001  0.1165  1.1882  0.7423
 4819SOL    HW225920   4.475   2.098   4.967  0.3125  0.1040 -0.1305
 4820SOL     OW25921   3.334   2.724   5.862  0.1551  0.3137  0.0268
 4820SOL    HW125922   3.359   2.680   5.943  1.2221 -0.8259 -0.9199
 4820SOL    HW225923   3.317   2.655   5.798  2.0452  0.4587 -0.6400
 4821SOL     OW25924   4.314   3.616   1.962  0.8562 -0.3023 -0.0621
 4821SOL    HW125925   4.247   3.602   2.029 -0.3452  0.9112 -1.0272
 4821SOL    HW225926   4.263   3.594   1.884 -1.5695  2.2787  0.7938
 4822SOL     OW25927   1.867   4.560  12.917  0.0114  0.2559 -0.5404
 4822SOL    HW125928   1.882   4.518  12.832 -0.6956 -0.5789 -0.2430
 4822SOL    HW225929   1.927   4.508  12.970 -0.4774 -1.1829 -1.4175
 4823SOL     OW25930   4.051   0.615   5.131 -0.0482 -0.0642  0.1975
 4823SOL    HW125931   3.960   0.644   5.131  0.3011  1.0334 -1.2399
 4823SOL    HW225932   4.065   0.566   5.212  0.2544  0.0827  0.2369
 4824SOL     OW25933   1.837   3.275   5.632  0.2848  0.2114  0.0030
 4824SOL    HW125934   1.796   3.240   5.553 -0.0888 -0.8506  0.6584
 4824SOL    HW225935   1.802   3.211   5.696 -1.7070  1.7488  0.4602
 4825SOL     OW25936   4.704   1.981  15.052 -0.4047 -0.0473  0.8523
 4825SOL    HW125937   0.034   1.927  15.109  1.2386  1.0167  0.2680
 4825SOL    HW225938   4.622   1.940  15.080  0.0041 -0.3404  1.6420
 4826SOL     OW25939   2.963   0.532   9.994 -0.1196  0.9314 -0.5386
 4826SOL    HW125940   3.007   0.558  10.075  1.2574 -2.3476 -0.2338
 4826SOL    HW225941   2.997   0.600   9.935  0.4810  0.6814 -0.4808
 4827SOL     OW25942   3.691   4.318   5.791  0.3370 -0.6317 -0.0265
 4827SOL    HW125943   3.734   4.244   5.749  0.7237 -1.1392  1.2679
 4827SOL    HW225944   3.677   4.289   5.881  1.2597 -1.6117 -0.2156
 4828SOL     OW25945   2.165   2.022   3.879 -0.0453  0.3435 -0.0791
 4828SOL    HW125946   2.106   2.097   3.871 -0.4808  0.0293  0.2209
 4828SOL    HW225947   2.132   1.965   3.809 -1.2443 -1.1845  1.7475
 4829SOL     OW25948   0.942   0.812   5.428 -0.1938  0.4956 -0.0982
 4829SOL    HW125949   0.886   0.857   5.491 -0.3702 -1.7714  1.3439
 4829SOL    HW225950   0.883   0.742   5.398 -0.1922 -0.1307  1.3624
 4830SOL     OW25951   2.520   3.072  10.765 -0.3535 -0.4548  1.0227
 4830SOL    HW125952   2.499   3.101  10.676 -2.5866 -1.1856  1.3285
 4830SOL    HW225953   2.472   2.990  10.768 -1.0303 -0.1327 -1.0853
 4831SOL     OW25954   4.099   3.470   5.494 -0.4169  0.1381 -0.2538
 4831SOL    HW125955   4.050   3.406   5.442 -0.1328  0.0654 -0.4323
 4831SOL    HW225956   4.185   3.483   5.454  0.2696 -0.6269  0.9859
 4832SOL     OW25957   1.088   2.215   6.999  0.5208  0.4428  0.0183
 4832SOL    HW125958   1.040   2.174   6.927  1.1825 -0.7015  0.2343
 4832SOL    HW225959   1.036   2.182   7.073  1.6892  0.1284  0.7053
 4833SOL     OW25960   0.472   2.772   5.336 -0.8025  0.4553  0.2116
 4833SOL    HW125961   0.392   2.720   5.337 -0.2661 -0.3823 -0.2470
 4833SOL    HW225962   0.535   2.700   5.334 -0.3756  0.8444 -0.5467
 4834SOL     OW25963   1.374   0.839  10.049 -0.0546  0.1148 -0.4820
 4834SOL    HW125964   1.386   0.744  10.045 -0.2236  0.1454 -1.8932
 4834SOL    HW225965   1.368   0.845  10.144 -1.2671 -1.8072 -0.4439
 4835SOL     OW25966   0.270   3.635   9.050  0.4842 -0.1230 -1.0362
 4835SOL    HW125967   0.307   3.569   8.991 -2.1864  0.7646 -3.6914
 4835SOL    HW225968   0.199   3.586   9.092 -0.3950  2.2042  0.1673
 4836SOL     OW25969   1.768   4.009   7.537  0.4353 -0.1399 -1.0207
 4836SOL    HW125970   1.805   4.093   7.511  0.1875  0.4361  0.5307
 4836SOL    HW225971   1.829   3.967   7.598  0.5825  1.1942 -0.2578
 4837SOL     OW25972   2.560   0.830   1.760  0.0454 -0.2313  0.0575
 4837SOL    HW125973   2.502   0.786   1.698  0.6234 -0.1357 -0.5482
 4837SOL    HW225974   2.497   0.830   1.832  0.5376 -2.6296  0.4735
 4838SOL     OW25975   2.706   4.192   4.008 -0.2788 -0.2159  0.3384
 4838SOL    HW125976   2.629   4.144   4.040 -0.5979  0.0543 -0.0282
 4838SOL    HW225977   2.751   4.210   4.090 -2.9488  1.5947  1.3944
 4839SOL     OW25978   3.128   1.774   2.596  0.1279 -0.3863 -0.4030
 4839SOL    HW125979   3.163   1.694   2.555 -2.0173 -1.7969  0.5080
 4839SOL    HW225980   3.119   1.829   2.519  3.7043  1.5737  0.5948
 4840SOL     OW25981   0.702   0.973   8.628 -0.0951  0.3134 -0.2355
 4840SOL    HW125982   0.761   0.901   8.648  1.4426  1.6270 -0.0895
 4840SOL    HW225983   0.691   0.968   8.533  0.5490 -0.2541 -0.2808
 4841SOL     OW25984   1.003   1.171  13.301 -0.0992 -0.1267 -0.0170
 4841SOL    HW125985   1.093   1.153  13.328 -1.6197 -1.7910  3.9812
 4841SOL    HW225986   0.955   1.093  13.329  1.0492 -0.8954 -0.2141
 4842SOL     OW25987   0.376   3.795   8.157  0.1472 -0.0231 -0.6507
 4842SOL    HW125988   0.380   3.790   8.062 -2.7029 -2.1831 -0.6118
 4842SOL    HW225989   0.412   3.710   8.182  0.8281  0.8442  1.3660
 4843SOL     OW25990   4.383   0.763   4.071 -0.2130  0.0269 -0.1757
 4843SOL    HW125991   4.376   0.801   3.983 -3.2041  0.3579  0.2079
 4843SOL    HW225992   4.294   0.730   4.083 -0.2411  0.3637  0.5524
 4844SOL     OW25993   1.588   2.365  12.349 -0.7216 -0.0527 -0.8390
 4844SOL    HW125994   1.539   2.356  12.267 -1.2410  3.6560 -0.9453
 4844SOL    HW225995   1.650   2.292  12.348  0.1115  0.6159  2.4729
 4845SOL     OW25996   3.727   2.127   5.882 -0.6006  0.1638  0.4749
 4845SOL    HW125997   3.736   2.173   5.798  1.0176 -2.6788 -0.8768
 4845SOL    HW225998   3.673   2.051   5.860  0.2677  0.1746 -1.7239
 4846SOL     OW25999   1.790   4.633   5.685  0.2352  0.6649  0.3900
 4846SOL    HW126000   1.809   4.559   5.742 -1.6688  0.2063  0.4036
 4846SOL    HW226001   1.729   4.673   5.746  0.3479  1.1560  0.1885
 4847SOL     OW26002   4.002   3.046  11.896  0.2807 -0.1818  0.2724
 4847SOL    HW126003   3.932   3.081  11.841  1.3700 -3.2161 -2.9883
 4847SOL    HW226004   3.997   3.107  11.970  0.2447 -0.1455  0.2402
 4848SOL     OW26005   4.431   4.683  16.588  0.0083 -0.1577 -0.5990
 4848SOL    HW126006   4.360   4.678  16.524 -0.1115  0.4009 -0.5104
 4848SOL    HW226007   4.412   0.030  16.648  3.1291  0.9566 -0.9374
 4849SOL     OW26008   1.165   4.402  15.844  0.1505  0.5544  0.2549
 4849SOL    HW126009   1.080   4.413  15.886 -0.7185  0.4137 -1.4730
 4849SOL    HW226010   1.215   4.421  15.924 -1.4151  0.6150  1.2149
 4850SOL     OW26011   3.046   3.787   7.806 -0.1643  0.3337  0.2890
 4850SOL    HW126012   2.963   3.745   7.829 -0.9648  0.9111 -1.6076
 4850SOL    HW226013   3.107   3.715   7.816  1.3517  1.4659 -0.8150
 4851SOL     OW26014   4.660   3.034   8.145  0.3250 -0.0865  0.5915
 4851SOL    HW126015   4.622   2.958   8.100  1.6980 -1.1552  1.2416
 4851SOL    HW226016   4.694   3.080   8.068  0.2015  1.5545  1.5268
 4852SOL     OW26017   2.925   3.279   8.526  0.2027 -0.0767 -0.1446
 4852SOL    HW126018   2.972   3.326   8.595  2.3351  0.6720 -2.0901
 4852SOL    HW226019   2.937   3.346   8.458  1.3698 -1.0501 -0.9152
 4853SOL     OW26020   0.161   0.889   3.728  0.5465  0.0849  0.5974
 4853SOL    HW126021   0.200   0.802   3.727  0.2695 -0.0386  0.5108
 4853SOL    HW226022   0.115   0.887   3.644 -0.9885 -2.3992  1.4879
 4854SOL     OW26023   0.585   4.533  15.952  0.2563 -0.5864 -0.7372
 4854SOL    HW126024   0.657   4.591  15.978 -0.8601 -0.1371  1.3681
 4854SOL    HW226025   0.534   4.593  15.897  0.5150  1.5607  1.3323
 4855SOL     OW26026   2.625   4.128   6.870  0.0286  0.0277  0.1188
 4855SOL    HW126027   2.577   4.099   6.947 -2.4140  0.9324 -1.0860
 4855SOL    HW226028   2.587   4.082   6.795 -0.5898 -0.9588  1.0412
 4856SOL     OW26029   2.917   4.089  10.254 -0.0903  0.4431  0.1869
 4856SOL    HW126030   2.945   3.997  10.249 -0.1091  0.3011  2.5216
 4856SOL    HW226031   2.960   4.125  10.177  0.7457  0.5609  0.7125
 4857SOL     OW26032   0.972   4.370   7.717 -0.3578 -0.2999 -0.3736
 4857SOL    HW126033   0.934   4.292   7.676 -1.9705 -0.3366  1.1817
 4857SOL    HW226034   1.050   4.382   7.662 -0.3486  1.3776  0.0307
 4858SOL     OW26035   1.429   3.382   4.077  0.0541 -0.0547  0.1060
 4858SOL    HW126036   1.497   3.426   4.128 -1.0369 -0.3870  1.8471
 4858SOL    HW226037   1.450   3.409   3.987  0.8799  0.9067  0.5920
 4859SOL     OW26038   0.492   4.526  16.795 -0.0993 -0.4235 -0.2413
 4859SOL    HW126039   0.547   4.603  16.807 -0.3380 -0.2602 -0.1986
 4859SOL    HW226040   0.557   4.462  16.766 -0.9504 -1.3006 -0.2203
 4860SOL     OW26041   3.696   0.845   1.926  0.8183 -0.0125 -0.4631
 4860SOL    HW126042   3.637   0.800   1.986  1.1089  0.6982  0.3560
 4860SOL    HW226043   3.645   0.923   1.905  2.6093  1.0908 -0.7097
 4861SOL     OW26044   1.569   3.624   2.441 -0.1063 -0.5817  0.6384
 4861SOL    HW126045   1.533   3.576   2.367  1.4691 -1.6519  0.5560
 4861SOL    HW226046   1.492   3.655   2.488  0.0732  0.1134  0.4764
 4862SOL     OW26047   2.077   0.010  11.224 -0.2297 -0.2615 -0.2947
 4862SOL    HW126048   2.127   4.663  11.260 -1.1043 -0.0758  1.3328
 4862SOL    HW226049   2.051   0.050  11.308 -1.5028 -0.6105 -0.5290
 4863SOL     OW26050   3.316   1.392  12.251 -0.3437  0.3678 -0.1450
 4863SOL    HW126051   3.377   1.424  12.317 -0.1751  0.0114 -0.1253
 4863SOL    HW226052   3.281   1.310  12.287  1.8018 -0.2355  0.5319
 4864SOL     OW26053   3.896   1.181  13.910 -0.2261  0.2466  0.6747
 4864SOL    HW126054   3.812   1.208  13.948 -0.3734 -0.2483  0.7084
 4864SOL    HW226055   3.938   1.131  13.980 -3.1524 -1.0073  1.5550
 4865SOL     OW26056   1.479   2.532   5.657  0.1220 -0.0361  0.6974
 4865SOL    HW126057   1.475   2.568   5.568  1.3204 -0.6482  0.4014
 4865SOL    HW226058   1.413   2.462   5.652  0.1770 -0.0556  0.2928
 4866SOL     OW26059   0.040   2.263  13.506  0.1770  0.0262 -0.9127
 4866SOL    HW126060   4.675   2.294  13.500  0.5075  0.8276 -1.7713
 4866SOL    HW226061   0.041   2.207  13.428  3.8399 -2.0977  0.6733
 4867SOL     OW26062   2.296   2.051  10.574 -0.1517 -0.1394  0.0207
 4867SOL    HW126063   2.209   2.077  10.605 -1.5491 -2.7665 -1.6868
 4867SOL    HW226064   2.299   2.104  10.495  1.4052  2.2699  1.6886
 4868SOL     OW26065   2.981   4.454   8.883 -0.3636  0.8181  0.9686
 4868SOL    HW126066   3.058   4.419   8.839 -2.0685 -4.7549  2.4425
 4868SOL    HW226067   3.016   4.442   8.972  0.5551 -0.0359  0.4886
 4869SOL     OW26068   3.402   4.461  13.835 -0.6911  0.5414  0.6992
 4869SOL    HW126069   3.441   4.374  13.827 -1.6542  0.1585  0.1149
 4869SOL    HW226070   3.453   4.508  13.769 -2.2868  1.6440  0.2430
 4870SOL     OW26071   0.291   3.095   3.884  0.1619  0.2974  0.1478
 4870SOL    HW126072   0.226   3.107   3.815 -0.2877 -0.5322  0.4239
 4870SOL    HW226073   0.320   3.007   3.857  1.4156  0.3224  1.4162
 4871SOL     OW26074   0.346   3.283   8.742  0.1603  0.3344  0.3378
 4871SOL    HW126075   0.346   3.327   8.827 -1.5127 -0.6153  0.8390
 4871SOL    HW226076   0.317   3.192   8.753 -0.0517  0.2680 -0.7121
 4872SOL     OW26077   1.537   3.818   7.909 -0.3263 -0.3662  0.2397
 4872SOL    HW126078   1.623   3.778   7.903  0.0574  0.9093 -2.3748
 4872SOL    HW226079   1.504   3.760   7.978  0.4066 -0.8464  0.1921
 4873SOL     OW26080   2.201   0.670   2.225  0.4684  0.1713  0.2911
 4873SOL    HW126081   2.195   0.612   2.301 -3.6826  0.9200  0.5248
 4873SOL    HW226082   2.149   0.742   2.260 -0.5772 -0.0285 -0.8446
 4874SOL     OW26083   0.556   3.689   8.786 -0.2223 -0.0787  0.1172
 4874SOL    HW126084   0.521   3.718   8.870 -2.7619 -0.8591 -0.6778
 4874SOL    HW226085   0.587   3.770   8.747  1.2588 -0.8431 -0.2861
 4875SOL     OW26086   3.994   4.488   3.539  0.1565 -0.0807 -0.3990
 4875SOL    HW126087   4.010   4.556   3.605 -0.7830  0.2997 -0.5592
 4875SOL    HW226088   3.900   4.483   3.555 -0.0765  0.3937 -1.5876
 4876SOL     OW26089   3.397   1.275  14.285 -0.3309  0.4685  0.1028
 4876SOL    HW126090   3.423   1.287  14.193  0.6360 -0.3628  0.2693
 4876SOL    HW226091   3.484   1.268  14.323  0.0538  2.2550 -0.4384
 4877SOL     OW26092   1.279   2.842   7.274  0.0596 -0.2888  0.5483
 4877SOL    HW126093   1.221   2.913   7.306 -0.2266 -0.9097  1.4166
 4877SOL    HW226094   1.330   2.882   7.204  1.8426 -0.5829  1.7025
 4878SOL     OW26095   3.558   0.965   4.337 -0.1250 -0.1128  0.5113
 4878SOL    HW126096   3.641   0.987   4.380 -0.8224  0.4276  1.5901
 4878SOL    HW226097   3.500   1.021   4.389 -0.5043 -0.8207  0.8421
 4879SOL     OW26098   2.713   1.411   2.733 -0.0204 -0.0727 -0.5510
 4879SOL    HW126099   2.643   1.444   2.677  1.2195 -1.7628 -3.0876
 4879SOL    HW226100   2.694   1.464   2.810 -1.0134 -1.6796  0.3206
 4880SOL     OW26101   3.002   3.047   3.801 -0.5129 -0.1529  0.8605
 4880SOL    HW126102   3.047   3.129   3.780  0.0960 -0.2195  1.8855
 4880SOL    HW226103   2.981   3.083   3.887  1.1116  0.0266  1.1912
 4881SOL     OW26104   0.004   4.332   0.700 -0.0229 -0.3037 -0.1410
 4881SOL    HW126105   4.678   4.256   0.674 -1.2572  0.5301 -0.1100
 4881SOL    HW226106   0.069   4.343   0.630 -1.5144 -0.9781 -1.6209
 4882SOL     OW26107   1.156   1.785   7.501  0.6481 -0.3518 -0.4846
 4882SOL    HW126108   1.144   1.801   7.407  1.4843  1.8541 -0.2089
 4882SOL    HW226109   1.126   1.868   7.539  1.6954  0.8895 -2.3890
 4883SOL     OW26110   3.586   4.474   7.001 -0.0030 -1.1222 -0.8857
 4883SOL    HW126111   3.651   4.498   6.934  0.7910 -0.6881  0.0343
 4883SOL    HW226112   3.560   4.384   6.982  0.7873 -1.0658 -2.2200
 4884SOL     OW26113   3.345   2.540   6.071 -0.3888  0.0216  0.1340
 4884SOL    HW126114   3.296   2.458   6.058 -0.9482  0.6980 -2.0002
 4884SOL    HW226115   3.295   2.579   6.142  1.5691 -1.0942  2.0952
 4885SOL     OW26116   2.710   2.325   6.361 -0.0350 -0.2154 -1.0287
 4885SOL    HW126117   2.655   2.390   6.319 -2.2398 -1.5254 -0.1762
 4885SOL    HW226118   2.777   2.371   6.412  0.1161  0.2909 -1.6812
 4886SOL     OW26119   4.603   2.016  16.471  0.0794  0.1936 -0.0285
 4886SOL    HW126120   4.551   1.992  16.548  1.0497  0.0425  0.5835
 4886SOL    HW226121   4.535   2.018  16.404 -0.2914 -2.4452  0.2398
 4887SOL     OW26122   3.414   3.410   4.319 -0.5329 -0.3086  0.1697
 4887SOL    HW126123   3.377   3.322   4.320  0.8528 -0.8969 -0.6753
 4887SOL    HW226124   3.366   3.449   4.245  0.1499  1.2502  0.5589
 4888SOL     OW26125   1.913   3.730  14.338 -0.2862 -0.5704  0.0102
 4888SOL    HW126126   1.833   3.682  14.316 -1.2583  0.8030  0.5288
 4888SOL    HW226127   1.925   3.677  14.417  1.5447 -0.5857 -0.2707
 4889SOL     OW26128   3.787   4.048   5.231 -0.3935 -0.0885  0.1472
 4889SOL    HW126129   3.730   3.973   5.211  0.0189 -0.6525  1.0558
 4889SOL    HW226130   3.871   4.003   5.219  0.5761  1.3810  1.4947
 4890SOL     OW26131   0.986   0.231  12.502  0.4291 -0.5988 -0.0794
 4890SOL    HW126132   0.903   0.203  12.462 -0.5706  2.5470 -0.2428
 4890SOL    HW226133   1.009   0.307  12.448 -0.3363 -1.4269 -1.5910
 4891SOL     OW26134   0.223   3.666   6.544 -0.1450 -0.1888  0.5288
 4891SOL    HW126135   0.235   3.624   6.459 -0.2337 -1.8879  1.3612
 4891SOL    HW226136   0.151   3.610   6.572  1.4499 -2.3163  0.3994
 4892SOL     OW26137   3.746   2.375   5.416  0.2153 -0.3551 -0.0331
 4892SOL    HW126138   3.760   2.302   5.355 -0.3345  1.0804 -1.8847
 4892SOL    HW226139   3.675   2.428   5.380 -0.5708 -0.9776  0.5936
 4893SOL     OW26140   0.423   1.605   9.552  0.6696 -0.2729 -0.2290
 4893SOL    HW126141   0.340   1.557   9.552  2.2053 -2.8937 -0.7907
 4893SOL    HW226142   0.398   1.669   9.620 -0.4714 -0.5054 -0.4287
 4894SOL     OW26143   3.073   4.520   3.277  0.0236  0.2970 -0.0522
 4894SOL    HW126144   3.014   4.465   3.329  0.7113 -0.0178  0.3848
 4894SOL    HW226145   3.148   4.461   3.272  0.5822  0.8279  2.3953
 4895SOL     OW26146   4.124   4.503  12.057  0.7788 -0.1212  0.4627
 4895SOL    HW126147   4.069   4.577  12.081 -1.0371 -0.4292 -2.6923
 4895SOL    HW226148   4.189   4.553  12.008 -0.3628  0.4532 -0.4836
 4896SOL     OW26149   3.035   4.332   1.666  0.2277  0.2266 -0.3852
 4896SOL    HW126150   3.049   4.279   1.588 -1.8600 -0.3221 -0.4043
 4896SOL    HW226151   3.094   4.296   1.732  0.2130  1.7686  0.4599
 4897SOL     OW26152   3.279   3.517   4.073  0.5473 -0.0365 -0.0868
 4897SOL    HW126153   3.344   3.567   4.024  0.1019 -0.5123 -1.1712
 4897SOL    HW226154   3.210   3.582   4.086  1.2812  0.6404  0.3603
 4898SOL     OW26155   0.323   3.943   5.417 -0.3732  0.7579 -0.1490
 4898SOL    HW126156   0.320   3.848   5.426 -0.4406  0.7235 -0.5019
 4898SOL    HW226157   0.263   3.942   5.342 -0.0721 -2.3943 -0.3685
 4899SOL     OW26158   1.105   4.270   3.373  0.0687  0.2539  0.4033
 4899SOL    HW126159   1.033   4.213   3.347 -0.1024  0.9544 -0.6354
 4899SOL    HW226160   1.174   4.204   3.381  0.7233  0.8141 -0.7636
 4900SOL     OW26161   0.960   4.583   8.058 -0.1985  0.2469 -0.1935
 4900SOL    HW126162   0.973   4.673   8.087  0.4807 -0.1966  0.8657
 4900SOL    HW226163   0.870   4.576   8.028 -0.4490  1.5961  0.2166
 4901SOL     OW26164   1.107   3.810   5.653 -0.0653  0.0140 -0.8030
 4901SOL    HW126165   1.108   3.905   5.647  2.3932  0.0110 -0.7736
 4901SOL    HW226166   1.040   3.783   5.591 -2.0106 -0.5480  1.5681
 4902SOL     OW26167   4.069   3.760   5.424 -0.5692  0.2420 -0.4913
 4902SOL    HW126168   4.075   3.673   5.464 -0.0026  1.7422  2.6354
 4902SOL    HW226169   4.051   3.727   5.336  2.3573 -1.3173 -0.4857
 4903SOL     OW26170   1.159   4.083   3.667  0.4666  0.3883 -0.3439
 4903SOL    HW126171   1.205   4.011   3.624 -0.2083 -1.0423  1.3535
 4903SOL    HW226172   1.193   4.070   3.755 -0.3657  3.0329  0.3573
 4904SOL     OW26173   2.800   1.180  13.647  0.4921 -0.0247 -0.1130
 4904SOL    HW126174   2.714   1.143  13.630 -0.4527  3.0909 -2.0167
 4904SOL    HW226175   2.776   1.252  13.705 -1.9899 -0.5873 -0.4450
 4905SOL     OW26176   4.611   0.008   8.452 -0.6304  0.3591 -0.2997
 4905SOL    HW126177   4.646   0.048   8.532 -1.7413 -2.3234  1.5156
 4905SOL    HW226178   4.543   0.071   8.428  0.5038  2.0811  0.9706
 4906SOL     OW26179   3.681   1.590   7.986 -0.1069 -0.0493  0.0824
 4906SOL    HW126180   3.760   1.538   8.004 -0.6524 -1.7889 -2.7186
 4906SOL    HW226181   3.612   1.546   8.036 -0.6729  1.0771  0.2859
 4907SOL     OW26182   0.829   0.692   3.188  1.0483  0.3769 -0.3607
 4907SOL    HW126183   0.844   0.655   3.275  1.1704  0.3565 -0.3914
 4907SOL    HW226184   0.801   0.617   3.135  1.3565  0.7134 -0.9990
 4908SOL     OW26185   2.385   4.514   5.036 -0.2948  0.2543 -0.1077
 4908SOL    HW126186   2.340   4.552   4.960 -2.1721 -0.8047  0.4698
 4908SOL    HW226187   2.311   4.466   5.072 -1.9240  2.3992 -0.5957
 4909SOL     OW26188   3.798   0.322  16.653  0.7484  0.0948 -0.1550
 4909SOL    HW126189   3.801   0.416  16.671  1.9829  0.5004 -2.5042
 4909SOL    HW226190   3.886   0.304  16.619  0.1853 -0.9896 -1.0468
 4910SOL     OW26191   4.090   2.306  15.233  0.0817  0.3206 -0.1090
 4910SOL    HW126192   4.007   2.286  15.190  0.3362 -0.6514 -0.1466
 4910SOL    HW226193   4.144   2.239  15.191  0.2016  0.2628  0.1412
 4911SOL     OW26194   0.594   1.487   2.589 -0.3635  0.0597 -0.7922
 4911SOL    HW126195   0.602   1.426   2.516  1.6280 -0.9354  0.2533
 4911SOL    HW226196   0.559   1.429   2.657 -2.1727  0.2560 -1.5625
 4912SOL     OW26197   1.235   3.038  15.239 -0.5705  0.2190  0.1447
 4912SOL    HW126198   1.270   3.054  15.326  1.0202 -0.2382 -0.4014
 4912SOL    HW226199   1.220   3.123  15.196  0.7122  0.0929 -0.5604
 4913SOL     OW26200   1.006   1.453   3.279 -0.7030 -0.4676  0.0754
 4913SOL    HW126201   0.969   1.426   3.364 -0.4198 -1.6483 -0.1764
 4913SOL    HW226202   0.986   1.376   3.225  1.0453 -2.3810  2.1650
 4914SOL     OW26203   2.000   0.716   8.819 -0.1044 -0.4241 -0.3259
 4914SOL    HW126204   1.919   0.764   8.836  1.3116  1.3578  1.3892
 4914SOL    HW226205   2.006   0.664   8.899 -0.3465  1.0014  0.6275
 4915SOL     OW26206   1.025   2.614   2.976 -0.0456 -0.1331  0.0378
 4915SOL    HW126207   0.973   2.655   3.045 -0.5211 -0.4171 -0.1453
 4915SOL    HW226208   0.970   2.622   2.898  1.5753  3.3407 -0.7186
 4916SOL     OW26209   2.379   2.671   8.907  0.4130 -0.1047  0.0129
 4916SOL    HW126210   2.405   2.602   8.845  0.1266 -0.0592 -0.1585
 4916SOL    HW226211   2.439   2.639   8.975  0.4410  0.0045  0.0386
 4917SOL     OW26212   2.647   1.223   3.159 -0.2943  0.1643 -0.3922
 4917SOL    HW126213   2.618   1.141   3.198 -1.5622  1.2281  0.8964
 4917SOL    HW226214   2.737   1.235   3.191  0.2582 -1.3814 -1.3485
 4918SOL     OW26215   2.979   0.836   5.524 -0.2455  0.0895 -0.2722
 4918SOL    HW126216   3.019   0.784   5.594 -0.3889  1.7779  1.0642
 4918SOL    HW226217   2.971   0.925   5.557 -1.1542 -0.3049  0.5589
 4919SOL     OW26218   4.693   2.348   0.435 -0.1152  0.2552 -0.5393
 4919SOL    HW126219   0.040   2.365   0.495  0.2857 -1.5243 -0.5194
 4919SOL    HW226220   4.693   2.439   0.406 -0.5364  0.6433  0.6800
 4920SOL     OW26221   0.301   3.631  16.529 -0.2368  0.4170 -0.3173
 4920SOL    HW126222   0.333   3.546  16.559  1.4583  0.7558 -1.1358
 4920SOL    HW226223   0.208   3.612  16.536 -0.1079 -0.3493 -0.6232
 4921SOL     OW26224   2.857   4.069   2.422 -0.4183  0.2356 -0.1924
 4921SOL    HW126225   2.916   4.126   2.471 -0.7679  0.9193 -0.5664
 4921SOL    HW226226   2.836   4.121   2.344  2.6080  1.8880  0.0827
 4922SOL     OW26227   1.878   0.687  10.403 -0.1416 -0.0066 -0.2385
 4922SOL    HW126228   1.886   0.730  10.489 -1.0473  1.4891 -0.8984
 4922SOL    HW226229   1.791   0.724  10.384  1.0786  2.5091 -0.9342
 4923SOL     OW26230   1.979   3.943  12.460  0.2608 -0.4028 -0.4515
 4923SOL    HW126231   2.043   3.926  12.391  0.8822  1.8300 -0.4350
 4923SOL    HW226232   1.998   3.866  12.512 -1.0170 -0.4905 -0.1104
 4924SOL     OW26233   3.451   1.971   3.762 -0.4080 -0.2576 -0.4804
 4924SOL    HW126234   3.383   1.965   3.694 -1.2530 -1.7307  0.4786
 4924SOL    HW226235   3.479   2.061   3.746 -0.3236  0.0210  1.2291
 4925SOL     OW26236   2.546   2.535   4.978  0.0672  0.3275 -0.6723
 4925SOL    HW126237   2.537   2.444   4.950  1.9326  0.4340 -1.5547
 4925SOL    HW226238   2.481   2.530   5.048  1.2064 -1.3252  0.2538
 4926SOL     OW26239   1.177   3.100   2.999 -0.1007  0.4410  0.2901
 4926SOL    HW126240   1.252   3.093   3.058  0.7542  2.4580 -0.5593
 4926SOL    HW226241   1.215   3.046   2.929 -0.7997  1.3997 -0.8396
 4927SOL     OW26242   1.727   0.124   8.584  0.0030  0.0723 -0.7957
 4927SOL    HW126243   1.815   0.092   8.600  0.1526  0.0879 -1.5910
 4927SOL    HW226244   1.735   0.219   8.590 -0.7823  0.0147  1.1931
 4928SOL     OW26245   3.233   1.801   4.515 -0.1380  0.0877 -0.1727
 4928SOL    HW126246   3.314   1.783   4.468 -0.0510  1.8321 -0.7057
 4928SOL    HW226247   3.193   1.867   4.459 -0.2911 -0.3880 -0.6161
 4929SOL     OW26248   0.597   1.239   3.806  0.8804 -0.1745 -0.1165
 4929SOL    HW126249   0.615   1.200   3.720 -3.2206 -2.7498  0.1816
 4929SOL    HW226250   0.685   1.276   3.814  0.6067 -0.1792  2.8726
 4930SOL     OW26251   3.000   1.974   3.673 -0.2819 -0.1119 -0.5112
 4930SOL    HW126252   2.957   2.035   3.613 -2.5137 -1.1990 -0.0159
 4930SOL    HW226253   3.080   1.960   3.621  0.4007 -2.0577  1.0718
 4931SOL     OW26254   0.191   3.204   0.107  0.1468 -0.2223 -0.1135
 4931SOL    HW126255   0.222   3.291   0.081 -2.1172  0.5513 -0.2078
 4931SOL    HW226256   0.184   3.160   0.023 -1.3455 -2.0414  0.9566
 4932SOL     OW26257   3.885   3.045   3.694 -0.2896  0.2435 -0.4343
 4932SOL    HW126258   3.889   2.994   3.613  0.9474 -1.3950  0.6591
 4932SOL    HW226259   3.880   3.132   3.654 -1.2941 -0.5150 -1.9509
 4933SOL     OW26260   2.697   1.277   7.629  0.4645 -0.1005 -0.1908
 4933SOL    HW126261   2.723   1.282   7.721 -1.1615 -2.2342  0.3947
 4933SOL    HW226262   2.616   1.225   7.631 -0.3607  1.2245  0.7396
 4934SOL     OW26263   0.151   3.719  10.251 -0.1963 -0.1400  0.3628
 4934SOL    HW126264   0.070   3.700  10.202  1.0540 -0.3947 -1.5949
 4934SOL    HW226265   0.200   3.637  10.250 -1.6226 -1.0052  1.8641
 4935SOL     OW26266   3.933   1.170   3.656 -0.2385 -0.0029 -0.0765
 4935SOL    HW126267   3.937   1.106   3.585 -0.8856  1.1425 -1.1620
 4935SOL    HW226268   3.963   1.246   3.605  1.7315 -0.8677 -0.2189
 4936SOL     OW26269   1.808   4.662  13.775  0.7938 -0.2991  0.3498
 4936SOL    HW126270   1.900   4.650  13.797  0.7862 -0.3719  0.3430
 4936SOL    HW226271   1.777   4.723  13.841 -1.4262 -1.8055  0.6821
 4937SOL     OW26272   4.262   1.594   8.135  0.1875  0.3320 -0.2600
 4937SOL    HW126273   4.351   1.604   8.104  0.3199 -0.9892 -0.2864
 4937SOL    HW226274   4.204   1.569   8.064 -1.1127  1.4861  0.3898
 4938SOL     OW26275   1.497   3.329   2.614  0.5000  0.0196 -0.3562
 4938SOL    HW126276   1.573   3.273   2.602 -0.3161 -1.1909  0.0913
 4938SOL    HW226277   1.440   3.260   2.648 -0.9346  1.5605  0.3856
 4939SOL     OW26278   1.061   1.171   5.028 -0.4157  0.1997  0.4467
 4939SOL    HW126279   1.000   1.120   5.082  1.7692 -0.9903  1.7846
 4939SOL    HW226280   1.070   1.254   5.076 -1.8196  0.1139  0.8521
 4940SOL     OW26281   1.684   4.300   3.247 -0.0222  0.3002  0.1985
 4940SOL    HW126282   1.675   4.243   3.170  1.7577  1.3898 -0.8356
 4940SOL    HW226283   1.594   4.333   3.251  0.2150  0.9847 -0.1483
 4941SOL     OW26284   1.992   4.455   4.890  0.0501 -0.3737  0.0562
 4941SOL    HW126285   1.962   4.525   4.948  1.2281 -1.6904  2.2195
 4941SOL    HW226286   2.052   4.407   4.946  1.2363  0.0766 -0.8209
 4942SOL     OW26287   1.826   1.597   5.692  0.2746  0.1373  0.4342
 4942SOL    HW126288   1.754   1.582   5.754 -0.7482 -0.1198 -0.8385
 4942SOL    HW226289   1.791   1.669   5.640 -0.1144 -0.3674  0.0121
 4943SOL     OW26290   4.279   0.961  10.687 -0.5742  0.1115  0.0667
 4943SOL    HW126291   4.306   0.998  10.771 -0.9026 -0.7676  0.5594
 4943SOL    HW226292   4.215   1.028  10.664 -0.2485  0.9554  1.6698
 4944SOL     OW26293   4.618   2.149  12.784 -0.4635  0.3363  0.5170
 4944SOL    HW126294   4.653   2.060  12.780 -0.6410  0.2165  1.6089
 4944SOL    HW226295   4.524   2.130  12.773  0.0605 -2.6762  1.1194
 4945SOL     OW26296   1.456   2.811  15.285  0.3246  0.6976  0.0329
 4945SOL    HW126297   1.487   2.901  15.270 -2.7666  0.7546 -6.0389
 4945SOL    HW226298   1.379   2.800  15.229  1.3023 -1.8416 -0.8064
 4946SOL     OW26299   1.608   3.411   8.151 -0.1249 -0.4151 -0.6667
 4946SOL    HW126300   1.659   3.447   8.224 -1.9158 -0.0163  0.4144
 4946SOL    HW226301   1.577   3.327   8.187 -3.1717  1.5684  1.3581
 4947SOL     OW26302   0.486   4.317   8.919 -0.3310  0.3965 -0.4827
 4947SOL    HW126303   0.475   4.322   9.014  0.3374 -1.4848 -0.3178
 4947SOL    HW226304   0.573   4.282   8.904 -0.0589 -0.1163  2.4879
 4948SOL     OW26305   1.080   0.396   7.843  0.3510 -0.3566  0.6940
 4948SOL    HW126306   1.158   0.431   7.886  0.0779 -0.3552  1.1982
 4948SOL    HW226307   1.025   0.396   7.921 -0.1589  2.0233  0.3378
 4949SOL     OW26308   0.738   1.530   7.062 -0.1400  0.9130  0.2017
 4949SOL    HW126309   0.689   1.475   7.001  2.6004  0.1222 -1.2980
 4949SOL    HW226310   0.667   1.522   7.125  0.6489  0.5823  1.0593
 4950SOL     OW26311   1.903   2.247   4.603  0.0909 -0.2572 -0.5370
 4950SOL    HW126312   1.865   2.241   4.691  1.2746 -0.3438 -0.0242
 4950SOL    HW226313   1.854   2.324   4.576  1.5832  0.1331 -2.1101
 4951SOL     OW26314   4.317   4.345   1.663 -0.3985  0.1923  0.3972
 4951SOL    HW126315   4.242   4.310   1.711  1.3028 -1.1294  2.1091
 4951SOL    HW226316   4.265   4.408   1.613  2.2281  2.2271  0.2063
 4952SOL     OW26317   3.357   4.641   5.582  0.3514  0.1921 -0.0799
 4952SOL    HW126318   3.292   4.606   5.521 -2.1244  1.1524  2.0214
 4952SOL    HW226319   3.299   4.692   5.638 -0.6554 -0.4299 -0.5670
 4953SOL     OW26320   2.715   0.550   1.861 -0.0529  0.3328  0.2377
 4953SOL    HW126321   2.752   0.604   1.931  2.4148  1.4773 -1.9622
 4953SOL    HW226322   2.627   0.528   1.891 -1.6086  3.9705 -1.7261
 4954SOL     OW26323   3.275   4.591   2.164  0.0406 -0.2064 -0.6289
 4954SOL    HW126324   3.299   4.625   2.250  0.1669  0.3164 -0.8771
 4954SOL    HW226325   3.342   4.631   2.109 -0.7657  0.3621 -1.2060
 4955SOL     OW26326   4.418   2.437   0.539  0.3209  0.0557 -0.7305
 4955SOL    HW126327   4.330   2.464   0.515  0.9401  2.3604 -0.4244
 4955SOL    HW226328   4.466   2.504   0.490 -2.0305  2.1725 -0.1460
 4956SOL     OW26329   2.146   0.117   6.680 -0.4676  0.0320  0.2183
 4956SOL    HW126330   2.241   0.108   6.692 -0.7132  0.4681  2.4387
 4956SOL    HW226331   2.148   0.208   6.650  0.4841 -0.1500 -0.2862
 4957SOL     OW26332   1.207   3.493   0.942  0.5471 -0.4599 -0.1706
 4957SOL    HW126333   1.233   3.582   0.967 -0.7277 -0.7165  2.0167
 4957SOL    HW226334   1.274   3.472   0.876  0.1290  1.1667 -1.1194
 4958SOL     OW26335   1.833   2.688   8.789  0.1525 -0.2077 -0.2619
 4958SOL    HW126336   1.835   2.666   8.882  1.2371  0.7563 -0.0600
 4958SOL    HW226337   1.888   2.629   8.738 -0.5702 -1.7522  0.7343
 4959SOL     OW26338   4.496   3.744   8.754  0.3466 -0.2325 -0.0567
 4959SOL    HW126339   4.519   3.771   8.665 -0.0885 -1.5625 -0.5665
 4959SOL    HW226340   4.586   3.757   8.784  0.3723  1.2435 -0.7610
 4960SOL     OW26341   0.269   2.976   3.110  0.0699  0.3564 -0.0497
 4960SOL    HW126342   0.183   3.013   3.130  0.3874  1.1452 -0.1316
 4960SOL    HW226343   0.319   3.004   3.187  0.1608 -2.1570  0.8060
 4961SOL     OW26344   4.157   3.236   2.353  0.3175  0.2221  0.2707
 4961SOL    HW126345   4.106   3.316   2.346  0.7788  0.5590  0.7443
 4961SOL    HW226346   4.094   3.195   2.411 -0.9529 -0.6513 -1.7261
 4962SOL     OW26347   4.211   3.737  10.448  0.5847 -0.3013  0.0905
 4962SOL    HW126348   4.231   3.676  10.519  0.9700 -0.9274 -0.5548
 4962SOL    HW226349   4.298   3.777  10.439  1.5795 -1.9779  2.0786
 4963SOL     OW26350   2.469   3.311  11.090 -0.7411  0.4447  0.0741
 4963SOL    HW126351   2.390   3.290  11.040  0.3974 -1.9494 -0.7026
 4963SOL    HW226352   2.521   3.359  11.026  0.3896 -2.8567 -1.4602
 4964SOL     OW26353   1.500   0.137  15.757 -0.1569 -0.1741 -0.1210
 4964SOL    HW126354   1.562   0.115  15.687  1.0967  0.0407  0.9341
 4964SOL    HW226355   1.428   0.078  15.732  0.7872 -0.9211 -1.1125
 4965SOL     OW26356   0.931   3.466   2.331 -0.0438 -0.2432 -0.8090
 4965SOL    HW126357   0.858   3.418   2.292 -0.4805 -0.6937  0.5645
 4965SOL    HW226358   0.960   3.413   2.405 -0.4439  1.4410  0.5558
 4966SOL     OW26359   3.546   3.432  11.717  0.2662 -0.3498 -0.3111
 4966SOL    HW126360   3.499   3.350  11.732  2.1579 -0.9782  2.0938
 4966SOL    HW226361   3.476   3.486  11.679  1.4221  1.7109  0.4891
 4967SOL     OW26362   0.761   4.626   1.678 -0.0967  0.2760 -0.0226
 4967SOL    HW126363   0.775   4.566   1.604  0.2569  1.1754 -0.6783
 4967SOL    HW226364   0.670   4.597   1.683 -0.0444 -0.3226 -2.2557
 4968SOL     OW26365   0.458   0.861  11.483 -0.2953 -0.1545 -0.2186
 4968SOL    HW126366   0.428   0.828  11.568  0.8216  1.1521  0.6873
 4968SOL    HW226367   0.378   0.873  11.432 -0.4467 -0.0313  0.0479
 4969SOL     OW26368   2.497   2.710   2.397  0.9624  0.6308 -0.2535
 4969SOL    HW126369   2.559   2.645   2.364  2.1670  1.9726 -0.5709
 4969SOL    HW226370   2.531   2.794   2.367  0.2406  0.7176 -0.8305
 4970SOL     OW26371   0.778   3.724   7.258  0.5570  0.3694  0.2983
 4970SOL    HW126372   0.807   3.632   7.260  0.7738  0.5172  2.9354
 4970SOL    HW226373   0.858   3.775   7.271 -0.5779  1.9429  1.0106
 4971SOL     OW26374   2.095   4.586   5.898 -0.9146 -0.0822  0.8862
 4971SOL    HW126375   2.119   4.538   5.819 -1.1623  0.5098  0.4542
 4971SOL    HW226376   2.114   4.538   5.979 -0.8422  0.7213  1.3499
 4972SOL     OW26377   1.938   1.256  11.001 -0.3201 -0.1857 -0.6872
 4972SOL    HW126378   2.021   1.285  11.039 -1.2251 -1.3965  2.2593
 4972SOL    HW226379   1.929   1.309  10.922  0.1669 -0.7607 -1.1311
 4973SOL     OW26380   1.502   3.402   9.966 -0.6653 -0.3118 -0.0472
 4973SOL    HW126381   1.554   3.411  10.045 -0.9012 -0.0650  0.0809
 4973SOL    HW226382   1.481   3.309   9.964  0.0306 -0.4047 -3.0752
 4974SOL     OW26383   3.030   2.603   5.495 -0.2719  0.3319 -0.2626
 4974SOL    HW126384   2.965   2.559   5.550  0.1000 -0.7265 -0.6628
 4974SOL    HW226385   3.049   2.532   5.434  0.7415  0.3129  0.0704
 4975SOL     OW26386   1.957   1.553   4.120 -0.2308  0.1788  1.5251
 4975SOL    HW126387   1.942   1.600   4.203 -1.9368  2.3694 -0.0165
 4975SOL    HW226388   1.889   1.486   4.111  1.3684 -1.1500 -0.5674
 4976SOL     OW26389   1.030   0.829   9.490 -0.2935 -0.0630  0.3013
 4976SOL    HW126390   1.081   0.904   9.521  0.7673 -0.4349 -0.5610
 4976SOL    HW226391   1.094   0.799   9.426 -1.8153  1.7517 -2.0603
 4977SOL     OW26392   0.663   2.281   3.208  0.5499  0.4439 -0.1028
 4977SOL    HW126393   0.719   2.320   3.141 -1.3174 -0.2647 -2.0881
 4977SOL    HW226394   0.630   2.211   3.151 -0.4820 -1.3716  2.7055
 4978SOL     OW26395   2.598   0.646   7.383  0.2140 -0.4082 -0.5127
 4978SOL    HW126396   2.528   0.608   7.330  0.5122  0.2222 -1.3517
 4978SOL    HW226397   2.547   0.672   7.460 -0.7249  0.4040 -1.4170
 4979SOL     OW26398   0.936   3.470   9.567 -0.0504 -1.0476  0.2978
 4979SOL    HW126399   0.904   3.416   9.639 -1.9751  1.5417  1.4176
 4979SOL    HW226400   0.940   3.561   9.599 -2.7361 -0.4371 -1.0319
 4980SOL     OW26401   4.413   3.631   5.578  0.1205 -0.3129 -0.1008
 4980SOL    HW126402   4.395   3.627   5.672 -0.3768  1.5507 -0.1131
 4980SOL    HW226403   4.440   3.723   5.570 -1.0668  0.1960  1.7620
 4981SOL     OW26404   3.372   0.669  12.817 -0.1827 -0.0098  0.2269
 4981SOL    HW126405   3.357   0.753  12.774  1.9072  0.0082 -0.4755
 4981SOL    HW226406   3.378   0.688  12.910  0.1172 -0.2884  0.2658
 4982SOL     OW26407   1.164   2.058   7.916  0.0353 -0.1239 -0.1485
 4982SOL    HW126408   1.107   2.132   7.938 -1.7180 -0.4293 -3.6066
 4982SOL    HW226409   1.172   2.009   7.998  1.8425 -1.5015 -1.1619
 4983SOL     OW26410   2.420   4.266   7.285 -0.5193  0.2624 -0.4749
 4983SOL    HW126411   2.383   4.281   7.372  0.6750 -0.1777  0.1107
 4983SOL    HW226412   2.455   4.177   7.283 -1.6306 -0.2257  1.7398
 4984SOL     OW26413   1.430   3.701   7.598  0.1143 -0.4884  0.2765
 4984SOL    HW126414   1.513   3.706   7.552  0.7640  2.3955  1.7106
 4984SOL    HW226415   1.372   3.656   7.537 -0.7400 -0.1107  0.7976
 4985SOL     OW26416   3.522   3.213   8.504  0.8192 -0.0517  0.5231
 4985SOL    HW126417   3.506   3.288   8.562 -1.0551 -0.2452  0.2649
 4985SOL    HW226418   3.433   3.190   8.478  0.5082  2.2639 -0.4376
 4986SOL     OW26419   0.540   4.660   3.585  0.3780  0.6768 -0.2480
 4986SOL    HW126420   0.604   4.650   3.514 -0.6183  0.1355 -1.0533
 4986SOL    HW226421   0.555   0.028   3.602  1.2579  0.6227 -0.7217
 4987SOL     OW26422   2.671   0.193   8.450  0.3165  0.7575 -0.2497
 4987SOL    HW126423   2.709   0.105   8.452 -0.3032  0.5074  0.4643
 4987SOL    HW226424   2.658   0.220   8.540 -2.2085 -2.6839  0.4431
 4988SOL     OW26425   0.879   2.847  14.706 -0.5417 -0.0228 -0.3528
 4988SOL    HW126426   0.829   2.891  14.775  1.5267  1.2521  0.3321
 4988SOL    HW226427   0.851   2.756  14.721 -0.8845  0.5204  2.3987
 4989SOL     OW26428   2.147   4.696   7.576  0.6547  0.4532 -0.1706
 4989SOL    HW126429   2.162   4.712   7.483 -0.5943  1.1230 -0.2472
 4989SOL    HW226430   2.064   0.016   7.589 -0.4927 -1.0411 -2.4344
 4990SOL     OW26431   2.211   2.088   8.121  1.0212 -0.4154 -0.1007
 4990SOL    HW126432   2.128   2.104   8.075  1.4352  0.9214 -0.4054
 4990SOL    HW226433   2.269   2.092   8.046  0.7627  0.0755 -0.2811
 4991SOL     OW26434   3.415   3.390  10.519 -0.4766 -0.0636  0.3103
 4991SOL    HW126435   3.391   3.407  10.610 -1.2943 -0.9839  0.2657
 4991SOL    HW226436   3.330   3.355  10.491 -0.1667 -2.2053  1.9973
 4992SOL     OW26437   1.557   3.910   8.582  0.1064  0.5146  0.0577
 4992SOL    HW126438   1.581   3.820   8.558 -1.4735  0.6433 -1.9051
 4992SOL    HW226439   1.482   3.888   8.637  0.9019 -2.0464  0.1574
 4993SOL     OW26440   4.151   4.119   8.126 -0.1644  0.2369 -0.4319
 4993SOL    HW126441   4.173   4.170   8.204 -0.4715 -0.0398 -0.1594
 4993SOL    HW226442   4.237   4.086   8.099 -0.6999  0.4878 -2.4376
 4994SOL     OW26443   2.447   4.494  12.135  0.7607 -0.4919  0.2982
 4994SOL    HW126444   2.488   4.571  12.173 -0.3158  0.6507 -0.8494
 4994SOL    HW226445   2.517   4.429  12.126 -0.2244 -1.5771  0.5204
 4995SOL     OW26446   1.279   1.120  12.020 -0.0417  0.1706  0.0504
 4995SOL    HW126447   1.308   1.122  11.928  1.5496  1.1086  0.5769
 4995SOL    HW226448   1.186   1.099  12.006 -0.2958  1.1745  0.2316
 4996SOL     OW26449   4.504   0.142  10.835  1.0129 -0.1248 -0.1320
 4996SOL    HW126450   4.580   0.196  10.812  0.2671  0.4306 -1.2496
 4996SOL    HW226451   4.474   0.121  10.747 -3.3623  1.2353  1.0424
 4997SOL     OW26452   2.290   2.404   2.572  0.1538 -0.5717 -0.1131
 4997SOL    HW126453   2.259   2.375   2.657 -0.3680 -0.0301 -0.1191
 4997SOL    HW226454   2.384   2.400   2.590  0.3379 -0.8609 -1.1554
 4998SOL     OW26455   3.663   3.511  16.831 -0.6141 -0.3043 -0.4818
 4998SOL    HW126456   3.603   3.583  16.849  0.4069 -0.1939  2.5291
 4998SOL    HW226457   3.645   3.498  16.738  1.2139  0.8375 -1.0091
 4999SOL     OW26458   4.034   1.750   0.687  0.6515  0.2655  0.3397
 4999SOL    HW126459   4.069   1.810   0.753  0.6028  0.8699 -0.1778
 4999SOL    HW226460   3.951   1.730   0.730  0.3839  2.1733  0.7152
 5000SOL     OW26461   2.587   1.929   2.857  0.0286  0.4170 -0.0075
 5000SOL    HW126462   2.556   1.981   2.783  1.2468  1.0228 -0.0962
 5000SOL    HW226463   2.608   1.846   2.814 -2.5684 -0.4322  0.3707
 5001SOL     OW26464   0.162   2.413   0.597 -0.4160  0.5947  0.3569
 5001SOL    HW126465   0.158   2.377   0.686  0.2706 -0.0653  0.1190
 5001SOL    HW226466   0.220   2.489   0.604  0.3058  0.1184 -0.4552
 5002SOL     OW26467   3.131   3.261   9.330 -0.0222  0.2250 -0.4138
 5002SOL    HW126468   3.077   3.321   9.382  0.8708 -0.8183  1.7404
 5002SOL    HW226469   3.114   3.184   9.385  1.8898 -0.7111 -1.1408
 5003SOL     OW26470   2.476   4.084   4.139  0.5075 -0.6623  0.9525
 5003SOL    HW126471   2.484   4.081   4.234 -1.0271 -1.6967  1.0565
 5003SOL    HW226472   2.398   4.140   4.147  0.5872  0.0648 -3.2372
 5004SOL     OW26473   3.849   1.729  13.002 -0.4322 -0.5722 -0.2303
 5004SOL    HW126474   3.778   1.688  12.952 -0.5482 -0.0458 -0.4986
 5004SOL    HW226475   3.809   1.761  13.082 -2.2244  1.5177 -1.9613
 5005SOL     OW26476   2.886   2.566   6.419  0.2657 -0.8370  0.1536
 5005SOL    HW126477   2.868   2.643   6.473 -0.5829 -0.5626 -0.5174
 5005SOL    HW226478   2.980   2.550   6.428  0.1392 -1.7297 -0.0791
 5006SOL     OW26479   2.711   2.609  14.545 -0.0042 -0.6365  0.3280
 5006SOL    HW126480   2.767   2.590  14.470 -1.9832  0.2452 -1.3556
 5006SOL    HW226481   2.666   2.681  14.502  2.4742  0.3787 -0.6007
 5007SOL     OW26482   4.250   4.114   8.859 -0.7839  0.6937 -0.2948
 5007SOL    HW126483   4.278   4.117   8.950  2.6995  0.7178 -1.3713
 5007SOL    HW226484   4.312   4.178   8.823  0.1545 -1.4437 -2.4923
 5008SOL     OW26485   1.490   0.955   8.730 -0.0105  0.2279 -0.4559
 5008SOL    HW126486   1.495   0.980   8.822  0.8722 -1.2008 -0.1342
 5008SOL    HW226487   1.565   1.003   8.694  2.5079 -0.5136  3.8038
 5009SOL     OW26488   1.234   3.834   8.676  0.0468  0.0288  0.1323
 5009SOL    HW126489   1.196   3.916   8.645  0.6741  1.0712  2.1207
 5009SOL    HW226490   1.187   3.829   8.760 -0.3333  2.3565  0.0582
 5010SOL     OW26491   2.233   0.643   6.719 -0.3163 -0.1947  0.7101
 5010SOL    HW126492   2.264   0.705   6.652 -2.0089  2.6294  2.5203
 5010SOL    HW226493   2.305   0.648   6.782  2.6291 -1.5783 -2.5152
 5011SOL     OW26494   2.288   1.967  12.943  0.3401  0.5153  0.7022
 5011SOL    HW126495   2.215   1.959  12.881  1.1114 -0.6637 -0.0656
 5011SOL    HW226496   2.243   1.966  13.027  3.8742 -3.0062  2.5071
 5012SOL     OW26497   1.018   3.238   6.025  0.4715  0.6270 -0.1124
 5012SOL    HW126498   1.107   3.224   6.058 -0.2396 -2.6374  0.4403
 5012SOL    HW226499   0.997   3.164   5.970  0.0752  0.4730  0.2440
 5013SOL     OW26500   3.792   4.605   6.680 -0.8156  0.2543 -0.6920
 5013SOL    HW126501   3.783   4.514   6.709 -1.6421  0.2973 -0.8146
 5013SOL    HW226502   3.704   4.611   6.643 -1.5495 -2.4829  0.5736
 5014SOL     OW26503   1.941   3.090  13.406  0.3083 -0.3920 -0.3851
 5014SOL    HW126504   1.974   3.156  13.345 -0.5611  0.7319  0.3893
 5014SOL    HW226505   1.852   3.122  13.416  0.5261 -0.3943  1.5158
 5015SOL     OW26506   2.681   1.960   2.279 -0.0151  0.3056 -0.0654
 5015SOL    HW126507   2.709   2.052   2.279  0.3237  0.2046 -0.3662
 5015SOL    HW226508   2.753   1.915   2.234 -0.7469 -0.6027 -0.3280
 5016SOL     OW26509   1.525   4.162   3.602  0.2799 -0.0049  0.3159
 5016SOL    HW126510   1.492   4.188   3.688 -0.1799  0.6506 -0.0619
 5016SOL    HW226511   1.566   4.242   3.568 -0.5784  0.7042  0.9413
 5017SOL     OW26512   0.851   2.446   6.316  0.1701 -0.0576 -0.6613
 5017SOL    HW126513   0.924   2.490   6.360  0.2592 -0.7756 -0.0903
 5017SOL    HW226514   0.876   2.360   6.348 -0.0649  0.0968 -0.0622
 5018SOL     OW26515   1.686   0.189   0.992  0.1087 -0.8957  0.3508
 5018SOL    HW126516   1.667   0.273   1.034  0.1206 -0.8592  0.2815
 5018SOL    HW226517   1.623   0.193   0.920 -1.1159 -0.3493  1.4369
 5019SOL     OW26518   1.703   4.173   7.761 -1.0115 -0.0925  0.3065
 5019SOL    HW126519   1.665   4.115   7.696  1.7023  0.3166 -1.6323
 5019SOL    HW226520   1.640   4.244   7.775 -0.8778  0.0885 -0.0120
 5020SOL     OW26521   0.516   3.116   4.605 -0.0074  0.1716  0.2820
 5020SOL    HW126522   0.447   3.070   4.654 -1.0131  0.6703 -0.6806
 5020SOL    HW226523   0.593   3.067   4.633  0.0410 -0.4398 -0.9092
 5021SOL     OW26524   1.434   0.491   8.442  0.1869  0.4706 -0.9105
 5021SOL    HW126525   1.489   0.566   8.468  0.4372 -0.0776  0.1227
 5021SOL    HW226526   1.464   0.424   8.503  1.4569  0.2268 -1.8073
 5022SOL     OW26527   4.342   2.001   1.454 -0.3711  0.7731 -0.1452
 5022SOL    HW126528   4.304   1.995   1.542  0.6823 -0.2769  0.2479
 5022SOL    HW226529   4.346   1.907   1.440 -1.1822  0.9664 -1.6524
 5023SOL     OW26530   3.105   3.999  12.412 -0.1500  0.5408  0.3500
 5023SOL    HW126531   3.009   3.995  12.407 -0.1804  1.0695  0.4165
 5023SOL    HW226532   3.123   3.906  12.400  1.8393  1.1824 -1.6628
 5024SOL     OW26533   0.399   3.625   1.519 -0.5231 -0.0146 -0.8772
 5024SOL    HW126534   0.323   3.620   1.460  0.1513  0.3377 -1.7843
 5024SOL    HW226535   0.352   3.596   1.597  2.8112  1.6368  1.7044
 5025SOL     OW26536   2.033   1.403  10.768  0.2833 -0.3662  0.1840
 5025SOL    HW126537   2.096   1.475  10.766 -0.3964  0.2438  0.7720
 5025SOL    HW226538   1.972   1.424  10.697 -1.9796 -1.2104  1.8839
 5026SOL     OW26539   2.368   0.004   5.605 -0.1248 -0.0819 -0.1961
 5026SOL    HW126540   2.396   0.032   5.692  0.8228 -0.9394 -0.2248
 5026SOL    HW226541   2.335   0.090   5.581 -0.9724  0.1408  1.7436
 5027SOL     OW26542   3.151   0.701   6.298 -0.3436  0.0474  0.0669
 5027SOL    HW126543   3.066   0.725   6.335  0.2492  0.5933  1.0901
 5027SOL    HW226544   3.139   0.606   6.289  0.3852 -0.1439  1.0691
 5028SOL     OW26545   2.263   0.057  12.989  0.1437 -0.0621  0.3016
 5028SOL    HW126546   2.284   4.697  13.026  2.4123  0.2212 -0.2997
 5028SOL    HW226547   2.241   0.024  12.902  1.4775 -2.6230  0.9562
 5029SOL     OW26548   0.097   1.718   2.958 -0.5912  0.4280  0.3080
 5029SOL    HW126549   0.085   1.745   2.867  0.5712  0.2774  0.1181
 5029SOL    HW226550   0.048   1.636   2.944  1.6195 -1.2494  2.4952
 5030SOL     OW26551   0.271   0.575   5.096 -0.7803 -0.4651 -0.5430
 5030SOL    HW126552   0.187   0.617   5.114  0.2226  1.5346 -0.6129
 5030SOL    HW226553   0.252   0.488   5.133 -0.9868 -0.4267 -0.5573
 5031SOL     OW26554   3.464   2.913   0.114 -1.0531  0.5544  0.2495
 5031SOL    HW126555   3.495   2.871   0.194  2.4365  1.2512 -0.7309
 5031SOL    HW226556   3.447   2.999   0.152 -0.0569  0.2225  1.4376
 5032SOL     OW26557   3.516   4.086  13.289 -0.3225  0.5434  0.2104
 5032SOL    HW126558   3.584   4.085  13.357  1.8084  0.8035 -1.9420
 5032SOL    HW226559   3.568   4.053  13.216 -0.7377 -0.6857  0.4690
 5033SOL     OW26560   2.148   1.141  10.663  0.6053  0.3086 -0.6336
 5033SOL    HW126561   2.128   1.212  10.724  1.6413 -0.1879  0.2970
 5033SOL    HW226562   2.225   1.169  10.612 -0.1273  0.2935 -1.7387
 5034SOL     OW26563   3.205   1.314  14.875  0.5723  0.1813 -0.1204
 5034SOL    HW126564   3.296   1.287  14.882  0.2672 -0.6485  0.8443
 5034SOL    HW226565   3.212   1.392  14.821  3.7117 -0.7989 -1.0762
 5035SOL     OW26566   3.631   4.200   6.030  0.0149  0.1566 -0.3744
 5035SOL    HW126567   3.571   4.234   6.096 -2.1323 -2.6268 -0.9081
 5035SOL    HW226568   3.602   4.109   6.027 -4.8629  1.7178  0.1886
 5036SOL     OW26569   1.858   1.743   6.932  0.2327  0.6544  0.1605
 5036SOL    HW126570   1.834   1.651   6.947  1.5248  0.4418  0.9204
 5036SOL    HW226571   1.910   1.761   7.010  0.9094 -1.2462  0.1515
 5037SOL     OW26572   1.917   4.461   8.980 -0.2466 -0.1140  0.2775
 5037SOL    HW126573   1.953   4.458   9.069 -2.0436  0.8775  1.0463
 5037SOL    HW226574   1.822   4.457   8.995  0.1468 -3.2607  1.9926
 5038SOL     OW26575   4.215   1.816  17.663 -0.1253  0.4769  0.0040
 5038SOL    HW126576   4.279   1.753  17.698 -1.4638 -0.0415  1.5143
 5038SOL    HW226577   4.211   1.772  17.578 -1.2830  0.5487  0.0254
 5039SOL     OW26578   3.582   1.800   2.142 -0.5287  0.2246  0.5687
 5039SOL    HW126579   3.581   1.790   2.047  0.6814 -0.8144  0.6646
 5039SOL    HW226580   3.668   1.831   2.170 -0.4865  0.9539 -0.3666
 5040SOL     OW26581   0.709   0.239   9.012  0.0312  0.2956  0.2260
 5040SOL    HW126582   0.796   0.252   8.973 -0.2893 -1.3540 -1.0785
 5040SOL    HW226583   0.687   0.328   9.039 -1.0935  0.3375 -0.8354
 5041SOL     OW26584   2.756   3.448  14.666  0.0312 -0.4729 -1.2549
 5041SOL    HW126585   2.803   3.468  14.585  0.6902  0.2301 -0.6948
 5041SOL    HW226586   2.809   3.493  14.731 -2.5252 -0.1307  0.5688
 5042SOL     OW26587   0.779   3.831  10.228  0.4922 -0.1436 -0.0512
 5042SOL    HW126588   0.758   3.738  10.239  1.7384 -0.6990 -2.3180
 5042SOL    HW226589   0.864   3.823  10.184 -0.1562  1.7890 -1.7083
 5043SOL     OW26590   2.391   2.441   0.833  1.1612 -0.7643  0.5590
 5043SOL    HW126591   2.460   2.497   0.799  1.3653 -0.3039  1.7423
 5043SOL    HW226592   2.424   2.444   0.923 -0.8109  0.3465  1.2380
 5044SOL     OW26593   2.557   3.068   3.006  0.1805  0.5633 -0.1870
 5044SOL    HW126594   2.595   3.042   3.090 -0.6167  1.6078  0.5014
 5044SOL    HW226595   2.608   3.009   2.951  2.5549  0.1327  2.4882
 5045SOL     OW26596   3.851   3.615   4.264 -0.1870  0.6109 -0.0409
 5045SOL    HW126597   3.899   3.532   4.274 -0.4729  0.8657  3.2528
 5045SOL    HW226598   3.818   3.628   4.353  0.2600  0.5175  0.1400
 5046SOL     OW26599   0.279   0.837   8.037 -0.7509 -0.3021 -0.1508
 5046SOL    HW126600   0.289   0.921   8.082  3.3870 -0.5923 -0.5861
 5046SOL    HW226601   0.184   0.822   8.037 -0.8014  0.0925  1.9847
 5047SOL     OW26602   3.130   0.919   2.586 -0.1045  0.1557 -0.2552
 5047SOL    HW126603   3.098   0.886   2.670 -0.8524 -0.0092 -0.6066
 5047SOL    HW226604   3.214   0.955   2.615 -0.6411  1.0695  0.1503
 5048SOL     OW26605   3.189   2.215   1.519  0.5781 -0.3989 -0.0967
 5048SOL    HW126606   3.226   2.149   1.578  0.9019 -0.2902 -0.1772
 5048SOL    HW226607   3.134   2.161   1.463  0.2727 -1.4732  1.2377
 5049SOL     OW26608   3.297   3.180   5.794  0.4459  0.2028 -0.0407
 5049SOL    HW126609   3.268   3.128   5.869 -1.0777  2.3437  0.8511
 5049SOL    HW226610   3.340   3.113   5.740 -1.0857 -0.5344 -0.3669
 5050SOL     OW26611   2.449   0.085   4.961  0.1506  0.5698  0.7198
 5050SOL    HW126612   2.487   0.050   5.041  0.6682 -1.6326 -0.4720
 5050SOL    HW226613   2.381   0.021   4.941  1.0279  0.7174 -2.7523
 5051SOL     OW26614   3.527   2.027   2.928  0.1019  0.3277 -0.3323
 5051SOL    HW126615   3.480   2.086   2.869  2.0004  2.1646 -0.0078
 5051SOL    HW226616   3.606   2.005   2.879 -0.4994  0.5099 -1.3806
 5052SOL     OW26617   3.531   3.760   8.765  0.0393 -0.4558  0.4634
 5052SOL    HW126618   3.486   3.787   8.845  1.3610  0.9474  0.7323
 5052SOL    HW226619   3.621   3.742   8.794 -0.1024  0.8709  1.7495
 5053SOL     OW26620   3.703   3.013   6.035  0.1840  0.1399  0.5390
 5053SOL    HW126621   3.672   3.016   6.126 -2.8071 -3.1317 -0.3483
 5053SOL    HW226622   3.781   3.068   6.033  1.5642 -1.7618  1.3946
 5054SOL     OW26623   2.309   3.908  13.872  0.0307  0.5119 -0.2813
 5054SOL    HW126624   2.402   3.891  13.859 -0.4078 -1.3986 -0.9676
 5054SOL    HW226625   2.316   3.922  13.966  3.2968 -0.6671 -0.3607
 5055SOL     OW26626   3.854   4.229   7.006  0.2662  0.1952  0.3492
 5055SOL    HW126627   3.938   4.188   6.986  0.2896 -0.4726  1.8659
 5055SOL    HW226628   3.870   4.323   7.013  0.5100 -0.0149  2.5222
 5056SOL     OW26629   3.712   1.121   3.794  0.7202 -0.0846 -0.0282
 5056SOL    HW126630   3.804   1.119   3.766  0.4960 -0.9940 -0.7050
 5056SOL    HW226631   3.682   1.031   3.780  1.1474 -0.4902  1.5906
 5057SOL     OW26632   3.999   1.735   6.437 -0.0292 -0.3006 -0.3291
 5057SOL    HW126633   3.916   1.701   6.405 -0.5430 -0.1125  0.8163
 5057SOL    HW226634   4.031   1.790   6.365 -0.5739 -1.1028 -1.1944
 5058SOL     OW26635   3.175   2.321   2.892 -0.3229  0.1167  0.2034
 5058SOL    HW126636   3.099   2.266   2.872 -1.6460  1.1187  2.4060
 5058SOL    HW226637   3.236   2.292   2.825 -1.8498 -0.7584 -0.8179
 5059SOL     OW26638   4.070   3.608   7.886 -0.2491 -0.4678  0.1572
 5059SOL    HW126639   4.080   3.655   7.804 -1.9122 -2.1431 -1.0094
 5059SOL    HW226640   4.163   3.588   7.900 -0.2473 -2.2157 -2.4412
 5060SOL     OW26641   4.068   2.102  12.896 -0.2403 -0.2999  0.5556
 5060SOL    HW126642   4.083   2.104  12.991  0.2234 -4.2835  0.5659
 5060SOL    HW226643   3.975   2.121  12.886  0.7523  2.8436 -2.7475
 5061SOL     OW26644   0.150   3.183   4.786 -0.8636  0.0270  0.0818
 5061SOL    HW126645   0.187   3.103   4.748 -0.8034  0.7342 -1.3338
 5061SOL    HW226646   0.188   3.177   4.874 -0.9962 -1.3740  0.0557
 5062SOL     OW26647   4.521   2.392   4.534 -0.2039 -0.1237  0.4884
 5062SOL    HW126648   4.511   2.421   4.443  0.3430 -2.1750 -0.2253
 5062SOL    HW226649   4.498   2.299   4.525  1.1623 -0.3350 -0.7737
 5063SOL     OW26650   0.663   3.545  16.150 -0.2473 -0.1480  1.0506
 5063SOL    HW126651   0.740   3.595  16.178 -0.7092  0.9445  0.3765
 5063SOL    HW226652   0.682   3.469  16.206 -1.1200 -1.2750 -0.1818
 5064SOL     OW26653   3.658   4.304   6.411  0.5254  0.1767  0.3146
 5064SOL    HW126654   3.670   4.394   6.382 -2.1615  0.0070 -1.2976
 5064SOL    HW226655   3.587   4.279   6.352 -0.6134 -0.5613  1.9760
 5065SOL     OW26656   1.836   1.631  10.930 -0.6172 -0.2297  0.2194
 5065SOL    HW126657   1.857   1.589  11.014  1.2942  1.3420  0.5079
 5065SOL    HW226658   1.906   1.695  10.926 -0.5367 -0.3831 -0.7316
 5066SOL     OW26659   3.344   3.686   5.594 -0.3574  0.1067 -0.0410
 5066SOL    HW126660   3.434   3.658   5.575 -0.7955 -1.0960 -0.2913
 5066SOL    HW226661   3.305   3.606   5.629 -1.1214 -0.7953 -2.9520
 5067SOL     OW26662   1.279   0.192   8.011  0.0112 -0.0949 -0.2603
 5067SOL    HW126663   1.316   0.280   7.998  0.2321  0.1008  1.7626
 5067SOL    HW226664   1.195   0.187   7.964 -0.9453 -0.4152  1.4956
 5068SOL     OW26665   1.196   3.425   7.177 -0.3217 -0.3221  0.5406
 5068SOL    HW126666   1.218   3.363   7.108 -1.8588 -1.3492  0.9582
 5068SOL    HW226667   1.177   3.503   7.125 -1.1254  0.0732  1.4237
 5069SOL     OW26668   1.062   1.274   6.910 -0.7738  0.1094  0.7362
 5069SOL    HW126669   1.121   1.333   6.863 -2.3709 -0.3168 -1.7503
 5069SOL    HW226670   1.128   1.214   6.945 -0.1792  0.6155  0.4822
 5070SOL     OW26671   3.615   3.942   0.345  0.2561  0.5540 -0.3223
 5070SOL    HW126672   3.605   3.847   0.347 -4.1451  0.9753 -1.7467
 5070SOL    HW226673   3.705   3.950   0.378 -1.0019  2.5603  2.6331
 5071SOL     OW26674   1.783   2.890   4.110  0.1894 -0.0092  0.5157
 5071SOL    HW126675   1.876   2.908   4.096 -0.2762  1.7852 -0.1537
 5071SOL    HW226676   1.750   2.977   4.130  2.7029  0.9789  0.3312
 5072SOL     OW26677   3.072   2.863   5.628 -0.0239  0.2923 -0.0652
 5072SOL    HW126678   3.030   2.818   5.701  0.5512 -0.4844 -0.2117
 5072SOL    HW226679   3.090   2.791   5.567 -1.7393  0.7470 -1.1115
 5073SOL     OW26680   0.768   2.341   9.222 -0.3432  0.0425 -0.3773
 5073SOL    HW126681   0.857   2.374   9.217 -0.3150  0.0099 -0.1160
 5073SOL    HW226682   0.715   2.421   9.228  1.1131  0.8196  1.9267
 5074SOL     OW26683   1.498   1.790   6.858  1.0603 -0.0837  0.6444
 5074SOL    HW126684   1.525   1.728   6.790 -0.3734 -0.6595  0.6011
 5074SOL    HW226685   1.529   1.870   6.815  0.3377  0.2544  0.7551
 5075SOL     OW26686   2.099   0.308  15.989  0.3839  0.4567  0.2449
 5075SOL    HW126687   2.088   0.215  15.969  1.3762  0.3977 -0.0221
 5075SOL    HW226688   2.009   0.339  15.991  0.0280 -0.5843  0.7414
 5076SOL     OW26689   1.184   0.787   3.441  0.0258 -0.2608  0.3187
 5076SOL    HW126690   1.122   0.859   3.428  3.1881  2.1097 -1.6340
 5076SOL    HW226691   1.238   0.811   3.365 -0.5989 -0.6614 -0.2467
 5077SOL     OW26692   3.602   2.588   5.329  0.2399 -0.6107 -0.0382
 5077SOL    HW126693   3.575   2.655   5.392  1.6497  0.5983 -0.7036
 5077SOL    HW226694   3.527   2.576   5.271 -0.0286  2.0049 -0.2302
 5078SOL     OW26695   0.288   2.481   9.675 -0.0281 -0.4093  0.1800
 5078SOL    HW126696   0.278   2.456   9.767  0.1039 -2.5035 -0.3765
 5078SOL    HW226697   0.340   2.560   9.693 -0.6120  0.1018 -0.3697
 5079SOL     OW26698   1.869   0.308  14.146  0.3558  0.5187 -0.1190
 5079SOL    HW126699   1.942   0.267  14.192  0.2773  0.0884 -0.3769
 5079SOL    HW226700   1.845   0.380  14.206 -2.1874 -0.0488 -0.4466
 5080SOL     OW26701   0.294   2.424   1.584  0.8218  0.6901 -0.0767
 5080SOL    HW126702   0.200   2.430   1.571  1.1569 -3.1085 -4.2679
 5080SOL    HW226703   0.309   2.337   1.621 -0.1976  1.4242  2.0455
 5081SOL     OW26704   3.412   3.840   1.931  0.1280 -0.2578 -0.4919
 5081SOL    HW126705   3.442   3.928   1.955  0.3678 -0.4808  0.0503
 5081SOL    HW226706   3.445   3.828   1.842  2.0324 -0.7154  0.2628
 5082SOL     OW26707   4.711   1.734   4.866 -0.3711  0.4732 -0.1710
 5082SOL    HW126708   4.626   1.767   4.836 -1.2275  0.7471  2.6167
 5082SOL    HW226709   4.715   1.652   4.817 -2.5193  0.0823  0.3237
 5083SOL     OW26710   4.580   0.319   3.149  0.2675  0.0679 -0.3120
 5083SOL    HW126711   4.598   0.355   3.236 -0.3713 -1.3750  0.4371
 5083SOL    HW226712   4.556   0.228   3.169  3.0461 -0.8772 -1.2435
 5084SOL     OW26713   0.474   1.149   1.801  0.1055  0.2922 -0.3164
 5084SOL    HW126714   0.452   1.231   1.755 -3.9526 -0.6686 -0.0567
 5084SOL    HW226715   0.403   1.094   1.769  0.6835 -0.5154 -0.2198
 5085SOL     OW26716   2.203   2.064   7.646 -0.6491  0.4725  0.0066
 5085SOL    HW126717   2.108   2.066   7.658 -0.9140  1.7377 -2.3913
 5085SOL    HW226718   2.219   2.104   7.561  0.6602  1.2799  0.6244
 5086SOL     OW26719   4.445   4.269   5.212  0.0899 -0.4516 -0.6134
 5086SOL    HW126720   4.415   4.235   5.128  0.8958 -1.3892 -0.5198
 5086SOL    HW226721   4.533   4.301   5.191  0.6498  0.0524  2.4240
 5087SOL     OW26722   3.575   4.237   4.617  0.4540 -0.7334  0.2838
 5087SOL    HW126723   3.618   4.172   4.672 -0.4987 -0.6048  1.1692
 5087SOL    HW226724   3.654   4.283   4.588 -0.7419  1.6639  0.8524
 5088SOL     OW26725   3.600   0.966   5.849  0.3818 -0.2557 -0.1368
 5088SOL    HW126726   3.553   1.025   5.908  0.8098  1.3874 -1.4398
 5088SOL    HW226727   3.613   0.893   5.909 -2.1315 -1.7221 -1.3582
 5089SOL     OW26728   1.791   0.251  14.678  0.3316 -0.1395 -0.0710
 5089SOL    HW126729   1.753   0.332  14.712 -0.9835 -1.8034  2.4144
 5089SOL    HW226730   1.860   0.229  14.741  2.0157  2.2149 -1.0792
 5090SOL     OW26731   1.308   3.182   9.221 -0.3642 -0.0521 -0.5968
 5090SOL    HW126732   1.312   3.218   9.309 -1.0104 -1.4466 -0.0015
 5090SOL    HW226733   1.396   3.185   9.183  0.3265 -1.5121  0.9234
 5091SOL     OW26734   4.432   3.101  11.956  0.0632  0.1562  0.1812
 5091SOL    HW126735   4.518   3.071  11.986  0.9440  2.2086 -0.3609
 5091SOL    HW226736   4.373   3.049  12.011 -0.4975  0.9670  0.3503
 5092SOL     OW26737   1.279   3.565   7.400 -0.1307 -0.1347 -0.4363
 5092SOL    HW126738   1.242   3.542   7.315  1.4502  0.7487 -1.3707
 5092SOL    HW226739   1.215   3.524   7.457  1.0570 -1.4985 -0.0827
 5093SOL     OW26740   3.010   3.756  17.329 -0.1394 -1.0413 -0.3052
 5093SOL    HW126741   2.915   3.764  17.342  0.0885  0.5213  0.3526
 5093SOL    HW226742   3.026   3.828  17.269  2.9173 -1.7221 -0.2958
 5094SOL     OW26743   4.072   4.503   5.241  0.2466  0.5766  0.3799
 5094SOL    HW126744   3.979   4.521   5.233  0.2630 -0.3568 -2.0358
 5094SOL    HW226745   4.067   4.422   5.293 -0.8469 -1.0282 -2.2244
 5095SOL     OW26746   4.366   4.094   5.015 -0.9552  0.0575 -0.6356
 5095SOL    HW126747   4.306   4.075   5.087  0.6130  1.7141  1.0591
 5095SOL    HW226748   4.351   4.018   4.958 -0.1089  0.5723 -1.5422
 5096SOL     OW26749   3.165   0.438   1.418  0.1287  0.6407 -0.0029
 5096SOL    HW126750   3.217   0.365   1.453 -1.0079  0.6037  1.5958
 5096SOL    HW226751   3.095   0.437   1.483  0.3613 -0.6167  0.2128
 5097SOL     OW26752   3.550   0.744  11.721 -0.0208  0.1223 -0.1158
 5097SOL    HW126753   3.620   0.745  11.786  0.7427 -2.6304 -0.8775
 5097SOL    HW226754   3.575   0.821  11.671  0.7991 -0.4792 -0.6298
 5098SOL     OW26755   4.531   1.194  16.555  0.2570  0.5539 -0.2990
 5098SOL    HW126756   4.570   1.268  16.508 -0.4406  0.9087 -0.3136
 5098SOL    HW226757   4.521   1.233  16.641 -2.2717 -0.1029 -0.3105
 5099SOL     OW26758   1.361   1.082   8.497 -0.2568 -0.3509  0.1279
 5099SOL    HW126759   1.448   1.072   8.536 -0.3481  2.9366  1.2664
 5099SOL    HW226760   1.364   0.994   8.461 -1.4593  0.0798 -1.0296
 5100SOL     OW26761   2.066   3.503  13.353  0.4493 -0.4413  0.3168
 5100SOL    HW126762   2.054   3.467  13.441  0.2978 -0.7057  0.1895
 5100SOL    HW226763   1.993   3.563  13.344  0.2478 -0.8286 -0.6525
 5101SOL     OW26764   3.468   2.311   5.839 -0.4098 -0.3419 -0.4381
 5101SOL    HW126765   3.451   2.266   5.922 -0.1301 -1.6928 -1.0975
 5101SOL    HW226766   3.524   2.386   5.858 -1.2265  0.1391  0.0189
 5102SOL     OW26767   1.840   2.304   9.568 -0.1256 -0.1519  0.9293
 5102SOL    HW126768   1.800   2.305   9.654  0.6610 -3.3494  1.3429
 5102SOL    HW226769   1.783   2.248   9.515  1.7220 -3.2102  2.2328
 5103SOL     OW26770   2.732   0.887   2.198 -0.2797  0.6877  0.1789
 5103SOL    HW126771   2.759   0.940   2.273 -2.3130  0.6937  0.9127
 5103SOL    HW226772   2.646   0.929   2.191 -0.1063  0.9408 -0.4542
 5104SOL     OW26773   2.683   2.847  11.098  0.0300  0.2334 -0.0626
 5104SOL    HW126774   2.667   2.858  11.192 -1.1287  2.0013 -0.4710
 5104SOL    HW226775   2.709   2.755  11.085 -1.4457 -0.4210  1.7176
 5105SOL     OW26776   1.608   3.730  12.422 -0.7363  0.1457  0.4976
 5105SOL    HW126777   1.694   3.691  12.406 -0.8683  0.5017 -1.0778
 5105SOL    HW226778   1.563   3.650  12.447  0.2357 -0.3275  0.7302
 5106SOL     OW26779   0.461   1.808  13.474 -0.0880  0.4116 -0.1648
 5106SOL    HW126780   0.388   1.759  13.511  0.7513 -0.1591  0.7257
 5106SOL    HW226781   0.484   1.854  13.555 -1.9466  0.2669  0.4336
 5107SOL     OW26782   3.793   3.107   7.421 -0.0437 -0.0444  0.6247
 5107SOL    HW126783   3.766   3.036   7.478 -0.2476 -1.0514 -0.7169
 5107SOL    HW226784   3.721   3.104   7.358  0.5899 -3.3442  0.0760
 5108SOL     OW26785   1.635   2.441   7.012  0.2330  0.6119 -0.0447
 5108SOL    HW126786   1.593   2.374   6.958 -2.6581  1.0002  1.7046
 5108SOL    HW226787   1.669   2.385   7.082 -0.9420 -0.5240 -0.3739
 5109SOL     OW26788   2.079   0.687   5.015 -0.0543  0.9195  0.2515
 5109SOL    HW126789   2.162   0.702   5.060 -0.0165  1.0128  0.1517
 5109SOL    HW226790   2.099   0.699   4.922 -2.5066 -2.2028 -0.6876
 5110SOL     OW26791   4.287   3.284  10.712  0.8901  0.6250 -0.5732
 5110SOL    HW126792   4.367   3.271  10.662 -0.7750 -1.4393 -2.7060
 5110SOL    HW226793   4.269   3.195  10.742 -2.5138  1.1670 -1.0192
 5111SOL     OW26794   4.333   4.359   5.470 -0.3013  0.0139  0.0292
 5111SOL    HW126795   4.415   4.328   5.509  0.3582  1.4232 -0.2457
 5111SOL    HW226796   4.354   4.322   5.384  0.3861 -0.1255  0.2521
 5112SOL     OW26797   3.134   2.924   8.768  0.3813 -0.3234 -0.3441
 5112SOL    HW126798   3.164   2.879   8.846  0.7714  2.4643  1.1236
 5112SOL    HW226799   3.176   2.872   8.699 -1.9628 -0.2856 -1.8257
 5113SOL     OW26800   2.650   2.544   2.266  0.4401  0.1687  0.6095
 5113SOL    HW126801   2.741   2.518   2.280  0.7534  1.1735  0.4458
 5113SOL    HW226802   2.614   2.462   2.232  0.9924  0.1529  0.0578
 5114SOL     OW26803   0.132   0.797   2.148  0.2759 -0.2523 -0.3986
 5114SOL    HW126804   0.049   0.754   2.126  0.9259 -2.1014  0.7074
 5114SOL    HW226805   0.115   0.817   2.240 -0.0930  0.4484 -0.6239
 5115SOL     OW26806   2.466   0.803   7.804  0.4926 -0.7456 -0.3611
 5115SOL    HW126807   2.505   0.724   7.841  2.1340  0.5332  0.6366
 5115SOL    HW226808   2.525   0.872   7.836 -0.2808 -0.3526  0.2384
 5116SOL     OW26809   4.612   4.019   6.657 -0.6238 -0.2205  0.0971
 5116SOL    HW126810   4.601   4.092   6.597  0.2680  0.6136  0.9708
 5116SOL    HW226811   4.706   4.005   6.663 -0.5073  1.2061  1.6663
 5117SOL     OW26812   4.546   2.039   3.609 -0.0470 -0.0347  0.2154
 5117SOL    HW126813   4.538   1.947   3.585 -2.9029  0.6138 -1.2422
 5117SOL    HW226814   4.459   2.061   3.644  1.0785  2.1592  1.6671
 5118SOL     OW26815   3.276   0.831  12.235 -0.1901 -0.2027  0.0038
 5118SOL    HW126816   3.284   0.766  12.165  1.2251 -3.0522  2.7830
 5118SOL    HW226817   3.366   0.841  12.264 -0.8406  0.8464  1.6547
 5119SOL     OW26818   0.770   4.170   6.320 -0.2957  0.1551  0.2753
 5119SOL    HW126819   0.863   4.188   6.306  0.0643 -1.6650  0.3074
 5119SOL    HW226820   0.763   4.184   6.415  0.7245 -2.1944  0.7021
 5120SOL     OW26821   0.696   1.096   5.456 -0.2160 -0.0360  0.1743
 5120SOL    HW126822   0.638   1.065   5.387 -0.3105 -0.4248  0.4330
 5120SOL    HW226823   0.704   1.191   5.443  0.6085  0.1303  1.9106
 5121SOL     OW26824   2.298   1.298   5.749  0.3683 -0.7885  0.2572
 5121SOL    HW126825   2.215   1.323   5.791 -1.4674 -2.9987 -2.0442
 5121SOL    HW226826   2.296   1.202   5.743 -0.0415 -0.8763  1.7111
 5122SOL     OW26827   1.851   1.090   8.233 -0.1369  0.1268 -0.3868
 5122SOL    HW126828   1.838   1.012   8.287 -0.7219  0.3443 -0.2238
 5122SOL    HW226829   1.852   1.160   8.298  0.4928  0.2440 -0.5142
 5123SOL     OW26830   3.020   3.317  10.340  0.0395  0.3784 -0.4122
 5123SOL    HW126831   3.080   3.296  10.411  0.2437 -2.7143 -1.5103
 5123SOL    HW226832   2.937   3.288  10.377  0.4648  1.5408  1.4371
 5124SOL     OW26833   1.103   1.884   2.919 -0.0067 -0.1447  0.4728
 5124SOL    HW126834   1.014   1.915   2.931 -0.9028 -2.1288 -0.9189
 5124SOL    HW226835   1.148   1.893   3.003  2.9163  0.2591 -1.1413
 5125SOL     OW26836   2.129   0.203   6.359 -0.1839  0.3156  0.2720
 5125SOL    HW126837   2.150   0.109   6.359 -0.0169  0.3477 -0.6980
 5125SOL    HW226838   2.039   0.208   6.391 -0.5381 -0.8868 -0.5266
 5126SOL     OW26839   4.442   2.495   4.277 -0.5401  0.2181  0.1245
 5126SOL    HW126840   4.399   2.410   4.265  0.1120 -0.0857 -0.0952
 5126SOL    HW226841   4.364   2.547   4.291 -1.6712 -1.0126 -1.6115
 5127SOL     OW26842   1.343   4.286   4.957 -0.3392 -0.4917  0.0780
 5127SOL    HW126843   1.357   4.363   5.012 -0.7312  2.1221 -3.4745
 5127SOL    HW226844   1.253   4.260   4.976 -0.2922  0.6615  1.9046
 5128SOL     OW26845   0.398   2.827   6.742 -0.2635 -0.3444 -0.0640
 5128SOL    HW126846   0.474   2.818   6.799 -0.3812 -1.2779 -0.0418
 5128SOL    HW226847   0.339   2.879   6.797  1.1702 -0.2887  1.4201
 5129SOL     OW26848   4.460   0.447  13.014  0.3939  0.2870 -0.0045
 5129SOL    HW126849   4.369   0.420  13.030  0.8934 -1.8307 -0.6737
 5129SOL    HW226850   4.494   0.457  13.103  2.2663  0.4809 -0.7395
 5130SOL     OW26851   2.092   0.962   4.344 -0.1131 -0.5869  0.4828
 5130SOL    HW126852   2.028   1.031   4.360 -0.4323 -0.8599  0.3862
 5130SOL    HW226853   2.115   0.995   4.257  3.8981 -3.4397  0.4414
 5131SOL     OW26854   3.898   4.646  12.030 -0.0578 -0.5878 -0.2565
 5131SOL    HW126855   3.869   4.678  11.944  0.8828  3.1362  0.8021
 5131SOL    HW226856   3.818   4.646  12.083  1.7762  1.1990  2.4938
 5132SOL     OW26857   2.540   1.991   2.603 -0.0969  0.0484 -0.3618
 5132SOL    HW126858   2.556   2.058   2.537  0.5501 -1.2545 -1.5380
 5132SOL    HW226859   2.479   1.935   2.556  0.6278 -0.1048 -1.1345
 5133SOL     OW26860   4.370   1.734   4.140  0.1946  0.2882 -0.1546
 5133SOL    HW126861   4.351   1.824   4.168  1.6254 -0.2550  2.5406
 5133SOL    HW226862   4.459   1.747   4.109 -0.2974  1.9056 -0.9127
 5134SOL     OW26863   1.146   0.435   3.392 -0.0306 -0.3046  0.2121
 5134SOL    HW126864   1.169   0.520   3.429 -2.2858 -0.0112  0.9326
 5134SOL    HW226865   1.186   0.449   3.306 -0.7739  0.8388  0.0621
 5135SOL     OW26866   0.872   0.466  17.365  0.6619  0.0238  0.6166
 5135SOL    HW126867   0.820   0.463  17.446  0.6374  0.0837  0.6030
 5135SOL    HW226868   0.956   0.436  17.400  0.8655 -1.9862 -1.6178
 5136SOL     OW26869   3.697   1.261   5.072 -0.4436  0.0907  0.1710
 5136SOL    HW126870   3.754   1.218   5.136  2.5016  2.1696 -1.0792
 5136SOL    HW226871   3.610   1.248   5.109  0.2184 -0.3588  1.5563
 5137SOL     OW26872   2.417   0.387   4.939  0.5630 -0.3529  0.2818
 5137SOL    HW126873   2.426   0.297   4.909 -0.9961 -0.8697  1.3659
 5137SOL    HW226874   2.329   0.379   4.975  0.7202 -0.4368  0.6460
 5138SOL     OW26875   2.951   2.237   4.496 -0.0452 -0.4948 -0.1277
 5138SOL    HW126876   2.936   2.142   4.493 -1.6481 -0.3075  2.6786
 5138SOL    HW226877   2.869   2.264   4.455 -0.7705 -1.3000  0.7927
 5139SOL     OW26878   2.355   2.092   4.259  0.5287  0.1833  0.2634
 5139SOL    HW126879   2.286   2.112   4.321  1.9584  3.0479  0.9379
 5139SOL    HW226880   2.312   2.021   4.211  0.2837  0.1511  0.5308
 5140SOL     OW26881   1.657   2.234   2.839 -0.1751  0.2461  0.7047
 5140SOL    HW126882   1.682   2.235   2.931  0.2284  1.0399  0.5903
 5140SOL    HW226883   1.727   2.174   2.812 -2.1501 -2.2142  1.0663
 5141SOL     OW26884   1.248   3.230   5.366  0.1008  0.0830 -0.1752
 5141SOL    HW126885   1.220   3.145   5.331  0.9044 -0.3690  0.2932
 5141SOL    HW226886   1.232   3.298   5.301 -0.0427 -0.4001 -0.6474
 5142SOL     OW26887   1.079   1.448   9.098  0.3402  0.1513  0.4889
 5142SOL    HW126888   1.054   1.537   9.073 -0.3149 -0.3744 -0.7319
 5142SOL    HW226889   1.096   1.405   9.014 -2.0854  0.1830 -0.0133
 5143SOL     OW26890   0.203   0.752   7.350 -0.1533  1.1248  0.2255
 5143SOL    HW126891   0.178   0.735   7.441  0.4816  1.6577  0.5097
 5143SOL    HW226892   0.272   0.814   7.376  2.1385 -0.9647 -0.8497
 5144SOL     OW26893   3.134   1.379   3.024  0.8868  0.1101  0.1393
 5144SOL    HW126894   3.179   1.430   3.091 -0.0531  1.3038 -0.1459
 5144SOL    HW226895   3.122   1.442   2.953 -2.7390 -1.3829 -0.5919
 5145SOL     OW26896   1.946   0.619   8.123 -0.7019  0.7244  0.5688
 5145SOL    HW126897   1.938   0.704   8.080 -0.3975 -0.0949 -1.0882
 5145SOL    HW226898   2.002   0.639   8.198 -0.0565 -0.7131  0.4607
 5146SOL     OW26899   1.495   2.532   4.570 -0.1275  0.5430 -0.5666
 5146SOL    HW126900   1.403   2.518   4.547 -0.3545  1.4315 -0.1922
 5146SOL    HW226901   1.544   2.516   4.489 -1.7905 -2.1756 -1.0317
 5147SOL     OW26902   3.944   1.341   7.791 -0.0384 -0.3560 -0.2690
 5147SOL    HW126903   3.974   1.259   7.753  2.1681  0.7948 -1.0293
 5147SOL    HW226904   3.855   1.344   7.756 -0.4556 -0.6663  0.7882
 5148SOL     OW26905   4.652   2.095  11.328  0.3040 -0.2414  0.0633
 5148SOL    HW126906   4.709   2.154  11.377  0.5959 -1.7942  1.6146
 5148SOL    HW226907   4.720   2.059  11.271  0.4864 -2.1827  1.5108
 5149SOL     OW26908   3.998   3.926  16.593  0.7320  0.6528  0.1740
 5149SOL    HW126909   4.038   3.840  16.586 -0.5812  0.1960 -1.8206
 5149SOL    HW226910   3.944   3.913  16.514 -1.0173 -0.3683  1.5360
 5150SOL     OW26911   0.596   0.056   6.737 -0.1129  0.4204  0.2177
 5150SOL    HW126912   0.521   0.025   6.788  0.2621 -0.1282  0.4376
 5150SOL    HW226913   0.647   4.701   6.735  0.3901  0.6944  2.1614
 5151SOL     OW26914   3.181   0.515  16.374 -0.4523  0.7406 -0.1248
 5151SOL    HW126915   3.231   0.543  16.297 -2.2579 -3.3393 -2.7782
 5151SOL    HW226916   3.247   0.460  16.418 -1.3980  0.4630  0.9319
 5152SOL     OW26917   1.713   1.820   0.337 -0.1419  0.5975 -0.6347
 5152SOL    HW126918   1.699   1.795   0.428  0.5678 -1.8326 -1.1768
 5152SOL    HW226919   1.666   1.744   0.301 -0.6438  0.6705 -0.1307
 5153SOL     OW26920   1.566   3.634  13.565  0.2825 -0.2529  0.0486
 5153SOL    HW126921   1.644   3.679  13.598  0.7827 -0.6815 -0.5525
 5153SOL    HW226922   1.594   3.543  13.557  0.2770 -0.2963  0.5305
 5154SOL     OW26923   0.710   3.388   2.220 -0.0965 -0.0128 -0.0139
 5154SOL    HW126924   0.620   3.383   2.188 -1.0852 -0.3003  2.7797
 5154SOL    HW226925   0.732   3.302   2.185  1.6254  1.1219 -1.7511
 5155SOL     OW26926   0.573   3.588   8.085  0.2402 -0.6043 -0.2564
 5155SOL    HW126927   0.656   3.603   8.039 -0.3544  0.1432 -1.0846
 5155SOL    HW226928   0.601   3.579   8.176 -2.9601 -1.6408  0.6173
 5156SOL     OW26929   3.286   3.501   6.030 -0.0653 -0.0943 -0.2887
 5156SOL    HW126930   3.275   3.406   6.029 -0.7464 -0.0517  2.2919
 5156SOL    HW226931   3.370   3.521   6.071 -0.4937  0.7121  0.1990
 5157SOL     OW26932   0.341   2.800   2.540  0.6066  0.2839  0.5816
 5157SOL    HW126933   0.291   2.809   2.458  0.4420 -0.0332  0.6492
 5157SOL    HW226934   0.415   2.855   2.514 -1.4247  2.0774 -1.4449
 5158SOL     OW26935   1.186   1.679   7.779 -1.0849 -0.3412 -0.1759
 5158SOL    HW126936   1.174   1.680   7.684 -1.8453 -0.9296 -0.0837
 5158SOL    HW226937   1.104   1.707   7.821 -0.7989 -1.1712  0.9498
 5159SOL     OW26938   4.327   2.947   4.467 -0.1373 -0.5897  0.1231
 5159SOL    HW126939   4.262   2.954   4.397 -3.5762 -2.2371  3.1423
 5159SOL    HW226940   4.259   2.951   4.535 -0.7686 -1.1543 -0.4847
 5160SOL     OW26941   2.013   2.984   8.748 -0.1025 -0.2943  0.1916
 5160SOL    HW126942   2.074   2.914   8.772  0.3512  0.2673  0.6658
 5160SOL    HW226943   2.065   3.061   8.770  1.6344 -1.1169 -1.0594
 5161SOL     OW26944   4.211   4.108   5.957 -0.1216 -0.5418 -0.4093
 5161SOL    HW126945   4.235   4.200   5.971  2.3701 -1.1368 -0.7950
 5161SOL    HW226946   4.127   4.106   6.003 -0.0560  3.8913 -0.1091
 5162SOL     OW26947   4.378   2.833   4.819  0.1680 -0.0752  0.3399
 5162SOL    HW126948   4.413   2.885   4.746 -0.3188 -0.8850 -0.4679
 5162SOL    HW226949   4.349   2.755   4.773 -0.1778  0.4127 -0.2758
 5163SOL     OW26950   3.705   3.181   5.300  0.3071 -0.0222  0.2812
 5163SOL    HW126951   3.640   3.152   5.236  0.4375 -0.9105  0.5458
 5163SOL    HW226952   3.707   3.100   5.352  0.9588 -0.2248 -0.0575
 5164SOL     OW26953   3.410   2.660   6.820 -0.4131 -0.0549 -0.1034
 5164SOL    HW126954   3.430   2.622   6.906  0.5341  3.0911  1.0981
 5164SOL    HW226955   3.382   2.749   6.845  0.8625  0.6519 -1.2217
 5165SOL     OW26956   3.926   0.951   8.203  0.9068 -0.0128 -0.1545
 5165SOL    HW126957   3.882   0.964   8.287  0.8135 -1.6545  0.0543
 5165SOL    HW226958   3.874   0.997   8.137  0.8912 -0.4572 -0.4540
 5166SOL     OW26959   0.024   0.652   2.756  0.2805  0.0451  0.3344
 5166SOL    HW126960   0.091   0.677   2.692 -1.4212  3.7804  0.0230
 5166SOL    HW226961   4.725   0.741   2.781 -0.1669  0.5517 -1.9041
 5167SOL     OW26962   2.007   2.040   7.158 -0.5172 -0.0086  0.4250
 5167SOL    HW126963   2.031   1.948   7.148 -3.2175 -0.7015  0.2487
 5167SOL    HW226964   2.066   2.077   7.092 -0.7513  0.9298  0.7274
 5168SOL     OW26965   4.211   4.273   8.334  0.4283 -0.3060  0.2628
 5168SOL    HW126966   4.278   4.232   8.388  0.1488  1.0923  1.6783
 5168SOL    HW226967   4.255   4.352   8.302 -0.3714  0.4262  0.9690
 5169SOL     OW26968   2.093   2.442   0.026  0.0635  0.1684  0.1688
 5169SOL    HW126969   2.177   2.420  17.687 -0.5891  1.8627 -2.0386
 5169SOL    HW226970   2.034   2.461  17.656  1.3715  0.6006 -0.7762
 5170SOL     OW26971   2.281   4.685  12.732  0.6924 -0.3231  0.0313
 5170SOL    HW126972   2.335   0.008  12.670 -2.2669  2.6606 -0.1811
 5170SOL    HW226973   2.329   4.602  12.741  1.2791 -0.0999 -1.1501
 5171SOL     OW26974   0.272   3.779   7.559  0.5870 -0.4709 -0.0671
 5171SOL    HW126975   0.183   3.811   7.572  0.0860 -2.1537  0.6585
 5171SOL    HW226976   0.288   3.732   7.641 -0.0436 -2.1037 -0.8923
 5172SOL     OW26977   3.225   1.548   3.914 -0.0404 -0.0002  0.3391
 5172SOL    HW126978   3.310   1.506   3.926  0.1448  0.7150  1.5382
 5172SOL    HW226979   3.243   1.641   3.931  0.1294  0.0169  0.0665
 5173SOL     OW26980   4.237   1.544   3.821 -0.1639  0.3086  0.4384
 5173SOL    HW126981   4.280   1.538   3.736 -0.4941  1.4336  0.1954
 5173SOL    HW226982   4.316   1.527   3.873 -0.5121  1.1452  1.2366
 5174SOL     OW26983   3.892   2.370   7.497  0.3990 -0.6465 -0.5535
 5174SOL    HW126984   3.905   2.366   7.592 -0.7275  3.9712 -0.2159
 5174SOL    HW226985   3.971   2.418   7.470 -1.5380  1.6903 -2.0519
 5175SOL     OW26986   1.705   3.989  12.556 -0.1983  0.0320 -0.3232
 5175SOL    HW126987   1.711   3.895  12.575 -0.6525  0.2834  1.0714
 5175SOL    HW226988   1.613   4.002  12.578 -0.0589 -0.5381  0.6123
 5176SOL     OW26989   0.640   3.561   4.919 -0.0694  0.0119  0.2526
 5176SOL    HW126990   0.599   3.484   4.880  3.4831 -0.3052 -2.8055
 5176SOL    HW226991   0.623   3.627   4.851 -0.5905  0.2281  0.5871
 5177SOL     OW26992   2.030   3.594  17.328 -0.6256 -0.4026 -0.2608
 5177SOL    HW126993   2.113   3.595  17.280 -0.8992 -0.8665 -0.7498
 5177SOL    HW226994   2.003   3.683  17.306 -1.3101 -0.3977  0.6120
 5178SOL     OW26995   2.769   2.469   4.778 -0.5658  0.2261  0.2203
 5178SOL    HW126996   2.814   2.415   4.844 -0.2927 -1.1012 -1.0588
 5178SOL    HW226997   2.708   2.399   4.755 -0.1482  0.3323 -1.1851
 5179SOL     OW26998   2.487   1.024   6.580  0.1070  0.2389  0.3139
 5179SOL    HW126999   2.470   1.118   6.586 -0.1804  0.2969 -1.3243
 5179SOL    HW227000   2.460   1.000   6.491  2.3187  1.0342 -0.5844
 5180SOL     OW27001   3.678   1.314  14.390  0.2327  0.0048 -0.7670
 5180SOL    HW127002   3.622   1.297  14.465 -2.5159  3.7500 -1.9503
 5180SOL    HW227003   3.687   1.409  14.386 -1.8913  0.2263 -0.2105
 5181SOL     OW27004   2.397   0.391   1.228 -0.3536  0.1301 -0.0234
 5181SOL    HW127005   2.357   0.450   1.164  1.7368  1.2605 -0.2861
 5181SOL    HW227006   2.350   0.310   1.204  1.3352 -0.6389 -0.7500
 5182SOL     OW27007   3.236   1.362   7.180  0.2464 -0.4205  0.3134
 5182SOL    HW127008   3.321   1.330   7.210  0.2583 -1.3115 -0.6363
 5182SOL    HW227009   3.269   1.442   7.141  0.3307 -0.0342  1.1844
 5183SOL     OW27010   1.585   3.356   4.838 -0.0579  0.2470 -0.7876
 5183SOL    HW127011   1.618   3.269   4.859  1.6360  0.9077 -0.7737
 5183SOL    HW227012   1.541   3.388   4.917  1.0259  1.9565 -0.8816
 5184SOL     OW27013   2.027   2.878   5.312  0.2143 -0.1456  0.1217
 5184SOL    HW127014   2.096   2.924   5.361  1.2519 -1.7578  0.2049
 5184SOL    HW227015   2.014   2.936   5.237 -2.0701 -0.1751  0.5177
 5185SOL     OW27016   1.576   0.689   8.646  0.4671  0.2204 -0.1270
 5185SOL    HW127017   1.549   0.649   8.729  0.7927  1.2078  0.4623
 5185SOL    HW227018   1.549   0.779   8.664  0.5743  0.6725 -2.2985
 5186SOL     OW27019   0.049   4.642  10.703 -0.1407  0.2832 -0.0832
 5186SOL    HW127020   0.097   4.686  10.633  2.3855 -1.0982  0.7920
 5186SOL    HW227021   0.100   4.562  10.715  0.4855  0.7446  0.3372
 5187SOL     OW27022   1.325   1.399  13.436  0.6454  0.3147  0.4187
 5187SOL    HW127023   1.292   1.470  13.381 -1.1593 -3.3469 -3.2202
 5187SOL    HW227024   1.411   1.428  13.467  0.5072  0.5720  0.5689
 5188SOL     OW27025   2.517   1.423   3.039  0.3192  0.5741 -0.5293
 5188SOL    HW127026   2.475   1.466   3.113  0.0714  1.7459 -1.3495
 5188SOL    HW227027   2.541   1.338   3.075 -0.9853 -0.4625 -2.0944
 5189SOL     OW27028   4.316   4.333  12.802 -0.6418  0.1072  0.4463
 5189SOL    HW127029   4.374   4.406  12.828  1.4326 -1.4761  0.2676
 5189SOL    HW227030   4.371   4.304  12.729  0.3962  0.7300  0.9872
 5190SOL     OW27031   3.420   0.578   6.963 -0.2770 -0.5404 -0.5944
 5190SOL    HW127032   3.464   0.593   7.047 -1.1287 -0.1502 -0.2143
 5190SOL    HW227033   3.359   0.508   6.985 -0.4433 -0.3433 -0.4273
 5191SOL     OW27034   4.580   1.147   2.843 -0.5368 -0.3838  0.1182
 5191SOL    HW127035   4.598   1.230   2.799  0.7537  0.2209  1.7577
 5191SOL    HW227036   4.488   1.127   2.829 -0.0359 -1.7946 -1.1389
 5192SOL     OW27037   1.601   3.858  14.379 -0.5425 -0.3089 -0.3549
 5192SOL    HW127038   1.623   3.945  14.410 -0.2248 -1.1526  1.8108
 5192SOL    HW227039   1.680   3.844  14.326 -0.3916 -2.0300  0.3222
 5193SOL     OW27040   2.701   0.028  16.575  0.2358  0.1256 -0.7460
 5193SOL    HW127041   2.787   0.070  16.580  0.1149  0.0349  1.7139
 5193SOL    HW227042   2.719   4.660  16.591 -3.7501 -0.7153 -1.3189
 5194SOL     OW27043   1.495   0.804   5.913 -0.5417  0.3242 -0.6773
 5194SOL    HW127044   1.435   0.751   5.861 -1.6525  0.6658  0.2369
 5194SOL    HW227045   1.485   0.892   5.876 -0.9021 -0.3386 -2.1223
 5195SOL     OW27046   1.495   0.277   0.827  0.2308  0.0065 -0.7213
 5195SOL    HW127047   1.467   0.226   0.903  1.1909  1.1849  0.4220
 5195SOL    HW227048   1.512   0.359   0.873 -1.4204  0.5274 -1.0210
 5196SOL     OW27049   0.317   3.198  16.843  0.4280 -0.1771  0.5484
 5196SOL    HW127050   0.342   3.110  16.816  1.2980  1.2335 -3.3765
 5196SOL    HW227051   0.279   3.171  16.926  0.4355  1.6333  1.1487
 5197SOL     OW27052   3.685   3.704   3.416 -0.1989 -0.3784 -0.7520
 5197SOL    HW127053   3.691   3.633   3.480 -0.3995 -0.5395 -0.9114
 5197SOL    HW227054   3.632   3.673   3.342  0.8312  2.4983 -2.6730
 5198SOL     OW27055   3.884   3.872   3.371 -0.5449 -0.1695  0.5989
 5198SOL    HW127056   3.846   3.896   3.456  0.0440  0.2670  0.7343
 5198SOL    HW227057   3.816   3.810   3.343 -0.4089  1.0656 -2.4431
 5199SOL     OW27058   3.750   3.592  13.515 -0.8694  0.3819 -0.0339
 5199SOL    HW127059   3.815   3.662  13.509  0.1329 -0.6268 -1.0593
 5199SOL    HW227060   3.790   3.525  13.571  0.0036  1.1981  0.3253
 5200SOL     OW27061   0.010   0.883  16.689 -0.2038  0.1830 -0.5040
 5200SOL    HW127062   0.047   0.880  16.601  2.6206 -0.8594  0.6904
 5200SOL    HW227063   4.648   0.920  16.685 -0.6275 -0.9388 -1.5661
 5201SOL     OW27064   3.183   2.152   7.138  0.5088  0.1259  0.2635
 5201SOL    HW127065   3.235   2.205   7.078  0.1128 -1.3197 -1.3577
 5201SOL    HW227066   3.245   2.084   7.165  0.4169 -1.0130 -2.4763
 5202SOL     OW27067   3.349   4.149   4.496 -0.1973 -0.8037  0.4711
 5202SOL    HW127068   3.379   4.133   4.406 -0.4108 -1.0185  0.4388
 5202SOL    HW227069   3.430   4.178   4.537 -0.5842  0.4965  0.3316
 5203SOL     OW27070   3.924   1.215  10.805  0.3224  0.5222  0.4643
 5203SOL    HW127071   3.953   1.304  10.783 -0.2828  0.5017 -0.4043
 5203SOL    HW227072   3.853   1.230  10.867  3.4667  0.3366  4.1439
 5204SOL     OW27073   1.687   1.517   3.005 -0.0533  0.6838 -0.9051
 5204SOL    HW127074   1.664   1.574   2.932 -2.5470 -0.8536 -1.3388
 5204SOL    HW227075   1.642   1.558   3.079 -0.1138 -0.9835 -0.0009
 5205SOL     OW27076   0.518   2.485  13.716 -0.5970 -0.4894  0.1323
 5205SOL    HW127077   0.480   2.401  13.742 -1.7973  0.0310  0.0514
 5205SOL    HW227078   0.588   2.461  13.656  1.9066  2.4340  1.8509
 5206SOL     OW27079   2.613   3.523  15.797  0.4456  0.4252  0.0481
 5206SOL    HW127080   2.701   3.515  15.834  0.6160  0.5341 -0.3353
 5206SOL    HW227081   2.565   3.472  15.862 -0.1615 -0.2093 -0.9003
 5207SOL     OW27082   2.567   1.898   6.865  0.1213  0.1682 -0.1642
 5207SOL    HW127083   2.545   1.921   6.955 -1.1393 -0.9140 -0.1877
 5207SOL    HW227084   2.596   1.981   6.828  1.0190 -0.2536 -0.4173
 5208SOL     OW27085   1.368   2.718   1.710  0.0102 -0.0711  0.1015
 5208SOL    HW127086   1.292   2.710   1.653  0.3735 -0.2911 -0.3536
 5208SOL    HW227087   1.407   2.632   1.695 -2.1327 -0.7660 -1.5769
 5209SOL     OW27088   4.066   1.875  11.042 -0.1866  0.1572 -0.1501
 5209SOL    HW127089   4.091   1.865  10.950  0.6551 -0.7083  0.1767
 5209SOL    HW227090   4.087   1.786  11.071 -1.5142 -1.2067 -3.3112
 5210SOL     OW27091   3.362   3.017  12.009  0.1513 -0.4895  0.2019
 5210SOL    HW127092   3.417   2.940  12.020  0.5986 -0.1321  0.4306
 5210SOL    HW227093   3.293   2.973  11.959 -2.9232  2.0723  2.1438
 5211SOL     OW27094   2.375   3.686   5.933  0.1479  0.0472  0.3497
 5211SOL    HW127095   2.431   3.687   6.011  0.4647 -0.1859  0.1230
 5211SOL    HW227096   2.337   3.598   5.938  0.9827 -0.4265 -2.0089
 5212SOL     OW27097   4.102   2.596   7.555  0.1310  0.3754 -0.1290
 5212SOL    HW127098   4.183   2.588   7.504 -0.2693 -0.1962 -0.6687
 5212SOL    HW227099   4.143   2.627   7.636  1.4578 -0.5021 -0.4519
 5213SOL     OW27100   3.783   0.202  12.805  0.3764  0.4959 -0.2840
 5213SOL    HW127101   3.696   0.213  12.766  0.3095 -1.3396 -0.6488
 5213SOL    HW227102   3.821   0.137  12.746  0.1065  0.9202 -0.9239
 5214SOL     OW27103   1.705   4.716   2.373  0.1317 -0.1477 -0.1361
 5214SOL    HW127104   1.654   0.019   2.449 -0.1185  1.1271 -0.7720
 5214SOL    HW227105   1.773   0.058   2.385 -0.3877  0.3263  0.1600
 5215SOL     OW27106   1.372   1.329   9.977 -0.5633  0.1672 -0.8054
 5215SOL    HW127107   1.464   1.334   9.953 -1.3098  1.2248 -3.3846
 5215SOL    HW227108   1.358   1.349  10.070 -0.0135 -1.9654 -0.2616
 5216SOL     OW27109   0.869   3.847   4.119 -0.6684  0.3715  0.2539
 5216SOL    HW127110   0.864   3.752   4.108 -2.5103  0.4589  0.2337
 5216SOL    HW227111   0.861   3.844   4.215 -1.8182 -0.5466  0.1474
 5217SOL     OW27112   2.105   2.608   8.642  0.0699 -0.5758  0.4788
 5217SOL    HW127113   2.131   2.695   8.671  1.5933 -1.7074  2.6047
 5217SOL    HW227114   2.169   2.551   8.685  0.3038  0.2234  1.1887
 5218SOL     OW27115   2.598   3.245   3.784  0.2673  0.0997 -0.0996
 5218SOL    HW127116   2.691   3.221   3.790 -0.3383 -1.1930  3.7866
 5218SOL    HW227117   2.554   3.205   3.709  0.5263 -0.0372 -0.1793
 5219SOL     OW27118   3.415   1.397   2.955  0.1483 -0.2601  0.6927
 5219SOL    HW127119   3.356   1.400   3.030 -1.0220  0.8446 -0.2671
 5219SOL    HW227120   3.348   1.362   2.895  1.3126  1.1625 -1.4294
 5220SOL     OW27121   0.325   2.540   5.501  0.1264 -0.0693 -0.3913
 5220SOL    HW127122   0.290   2.461   5.460  2.0158 -1.9321  1.5852
 5220SOL    HW227123   0.420   2.533   5.491 -0.0199 -1.4027 -0.8519
 5221SOL     OW27124   1.566   2.250   1.690  0.2850 -0.0481  0.5105
 5221SOL    HW127125   1.575   2.202   1.772 -1.3705 -1.2664 -0.0248
 5221SOL    HW227126   1.538   2.187   1.624 -1.9537  1.3891  0.0686
 5222SOL     OW27127   2.705   4.243   5.488  0.1297 -0.4038  0.5248
 5222SOL    HW127128   2.715   4.293   5.406 -0.0709 -0.6958  0.3225
 5222SOL    HW227129   2.705   4.151   5.460 -0.5278  0.6960 -3.1186
 5223SOL     OW27130   3.196   4.590   0.695 -0.5525 -0.3577 -0.5240
 5223SOL    HW127131   3.246   4.579   0.776 -1.7564  1.5260  0.4789
 5223SOL    HW227132   3.270   4.599   0.635  0.2599  0.5340  0.6209
 5224SOL     OW27133   2.041   1.418  16.144 -0.0261 -0.4654  0.1602
 5224SOL    HW127134   1.989   1.364  16.203 -0.2900  1.5467  1.8016
 5224SOL    HW227135   2.089   1.353  16.092 -0.9007 -1.2103  0.2933
 5225SOL     OW27136   1.572   3.758  17.631  0.5761 -0.5142 -0.1965
 5225SOL    HW127137   1.554   3.832  17.573 -1.5843 -1.2171 -0.4123
 5225SOL    HW227138   1.590   3.681  17.577  0.5538  0.1568 -1.1554
 5226SOL     OW27139   4.057   4.330   7.892  0.5532 -0.6628  0.5897
 5226SOL    HW127140   4.129   4.366   7.944  0.6962  1.3271 -0.9686
 5226SOL    HW227141   4.069   4.241   7.924 -1.4138 -1.1106  0.0460
 5227SOL     OW27142   0.015   3.712   2.437 -0.7910 -0.5312 -0.3986
 5227SOL    HW127143   4.650   3.745   2.435 -0.4512  0.4329 -0.0741
 5227SOL    HW227144   0.053   3.787   2.482  0.2815 -1.7510  0.7249
 5228SOL     OW27145   2.308   2.685   4.748 -0.9513  0.5019 -0.0009
 5228SOL    HW127146   2.386   2.643   4.711 -1.1390 -0.0500  0.2295
 5228SOL    HW227147   2.250   2.610   4.758  1.4875 -1.3564  0.0612
 5229SOL     OW27148   1.024   3.437  11.928  0.4322 -0.3271  0.0325
 5229SOL    HW127149   1.014   3.365  11.866 -0.4564  2.1200 -2.6483
 5229SOL    HW227150   1.094   3.488  11.889 -0.6771  0.3974 -1.0115
 5230SOL     OW27151   3.068   2.511   4.605 -0.0884  0.0199 -0.0888
 5230SOL    HW127152   3.015   2.432   4.592  0.9109 -0.7696  0.7455
 5230SOL    HW227153   3.073   2.550   4.517 -1.3295 -1.5361 -0.8555
 5231SOL     OW27154   2.249   3.472   8.859 -0.6395  0.1825 -0.0116
 5231SOL    HW127155   2.344   3.479   8.865 -0.4992 -2.8936  1.3043
 5231SOL    HW227156   2.236   3.377   8.858 -1.0916  0.2427  0.1964
 5232SOL     OW27157   3.894   3.100   6.372 -0.4966  0.6727 -0.2912
 5232SOL    HW127158   3.842   3.175   6.402 -1.6254 -1.0005  1.9159
 5232SOL    HW227159   3.824   3.037   6.387  1.2521 -1.3532 -0.6551
 5233SOL     OW27160   0.584   0.808   8.801 -0.3926  0.2632  0.1804
 5233SOL    HW127161   0.496   0.821   8.766 -0.6535  0.1771  0.8019
 5233SOL    HW227162   0.620   0.875   8.744 -1.9919 -0.0425 -1.1963
 5234SOL     OW27163   4.516   0.711  12.387 -0.0177  0.6906 -0.6081
 5234SOL    HW127164   4.608   0.691  12.371  0.7982  2.0938  2.2791
 5234SOL    HW227165   4.507   0.801  12.354 -0.4746  2.6907  4.8496
 5235SOL     OW27166   3.573   4.318   8.549  0.2792 -0.5305  0.0210
 5235SOL    HW127167   3.621   4.367   8.615  0.9477 -3.1235  1.4712
 5235SOL    HW227168   3.631   4.326   8.473  0.3493 -0.4657  0.0832
 5236SOL     OW27169   4.130   0.326   3.794 -0.2569 -0.0189  0.1201
 5236SOL    HW127170   4.170   0.340   3.708 -1.2759 -4.0953 -1.0545
 5236SOL    HW227171   4.095   0.237   3.782  0.1222 -0.2029  0.3932
 5237SOL     OW27172   3.544   3.141   9.096  0.2279 -0.6586 -0.4526
 5237SOL    HW127173   3.635   3.154   9.123 -0.6866  1.3325  1.7110
 5237SOL    HW227174   3.490   3.149   9.175  0.4114  1.6503 -0.5508
 5238SOL     OW27175   2.097   1.196   5.157 -0.0213  0.6586  0.2491
 5238SOL    HW127176   2.154   1.271   5.140  1.0564  0.0897  1.3806
 5238SOL    HW227177   2.144   1.137   5.098 -1.2127 -0.9504  0.9247
 5239SOL     OW27178   4.720   1.978  10.922  0.0829 -0.2582  0.0288
 5239SOL    HW127179   0.029   2.066  10.935  0.5673 -0.5196  0.5142
 5239SOL    HW227180   4.714   1.944  11.012 -0.6905  0.1489  0.1392
 5240SOL     OW27181   1.352   0.726  12.227 -0.3998  0.0290 -0.3261
 5240SOL    HW127182   1.426   0.771  12.268 -0.9714  2.2208 -1.6919
 5240SOL    HW227183   1.392   0.640  12.218 -3.0752 -0.8328 -3.8869
 5241SOL     OW27184   3.171   3.556   9.797  0.1216 -0.1189  0.3601
 5241SOL    HW127185   3.089   3.578   9.752  0.2676 -1.5661 -0.6033
 5241SOL    HW227186   3.202   3.474   9.759  0.8675  0.8464 -1.1298
 5242SOL     OW27187   3.231   4.211   5.867  0.3319 -0.4813 -0.1526
 5242SOL    HW127188   3.253   4.301   5.842  1.3386  0.1292  2.9609
 5242SOL    HW227189   3.317   4.176   5.846  0.7619 -1.0800  2.6000
 5243SOL     OW27190   1.232   1.121   3.259 -0.1919 -0.3994 -0.2761
 5243SOL    HW127191   1.301   1.183   3.280 -2.7389  1.4034  2.8910
 5243SOL    HW227192   1.188   1.126   3.344 -1.6042  4.2702 -1.2486
 5244SOL     OW27193   1.834   3.615   3.521 -0.2803  0.0918 -0.4778
 5244SOL    HW127194   1.833   3.640   3.429 -0.4419 -0.2706 -0.5722
 5244SOL    HW227195   1.913   3.560   3.521 -1.3119 -1.3723 -1.1818
 5245SOL     OW27196   2.205   2.292   0.288 -0.1782  0.1519  0.6261
 5245SOL    HW127197   2.222   2.226   0.356 -1.1005  1.0993  1.7904
 5245SOL    HW227198   2.235   2.365   0.342  3.9383 -0.3872 -0.9298
 5246SOL     OW27199   3.348   3.167   0.202  0.1842  0.0012 -0.2175
 5246SOL    HW127200   3.295   3.178   0.124 -0.3025  0.5337  0.1884
 5246SOL    HW227201   3.275   3.144   0.260  0.6242  1.2357  0.8199
 5247SOL     OW27202   0.123   4.345   3.138  0.3188  0.0552  0.6911
 5247SOL    HW127203   0.060   4.313   3.203 -0.9714 -3.0261 -2.0642
 5247SOL    HW227204   0.206   4.298   3.143  0.3773  0.1088  0.2065
 5248SOL     OW27205   3.050   3.728  16.580 -0.1563 -0.1000 -0.1031
 5248SOL    HW127206   3.116   3.768  16.636 -2.3269  2.9733  0.2272
 5248SOL    HW227207   3.107   3.684  16.515 -0.4897  0.6688 -0.9122
 5249SOL     OW27208   0.728   1.931   4.604 -0.2048 -0.5903 -0.5013
 5249SOL    HW127209   0.818   1.900   4.600 -0.0212 -0.2114  0.7265
 5249SOL    HW227210   0.680   1.850   4.621 -0.6836  0.1758  1.9162
 5250SOL     OW27211   2.340   3.059   7.274 -0.3832  0.1105  0.2810
 5250SOL    HW127212   2.433   3.077   7.287 -0.5091  1.2887 -0.4131
 5250SOL    HW227213   2.345   2.982   7.330 -0.5306 -0.5217 -0.5691
 5251SOL     OW27214   1.703   3.669   0.172 -0.2808 -0.4627 -0.7028
 5251SOL    HW127215   1.662   3.690   0.089  0.0154  1.3992 -0.3890
 5251SOL    HW227216   1.792   3.642   0.149  0.4145  0.6760  0.6474
 5252SOL     OW27217   1.205   2.065   9.155  0.0030 -0.4304  0.0622
 5252SOL    HW127218   1.247   2.139   9.199  0.1522 -0.7289  0.4282
 5252SOL    HW227219   1.279   2.051   9.097 -0.2627 -2.4631  0.1998
 5253SOL     OW27220   4.611   1.271   0.374 -0.2389 -0.7186  0.3647
 5253SOL    HW127221   4.538   1.258   0.313 -0.5005 -0.2029  0.5713
 5253SOL    HW227222   4.687   1.259   0.316 -1.7073 -0.3869 -1.6096
 5254SOL     OW27223   4.431   2.629   8.693  0.2035  0.5007  0.4234
 5254SOL    HW127224   4.382   2.648   8.772 -0.2992 -0.0059  0.2298
 5254SOL    HW227225   4.490   2.705   8.690 -0.2513  0.7931 -1.3092
 5255SOL     OW27226   2.312   2.995  11.740  0.4582  0.1694 -0.2578
 5255SOL    HW127227   2.309   2.909  11.698  0.3092 -0.3970  0.9183
 5255SOL    HW227228   2.240   2.996  11.804 -0.0047  0.5058 -0.7907
 5256SOL     OW27229   2.273   1.800   5.336 -0.2180  0.6209  0.4960
 5256SOL    HW127230   2.330   1.843   5.400 -0.6019  0.3784  1.0021
 5256SOL    HW227231   2.332   1.734   5.302 -0.3572 -0.6595  2.6932
 5257SOL     OW27232   0.153   0.206   8.497 -0.4784 -0.3636  0.0807
 5257SOL    HW127233   0.224   0.196   8.560  0.4669  1.5360 -0.6875
 5257SOL    HW227234   0.150   0.302   8.494  4.2796 -0.3713 -3.6042
 5258SOL     OW27235   1.829   0.868   8.376 -0.6156  0.0870 -0.3642
 5258SOL    HW127236   1.924   0.856   8.371 -0.6085 -0.2563  0.5915
 5258SOL    HW227237   1.795   0.779   8.384  1.1083 -0.6509 -1.1928
 5259SOL     OW27238   3.362   3.098  16.803  0.0099 -0.7428  0.3251
 5259SOL    HW127239   3.305   3.036  16.847 -1.2283 -0.1490 -0.4499
 5259SOL    HW227240   3.331   3.095  16.712  2.0137 -0.8319 -0.3541
 5260SOL     OW27241   1.386   1.606   9.815 -0.0736  0.0496  0.1716
 5260SOL    HW127242   1.300   1.575   9.786  0.6983 -1.9139 -0.0390
 5260SOL    HW227243   1.375   1.653   9.897  2.1793  0.0331  0.4604
 5261SOL     OW27244   2.149   1.936   4.137  0.1707 -0.3002 -0.0338
 5261SOL    HW127245   2.055   1.946   4.151  0.4579  1.1068  0.9271
 5261SOL    HW227246   2.166   1.961   4.046 -1.8447  0.2096 -0.2718
 5262SOL     OW27247   0.979   3.491   5.050 -0.6705 -0.0918 -0.0389
 5262SOL    HW127248   0.903   3.502   5.107  0.7626 -2.2905  2.2879
 5262SOL    HW227249   1.014   3.579   5.063  0.1764 -0.2231 -1.4233
 5263SOL     OW27250   3.801   3.988   3.038  0.6795  0.4470  0.2982
 5263SOL    HW127251   3.753   3.984   3.121  0.1488  1.1730  0.0328
 5263SOL    HW227252   3.860   4.063   3.047  1.0117  0.1670  0.4759
 5264SOL     OW27253   4.558   4.487   7.955  0.2527  0.8036  0.2010
 5264SOL    HW127254   4.615   4.474   7.880  0.0090  0.8396  0.0118
 5264SOL    HW227255   4.581   4.415   8.015  0.7168 -1.3601 -2.5782
 5265SOL     OW27256   1.183   0.003   6.100  0.6549 -0.8695  0.6737
 5265SOL    HW127257   1.236   4.685   6.167  2.3265  0.1074 -0.0298
 5265SOL    HW227258   1.092   4.699   6.102  0.5494 -0.4979  1.4575
 5266SOL     OW27259   1.455   3.939   1.218 -0.1303 -0.5310  0.6029
 5266SOL    HW127260   1.536   3.980   1.186 -0.6523  1.6527  2.0905
 5266SOL    HW227261   1.388   3.998   1.183  1.7942  0.2505 -1.8210
 5267SOL     OW27262   2.722   3.859   8.152  0.0456  0.8874  0.7839
 5267SOL    HW127263   2.784   3.786   8.155 -0.1933  0.6831  0.6570
 5267SOL    HW227264   2.755   3.922   8.218  0.4620  0.4660  0.9799
 5268SOL     OW27265   0.134   2.430   5.089 -0.4579 -0.2762  1.0752
 5268SOL    HW127266   0.039   2.437   5.085 -0.4636 -0.6778  0.5644
 5268SOL    HW227267   0.172   2.518   5.086  0.3384 -0.7242 -1.7173
 5269SOL     OW27268   3.745   2.339   6.699  0.3862  0.1794 -0.2902
 5269SOL    HW127269   3.654   2.347   6.727  0.0160 -3.6683 -0.3508
 5269SOL    HW227270   3.763   2.246   6.687  0.4333  0.0608  0.7454
 5270SOL     OW27271   2.192   1.730   4.313 -0.1034  0.6201  0.0009
 5270SOL    HW127272   2.168   1.795   4.247  1.0109  0.3526 -0.6618
 5270SOL    HW227273   2.118   1.726   4.374 -0.4273  1.2746 -0.3536
 5271SOL     OW27274   0.870   1.333   4.341 -1.0871  0.6610  0.5658
 5271SOL    HW127275   0.832   1.290   4.418  1.6090 -0.7570  1.1099
 5271SOL    HW227276   0.895   1.258   4.287  0.2043 -0.7948  3.1202
 5272SOL     OW27277   4.488   4.294  12.588 -0.6497  0.5264 -0.3082
 5272SOL    HW127278   4.497   4.219  12.529  0.3361 -0.5872  1.2920
 5272SOL    HW227279   4.559   4.349  12.554 -0.7709  2.6033  2.8548
 5273SOL     OW27280   2.242   3.984   3.129  0.6192 -0.2762 -0.0430
 5273SOL    HW127281   2.234   3.908   3.071  1.8925 -0.3817 -0.0720
 5273SOL    HW227282   2.158   3.986   3.175  1.3975  0.9518  1.3326
 5274SOL     OW27283   1.407   2.043   8.989  0.1896 -0.4175 -0.1037
 5274SOL    HW127284   1.441   1.954   8.994  1.9916  0.2041 -1.4912
 5274SOL    HW227285   1.411   2.056   8.894  2.1713 -0.9392 -0.0924
 5275SOL     OW27286   0.413   1.889   6.240  0.0621 -0.3724  0.1259
 5275SOL    HW127287   0.507   1.871   6.235  0.2970  1.0626 -0.5335
 5275SOL    HW227288   0.418   1.980   6.210  2.3490 -0.9023 -1.1489
 5276SOL     OW27289   0.530   4.163   0.926  0.1288 -0.6597  0.0084
 5276SOL    HW127290   0.449   4.174   0.877 -0.0868  2.0765  0.9837
 5276SOL    HW227291   0.539   4.243   0.978  0.2681 -1.0108  0.5244
 5277SOL     OW27292   0.989   3.154   3.914  0.1775 -0.2694  0.0222
 5277SOL    HW127293   1.000   3.140   4.008 -2.6946 -1.2092  0.2012
 5277SOL    HW227294   0.905   3.109   3.916  0.7772 -1.4981 -1.6379
 5278SOL     OW27295   2.821   4.325   6.095 -0.9712  0.1609 -0.2229
 5278SOL    HW127296   2.794   4.290   6.179 -3.8390  1.7088 -0.5075
 5278SOL    HW227297   2.867   4.399   6.135  0.5450  0.0993 -1.8307
 5279SOL     OW27298   0.984   2.583   1.765 -0.0856  0.1605  0.2000
 5279SOL    HW127299   1.050   2.631   1.713 -0.1599  0.6593  0.5679
 5279SOL    HW227300   0.949   2.528   1.694  2.0728  0.4403 -1.0978
 5280SOL     OW27301   2.822   3.815   3.217  0.1422  0.3541 -0.1454
 5280SOL    HW127302   2.853   3.740   3.268  1.4004 -0.1729 -1.6545
 5280SOL    HW227303   2.898   3.834   3.161  0.8150  1.6708  1.2192
 5281SOL     OW27304   1.236   2.418   2.220 -0.4672  0.0242  0.7493
 5281SOL    HW127305   1.180   2.345   2.192  0.5575 -0.9579  1.2350
 5281SOL    HW227306   1.202   2.490   2.168  2.5662  1.0126  0.1357
 5282SOL     OW27307   3.148   3.508   5.057  0.3236  0.3806 -0.4183
 5282SOL    HW127308   3.059   3.502   5.092  1.0681 -0.4285  1.3129
 5282SOL    HW227309   3.135   3.432   4.999  0.7806  1.7519 -2.3221
 5283SOL     OW27310   2.926   2.206   8.385  0.1811 -0.9609 -0.1142
 5283SOL    HW127311   2.883   2.149   8.322 -0.7125 -0.5852  0.1604
 5283SOL    HW227312   2.889   2.172   8.467  1.8558  1.5617  1.7028
 5284SOL     OW27313   3.188   3.796   4.705 -0.6656  0.8187  0.1010
 5284SOL    HW127314   3.234   3.753   4.777  2.6170  2.6050 -0.9536
 5284SOL    HW227315   3.197   3.731   4.636  0.9731 -1.1844  2.1914
 5285SOL     OW27316   0.695   1.242  14.868  0.5659  0.0411 -0.0997
 5285SOL    HW127317   0.654   1.246  14.954  0.4573  1.5396 -0.2180
 5285SOL    HW227318   0.773   1.188  14.876  1.0269  1.0307  2.0153
 5286SOL     OW27319   0.246   4.546   4.193 -0.0491 -0.5239  0.5301
 5286SOL    HW127320   0.192   4.571   4.268 -2.5313 -2.3124 -0.6314
 5286SOL    HW227321   0.180   4.491   4.150 -1.0973  0.6100  0.6830
 5287SOL     OW27322   4.669   3.840  11.992  0.0844  0.1512  0.5178
 5287SOL    HW127323   4.669   3.925  12.035 -2.2724  1.3225 -1.7835
 5287SOL    HW227324   4.642   3.861  11.902  3.3825 -1.4970 -0.8796
 5288SOL     OW27325   1.608   0.678   7.686 -0.0205 -0.0683  0.2014
 5288SOL    HW127326   1.517   0.708   7.693  0.5571  2.1645 -1.9049
 5288SOL    HW227327   1.646   0.721   7.762  0.7318 -1.3701  0.5653
 5289SOL     OW27328   3.051   1.652   4.639 -0.1578 -0.0689  0.2951
 5289SOL    HW127329   3.122   1.708   4.606 -0.8570  0.0185 -1.0329
 5289SOL    HW227330   3.095   1.626   4.720 -0.1907 -1.2430 -0.0707
 5290SOL     OW27331   3.451   3.146  13.074 -0.1187 -0.0805  0.3463
 5290SOL    HW127332   3.389   3.087  13.116  1.3756 -2.5912 -0.9266
 5290SOL    HW227333   3.518   3.150  13.142  0.0167 -0.6917  0.2501
 5291SOL     OW27334   2.162   0.950   7.057 -0.2307  0.0762  0.4285
 5291SOL    HW127335   2.169   0.957   6.962 -0.3703  2.0738  0.5601
 5291SOL    HW227336   2.251   0.952   7.092 -0.2120 -0.3412  0.3963
 5292SOL     OW27337   3.440   0.686   9.861 -0.6752  0.2096 -0.2873
 5292SOL    HW127338   3.391   0.647   9.934  0.4354 -0.0002  0.3398
 5292SOL    HW227339   3.416   0.628   9.789  0.3242 -0.1546 -0.3224
 5293SOL     OW27340   2.565   2.856  17.381  0.0011  1.3016 -0.9957
 5293SOL    HW127341   2.625   2.827  17.312  2.1059 -0.9634  1.7646
 5293SOL    HW227342   2.596   2.946  17.392 -0.1244  1.1350  0.7377
 5294SOL     OW27343   1.923   0.091  11.009 -0.7028 -0.4452  0.3195
 5294SOL    HW127344   1.976   0.081  11.088  2.4283  1.1671 -1.5728
 5294SOL    HW227345   1.932   0.182  10.981 -0.9118 -0.8714 -1.1176
 5295SOL     OW27346   0.464   3.732   4.167  0.2417  0.7108 -0.0430
 5295SOL    HW127347   0.457   3.758   4.075 -1.1685  0.8263  0.0863
 5295SOL    HW227348   0.398   3.664   4.173  0.0920  0.9276  0.8041
 5296SOL     OW27349   0.132   2.701   8.335 -0.6946 -0.0667 -0.5264
 5296SOL    HW127350   0.143   2.642   8.261  0.1798 -1.0102  0.3570
 5296SOL    HW227351   0.037   2.698   8.331 -0.7535  1.1612 -0.1819
 5297SOL     OW27352   4.211   0.375   7.715 -0.3496 -0.4295  0.1130
 5297SOL    HW127353   4.253   0.290   7.707  1.2694  0.4589 -0.7509
 5297SOL    HW227354   4.285   0.436   7.720 -2.8639  2.6212  0.4266
 5298SOL     OW27355   1.456   1.428   5.497 -0.0121 -0.6116  0.3356
 5298SOL    HW127356   1.542   1.387   5.511  0.0965  0.4125  2.6310
 5298SOL    HW227357   1.420   1.373   5.428  0.1467 -1.6612  1.0827
 5299SOL     OW27358   3.529   2.234  15.625  0.0832 -0.3048 -0.3475
 5299SOL    HW127359   3.621   2.240  15.599 -0.0222  0.3139 -0.5761
 5299SOL    HW227360   3.549   2.218  15.717  1.1697  2.8443 -0.0583
 5300SOL     OW27361   1.441   3.805   6.970 -0.3540 -0.2254 -0.5019
 5300SOL    HW127362   1.435   3.762   6.885 -0.5841  1.0946 -1.1601
 5300SOL    HW227363   1.472   3.887   6.930 -0.0251  0.6269  1.5014
 5301SOL     OW27364   0.586   1.384  12.782  0.0216  0.0604 -0.4432
 5301SOL    HW127365   0.621   1.406  12.869  0.3044 -1.0654 -0.2719
 5301SOL    HW227366   0.493   1.391  12.802  0.1901 -0.0002  0.3689
 5302SOL     OW27367   1.250   1.586   2.651 -0.1612 -0.2469  0.3930
 5302SOL    HW127368   1.170   1.618   2.692 -0.2910 -0.0980  0.0267
 5302SOL    HW227369   1.241   1.491   2.643 -0.3609 -0.3199  1.5115
 5303SOL     OW27370   1.310   3.976   7.858  0.8371  0.1425  0.3840
 5303SOL    HW127371   1.393   3.941   7.891 -0.2575 -1.4940  1.3986
 5303SOL    HW227372   1.284   3.895   7.816  0.0963  1.1056 -1.0199
 5304SOL     OW27373   2.197   2.865  10.395  0.3037 -0.1905 -0.0476
 5304SOL    HW127374   2.117   2.896  10.352 -0.4300 -3.6427 -1.2224
 5304SOL    HW227375   2.209   2.774  10.366 -1.5370 -0.2127 -0.7083
 5305SOL     OW27376   1.198   2.851   8.696 -0.0750  0.2680 -0.3032
 5305SOL    HW127377   1.215   2.761   8.668  2.4354  0.0964  1.7744
 5305SOL    HW227378   1.200   2.838   8.790  1.7374 -1.7227 -0.6153
 5306SOL     OW27379   3.968   4.092  13.903 -0.2407 -0.2840  0.6221
 5306SOL    HW127380   4.017   4.111  13.823 -1.6376 -1.8557 -0.6065
 5306SOL    HW227381   4.035   4.100  13.971 -1.7904  3.6119  1.6758
 5307SOL     OW27382   3.647   3.215  12.472  0.1736  0.5449 -0.2481
 5307SOL    HW127383   3.622   3.228  12.381  3.4451 -1.0897 -1.3912
 5307SOL    HW227384   3.722   3.274  12.457  1.4311 -0.6457  1.3957
 5308SOL     OW27385   4.541   1.440  11.422  0.4154  0.3517  0.3932
 5308SOL    HW127386   4.582   1.522  11.396  0.3525  0.6727  1.3073
 5308SOL    HW227387   4.486   1.471  11.494  0.7060 -0.9663  1.1884
 5309SOL     OW27388   2.805   3.491   8.787 -0.2302  0.5545 -0.2516
 5309SOL    HW127389   2.893   3.515   8.758 -0.9193  3.0390 -0.3077
 5309SOL    HW227390   2.820   3.456   8.875  0.0909  0.0781 -0.4918
 5310SOL     OW27391   1.586   2.487   2.305 -0.1933 -0.1628 -0.0343
 5310SOL    HW127392   1.588   2.575   2.342  0.0020 -0.1711 -0.0216
 5310SOL    HW227393   1.655   2.498   2.239 -0.9886  1.3732 -0.6025
 5311SOL     OW27394   0.889   3.641   6.355  0.4097  0.2859 -0.0960
 5311SOL    HW127395   0.805   3.596   6.360  0.0035  1.0741  0.0067
 5311SOL    HW227396   0.933   3.587   6.289 -0.9571 -2.8281  1.5176
 5312SOL     OW27397   0.397   0.162   8.662 -0.1254 -0.0898  0.1680
 5312SOL    HW127398   0.448   0.139   8.740  0.7811  1.7745  0.1197
 5312SOL    HW227399   0.368   0.246   8.697  1.2400  0.6266 -0.4197
 5313SOL     OW27400   1.566   1.698   8.442  1.1009  0.5171 -0.3584
 5313SOL    HW127401   1.598   1.768   8.385 -0.9061  0.6328 -1.3611
 5313SOL    HW227402   1.576   1.625   8.381  1.9296  0.6724 -0.4088
 5314SOL     OW27403   4.549   0.762   3.799  0.7627 -0.2925 -0.1076
 5314SOL    HW127404   4.462   0.795   3.821  1.2222 -0.0623  1.3514
 5314SOL    HW227405   4.596   0.831   3.846  1.2606 -0.0469 -0.9696
 5315SOL     OW27406   0.153   2.040  17.187 -0.1285 -0.3975  0.5452
 5315SOL    HW127407   0.207   2.114  17.216  0.3126 -0.5336  0.0620
 5315SOL    HW227408   0.099   2.011  17.261 -0.2179  1.4766  1.2060
 5316SOL     OW27409   3.116   2.711   1.882 -0.1791  1.0416  0.3726
 5316SOL    HW127410   3.149   2.687   1.796  1.7979 -3.6518  2.4209
 5316SOL    HW227411   3.173   2.787   1.895 -0.1592  0.8890  1.1944
 5317SOL     OW27412   1.650   0.965  10.165 -0.1609  0.3612 -0.4155
 5317SOL    HW127413   1.707   0.894  10.138  0.0712 -1.3072  4.4101
 5317SOL    HW227414   1.688   0.993  10.248 -0.5316 -1.9258  0.5160
 5318SOL     OW27415   1.162   3.349  16.488 -0.3497 -0.0587  0.3616
 5318SOL    HW127416   1.155   3.320  16.397 -0.3376  1.5129 -0.1519
 5318SOL    HW227417   1.183   3.441  16.470  0.0301 -0.3650 -0.7757
 5319SOL     OW27418   4.283   1.350  13.666 -0.5393 -0.3801 -0.3553
 5319SOL    HW127419   4.311   1.435  13.702 -0.2309 -0.6892  0.1235
 5319SOL    HW227420   4.203   1.341  13.717  1.0494 -0.6750  2.0840
 5320SOL     OW27421   1.296   4.122   7.118  0.2928 -0.6044  0.1784
 5320SOL    HW127422   1.383   4.084   7.132  1.0644  0.1543 -2.5958
 5320SOL    HW227423   1.310   4.195   7.178 -0.6586  0.0992 -0.4642
 5321SOL     OW27424   0.260   3.914   4.559 -0.0592  0.1619  0.9567
 5321SOL    HW127425   0.311   3.980   4.513  0.5339 -1.7456 -1.1140
 5321SOL    HW227426   0.211   3.962   4.626 -0.3439 -0.0137  0.8733
 5322SOL     OW27427   1.087   0.732   4.266 -0.6088 -0.6217 -0.1607
 5322SOL    HW127428   1.076   0.732   4.171  2.3311 -0.4517 -0.5161
 5322SOL    HW227429   1.171   0.775   4.285 -1.7232  2.0983 -1.3922
 5323SOL     OW27430   3.477   0.375  12.967  0.0389  0.1209  0.1145
 5323SOL    HW127431   3.482   0.397  13.060  2.4759  0.4945 -0.1226
 5323SOL    HW227432   3.468   0.280  12.980  1.3579  0.0696  0.5696
 5324SOL     OW27433   3.772   3.152   9.795 -0.6753  0.3434 -0.0876
 5324SOL    HW127434   3.707   3.112   9.853  1.2697 -0.8829  1.2256
 5324SOL    HW227435   3.722   3.161   9.714 -1.4665 -0.9727  0.2490
 5325SOL     OW27436   3.989   2.065   5.120 -0.5878 -0.2874  0.0709
 5325SOL    HW127437   3.923   2.071   5.190 -1.1474  1.9697 -0.6365
 5325SOL    HW227438   3.953   2.004   5.055 -1.7536 -0.9903  1.3698
 5326SOL     OW27439   4.653   0.095   8.694 -0.1759  0.8733  0.1385
 5326SOL    HW127440   4.718   0.151   8.736 -0.9603  4.2868 -3.2064
 5326SOL    HW227441   4.577   0.152   8.686 -1.6453 -1.2609 -1.1540
 5327SOL     OW27442   0.080   0.899   3.432  0.1452  0.1070 -0.0570
 5327SOL    HW127443   0.163   0.887   3.384  0.9071  0.5680  1.1508
 5327SOL    HW227444   0.034   0.827   3.389  1.0065 -0.2803 -0.3395
 5328SOL     OW27445   3.001   2.387   3.379  0.2150 -0.2077 -0.0432
 5328SOL    HW127446   3.035   2.320   3.319 -0.5810  0.5446 -1.3260
 5328SOL    HW227447   2.907   2.373   3.367 -0.1522  1.3147  1.0784
 5329SOL     OW27448   3.219   1.811   7.032  0.1120  0.0645 -0.2260
 5329SOL    HW127449   3.293   1.858   7.072 -0.0129 -0.0793  0.1739
 5329SOL    HW227450   3.255   1.728   7.002 -1.5845 -0.5436 -0.5781
 5330SOL     OW27451   2.109   4.233   1.678 -0.4049  0.4654  0.2739
 5330SOL    HW127452   2.024   4.253   1.719 -0.7071 -0.7714  0.2715
 5330SOL    HW227453   2.100   4.141   1.652  1.0473  0.2808  0.4601
 5331SOL     OW27454   1.718   2.573   7.308 -0.3740  0.5781 -0.5584
 5331SOL    HW127455   1.784   2.622   7.259 -1.1550  0.4433 -1.7366
 5331SOL    HW227456   1.655   2.642   7.326  1.4556  1.7942  1.1821
 5332SOL     OW27457   2.911   1.246  15.169  0.1892 -0.0621  0.1405
 5332SOL    HW127458   2.858   1.172  15.139 -0.2735  0.1880  0.3420
 5332SOL    HW227459   2.936   1.276  15.082  1.3605 -0.5577  0.2997
 5333SOL     OW27460   3.712   2.750   5.934  0.4834  0.3567  0.4345
 5333SOL    HW127461   3.711   2.841   5.964 -0.1622  0.0392  1.3844
 5333SOL    HW227462   3.688   2.712   6.019 -2.3875 -1.2702 -1.0999
 5334SOL     OW27463   4.346   2.443  15.061  0.2414  0.1698 -0.3293
 5334SOL    HW127464   4.319   2.535  15.060 -0.8925 -0.1713 -1.1712
 5334SOL    HW227465   4.396   2.439  15.142  0.2922  0.1500 -0.3612
 5335SOL     OW27466   0.163   2.398   0.866  0.2171 -0.2148 -0.3721
 5335SOL    HW127467   0.090   2.460   0.866  0.5280  0.1553  0.3119
 5335SOL    HW227468   0.142   2.350   0.946  1.6766 -0.2149 -0.0042
 5336SOL     OW27469   2.120   3.306   1.917  0.1750 -0.4527 -0.1495
 5336SOL    HW127470   2.179   3.332   1.846  0.9589  0.0815  0.7001
 5336SOL    HW227471   2.039   3.309   1.866 -2.7126  1.9250  4.5813
 5337SOL     OW27472   3.292   2.971  13.241 -0.3349 -0.2364  1.1268
 5337SOL    HW127473   3.316   2.991  13.331  2.6185  1.0524  0.0626
 5337SOL    HW227474   3.301   2.877  13.223 -2.8322 -0.3849  0.7007
 5338SOL     OW27475   3.622   3.444  11.135  0.0652 -0.3103 -0.5119
 5338SOL    HW127476   3.548   3.448  11.075  0.7867  1.2564 -1.2967
 5338SOL    HW227477   3.689   3.422  11.071 -0.2892 -0.8347 -0.6995
 5339SOL     OW27478   3.256   1.391  12.613  0.0962  0.2579  0.2383
 5339SOL    HW127479   3.269   1.365  12.704 -0.4084  0.0502  0.2517
 5339SOL    HW227480   3.167   1.368  12.589 -0.4618  1.3615  1.2629
 5340SOL     OW27481   2.426   0.681   7.572  0.1692 -0.1868 -0.0191
 5340SOL    HW127482   2.451   0.729   7.651 -0.5039  1.3476 -0.7423
 5340SOL    HW227483   2.396   0.597   7.608  0.0809  0.0877  0.5410
 5341SOL     OW27484   0.292   0.323  12.038  0.4768  0.0432  0.2235
 5341SOL    HW127485   0.205   0.311  12.002  0.7426 -0.3456 -0.2864
 5341SOL    HW227486   0.294   0.418  12.055 -0.6493 -0.4193  3.0039
 5342SOL     OW27487   3.539   2.202   6.106  0.9199  0.2066 -0.0388
 5342SOL    HW127488   3.624   2.204   6.061  1.5946 -2.2454  1.1506
 5342SOL    HW227489   3.551   2.264   6.179 -0.6256  0.5985 -0.1281
 5343SOL     OW27490   4.071   4.464   0.764  0.3419 -0.0546 -0.8509
 5343SOL    HW127491   4.059   4.522   0.839  0.1776  0.3997 -1.2283
 5343SOL    HW227492   4.040   4.381   0.798 -0.1343  0.6470  0.4243
 5344SOL     OW27493   1.525   1.683   8.898 -0.2632  0.5324  0.6159
 5344SOL    HW127494   1.483   1.688   8.984 -3.6871  0.3888 -1.0834
 5344SOL    HW227495   1.446   1.668   8.846  0.2537  0.1525 -0.0563
 5345SOL     OW27496   2.998   3.802   2.403 -0.0128 -0.3320 -0.2909
 5345SOL    HW127497   2.973   3.788   2.312 -0.3646 -0.6833 -0.1354
 5345SOL    HW227498   2.948   3.880   2.427  1.8000  0.6677  0.3012
 5346SOL     OW27499   4.591   2.799   2.353 -0.3174 -1.1172  0.0691
 5346SOL    HW127500   4.523   2.753   2.402  1.1687 -0.8572  2.3774
 5346SOL    HW227501   4.611   2.872   2.412 -0.9867 -1.7875  1.1291
 5347SOL     OW27502   4.458   4.439   9.072 -0.2381  0.1298  0.1561
 5347SOL    HW127503   4.478   4.517   9.022 -1.3101 -0.9825 -2.0008
 5347SOL    HW227504   4.463   4.479   9.159 -0.5125  1.0326 -0.2469
 5348SOL     OW27505   2.342   2.474   5.660  0.1557  0.0123  0.5111
 5348SOL    HW127506   2.314   2.447   5.573  0.4217 -2.1066  1.0863
 5348SOL    HW227507   2.262   2.485   5.710  0.0604 -0.9254  0.5548
 5349SOL     OW27508   1.501   0.127   1.333 -0.0508  0.0698 -0.2360
 5349SOL    HW127509   1.414   0.159   1.355 -0.1769  0.4245 -1.2254
 5349SOL    HW227510   1.546   0.209   1.313 -2.2737  1.3014 -0.2211
 5350SOL     OW27511   2.900   2.819   5.143  0.5122 -0.0533  0.6544
 5350SOL    HW127512   2.842   2.802   5.069  0.7750 -0.2052  0.4864
 5350SOL    HW227513   2.835   2.843   5.210 -2.3782 -2.6269 -1.2437
 5351SOL     OW27514   0.486   0.363   7.018  0.0782  1.0108 -0.0014
 5351SOL    HW127515   0.521   0.367   6.928 -4.1517  0.8217 -1.6307
 5351SOL    HW227516   0.542   0.298   7.061 -0.1337  1.1105  0.4239
 5352SOL     OW27517   2.663   0.456   5.040  0.0689 -0.1560  0.0192
 5352SOL    HW127518   2.651   0.516   5.113 -0.2479  0.3631 -0.4584
 5352SOL    HW227519   2.575   0.440   5.006 -0.1098  0.0705  0.3796
 5353SOL     OW27520   2.482   4.327  17.555  0.2699 -0.2579  0.0676
 5353SOL    HW127521   2.487   4.282  17.639  0.4019  1.6863  1.0886
 5353SOL    HW227522   2.544   4.394  17.583 -1.0282  1.2620 -0.6992
 5354SOL     OW27523   4.087   1.689   5.874  0.5614  0.2798 -1.0564
 5354SOL    HW127524   4.070   1.783   5.860  1.3674  0.9202  2.1763
 5354SOL    HW227525   4.179   1.701   5.850  1.2681  0.3374  1.5722
 5355SOL     OW27526   0.029   2.276   4.708  0.0653  0.6912 -0.5292
 5355SOL    HW127527   4.694   2.237   4.645  0.3060 -0.3333 -0.1306
 5355SOL    HW227528   0.045   2.364   4.675 -0.3809  1.8384  2.2958
 5356SOL     OW27529   1.893   3.762   8.121  0.1601  0.0967  0.5697
 5356SOL    HW127530   1.955   3.718   8.179 -2.1982 -2.1804  1.3424
 5356SOL    HW227531   1.951   3.829   8.084  1.9959 -2.0070 -0.3500
 5357SOL     OW27532   1.304   0.914   7.872 -1.0458  0.2233  0.1096
 5357SOL    HW127533   1.326   0.845   7.809  1.1065  2.3450 -1.4650
 5357SOL    HW227534   1.370   0.976   7.841 -1.1829  0.4930  0.3573
 5358SOL     OW27535   1.823   1.831   3.251  0.6673 -0.2939 -0.4373
 5358SOL    HW127536   1.878   1.754   3.264  0.1448 -0.4594  0.8208
 5358SOL    HW227537   1.773   1.822   3.332  1.5619 -0.1860  0.1234
 5359SOL     OW27538   2.866   3.563  10.321 -0.3601  0.2386  0.1740
 5359SOL    HW127539   2.937   3.499  10.314 -0.5077  0.1562 -0.4996
 5359SOL    HW227540   2.789   3.516  10.288  0.3216 -0.3631 -0.5673
 5360SOL     OW27541   3.929   2.576   0.322  0.0445 -0.1982 -0.1944
 5360SOL    HW127542   3.919   2.669   0.300  0.0636  0.2869  1.8274
 5360SOL    HW227543   3.965   2.556   0.236  0.1601 -1.5307  0.1624
 5361SOL     OW27544   2.782   0.622   5.544  0.9359  0.1198  0.1911
 5361SOL    HW127545   2.723   0.644   5.472  0.1583 -1.2775  0.4002
 5361SOL    HW227546   2.856   0.681   5.532 -0.7592  1.8006 -1.9504
 5362SOL     OW27547   2.646   0.718   8.898  0.5458  0.1442 -0.4310
 5362SOL    HW127548   2.678   0.690   8.984 -2.1004 -0.0475  0.4808
 5362SOL    HW227549   2.572   0.771   8.925  0.1690 -0.4832 -0.2320
 5363SOL     OW27550   0.405   1.930  17.415 -0.4359  0.3882  0.1066
 5363SOL    HW127551   0.444   1.968  17.494 -0.3432 -1.4726  0.9581
 5363SOL    HW227552   0.458   1.986  17.358  0.2691  0.1918  0.5616
 5364SOL     OW27553   1.069   2.507  16.545  0.1341  0.5808  0.2608
 5364SOL    HW127554   1.133   2.456  16.595  0.1907  0.5474  0.1550
 5364SOL    HW227555   1.114   2.483  16.464 -0.3359  0.9033 -0.0938
 5365SOL     OW27556   2.197   2.745   1.244 -0.1464  0.6383 -0.2404
 5365SOL    HW127557   2.257   2.746   1.319  1.0013 -0.8400 -1.1261
 5365SOL    HW227558   2.249   2.774   1.169 -1.8401 -0.9819 -2.0416
 5366SOL     OW27559   1.687   3.451  15.415 -0.4291  0.1617 -0.3234
 5366SOL    HW127560   1.755   3.510  15.380 -1.3615  1.8159  0.6634
 5366SOL    HW227561   1.747   3.377  15.412 -1.5318 -0.6994 -0.7326
 5367SOL     OW27562   0.674   0.680  13.658 -0.2112  0.0184 -0.2804
 5367SOL    HW127563   0.659   0.766  13.618 -0.7676  0.6562  1.3135
 5367SOL    HW227564   0.720   0.622  13.597  1.8551 -0.7311  2.0023
 5368SOL     OW27565   3.031   2.018   3.935  0.1284  0.0477  0.0530
 5368SOL    HW127566   2.996   2.018   3.846 -0.8653 -2.3856  0.4448
 5368SOL    HW227567   2.954   2.036   3.989 -0.0221 -0.2630 -0.0598
 5369SOL     OW27568   2.453   3.469   7.589  0.5513  0.8380 -0.6389
 5369SOL    HW127569   2.452   3.562   7.565  1.4183  0.4201 -2.3574
 5369SOL    HW227570   2.539   3.446   7.625  0.6106  1.5199 -0.3481
 5370SOL     OW27571   3.647   1.784   0.715 -0.2634 -0.2935 -0.0835
 5370SOL    HW127572   3.645   1.794   0.810 -2.5014 -0.6688 -0.0874
 5370SOL    HW227573   3.628   1.690   0.707  2.8706 -0.8285 -1.1329
 5371SOL     OW27574   3.366   1.932   8.989 -0.1495 -0.2064 -0.0780
 5371SOL    HW127575   3.363   1.899   9.079  1.9080 -1.1561 -0.3429
 5371SOL    HW227576   3.389   1.853   8.940 -0.1909 -1.1054  1.3639
 5372SOL     OW27577   1.730   1.410  10.813 -0.3048  0.5615 -0.0721
 5372SOL    HW127578   1.638   1.435  10.815 -0.4069  0.0941  1.3313
 5372SOL    HW227579   1.772   1.480  10.865  2.8685  0.0233 -1.8848
 5373SOL     OW27580   2.914   3.801   5.884  0.0177  0.0478  0.0041
 5373SOL    HW127581   2.987   3.764   5.932  1.1595  0.3673 -1.5000
 5373SOL    HW227582   2.920   3.890   5.917 -0.4627  0.4076 -0.8648
 5374SOL     OW27583   4.210   2.848   1.574  0.8310  0.1322 -0.2631
 5374SOL    HW127584   4.295   2.890   1.560  0.6495  0.9514  1.0264
 5374SOL    HW227585   4.175   2.916   1.632 -0.0780 -0.1576 -0.4777
 5375SOL     OW27586   1.452   2.396  10.756  0.2087 -0.1609  0.3528
 5375SOL    HW127587   1.379   2.342  10.786  0.3574 -0.4675  0.1775
 5375SOL    HW227588   1.437   2.481  10.797  0.0352  1.1258 -2.4003
 5376SOL     OW27589   4.451   2.985   1.920 -0.0428  0.5935  0.0040
 5376SOL    HW127590   4.478   2.923   1.988 -0.3977 -0.7802 -1.1281
 5376SOL    HW227591   4.443   3.068   1.967  1.4772 -1.3604  3.7469
 5377SOL     OW27592   0.024   4.154  13.271  0.2826  0.3946  0.0791
 5377SOL    HW127593   0.016   4.076  13.217 -2.9773  0.4476  0.4949
 5377SOL    HW227594   4.714   4.226  13.219 -1.5750 -0.6478 -0.1141
 5378SOL     OW27595   1.611   0.047   1.574 -0.2819  0.1054 -0.3040
 5378SOL    HW127596   1.542   0.079   1.632  1.4297  1.9827  0.7218
 5378SOL    HW227597   1.575   0.073   1.489  0.9713  3.0996  0.0715
 5379SOL     OW27598   1.826   3.026   5.828 -0.2647 -0.3390 -0.3486
 5379SOL    HW127599   1.893   3.011   5.895  0.8234  0.6145 -1.2222
 5379SOL    HW227600   1.793   2.938   5.812  1.9341 -0.9414 -1.5265
 5380SOL     OW27601   2.248   3.754   2.098  0.3611  0.1380 -0.6685
 5380SOL    HW127602   2.311   3.715   2.038  1.3683  0.7642 -0.0258
 5380SOL    HW227603   2.281   3.844   2.090  3.0181 -0.6326  1.6213
 5381SOL     OW27604   2.211   0.812   8.609 -0.6709  0.0625 -0.3976
 5381SOL    HW127605   2.132   0.770   8.641  0.9862 -3.5352 -1.0925
 5381SOL    HW227606   2.199   0.897   8.651 -0.9149 -1.1305  1.9186
 5382SOL     OW27607   1.160   1.811   1.588  0.1838 -0.2053 -0.7283
 5382SOL    HW127608   1.184   1.719   1.578 -1.5055 -0.8573  1.0957
 5382SOL    HW227609   1.168   1.817   1.684  0.4178 -2.7772 -0.5754
 5383SOL     OW27610   3.564   1.361  16.857  0.0073  0.7676  0.3010
 5383SOL    HW127611   3.583   1.450  16.888  0.3733  0.9140 -0.3529
 5383SOL    HW227612   3.645   1.314  16.873  0.8759  1.4777 -2.0358
 5384SOL     OW27613   0.627   3.933   3.314  1.0917 -0.3806  0.0735
 5384SOL    HW127614   0.709   3.982   3.326  1.8418 -0.9739 -2.5463
 5384SOL    HW227615   0.575   3.978   3.381 -0.7209  0.5363 -1.9392
 5385SOL     OW27616   2.058   0.609   9.059 -0.6177 -0.2887 -0.3417
 5385SOL    HW127617   2.141   0.590   9.104  0.2383 -0.3267 -1.9221
 5385SOL    HW227618   2.024   0.684   9.108 -0.1820 -0.9686  1.0024
 5386SOL     OW27619   0.993   2.080   8.927 -0.0247  0.6233 -0.3605
 5386SOL    HW127620   1.046   2.119   8.997 -0.3798 -1.2492  0.9557
 5386SOL    HW227621   0.983   2.157   8.871  0.6932  2.5147  2.1033
 5387SOL     OW27622   3.410   1.445   3.728  0.3296 -0.1081 -0.4046
 5387SOL    HW127623   3.487   1.396   3.701  0.4573  1.1492 -2.2915
 5387SOL    HW227624   3.448   1.532   3.718 -0.3220  0.4694  2.0614
 5388SOL     OW27625   3.782   2.521  15.441  0.0047  0.5965  0.7068
 5388SOL    HW127626   3.841   2.538  15.515 -0.7924 -1.3431  1.7818
 5388SOL    HW227627   3.840   2.550  15.370 -1.4141  0.9672 -0.2961
 5389SOL     OW27628   1.895   1.636   0.446 -0.0104 -0.0305 -0.2235
 5389SOL    HW127629   1.975   1.684   0.469  1.4853 -2.1109 -1.0365
 5389SOL    HW227630   1.906   1.618   0.353  1.6825 -0.3718  0.0291
 5390SOL     OW27631   3.500   1.457   8.957 -0.4424 -0.3036 -0.2481
 5390SOL    HW127632   3.521   1.367   8.981  0.2987  0.7428  2.9191
 5390SOL    HW227633   3.551   1.454   8.876  0.7160 -1.8087  0.5531
 5391SOL     OW27634   1.522   3.117   6.373  0.2008  0.5792 -0.3239
 5391SOL    HW127635   1.489   3.066   6.298  1.0820  2.7047 -2.1463
 5391SOL    HW227636   1.612   3.087   6.369  0.6442  2.0623 -1.7351
 5392SOL     OW27637   2.284   2.444  15.052 -0.1737 -0.1228  0.0378
 5392SOL    HW127638   2.221   2.460  15.122 -0.9831 -1.8780 -0.2821
 5392SOL    HW227639   2.355   2.472  15.110 -0.0602  1.0357 -0.6681
 5393SOL     OW27640   2.494   4.419   5.623 -0.1259  0.0454 -0.1313
 5393SOL    HW127641   2.551   4.486   5.586  2.6025 -2.7842 -1.0542
 5393SOL    HW227642   2.523   4.340   5.577 -2.1180  0.4914 -2.0964
 5394SOL     OW27643   0.696   0.959  12.516 -0.5998 -0.1294  0.0401
 5394SOL    HW127644   0.785   0.948  12.483 -0.7294  1.2746 -0.7611
 5394SOL    HW227645   0.712   0.979  12.609  2.3227  0.0679 -0.5207
 5395SOL     OW27646   0.369   2.007   2.488 -0.4055  0.1093  0.2372
 5395SOL    HW127647   0.364   2.093   2.448  0.2657 -0.4196 -0.9986
 5395SOL    HW227648   0.304   1.953   2.444  0.7831 -0.4701 -0.8123
 5396SOL     OW27649   4.245   4.263   4.638  0.5408  0.0839  0.7104
 5396SOL    HW127650   4.179   4.202   4.607  0.0567  0.2665  1.3823
 5396SOL    HW227651   4.224   4.261   4.732  1.3663 -1.3672  0.8724
 5397SOL     OW27652   0.142   2.231  15.487  0.5708 -0.2415 -0.3432
 5397SOL    HW127653   0.125   2.232  15.582 -0.4453  0.9335 -0.5377
 5397SOL    HW227654   0.108   2.319  15.467  0.4291  0.2444  1.9697
 5398SOL     OW27655   2.024   3.293   7.545  0.5427 -0.0656  0.0338
 5398SOL    HW127656   1.964   3.254   7.481  1.9584  0.2615 -1.5019
 5398SOL    HW227657   1.992   3.257   7.628  2.8419 -1.2570  0.4084
 5399SOL     OW27658   1.445   0.120   6.594 -0.6533 -0.2448  0.4444
 5399SOL    HW127659   1.443   0.208   6.555 -1.0256 -1.0660 -1.3801
 5399SOL    HW227660   1.538   0.100   6.600 -0.4545  0.3097 -0.8088
 5400SOL     OW27661   3.991   2.683   3.737 -0.0098  0.3047  0.0778
 5400SOL    HW127662   4.049   2.757   3.752 -1.7085  1.4270  1.1442
 5400SOL    HW227663   4.046   2.605   3.727 -1.5833 -0.8244  0.1980
 5401SOL     OW27664   0.066   2.337   2.980 -0.0587 -0.2442  0.4892
 5401SOL    HW127665   0.129   2.267   2.996  0.4771  0.2800  0.6458
 5401SOL    HW227666   0.108   2.376   2.903  1.0478 -0.3913  1.0275
 5402SOL     OW27667   3.372   1.378   9.269  0.3335 -0.0772 -0.3728
 5402SOL    HW127668   3.427   1.453   9.291  1.9643 -1.1165 -0.9046
 5402SOL    HW227669   3.369   1.367   9.174  1.9119  0.2065 -0.4421
 5403SOL     OW27670   1.876   3.527   5.496  0.1093 -0.2621  0.5626
 5403SOL    HW127671   1.862   3.441   5.537  2.2044 -1.3623 -0.9891
 5403SOL    HW227672   1.892   3.579   5.574  0.1245  0.8149 -0.1598
 5404SOL     OW27673   2.967   4.710   2.447  0.0761  0.6252  0.1072
 5404SOL    HW127674   2.992   4.679   2.360  1.0951  1.2947  0.1570
 5404SOL    HW227675   2.965   0.080   2.443 -1.4693  0.6190  0.6395
 5405SOL     OW27676   3.746   0.871   4.897  0.3436  0.0888  0.1169
 5405SOL    HW127677   3.655   0.841   4.907 -0.5134  3.0484  1.0581
 5405SOL    HW227678   3.735   0.951   4.847 -0.4273 -0.3650 -0.4448
 5406SOL     OW27679   0.100   1.441   6.432 -0.6357 -0.3239  0.0861
 5406SOL    HW127680   0.138   1.457   6.345  1.1717  1.5014  1.1979
 5406SOL    HW227681   0.145   1.509   6.482 -0.2086 -0.1934 -0.4716
 5407SOL     OW27682   1.552   4.652   2.149 -0.2179  0.1590  0.0162
 5407SOL    HW127683   1.603   4.661   2.230 -1.7414  4.6136  0.4939
 5407SOL    HW227684   1.570   4.560   2.129 -1.9006  0.1772 -1.4916
 5408SOL     OW27685   2.079   0.866  15.552  0.6744 -0.2252 -0.0717
 5408SOL    HW127686   2.004   0.868  15.611  0.8322  2.6836  0.0304
 5408SOL    HW227687   2.122   0.951  15.564 -2.8555  1.5653 -0.1176
 5409SOL     OW27688   4.291   2.848   5.450 -0.2357  0.2691  0.0855
 5409SOL    HW127689   4.243   2.831   5.530 -0.3031  1.2527  0.2493
 5409SOL    HW227690   4.365   2.898   5.486 -1.5316 -0.5694  3.8750
 5410SOL     OW27691   1.414   2.201   1.918 -0.0447  0.2055 -0.0926
 5410SOL    HW127692   1.390   2.109   1.930 -0.0910  0.0648 -1.2898
 5410SOL    HW227693   1.339   2.240   1.873  0.0006 -0.5428 -0.8213
 5411SOL     OW27694   2.951   3.960  11.137 -0.2390  0.0733  0.2136
 5411SOL    HW127695   3.038   4.000  11.137 -0.0959 -0.2374  0.1789
 5411SOL    HW227696   2.900   4.040  11.148  3.0047  1.8511  2.2159
 5412SOL     OW27697   1.916   4.392   1.961 -0.1914 -0.3511  0.0663
 5412SOL    HW127698   1.885   4.346   1.883  0.7634  2.1453 -1.7997
 5412SOL    HW227699   1.874   4.473   1.932  1.3938  0.1684 -0.7885
 5413SOL     OW27700   0.074   1.098   9.896 -0.2037  0.3606  0.0998
 5413SOL    HW127701   0.035   1.108   9.810 -2.3792 -4.9252  0.4492
 5413SOL    HW227702   0.139   1.167   9.888 -0.4172  0.4331 -1.0399
 5414SOL     OW27703   4.302   3.171   7.588  0.4917 -0.5201  0.5653
 5414SOL    HW127704   4.330   3.186   7.678 -2.0656 -2.7437  1.7434
 5414SOL    HW227705   4.309   3.077   7.571 -0.7581 -1.1734  3.8101
 5415SOL     OW27706   2.507   4.103   7.984 -0.1839  0.2538 -0.6726
 5415SOL    HW127707   2.564   4.177   8.007  2.3734 -0.6061 -4.1520
 5415SOL    HW227708   2.482   4.093   8.076 -0.4550  1.2978 -0.6278
 5416SOL     OW27709   4.255   2.266   4.269 -0.2294 -0.0571  0.0181
 5416SOL    HW127710   4.184   2.301   4.215  0.2539 -0.0881 -0.6310
 5416SOL    HW227711   4.235   2.288   4.360 -1.6860  3.3068 -1.0733
 5417SOL     OW27712   3.942   3.316   5.279 -0.0258 -0.2248  0.0333
 5417SOL    HW127713   3.866   3.260   5.287  0.3756 -0.6251  1.0400
 5417SOL    HW227714   4.005   3.244   5.287  4.7045  3.5696 -2.8368
 5418SOL     OW27715   1.125   4.380   6.980  0.7445 -0.0837  0.3194
 5418SOL    HW127716   1.083   4.338   6.905  1.5485 -1.1965  0.4929
 5418SOL    HW227717   1.171   4.308   7.024  2.7375  0.7729 -0.3374
 5419SOL     OW27718   3.798   1.433  12.945 -0.2479  0.4827  0.4648
 5419SOL    HW127719   3.873   1.429  13.005 -0.7265  0.0590  1.0289
 5419SOL    HW227720   3.799   1.338  12.945 -1.3327  0.4654 -2.8158
 5420SOL     OW27721   3.272   0.063   4.881 -0.3529  0.2479 -0.0115
 5420SOL    HW127722   3.261   0.122   4.806 -0.5988  0.7304  0.4058
 5420SOL    HW227723   3.261   4.703   4.839  0.7482 -0.9216  2.0681
 5421SOL     OW27724   3.220   0.710   3.242  0.3955 -0.1384  0.1679
 5421SOL    HW127725   3.163   0.773   3.198 -0.9255 -1.6346 -0.2451
 5421SOL    HW227726   3.209   0.636   3.183 -1.6602  2.7769 -3.1133
 5422SOL     OW27727   0.329   0.806   4.565 -0.1222  0.2442 -0.2899
 5422SOL    HW127728   0.300   0.879   4.509 -1.2922 -0.2090 -0.2534
 5422SOL    HW227729   0.418   0.839   4.583 -0.2444  2.0996 -3.0070
 5423SOL     OW27730   0.290   0.436   9.639 -0.3577  0.1291 -0.1068
 5423SOL    HW127731   0.264   0.392   9.558 -1.1218  1.3124 -0.5047
 5423SOL    HW227732   0.361   0.478   9.590 -1.7306  0.1729 -2.0708
 5424SOL     OW27733   3.548   3.180  12.182 -0.3325  0.4178 -0.4413
 5424SOL    HW127734   3.472   3.148  12.134 -1.2125  0.9590  0.5776
 5424SOL    HW227735   3.600   3.100  12.189  0.8262  1.2841  0.9353
 5425SOL     OW27736   0.281   2.398   6.971  0.4880 -0.4195  0.1408
 5425SOL    HW127737   0.332   2.331   6.925  1.7441  1.0449 -0.6229
 5425SOL    HW227738   0.309   2.383   7.061  0.1670  1.4603  0.5555
 5426SOL     OW27739   1.837   3.099   7.416 -0.4164  0.0698 -0.4476
 5426SOL    HW127740   1.832   3.021   7.473  0.0540  0.8958  0.7229
 5426SOL    HW227741   1.764   3.150   7.449 -0.9358 -0.6694 -0.4415
 5427SOL     OW27742   0.755   0.341   6.518 -0.2532  0.1721  0.2834
 5427SOL    HW127743   0.789   0.307   6.435  0.4853 -2.2177  1.5627
 5427SOL    HW227744   0.833   0.386   6.552  0.1667  0.5201 -1.1401
 5428SOL     OW27745   1.371   4.253  11.238  0.4633 -0.0046 -0.1531
 5428SOL    HW127746   1.418   4.192  11.295  0.9613  1.8497  1.4344
 5428SOL    HW227747   1.356   4.191  11.167 -0.0039  0.5207 -0.5136
 5429SOL     OW27748   3.751   2.782  10.751 -0.0374 -0.2862 -0.0734
 5429SOL    HW127749   3.819   2.810  10.690  1.5589 -2.2757  0.7728
 5429SOL    HW227750   3.808   2.771  10.827  2.1508  2.9325 -1.2514
 5430SOL     OW27751   2.966   3.749  15.067  0.6586  0.1249  0.5550
 5430SOL    HW127752   3.052   3.788  15.050  0.0828  1.1182 -0.0681
 5430SOL    HW227753   2.995   3.677  15.124 -0.5437 -0.9541 -0.2091
 5431SOL     OW27754   4.251   1.824  10.826  0.5023  0.0642 -0.2895
 5431SOL    HW127755   4.219   1.836  10.737 -1.7693  2.1419  0.7960
 5431SOL    HW227756   4.329   1.878  10.821  0.5282  0.1235  0.6750
 5432SOL     OW27757   2.971   4.528  16.493 -0.2287  0.3700 -0.3668
 5432SOL    HW127758   2.904   4.551  16.428 -0.0690 -2.1206 -1.4054
 5432SOL    HW227759   2.912   4.534  16.568 -1.2354 -2.2994 -0.9455
 5433SOL     OW27760   1.971   3.201   3.313  0.1425 -0.6624 -0.0652
 5433SOL    HW127761   2.065   3.214   3.306  0.0378 -1.1425 -2.4385
 5433SOL    HW227762   1.960   3.202   3.218  0.2123 -1.4437 -0.0812
 5434SOL     OW27763   4.556   0.563   1.698 -0.5632  0.2476 -0.3659
 5434SOL    HW127764   4.518   0.650   1.707  0.8649  1.1286 -2.7141
 5434SOL    HW227765   4.560   0.530   1.787 -1.4255  0.6220 -0.1902
 5435SOL     OW27766   0.851   3.874   8.661 -0.1502 -0.2037  0.5561
 5435SOL    HW127767   0.933   3.918   8.638 -1.1914  1.3857 -0.1091
 5435SOL    HW227768   0.868   3.871   8.755  2.7522 -1.0830 -0.0027
 5436SOL     OW27769   3.771   1.550  17.660  0.1807  0.2402  0.0330
 5436SOL    HW127770   3.796   1.608  17.588 -0.3825 -0.2605 -0.5664
 5436SOL    HW227771   3.801   1.610   0.025 -1.5671  1.2113 -0.0469
 5437SOL     OW27772   0.938   2.847  12.449  0.0132  0.3774  0.1227
 5437SOL    HW127773   0.874   2.905  12.491  1.1518  1.3195  0.5558
 5437SOL    HW227774   1.009   2.854  12.512  0.4800  0.4555 -0.4116
 5438SOL     OW27775   4.173   2.123   2.165 -0.0984  0.3160 -0.6278
 5438SOL    HW127776   4.185   2.195   2.227 -2.2756 -0.1099  0.3018
 5438SOL    HW227777   4.080   2.127   2.142  0.1251 -1.5959 -1.8077
 5439SOL     OW27778   0.175   0.460   0.361  0.0253 -0.3117  0.5607
 5439SOL    HW127779   0.207   0.499   0.443  1.6292  0.1383 -0.2711
 5439SOL    HW227780   0.117   0.529   0.328  0.6481 -0.7528 -1.4328
 5440SOL     OW27781   1.011   1.850   3.192 -0.1981 -0.2165 -0.5290
 5440SOL    HW127782   1.032   1.791   3.264 -1.4041 -0.2568 -0.2194
 5440SOL    HW227783   1.033   1.938   3.224 -1.0769 -0.4149  0.6261
 5441SOL     OW27784   3.361   1.861  11.650 -0.4375 -0.0844 -0.3857
 5441SOL    HW127785   3.362   1.920  11.575 -1.1318  0.3497 -0.0506
 5441SOL    HW227786   3.319   1.916  11.716 -1.8817  0.6578 -1.9367
 5442SOL     OW27787   3.112   0.486   3.083 -0.2143  0.0830  0.5448
 5442SOL    HW127788   3.030   0.532   3.063 -0.8390 -1.1610  0.1826
 5442SOL    HW227789   3.079   0.430   3.154  0.2356  0.6245  1.1846
 5443SOL     OW27790   1.392   0.736   9.016 -0.4810 -0.2079 -0.6129
 5443SOL    HW127791   1.389   0.681   8.937 -0.2513  1.2430 -1.6286
 5443SOL    HW227792   1.441   0.672   9.068 -1.0582 -0.7064 -0.6803
 5444SOL     OW27793   0.967   3.995  14.037  0.1178  0.4850  0.0458
 5444SOL    HW127794   1.006   3.908  14.026  0.9230  0.8605 -0.0605
 5444SOL    HW227795   0.928   3.985  14.124  0.9558 -0.5877  0.2961
 5445SOL     OW27796   2.937   0.978  10.043  0.9740  0.3723 -0.5371
 5445SOL    HW127797   2.961   0.894  10.082  0.9617  1.3398  1.5725
 5445SOL    HW227798   2.970   0.970   9.954  0.2702 -0.4592 -0.7305
 5446SOL     OW27799   1.867   3.832   2.242 -0.3388  0.1344 -0.2536
 5446SOL    HW127800   1.865   3.904   2.306  1.2363  1.4261 -1.6610
 5446SOL    HW227801   1.947   3.851   2.193 -1.0562  1.8206 -0.7759
 5447SOL     OW27802   1.840   1.540   7.884  0.0770  0.1607 -0.3198
 5447SOL    HW127803   1.865   1.479   7.953  2.3809 -0.0367 -1.3472
 5447SOL    HW227804   1.769   1.590   7.926  0.5220 -1.0563  1.9037
 5448SOL     OW27805   4.404   1.158   5.363  0.5981  0.4750  0.0266
 5448SOL    HW127806   4.320   1.127   5.397  0.5070  0.5981 -0.0865
 5448SOL    HW227807   4.431   1.083   5.310 -0.1005 -1.1343  1.9520
 5449SOL     OW27808   3.285   4.382   2.480 -0.6055  0.8029  0.0620
 5449SOL    HW127809   3.357   4.440   2.506  0.0830 -0.6624  1.4775
 5449SOL    HW227810   3.211   4.434   2.510 -0.7811  1.1897 -1.0691
 5450SOL     OW27811   1.874   3.707  17.648  0.1554  0.0951 -0.8209
 5450SOL    HW127812   1.790   3.752  17.640  0.1505  0.1639 -0.3729
 5450SOL    HW227813   1.912   3.750   0.021  0.0388 -0.5920 -0.3741
 5451SOL     OW27814   4.390   4.008   8.159 -0.9008  0.3597  0.5084
 5451SOL    HW127815   4.374   3.915   8.177 -1.4165  0.5102  0.8112
 5451SOL    HW227816   4.447   4.008   8.082 -2.1962  1.9408 -0.4289
 5452SOL     OW27817   3.157   0.329  17.301  0.3454 -0.1802  0.5736
 5452SOL    HW127818   3.219   0.345  17.372  0.5253  2.9520 -0.2580
 5452SOL    HW227819   3.155   0.235  17.288 -0.7626 -0.1999  0.9457
 5453SOL     OW27820   2.112   4.140   3.573  0.1418 -0.2479  0.5127
 5453SOL    HW127821   2.100   4.212   3.635  0.8163  0.0238  0.3331
 5453SOL    HW227822   2.035   4.151   3.517 -1.2871 -1.0276  2.3483
 5454SOL     OW27823   4.039   3.832   8.809 -0.4146  0.2763 -0.1045
 5454SOL    HW127824   3.999   3.774   8.744  2.0160  1.2377 -2.4376
 5454SOL    HW227825   4.121   3.786   8.823 -0.7036 -0.4227 -0.6709
 5455SOL     OW27826   0.641   2.756  15.073  0.4008  0.2655 -0.5765
 5455SOL    HW127827   0.596   2.801  15.144  3.0075  0.7935  0.7332
 5455SOL    HW227828   0.686   2.834  15.043 -0.5654  0.8355 -0.5513
 5456SOL     OW27829   4.688   3.605   2.174  0.2453  0.1326 -0.1074
 5456SOL    HW127830   4.712   3.512   2.164  0.3926  0.2760 -1.0557
 5456SOL    HW227831   4.723   3.618   2.262  2.3114  2.0626 -1.2294
 5457SOL     OW27832   4.500   1.688   8.886 -0.3806  0.0910 -0.3986
 5457SOL    HW127833   4.590   1.677   8.854 -1.0381 -1.0266 -1.8759
 5457SOL    HW227834   4.456   1.658   8.807 -0.5969 -0.1265 -0.1934
 5458SOL     OW27835   1.934   4.515   4.637 -0.1618  0.5532 -0.0806
 5458SOL    HW127836   1.840   4.500   4.648  0.3758 -2.3109  0.7932
 5458SOL    HW227837   1.959   4.492   4.726  0.1521 -2.7791 -1.0105
 5459SOL     OW27838   1.307   2.146   6.661 -0.0482 -0.7192  0.1793
 5459SOL    HW127839   1.389   2.099   6.673 -0.0732 -1.0025 -0.7946
 5459SOL    HW227840   1.237   2.087   6.635 -0.3824 -0.1367 -0.2374
 5460SOL     OW27841   4.082   0.003   6.322 -0.4621  0.2937  0.3579
 5460SOL    HW127842   4.158   0.051   6.289 -0.9124 -1.3506 -3.0661
 5460SOL    HW227843   4.074   4.664   6.251 -1.7726 -0.4619  1.1861
 5461SOL     OW27844   0.869   1.107   8.142  0.0025 -0.6420  0.0780
 5461SOL    HW127845   0.895   1.101   8.050 -1.2098  3.2394 -0.5447
 5461SOL    HW227846   0.948   1.148   8.176  0.1765 -0.3711 -0.6484
 5462SOL     OW27847   3.964   0.710   6.742  0.4710 -0.4202 -0.0502
 5462SOL    HW127848   3.913   0.670   6.812  1.7002  0.5110  1.3792
 5462SOL    HW227849   3.973   0.802   6.769  0.1713 -0.2008 -0.6994
 5463SOL     OW27850   4.407   0.508   6.625 -0.0930 -0.2786 -0.1780
 5463SOL    HW127851   4.325   0.461   6.611  1.2786 -3.2257  1.6835
 5463SOL    HW227852   4.379   0.593   6.658 -0.4229 -1.1872  1.8806
 5464SOL     OW27853   1.628   2.748  13.851  0.0865  0.2656 -0.9891
 5464SOL    HW127854   1.716   2.781  13.831  0.5510 -0.6080 -0.3767
 5464SOL    HW227855   1.585   2.762  13.767 -1.5983  1.1428  0.0099
 5465SOL     OW27856   3.953   4.540  11.422  0.3601 -0.4824  0.5037
 5465SOL    HW127857   3.985   4.455  11.389  1.5835  0.7618 -1.4889
 5465SOL    HW227858   3.896   4.582  11.358  1.3688  1.1642  0.6913
 5466SOL     OW27859   4.482   0.017   1.092 -0.2038 -0.3038  0.1721
 5466SOL    HW127860   4.467   4.649   1.108  0.5107  0.2059  3.9169
 5466SOL    HW227861   4.414   0.054   1.149  0.2257  1.5133 -0.4709
 5467SOL     OW27862   2.776   3.793  17.084 -0.2404 -0.0970 -0.1139
 5467SOL    HW127863   2.840   3.801  17.014 -1.7689 -0.9988 -1.6062
 5467SOL    HW227864   2.722   3.870  17.068 -2.6727 -1.5189  1.2575
 5468SOL     OW27865   2.826   2.036  16.535  0.3013  0.2814 -0.1452
 5468SOL    HW127866   2.745   2.076  16.505  0.3355 -0.1282 -0.7797
 5468SOL    HW227867   2.785   1.969  16.590 -0.3236  1.5314  0.9153
 5469SOL     OW27868   1.624   3.780   4.973  0.2502  0.3662 -0.3821
 5469SOL    HW127869   1.594   3.866   4.942 -2.2995 -0.0598  0.8964
 5469SOL    HW227870   1.708   3.802   5.014 -0.7600 -0.3024  2.0284
 5470SOL     OW27871   4.240   1.984   2.399  0.1238  0.0157 -0.3641
 5470SOL    HW127872   4.296   1.917   2.360 -1.6998 -0.1964 -2.6308
 5470SOL    HW227873   4.194   2.009   2.319  2.3707 -0.4787 -1.7906
 5471SOL     OW27874   4.384   2.897   7.122  0.5289  0.4578  0.1389
 5471SOL    HW127875   4.336   2.857   7.195 -1.0193  1.3493 -0.3859
 5471SOL    HW227876   4.432   2.822   7.086 -1.5790 -1.2818  0.8869
 5472SOL     OW27877   4.119   1.045  14.232  0.0296 -0.1559 -0.0953
 5472SOL    HW127878   4.113   1.002  14.147 -0.5397 -0.1925 -0.0410
 5472SOL    HW227879   4.162   1.129  14.215 -1.4892  0.6803  0.1656
 5473SOL     OW27880   3.619   3.903   2.590 -0.6035 -0.0221  0.2829
 5473SOL    HW127881   3.558   3.976   2.577 -0.6771 -0.6955 -3.1425
 5473SOL    HW227882   3.619   3.858   2.505  0.5365 -2.3532  1.5323
 5474SOL     OW27883   0.067   3.882   9.948 -0.1447  0.7233  0.1507
 5474SOL    HW127884   0.010   3.937   9.894 -1.1613 -1.2572 -0.7883
 5474SOL    HW227885   0.118   3.950   9.991 -1.7619  1.1478  1.3503
 5475SOL     OW27886   4.658   1.590   6.765  0.3092 -0.4618 -0.4279
 5475SOL    HW127887   4.654   1.524   6.695  1.0776 -2.7024  1.6788
 5475SOL    HW227888   4.593   1.557   6.826  0.8530  0.3260  0.5664
 5476SOL     OW27889   0.545   1.871   3.971  0.0726 -0.5641 -0.3054
 5476SOL    HW127890   0.482   1.936   4.002  0.5896  1.0049 -2.5422
 5476SOL    HW227891   0.489   1.823   3.910 -0.0599 -1.8577  0.8378
 5477SOL     OW27892   3.549   3.528  13.341 -0.0619  0.2626 -0.2059
 5477SOL    HW127893   3.630   3.571  13.369 -0.0388  0.3248 -0.3657
 5477SOL    HW227894   3.589   3.444  13.319 -1.1453 -1.2547  3.7673
 5478SOL     OW27895   1.202   1.778   9.286  0.2443 -0.6924  0.0723
 5478SOL    HW127896   1.167   1.791   9.374  1.3402 -0.4708  0.4698
 5478SOL    HW227897   1.224   1.870   9.271  1.0458 -1.0275 -0.8371
 5479SOL     OW27898   2.629   0.729   8.224  0.1640  0.3126  0.2239
 5479SOL    HW127899   2.665   0.642   8.242  1.8212  0.7328 -1.0563
 5479SOL    HW227900   2.535   0.711   8.234 -0.2472  1.7901 -0.9296
 5480SOL     OW27901   4.231   2.804   5.179  0.7639  0.1904  0.1994
 5480SOL    HW127902   4.316   2.769   5.153  0.7339  0.3620 -0.1360
 5480SOL    HW227903   4.250   2.831   5.269  1.0815 -1.5675  0.6488
 5481SOL     OW27904   2.017   3.606   8.538 -0.3815 -0.7423 -0.2801
 5481SOL    HW127905   1.924   3.583   8.550 -1.0953  1.8663 -0.8338
 5481SOL    HW227906   2.034   3.619   8.631 -0.8735  1.7357 -0.5302
 5482SOL     OW27907   4.237   4.207   1.263 -0.5092  0.2374 -0.0579
 5482SOL    HW127908   4.258   4.157   1.341 -0.5567 -4.3712 -2.9718
 5482SOL    HW227909   4.269   4.296   1.277 -2.0452  0.8951 -0.6285
 5483SOL     OW27910   1.616   1.912  12.478 -0.2991 -0.7829  0.0094
 5483SOL    HW127911   1.627   1.818  12.491  0.3591 -0.3949  2.2421
 5483SOL    HW227912   1.568   1.914  12.395  1.5468 -1.0163 -1.0727
 5484SOL     OW27913   1.006   0.814   4.512  0.2276 -0.2711 -0.1509
 5484SOL    HW127914   1.023   0.781   4.423 -0.8866 -3.3705  0.7993
 5484SOL    HW227915   1.100   0.815   4.534  0.0781  0.7381  0.4037
 5485SOL     OW27916   4.550   1.967   9.805  0.2155  0.0684  0.8648
 5485SOL    HW127917   4.487   2.036   9.822  0.3333 -0.1452  2.1781
 5485SOL    HW227918   4.510   1.911   9.738  0.9696  3.0359 -2.0632
 5486SOL     OW27919   0.646   1.770   2.303 -0.2590  0.1943 -0.2464
 5486SOL    HW127920   0.724   1.820   2.279  1.8833 -3.6046 -1.3832
 5486SOL    HW227921   0.656   1.694   2.245  3.8691 -0.1841  0.9485
 5487SOL     OW27922   0.486   1.558   8.103  0.5239 -0.5152  0.3152
 5487SOL    HW127923   0.539   1.556   8.182  0.7263  3.2454  0.2743
 5487SOL    HW227924   0.481   1.649   8.073  2.2459 -0.3814  0.4667
 5488SOL     OW27925   0.296   3.860   8.695  0.4210 -0.0199 -0.0709
 5488SOL    HW127926   0.387   3.880   8.719 -0.7308  0.6989  3.6796
 5488SOL    HW227927   0.268   3.952   8.695  2.9066  0.7433  0.7734
 5489SOL     OW27928   1.480   2.966  13.919  0.2630 -0.3197 -0.3031
 5489SOL    HW127929   1.516   2.880  13.895  1.6448  0.1754  0.0517
 5489SOL    HW227930   1.549   3.020  13.956 -1.0924 -0.7279  2.7947
 5490SOL     OW27931   3.028   1.790  12.153 -0.3338  0.3072  0.5606
 5490SOL    HW127932   3.109   1.760  12.196 -0.5685  0.2922  0.9876
 5490SOL    HW227933   3.002   1.854  12.219 -2.0594  0.9605 -0.7517
 5491SOL     OW27934   0.776   0.375   3.342  0.2430  0.1785 -0.2038
 5491SOL    HW127935   0.781   0.367   3.247 -2.2419 -0.1836 -0.3045
 5491SOL    HW227936   0.851   0.318   3.361 -1.0334 -1.5630 -0.4314
 5492SOL     OW27937   3.592   2.772   3.191 -0.4599 -0.1469 -0.5169
 5492SOL    HW127938   3.535   2.803   3.120  0.2125  0.4488 -0.8026
 5492SOL    HW227939   3.619   2.851   3.237  2.3450 -1.2237 -0.2788
 5493SOL     OW27940   0.400   2.420   2.048  0.0689  0.5699 -0.2229
 5493SOL    HW127941   0.364   2.490   1.994 -0.3713  0.9019  0.5184
 5493SOL    HW227942   0.461   2.472   2.101  0.5086  0.6989 -0.8421
 5494SOL     OW27943   2.247   1.070   8.782  0.0911 -0.2296 -0.5914
 5494SOL    HW127944   2.247   1.163   8.762  1.9854  0.3632  2.2123
 5494SOL    HW227945   2.174   1.074   8.843  1.1868 -2.0088  0.8441
 5495SOL     OW27946   0.166   2.310   9.504  0.1385 -1.2471 -0.0291
 5495SOL    HW127947   0.194   2.277   9.589 -3.1816 -0.9274  1.1988
 5495SOL    HW227948   0.212   2.393   9.514 -2.6358  0.3696 -0.6494
 5496SOL     OW27949   2.240   0.558   0.326 -0.7293  0.0284 -0.6662
 5496SOL    HW127950   2.327   0.596   0.314 -0.8178  0.3861 -0.2038
 5496SOL    HW227951   2.181   0.621   0.285  0.5084  0.6508 -1.4738
 5497SOL     OW27952   2.051   1.640  16.488 -0.1127  0.1868  0.2986
 5497SOL    HW127953   2.114   1.626  16.559  0.5026 -1.0583 -0.4878
 5497SOL    HW227954   1.986   1.692  16.536 -0.6781 -1.8026  1.6601
 5498SOL     OW27955   4.291   0.456   2.614  0.1093 -0.1063 -0.2162
 5498SOL    HW127956   4.233   0.412   2.552  0.2799  1.9550 -1.8302
 5498SOL    HW227957   4.227   0.516   2.653  0.4465 -0.4491  0.8643
 5499SOL     OW27958   0.288   4.141   6.434  0.0361  0.8110  0.1066
 5499SOL    HW127959   0.350   4.212   6.420 -1.3903  1.5863 -2.2553
 5499SOL    HW227960   0.246   4.164   6.517 -3.3203  1.2629 -1.7109
 5500SOL     OW27961   1.333   3.780   1.013  0.4738  0.2024  0.0850
 5500SOL    HW127962   1.343   3.866   1.053  1.3305 -0.1525  0.6356
 5500SOL    HW227963   1.414   3.734   1.035  0.1394 -0.4149  0.0326
 5501SOL     OW27964   0.018   1.305  15.213 -0.6447 -0.1143  0.2380
 5501SOL    HW127965   4.703   1.385  15.180 -0.1416 -0.7715 -1.9943
 5501SOL    HW227966   4.659   1.280  15.249 -1.3528  2.1387  0.1332
 5502SOL     OW27967   0.574   2.298   4.058  0.8674 -0.3550  0.0890
 5502SOL    HW127968   0.641   2.300   3.991  0.0987 -1.1862 -0.6951
 5502SOL    HW227969   0.622   2.286   4.140  0.3406 -2.6485  0.0480
 5503SOL     OW27970   2.740   1.421   4.904  0.1895 -0.1236  0.2722
 5503SOL    HW127971   2.683   1.497   4.909  1.0022  0.4976  0.0772
 5503SOL    HW227972   2.775   1.409   4.992  0.7468 -3.5767 -0.3994
 5504SOL     OW27973   0.322   2.656   2.943  0.5392 -0.1756 -0.3364
 5504SOL    HW127974   0.272   2.725   2.985  0.3081 -0.8413  0.4780
 5504SOL    HW227975   0.255   2.608   2.895  0.6806 -2.8847  2.1575
 5505SOL     OW27976   3.118   1.396   9.900 -0.3641 -0.3294 -0.2348
 5505SOL    HW127977   3.099   1.382   9.993 -3.0992  0.7968 -0.6490
 5505SOL    HW227978   3.076   1.313   9.876 -0.3656 -0.3927 -0.0176
 5506SOL     OW27979   3.872   2.749   7.541  0.4848 -0.2628  0.1136
 5506SOL    HW127980   3.940   2.683   7.556 -0.3803 -0.6776  2.3245
 5506SOL    HW227981   3.814   2.719   7.611  0.1991 -2.3352 -1.0503
 5507SOL     OW27982   0.634   2.886   8.494 -0.2318  0.5883  0.1109
 5507SOL    HW127983   0.558   2.843   8.456 -0.1956  0.3169  0.3437
 5507SOL    HW227984   0.673   2.829   8.561  0.6107 -0.6209 -1.4104
 5508SOL     OW27985   0.718   0.695   1.047 -0.9294 -0.3769  0.2381
 5508SOL    HW127986   0.638   0.667   1.002  0.4295 -3.4126 -0.2479
 5508SOL    HW227987   0.708   0.649   1.130 -0.5451  0.7257  0.8999
 5509SOL     OW27988   2.957   0.327  15.550 -0.5462 -0.1733  0.1727
 5509SOL    HW127989   2.944   0.421  15.557 -1.5713 -0.4648  2.3551
 5509SOL    HW227990   2.894   0.290  15.613 -0.1722 -1.1595 -0.0333
 5510SOL     OW27991   0.735   4.702  13.714 -0.6897  0.3288 -0.5913
 5510SOL    HW127992   0.784   0.052  13.682 -0.2771 -0.0296 -0.8072
 5510SOL    HW227993   0.801   4.638  13.739 -0.1898  1.3851  0.7655
 5511SOL     OW27994   4.539   0.615  13.741  0.0303 -0.3768  0.0921
 5511SOL    HW127995   4.569   0.691  13.791  2.5855 -1.0857 -0.3678
 5511SOL    HW227996   4.449   0.620  13.772  0.3571 -0.3550  1.0161
 5512SOL     OW27997   3.957   1.317  14.267  0.1565 -0.0837 -0.5833
 5512SOL    HW127998   3.962   1.222  14.264 -0.4794 -0.1068 -0.9511
 5512SOL    HW227999   4.007   1.343  14.190  0.5210 -0.0720 -0.3431
 5513SOL     OW28000   3.110   2.901   8.457  0.1338 -0.8949 -0.3996
 5513SOL    HW128001   3.020   2.924   8.434  0.3965 -0.2286 -0.7557
 5513SOL    HW228002   3.096   2.810   8.484  0.6697 -1.1175 -0.8795
 5514SOL     OW28003   3.132   0.699   2.057 -0.1536 -0.9599  0.2720
 5514SOL    HW128004   3.120   0.620   2.005  1.1097 -0.0964 -1.3445
 5514SOL    HW228005   3.189   0.667   2.127 -0.2875  1.8659  1.7036
 5515SOL     OW28006   1.716   2.543   7.856 -0.6365 -0.0033 -0.4580
 5515SOL    HW128007   1.693   2.505   7.941 -0.5453  0.7302 -0.1042
 5515SOL    HW228008   1.627   2.570   7.832 -0.0373  1.4007 -1.1144
 5516SOL     OW28009   2.837   0.613  16.369 -0.2897 -0.1431  1.2953
 5516SOL    HW128010   2.752   0.656  16.358 -1.3680 -2.2857  1.3442
 5516SOL    HW228011   2.891   0.649  16.299  1.5458 -1.5836  1.9954
 5517SOL     OW28012   0.778   1.659   5.189  0.2066  0.2108  0.1791
 5517SOL    HW128013   0.683   1.668   5.202  0.2074 -0.1336  0.4041
 5517SOL    HW228014   0.786   1.575   5.144  2.4529  0.0623  0.8590
 5518SOL     OW28015   1.943   2.675   7.196 -0.2231  0.9955 -0.1383
 5518SOL    HW128016   1.970   2.720   7.117 -0.7974  0.2148 -0.7753
 5518SOL    HW228017   2.013   2.697   7.258 -0.1581 -0.4938  0.3296
 5519SOL     OW28018   0.658   3.543  12.071  0.2301 -0.2432 -0.0609
 5519SOL    HW128019   0.743   3.564  12.111 -0.1358  0.6335  0.2384
 5519SOL    HW228020   0.633   3.615  12.013 -1.3363 -0.1826  0.6936
 5520SOL     OW28021   3.936   2.553   1.939 -0.0479  0.1761  0.1442
 5520SOL    HW128022   3.924   2.473   1.991  0.9965 -1.1928 -1.7385
 5520SOL    HW228023   3.875   2.537   1.867 -1.4659 -0.4323  1.4713
 5521SOL     OW28024   0.609   1.080   8.093  0.1766 -0.2751 -0.1312
 5521SOL    HW128025   0.634   1.132   8.016  1.1278 -0.9113 -0.2633
 5521SOL    HW228026   0.694   1.077   8.138  0.6828  1.7783 -0.9516
 5522SOL     OW28027   2.273   0.176   7.976 -0.0722  0.5023 -0.0773
 5522SOL    HW128028   2.335   0.212   7.914 -0.2894 -0.6802 -0.9761
 5522SOL    HW228029   2.331   0.133   8.038 -2.4009 -0.1650  1.6494
 5523SOL     OW28030   3.510   3.155   7.861 -0.2203 -0.1017  0.2326
 5523SOL    HW128031   3.574   3.084   7.853 -0.5195 -0.3395 -0.0147
 5523SOL    HW228032   3.447   3.119   7.923 -2.3006  0.0074 -1.8344
 5524SOL     OW28033   3.607   0.565   5.649  0.0126 -0.3250  0.0864
 5524SOL    HW128034   3.694   0.575   5.688 -0.1214  0.6137  0.1480
 5524SOL    HW228035   3.613   0.495   5.583  0.8364  0.6990 -0.9223
 5525SOL     OW28036   1.671   0.030   9.599 -0.6995 -1.3243  0.6958
 5525SOL    HW128037   1.707   0.112   9.632 -2.0686 -0.8083  0.9001
 5525SOL    HW228038   1.750   4.702   9.603 -2.7824 -4.2459  2.3544
 5526SOL     OW28039   2.829   1.033   8.377 -0.1826  0.1890 -0.9548
 5526SOL    HW128040   2.745   0.986   8.370 -0.7519  1.0380  0.1971
 5526SOL    HW228041   2.839   1.034   8.472  0.7097  2.4583 -1.0872
 5527SOL     OW28042   1.938   1.745   9.262 -0.0342  0.1006  0.4301
 5527SOL    HW128043   1.929   1.776   9.352 -2.1274  0.0614  0.2359
 5527SOL    HW228044   1.920   1.651   9.264  0.7372 -0.0444  0.8893
 5528SOL     OW28045   3.197   2.659   1.621 -0.1589  0.0180 -0.6534
 5528SOL    HW128046   3.177   2.740   1.576  1.8926  0.9719  0.1252
 5528SOL    HW228047   3.134   2.601   1.580 -0.2720  0.3947 -1.0060
 5529SOL     OW28048   0.444   3.210  12.964  0.1632 -0.3283  0.2586
 5529SOL    HW128049   0.481   3.147  12.901  1.2140 -1.0415  1.5850
 5529SOL    HW228050   0.522   3.262  12.980  0.2967  0.6689 -3.6497
 5530SOL     OW28051   0.451   0.044  15.848  0.8074  0.2539  0.4374
 5530SOL    HW128052   0.491   0.114  15.900  1.4495  0.7856 -0.7628
 5530SOL    HW228053   0.430   0.105  15.777  1.5756 -1.9186 -1.6450
 5531SOL     OW28054   0.402   2.083   1.402 -0.2914 -0.2468  0.3448
 5531SOL    HW128055   0.442   2.119   1.482 -2.1378  1.7493  0.3652
 5531SOL    HW228056   0.313   2.115   1.414  0.3660  1.0922  1.6304
 5532SOL     OW28057   3.292   3.317  16.408  0.5672  0.2065 -0.4800
 5532SOL    HW128058   3.234   3.250  16.373 -0.6612  1.7356 -1.3539
 5532SOL    HW228059   3.326   3.278  16.488  0.0197 -0.2937 -0.4938
 5533SOL     OW28060   2.144   0.286   5.393 -0.2234 -0.0567 -0.0793
 5533SOL    HW128061   2.169   0.318   5.480  0.1553  2.5866 -1.1625
 5533SOL    HW228062   2.207   0.217   5.370 -0.9387 -1.3276  1.7950
 5534SOL     OW28063   1.081   0.889   0.527  0.9546 -0.2453 -0.1023
 5534SOL    HW128064   1.024   0.953   0.483 -1.5710 -2.4754 -0.0278
 5534SOL    HW228065   1.103   0.822   0.463  0.0977  0.1922 -0.8607
 5535SOL     OW28066   1.291   0.672   5.811 -0.1525 -0.3479  0.3667
 5535SOL    HW128067   1.264   0.581   5.822  0.3016 -0.5458 -0.1666
 5535SOL    HW228068   1.236   0.702   5.739  0.5208 -0.4154 -0.1806
 5536SOL     OW28069   4.457   3.412   4.259  0.2959 -0.2748 -0.9498
 5536SOL    HW128070   4.417   3.447   4.339  0.4236  0.5264 -1.2396
 5536SOL    HW228071   4.392   3.350   4.226 -1.1307  0.3530  0.6878
 5537SOL     OW28072   1.475   0.661   2.532  0.1493  0.0079 -0.0153
 5537SOL    HW128073   1.456   0.643   2.440  2.4607 -3.0121  0.0914
 5537SOL    HW228074   1.508   0.751   2.533  0.0046  0.0391  1.9086
 5538SOL     OW28075   0.495   4.263   6.616 -0.0741 -0.6992  0.5247
 5538SOL    HW128076   0.517   4.172   6.595 -0.6243 -0.1776 -2.2698
 5538SOL    HW228077   0.579   4.298   6.644 -0.6045  0.7877  0.2411
 5539SOL     OW28078   1.630   3.052   4.787 -0.3603 -0.2699  0.2201
 5539SOL    HW128079   1.638   2.958   4.769  1.9516  0.1470 -0.9279
 5539SOL    HW228080   1.684   3.083   4.714  0.0160 -0.0114  0.6088
 5540SOL     OW28081   2.604   0.332   5.959  0.0378  0.2204 -0.2950
 5540SOL    HW128082   2.590   0.337   6.053  0.7153  2.1908 -0.2843
 5540SOL    HW228083   2.542   0.264   5.933  1.2484 -1.7094  1.8712
 5541SOL     OW28084   4.552   4.463   4.064 -1.1277  0.1101  0.5918
 5541SOL    HW128085   4.498   4.385   4.066 -1.7099  0.4906 -0.4044
 5541SOL    HW228086   4.537   4.505   4.149 -0.4028 -0.5098  1.0258
 5542SOL     OW28087   2.618   1.902   5.776  0.3826  0.5403  0.4729
 5542SOL    HW128088   2.547   1.878   5.716  0.5687 -0.0313  0.4738
 5542SOL    HW228089   2.606   1.842   5.850 -1.1952  0.5151  0.1985
 5543SOL     OW28090   3.929   0.709   8.016 -0.4703  0.2091  0.4658
 5543SOL    HW128091   3.932   0.796   8.057 -1.8806 -0.9970  3.0778
 5543SOL    HW228092   3.983   0.662   8.079 -1.4239 -1.9221 -0.3019
 5544SOL     OW28093   0.894   1.138   2.078  0.4398  0.1405 -0.3564
 5544SOL    HW128094   0.908   1.232   2.084 -0.4757  0.1869  1.2905
 5544SOL    HW228095   0.857   1.130   1.990 -1.3191 -0.6161  0.4324
 5545SOL     OW28096   3.669   1.464   2.090  0.1741  0.3203  0.0311
 5545SOL    HW128097   3.745   1.516   2.118  0.5232 -0.1672 -0.0115
 5545SOL    HW228098   3.613   1.473   2.167  0.9192 -1.2884  0.7658
 5546SOL     OW28099   1.661   1.412   4.087 -0.1248  0.5586  0.1091
 5546SOL    HW128100   1.707   1.331   4.064  0.3841  1.0603 -0.6536
 5546SOL    HW228101   1.607   1.419   4.009 -0.2800 -0.1229  0.1603
 5547SOL     OW28102   1.370   3.098  15.501 -0.1827  0.2284  0.3429
 5547SOL    HW128103   1.370   3.193  15.484  0.0055  0.4393  1.5223
 5547SOL    HW228104   1.462   3.072  15.503 -0.5959 -1.1520  1.2167
 5548SOL     OW28105   2.507   1.634   4.959  0.3335  0.5100 -0.9252
 5548SOL    HW128106   2.552   1.632   5.043  0.9159  1.1679 -1.2231
 5548SOL    HW228107   2.457   1.553   4.969 -0.8946  1.4587  0.8611
 5549SOL     OW28108   2.008   2.226   2.420 -0.2174  0.4915  0.2261
 5549SOL    HW128109   2.097   2.223   2.383 -0.5372  2.4476 -0.7338
 5549SOL    HW228110   1.987   2.319   2.414  1.4070  1.0251  2.9478
 5550SOL     OW28111   0.555   1.756   9.342 -0.0712 -0.2277 -0.5584
 5550SOL    HW128112   0.511   1.721   9.420 -1.3213 -2.3089 -2.1907
 5550SOL    HW228113   0.649   1.742   9.357 -0.5452 -0.3592  2.2257
 5551SOL     OW28114   0.580   2.143   5.592 -0.9367 -0.0239  0.1042
 5551SOL    HW128115   0.520   2.114   5.660 -1.3446 -1.7270 -0.9782
 5551SOL    HW228116   0.551   2.088   5.519 -1.0906  2.6049 -1.8374
 5552SOL     OW28117   4.342   4.402  10.359 -0.3449  0.0060  0.2013
 5552SOL    HW128118   4.427   4.428  10.325 -0.5653  0.8060  0.2550
 5552SOL    HW228119   4.344   4.457  10.438  1.5778 -1.2755  1.0575
 5553SOL     OW28120   3.186   3.427  14.684  0.4771 -0.3987  0.2793
 5553SOL    HW128121   3.219   3.431  14.774 -1.4452 -1.7218  1.0574
 5553SOL    HW228122   3.127   3.353  14.698 -1.3682  0.6534 -2.0521
 5554SOL     OW28123   0.734   0.560   1.273  0.0026  0.0671  0.0087
 5554SOL    HW128124   0.790   0.547   1.350  0.4732 -1.8426 -0.6601
 5554SOL    HW228125   0.750   0.485   1.217  2.6656 -0.3354  1.3234
 5555SOL     OW28126   3.371   2.689   2.836 -0.3342 -0.0649  0.1055
 5555SOL    HW128127   3.356   2.709   2.928 -1.6548 -2.2966  0.3911
 5555SOL    HW228128   3.439   2.621   2.842 -1.4367 -0.9974  2.1575
 5556SOL     OW28129   0.658   2.554   7.504  0.3790  0.3088  0.1798
 5556SOL    HW128130   0.719   2.559   7.430  0.0273  0.0233 -0.1287
 5556SOL    HW228131   0.586   2.593   7.455  1.2130  0.8946 -0.5765
 5557SOL     OW28132   2.546   3.155  10.171 -0.0114  0.4726 -0.3874
 5557SOL    HW128133   2.459   3.119  10.155  1.0380 -1.1414 -2.4286
 5557SOL    HW228134   2.579   3.131  10.084 -0.5375 -1.1386 -0.1290
 5558SOL     OW28135   2.217   3.758   2.963  0.0162  0.7096  0.3739
 5558SOL    HW128136   2.195   3.697   3.034  0.8886 -0.6103 -0.5103
 5558SOL    HW228137   2.218   3.702   2.886  0.6413  2.4817 -0.9166
 5559SOL     OW28138   3.095   2.424   5.284  0.2802  0.1249 -0.7151
 5559SOL    HW128139   3.117   2.481   5.210  2.4573  0.1631 -0.0329
 5559SOL    HW228140   3.172   2.369   5.299 -0.1847  0.0424  1.3834
 5560SOL     OW28141   0.481   0.809   9.308  0.4908  0.5163 -0.4764
 5560SOL    HW128142   0.432   0.882   9.344 -1.5031 -1.1041  0.0527
 5560SOL    HW228143   0.527   0.852   9.235 -4.1279  2.2531 -2.3307
 5561SOL     OW28144   0.987   3.970  15.085  0.5490 -0.4028 -0.0690
 5561SOL    HW128145   1.026   3.915  15.153 -1.7991 -1.8713  0.1136
 5561SOL    HW228146   1.004   3.909  15.013  0.4344 -0.2663 -0.2129
 5562SOL     OW28147   0.062   1.260   4.903 -0.3474  0.4465  0.4143
 5562SOL    HW128148   4.723   1.199   4.868 -1.0939  1.1079  0.6192
 5562SOL    HW228149   0.132   1.231   4.845 -0.4944  0.5217  0.2007
 5563SOL     OW28150   4.718   3.345   2.279 -0.1361  0.3611 -0.1744
 5563SOL    HW128151   4.681   3.377   2.361  0.3823  1.9657 -0.5756
 5563SOL    HW228152   0.034   3.266   2.315  0.8550  1.4659  1.0783
 5564SOL     OW28153   0.364   1.007  15.782 -0.2384 -0.6553  0.0338
 5564SOL    HW128154   0.382   1.076  15.718 -1.9595 -1.1893 -1.0202
 5564SOL    HW228155   0.363   1.061  15.861  1.3276  0.0623 -0.4340
 5565SOL     OW28156   0.713   2.080  11.873  0.3301  0.5819  0.3132
 5565SOL    HW128157   0.775   2.015  11.840 -0.3322 -0.3715  0.9481
 5565SOL    HW228158   0.721   2.143  11.801  0.4066 -1.9161 -1.8686
 5566SOL     OW28159   2.424   0.201   3.821  0.3826  0.8172 -0.2800
 5566SOL    HW128160   2.508   0.206   3.866  1.8012 -2.3523 -2.6245
 5566SOL    HW228161   2.438   0.242   3.736  1.4998 -0.9528 -0.9330
 5567SOL     OW28162   1.437   2.479   3.532  0.2206 -0.1436 -0.1486
 5567SOL    HW128163   1.442   2.564   3.488 -3.1327 -0.5464 -1.2322
 5567SOL    HW228164   1.452   2.418   3.460  3.6408  0.4385  0.0553
 5568SOL     OW28165   2.429   4.723   8.574  0.4104  0.6381  0.4108
 5568SOL    HW128166   2.515   0.021   8.608  0.8586 -1.1920  0.5312
 5568SOL    HW228167   2.387   4.706   8.658 -1.9076 -0.9959 -1.0595
 5569SOL     OW28168   0.295   1.260   6.968  0.4805 -0.0586  0.6317
 5569SOL    HW128169   0.259   1.345   6.994  0.1989 -0.1847  0.6605
 5569SOL    HW228170   0.213   1.243   6.922  1.1708  0.7198 -0.8890
 5570SOL     OW28171   2.977   1.370   5.961  0.0082  0.2974 -0.0862
 5570SOL    HW128172   2.968   1.416   5.878 -1.0155  0.3654  0.0577
 5570SOL    HW228173   2.898   1.399   6.007 -0.4268  1.3995 -1.5479
 5571SOL     OW28174   3.938   3.505  10.690 -0.3288 -0.4547 -0.0501
 5571SOL    HW128175   3.886   3.529  10.614 -0.6571 -1.7059 -0.2179
 5571SOL    HW228176   3.873   3.485  10.758  0.1461 -2.9637 -0.3231
 5572SOL     OW28177   0.287   2.998   7.293 -0.2602  0.1493 -0.1368
 5572SOL    HW128178   0.329   3.046   7.222 -0.5730 -1.2067 -1.2419
 5572SOL    HW228179   0.199   3.035   7.294 -1.3860 -2.5760  1.7590
 5573SOL     OW28180   0.710   4.063  16.342  0.4004  0.2937 -0.3075
 5573SOL    HW128181   0.653   4.099  16.275  0.7424  2.8471  0.7935
 5573SOL    HW228182   0.656   4.005  16.396 -1.0054  0.9744 -0.9885
 5574SOL     OW28183   3.278   2.087  16.797  0.2121 -0.4638  0.2392
 5574SOL    HW128184   3.225   2.098  16.717 -1.0489 -2.3367  0.8119
 5574SOL    HW228185   3.316   2.175  16.800 -0.8993  0.1585 -3.4775
 5575SOL     OW28186   1.617   4.427   0.325 -0.8631  0.1469 -0.1107
 5575SOL    HW128187   1.666   4.452   0.247  0.1996  2.8962  1.4497
 5575SOL    HW228188   1.634   4.505   0.378 -0.3915  1.9047 -2.8752
 5576SOL     OW28189   2.482   0.753   3.853 -0.6136  0.0483  0.0625
 5576SOL    HW128190   2.566   0.736   3.896 -1.3069  0.0280  1.3955
 5576SOL    HW228191   2.488   0.687   3.785  0.3112 -0.5515  0.7336
 5577SOL     OW28192   0.836   4.172   5.493  0.3738  0.3116  0.1674
 5577SOL    HW128193   0.759   4.143   5.541  0.6346  1.6001  1.3458
 5577SOL    HW228194   0.909   4.164   5.554 -0.4271 -0.5009  1.0163
 5578SOL     OW28195   1.272   0.923   4.288 -0.6634 -0.4390 -0.6850
 5578SOL    HW128196   1.266   0.973   4.369 -2.0922 -0.7716 -0.5919
 5578SOL    HW228197   1.255   0.989   4.220 -0.1500  1.1471  0.7401
 5579SOL     OW28198   1.938   3.075   3.037  0.1473  0.0237  0.1064
 5579SOL    HW128199   1.939   3.088   2.942  1.2226 -0.8927 -0.0039
 5579SOL    HW228200   2.021   3.028   3.047 -0.4317 -0.4562  2.5390
 5580SOL     OW28201   3.822   2.415   8.108 -0.2461 -0.4066 -0.3939
 5580SOL    HW128202   3.771   2.339   8.136  2.2930 -1.2229  2.0293
 5580SOL    HW228203   3.749   2.476   8.109 -0.4357 -0.6236 -1.1271
 5581SOL     OW28204   1.649   4.496   4.662  0.2179 -0.2031  0.5142
 5581SOL    HW128205   1.665   4.570   4.721  1.7343 -0.7410  0.7633
 5581SOL    HW228206   1.559   4.470   4.683 -0.2625  0.6690 -0.4404
 5582SOL     OW28207   0.698   1.379   5.356 -0.2848 -0.1113  0.2122
 5582SOL    HW128208   0.778   1.392   5.407 -1.3318 -0.1577  1.8614
 5582SOL    HW228209   0.627   1.419   5.406  0.1893 -0.1098  0.8988
 5583SOL     OW28210   0.825   3.109   8.297 -0.3726 -0.2412 -0.2955
 5583SOL    HW128211   0.749   3.147   8.342 -0.2910 -1.6131  0.9957
 5583SOL    HW228212   0.812   3.141   8.208 -0.6743  1.0905  0.2219
 5584SOL     OW28213   3.239   1.018  10.798 -0.8130  0.6535  0.0129
 5584SOL    HW128214   3.253   1.069  10.878  3.1052 -0.7766  0.2471
 5584SOL    HW228215   3.325   0.976  10.803  0.0536  2.3745 -0.7022
 5585SOL     OW28216   0.316   0.131  11.534 -0.5337 -0.1254 -0.3299
 5585SOL    HW128217   0.262   0.171  11.603  1.1956  2.0876 -0.2685
 5585SOL    HW228218   0.378   0.202  11.518 -2.0867  1.5218  0.8591
 5586SOL     OW28219   0.754   4.483   4.135  0.3553  0.0186 -0.3103
 5586SOL    HW128220   0.778   4.503   4.225 -2.0462  0.8930  0.1363
 5586SOL    HW228221   0.662   4.509   4.138  0.0794 -0.9388 -0.2433
 5587SOL     OW28222   0.044   2.161   5.177 -1.1998  0.7612  0.4441
 5587SOL    HW128223   0.075   2.244   5.141  0.8452 -0.8044 -1.4446
 5587SOL    HW228224   0.023   2.117   5.094  0.5342  0.2343  0.2962
 5588SOL     OW28225   2.478   4.555  17.072  0.3227 -0.3920 -0.1414
 5588SOL    HW128226   2.551   4.599  17.115 -0.7810  0.9823  0.3172
 5588SOL    HW228227   2.443   4.513  17.150 -2.9655 -1.7665 -2.3221
 5589SOL     OW28228   1.234   1.417   6.773 -0.5095  0.5176 -0.2678
 5589SOL    HW128229   1.224   1.384   6.684  0.5583 -0.7001  0.0597
 5589SOL    HW228230   1.228   1.513   6.765 -0.3183  0.3397 -2.4715
 5590SOL     OW28231   4.331   0.092   1.315 -0.1138 -0.3668  0.2637
 5590SOL    HW128232   4.416   0.133   1.332 -1.7516  2.8605  0.6037
 5590SOL    HW228233   4.265   0.150   1.353 -0.2445 -0.3824  0.0602
 5591SOL     OW28234   3.433   0.543  11.476 -0.1348 -0.5269 -0.0570
 5591SOL    HW128235   3.507   0.515  11.423  0.2848 -0.0898  0.2978
 5591SOL    HW228236   3.468   0.524  11.562 -1.3360 -1.3560  0.2505
 5592SOL     OW28237   4.568   0.366   4.706  0.7123 -0.4350 -0.5069
 5592SOL    HW128238   4.592   0.358   4.613  0.7016 -0.8747 -0.4714
 5592SOL    HW228239   4.536   0.456   4.699 -0.6289 -0.7608  1.6490
 5593SOL     OW28240   1.351   2.516   2.507 -0.1919  0.5217  0.8279
 5593SOL    HW128241   1.358   2.424   2.482 -0.7273  0.4918  0.7733
 5593SOL    HW228242   1.415   2.519   2.578  0.7259 -3.5637  0.1477
 5594SOL     OW28243   0.039   1.384   0.707 -0.4010 -0.0376  0.2070
 5594SOL    HW128244   4.686   1.360   0.658 -1.0870  1.2442  0.6945
 5594SOL    HW228245   0.041   1.480   0.699  0.2178 -0.1499 -1.0894
 5595SOL     OW28246   4.010   2.679   8.306  0.3307 -0.3973 -0.1960
 5595SOL    HW128247   4.019   2.584   8.317  2.5665 -0.0576  0.9003
 5595SOL    HW228248   4.098   2.696   8.273  1.3019 -1.1603  1.9715
 5596SOL     OW28249   2.839   3.647  13.810 -0.2910 -0.4593 -0.2725
 5596SOL    HW128250   2.801   3.649  13.722 -2.2348 -0.7457  0.5452
 5596SOL    HW228251   2.853   3.552  13.812 -0.5399 -0.5022 -0.4972
 5597SOL     OW28252   1.753   3.060  14.017 -0.2521 -0.8464  0.0829
 5597SOL    HW128253   1.791   3.000  13.953 -0.4205 -1.5808  0.6648
 5597SOL    HW228254   1.820   3.129  14.011 -2.2662  1.2024  1.2116
 5598SOL     OW28255   0.092   2.354   8.627  0.1117  0.5481 -0.3843
 5598SOL    HW128256   0.119   2.373   8.716 -0.0533  0.0641 -0.2300
 5598SOL    HW228257   0.084   2.434   8.575  0.0288  0.6563 -0.2009
 5599SOL     OW28258   0.543   1.735   6.878 -0.1345 -0.2153  0.1627
 5599SOL    HW128259   0.482   1.664   6.857 -1.3095  1.1040 -0.9293
 5599SOL    HW228260   0.597   1.735   6.799 -3.6652 -1.3343 -2.2807
 5600SOL     OW28261   3.694   4.289   8.303 -0.0848  0.0762  0.0485
 5600SOL    HW128262   3.744   4.297   8.222 -0.9453  1.0181 -0.3919
 5600SOL    HW228263   3.657   4.203   8.282  0.4440 -0.2009  0.2591
 5601SOL     OW28264   1.252   4.562  14.466  0.1492 -0.1547 -0.4572
 5601SOL    HW128265   1.282   4.599  14.549  0.2555  1.9544 -1.4336
 5601SOL    HW228266   1.160   4.590  14.471  0.5076  0.5703  2.4406
 5602SOL     OW28267   1.568   3.573   1.786 -0.0550 -0.8510  0.3011
 5602SOL    HW128268   1.560   3.500   1.847 -0.1426 -1.3444 -0.3045
 5602SOL    HW228269   1.483   3.616   1.784 -0.6218 -1.9927  0.3208
 5603SOL     OW28270   0.515   4.589  13.501 -0.1991  0.0541  0.0784
 5603SOL    HW128271   0.592   4.618  13.551 -0.1951 -3.5894  2.1563
 5603SOL    HW228272   0.555   4.581  13.415  0.9222 -1.9321  0.7853
 5604SOL     OW28273   2.583   2.624   9.084 -0.1473 -0.2407  0.3564
 5604SOL    HW128274   2.618   2.537   9.104 -3.2500 -1.2033  1.6410
 5604SOL    HW228275   2.643   2.630   9.010 -0.8150  0.4836 -0.1304
 5605SOL     OW28276   1.701   3.015  13.091 -0.5050  0.0893  0.3991
 5605SOL    HW128277   1.679   3.102  13.060  0.1136 -0.3007 -1.1832
 5605SOL    HW228278   1.794   3.031  13.072 -0.3071  1.2764  2.3875
 5606SOL     OW28279   4.309   1.518   6.265  0.0349 -0.6141 -0.1608
 5606SOL    HW128280   4.235   1.530   6.206 -1.3561 -0.6217  1.5689
 5606SOL    HW228281   4.383   1.483   6.217  0.5227 -2.0319  1.6214
 5607SOL     OW28282   1.277   1.928   0.904  0.4050 -0.5199  0.1946
 5607SOL    HW128283   1.305   1.928   0.996 -0.7937 -0.5296  0.5484
 5607SOL    HW228284   1.321   2.006   0.870 -1.3095  0.6039  0.6057
 5608SOL     OW28285   1.570   2.612  14.092  0.2517  0.3591 -0.2921
 5608SOL    HW128286   1.515   2.558  14.035 -0.2295  0.5696 -0.0227
 5608SOL    HW228287   1.606   2.668  14.024  1.6070 -1.4333 -1.0583
 5609SOL     OW28288   0.746   4.561   6.745 -0.0771  0.2586 -0.4637
 5609SOL    HW128289   0.726   4.496   6.812 -0.6025 -0.4267 -1.2806
 5609SOL    HW228290   0.807   4.518   6.685  0.2652  0.2971 -0.1403
 5610SOL     OW28291   4.382   3.631   5.853  0.5200 -0.5136  0.5828
 5610SOL    HW128292   4.399   3.721   5.880 -0.6717 -0.4000  0.9522
 5610SOL    HW228293   4.289   3.619   5.875  0.1314  1.6000  0.1138
 5611SOL     OW28294   0.691   0.784   0.569  0.5098 -0.1154 -0.3079
 5611SOL    HW128295   0.679   0.689   0.572  2.3566 -0.3806 -1.7425
 5611SOL    HW228296   0.770   0.794   0.623  0.0550  0.3574  0.2802
 5612SOL     OW28297   1.087   0.708   4.008 -0.0657  0.3827 -0.2216
 5612SOL    HW128298   1.033   0.680   3.935 -3.1984 -0.9243  2.6218
 5612SOL    HW228299   1.155   0.756   3.960  0.7474 -2.6427 -2.0179
 5613SOL     OW28300   4.687   0.442   8.494  0.0501  0.2319 -0.9522
 5613SOL    HW128301   4.651   0.366   8.540 -0.1663  0.4993 -0.6806
 5613SOL    HW228302   4.644   0.512   8.543  0.9261  0.4930 -0.5582
 5614SOL     OW28303   2.050   3.651   8.803 -0.3232  0.3949  0.4546
 5614SOL    HW128304   2.122   3.595   8.831 -2.3792 -1.4693  2.0535
 5614SOL    HW228305   2.004   3.679   8.882 -0.5011 -0.3898  0.6315
 5615SOL     OW28306   0.892   0.628   7.503  0.0164 -0.3788 -0.5939
 5615SOL    HW128307   0.863   0.661   7.588 -0.1503 -1.5493 -0.2020
 5615SOL    HW228308   0.819   0.655   7.447  1.2847  1.1045 -1.5404
 5616SOL     OW28309   2.840   2.097   7.346 -0.6006 -0.1911 -0.1764
 5616SOL    HW128310   2.879   2.103   7.259 -0.7243  0.7292 -0.1714
 5616SOL    HW228311   2.890   2.154   7.404 -0.5958  0.7113 -1.0527
 5617SOL     OW28312   3.464   4.123   2.530  0.4383 -0.3559 -0.2326
 5617SOL    HW128313   3.387   4.173   2.558 -0.9043 -0.8854 -2.9188
 5617SOL    HW228314   3.431   4.078   2.451 -2.5356 -0.3355  0.9830
 5618SOL     OW28315   4.201   3.631   9.145 -0.3510 -0.1690  0.5977
 5618SOL    HW128316   4.191   3.713   9.097  0.7282 -1.4945 -1.8815
 5618SOL    HW228317   4.110   3.602   9.140  0.1724 -1.5887 -0.7795
 5619SOL     OW28318   2.782   2.464   8.657  0.2573 -0.6632  0.1489
 5619SOL    HW128319   2.852   2.514   8.700  0.1297 -0.3820  0.0356
 5619SOL    HW228320   2.762   2.536   8.597 -0.0026 -1.5559 -0.8242
 5620SOL     OW28321   1.151   2.811   5.426 -0.3939 -0.1351  0.3010
 5620SOL    HW128322   1.208   2.872   5.472 -1.6314  1.5071 -0.3585
 5620SOL    HW228323   1.147   2.842   5.335  1.6625 -2.7697 -0.6819
 5621SOL     OW28324   0.802   2.134   7.830  0.5344  0.1082  0.7043
 5621SOL    HW128325   0.875   2.156   7.888 -0.4521 -1.5822  2.5924
 5621SOL    HW228326   0.734   2.182   7.877  1.0573  0.3195  1.2492
 5622SOL     OW28327   4.560   0.756   2.440  0.4201  0.1954  0.4938
 5622SOL    HW128328   4.517   0.812   2.376  0.2239 -0.0878  0.3774
 5622SOL    HW228329   4.509   0.679   2.415  1.2686 -1.1029  2.7428
 5623SOL     OW28330   3.144   2.086   8.929  0.5549 -0.4559  0.4543
 5623SOL    HW128331   3.225   2.038   8.950  1.5356  0.2446 -1.7832
 5623SOL    HW228332   3.143   2.133   9.012  1.7398 -1.1299  0.8614
 5624SOL     OW28333   0.702   0.083  12.973 -0.1517  0.1378 -0.2524
 5624SOL    HW128334   0.727   0.153  12.913  2.0562 -0.2806  0.1826
 5624SOL    HW228335   0.614   0.065  12.941  0.1421 -0.5794 -0.6653
 5625SOL     OW28336   2.500   0.746   9.761 -0.2345  0.1367  0.3337
 5625SOL    HW128337   2.577   0.694   9.736  1.3609  1.6671  2.1807
 5625SOL    HW228338   2.525   0.782   9.846  1.7987  1.0725 -0.6679
 5626SOL     OW28339   4.678   1.060  15.632 -0.0297 -0.2918 -0.2135
 5626SOL    HW128340   4.676   1.105  15.548 -0.6788  1.2939  0.6678
 5626SOL    HW228341   4.634   1.122  15.689 -0.5868 -1.1919  0.3385
 5627SOL     OW28342   1.329   2.234   7.271 -0.6265  0.3746  0.3001
 5627SOL    HW128343   1.338   2.292   7.195  0.3479  1.1122  0.9889
 5627SOL    HW228344   1.417   2.246   7.307 -0.8666  0.7686  0.7517
 5628SOL     OW28345   0.701   0.329  11.550 -0.2867 -0.3064 -0.1962
 5628SOL    HW128346   0.766   0.386  11.508 -0.1485 -0.8886 -0.7670
 5628SOL    HW228347   0.739   0.311  11.636 -1.1976 -0.0206  0.2612
 5629SOL     OW28348   4.294   3.014   8.567 -0.1884  0.5548  0.0140
 5629SOL    HW128349   4.265   3.096   8.528 -2.7058 -1.0771 -1.5513
 5629SOL    HW228350   4.378   3.038   8.606 -0.5252 -1.3020  1.9042
 5630SOL     OW28351   3.734   0.281   6.595 -0.3050  0.3698 -0.0206
 5630SOL    HW128352   3.820   0.246   6.571 -1.0350 -1.0383 -0.5582
 5630SOL    HW228353   3.738   0.358   6.538 -0.6788 -0.1865 -0.7877
 5631SOL     OW28354   1.239   1.625   8.881 -0.0470 -0.2375  0.0074
 5631SOL    HW128355   1.164   1.627   8.821 -0.7385  3.5065  0.9971
 5631SOL    HW228356   1.205   1.686   8.946  0.1292 -1.6020  1.3640
 5632SOL     OW28357   0.960   4.508   3.431  0.4620  0.6374  0.1400
 5632SOL    HW128358   1.026   4.439   3.422 -0.5129 -0.2072 -0.4590
 5632SOL    HW228359   0.982   4.564   3.506 -0.5939  2.1924 -0.7230
 5633SOL     OW28360   0.846   1.667  16.681  0.5764 -0.2467  0.2136
 5633SOL    HW128361   0.862   1.757  16.653  0.4319 -0.2293  0.1889
 5633SOL    HW228362   0.930   1.621  16.678  0.3858 -0.3649 -3.3520
 5634SOL     OW28363   1.959   1.465   3.053 -0.3403 -0.5438 -0.7782
 5634SOL    HW128364   1.945   1.513   3.135  0.1079 -0.6157 -0.6639
 5634SOL    HW228365   1.869   1.467   3.020 -0.1123 -0.2261 -1.3764
 5635SOL     OW28366   1.364   0.457   3.180 -0.0790  0.8061  0.3953
 5635SOL    HW128367   1.290   0.514   3.163  0.2898  0.9864 -0.5846
 5635SOL    HW228368   1.435   0.513   3.209  2.4842 -1.4021 -1.5758
 5636SOL     OW28369   0.347   2.993   3.375  0.0037  0.3478  0.3304
 5636SOL    HW128370   0.400   2.916   3.398 -2.5105 -1.6889 -0.7811
 5636SOL    HW228371   0.391   3.063   3.424  1.1661 -1.6382  2.1177
 5637SOL     OW28372   4.450   3.555   8.382 -0.4812 -0.0643  0.1654
 5637SOL    HW128373   4.497   3.624   8.428  0.4665 -2.1122  2.2573
 5637SOL    HW228374   4.448   3.491   8.453  0.4181 -1.1006 -0.7210
 5638SOL     OW28375   4.083   0.728   7.758  0.2502  0.2216  0.8646
 5638SOL    HW128376   3.995   0.763   7.745 -0.0149 -0.5806  0.4758
 5638SOL    HW228377   4.079   0.658   7.824  2.0345 -1.1331 -0.4561
 5639SOL     OW28378   2.856   1.987   4.531  0.1567 -0.0029 -0.5049
 5639SOL    HW128379   2.797   1.930   4.481  0.4591  0.9646 -1.9521
 5639SOL    HW228380   2.914   1.922   4.571 -0.8326 -1.0681 -0.7894
 5640SOL     OW28381   3.652   1.366   9.442 -0.2204  0.1106  0.0798
 5640SOL    HW128382   3.654   1.396   9.351  0.9696  0.4835  0.2271
 5640SOL    HW228383   3.587   1.428   9.476  1.5019  0.1201  3.3710
 5641SOL     OW28384   0.601   0.631   1.998 -0.3518 -0.2948 -0.3921
 5641SOL    HW128385   0.618   0.573   2.073  1.0038  2.3377  1.3117
 5641SOL    HW228386   0.520   0.675   2.024 -0.1457  0.4980 -1.1137
 5642SOL     OW28387   2.416   1.177   6.287 -0.0574  0.0232  0.3157
 5642SOL    HW128388   2.380   1.193   6.200  0.2816 -1.4345 -0.0957
 5642SOL    HW228389   2.505   1.159   6.254  0.1150 -0.6842  1.1621
 5643SOL     OW28390   2.276   2.831   5.687 -0.1171 -0.0957 -0.9064
 5643SOL    HW128391   2.197   2.783   5.662 -1.4056  0.7631  1.4749
 5643SOL    HW228392   2.239   2.916   5.709  1.4189 -0.0048  1.2500
 5644SOL     OW28393   0.408   2.864   1.315 -0.0410 -0.1127 -0.3737
 5644SOL    HW128394   0.409   2.769   1.329  1.6216  0.3091  2.4359
 5644SOL    HW228395   0.436   2.874   1.224  0.7445 -1.2529 -0.2652
 5645SOL     OW28396   3.848   4.280   4.505  0.4437 -0.5310 -0.0308
 5645SOL    HW128397   3.912   4.350   4.523 -0.2735 -0.3345  1.7010
 5645SOL    HW228398   3.877   4.256   4.417 -0.4380 -0.1009 -0.4332
 5646SOL     OW28399   2.457   0.360  13.784  0.5196 -0.1246  0.5330
 5646SOL    HW128400   2.539   0.316  13.759  1.1314  0.6350  1.1918
 5646SOL    HW228401   2.466   0.449  13.748 -3.0453 -0.3860 -1.0019
 5647SOL     OW28402   2.678   4.046   3.680  0.6712 -0.1543  0.2345
 5647SOL    HW128403   2.595   4.071   3.640 -1.2973 -0.9794  3.8560
 5647SOL    HW228404   2.700   3.965   3.635 -0.6053 -1.3994  1.8875
 5648SOL     OW28405   2.322   3.932   8.394  0.4289 -0.2292 -0.1191
 5648SOL    HW128406   2.323   3.865   8.462  0.8641 -1.4225 -1.2976
 5648SOL    HW228407   2.343   4.007   8.450  2.0314 -1.7961  1.3710
 5649SOL     OW28408   0.508   0.863   4.098  0.4456 -0.2024  0.0107
 5649SOL    HW128409   0.520   0.929   4.030 -0.2967 -2.3432 -2.1893
 5649SOL    HW228410   0.538   0.902   4.180 -2.6186 -0.6544  1.3373
 5650SOL     OW28411   3.363   0.155   9.560  0.1711  0.2004 -0.3847
 5650SOL    HW128412   3.435   0.131   9.618  0.4784  0.3830 -0.6920
 5650SOL    HW228413   3.287   0.111   9.596 -0.2311  1.2388  0.0520
 5651SOL     OW28414   2.015   2.337   7.854 -0.3442  0.4285  0.3865
 5651SOL    HW128415   1.980   2.417   7.814  0.2077  0.5374  0.1207
 5651SOL    HW228416   1.975   2.266   7.803  2.1007  0.6470 -1.7896
 5652SOL     OW28417   0.458   2.076  17.652  0.1189  0.5484 -0.1681
 5652SOL    HW128418   0.432   2.138   0.018  0.1048  1.1860 -0.7391
 5652SOL    HW228419   0.467   1.994  17.699 -0.0015  0.3291 -0.5283
 5653SOL     OW28420   1.829   1.943   6.760 -0.0259 -0.5141  0.2528
 5653SOL    HW128421   1.873   2.016   6.803  0.5438 -0.4488 -0.4332
 5653SOL    HW228422   1.832   1.884   6.835  1.5313 -3.6021 -2.2163
 5654SOL     OW28423   3.974   0.457   1.515 -0.7292 -0.2920 -0.3888
 5654SOL    HW128424   3.978   0.507   1.433  1.2763  0.8980  0.4192
 5654SOL    HW228425   3.879   0.444   1.519 -0.9162  1.7290  2.1741
 5655SOL     OW28426   2.571   3.249  16.489 -0.9123 -0.3927 -0.3224
 5655SOL    HW128427   2.505   3.301  16.443  0.5244 -2.5307 -4.7258
 5655SOL    HW228428   2.521   3.221  16.566 -1.9631  1.5528 -0.2926
 5656SOL     OW28429   0.108   0.382  17.295  0.3877 -0.2028 -0.5208
 5656SOL    HW128430   0.158   0.340  17.364 -1.6273 -2.0336 -0.1890
 5656SOL    HW228431   0.036   0.321  17.284  0.8590 -0.8085 -0.2326
 5657SOL     OW28432   3.235   2.929   7.172 -0.1856  0.1830 -0.1950
 5657SOL    HW128433   3.266   2.850   7.215 -0.1799 -0.8090 -2.0176
 5657SOL    HW228434   3.144   2.925   7.202  1.1050  0.9604  3.8133
 5658SOL     OW28435   1.570   1.266  13.779 -0.3318  0.4043 -0.1508
 5658SOL    HW128436   1.491   1.212  13.782 -0.9077  1.2138 -0.7460
 5658SOL    HW228437   1.533   1.340  13.827  0.2098  0.1336  0.6752
 5659SOL     OW28438   3.953   0.507   4.287  0.3791 -0.0559  0.0408
 5659SOL    HW128439   3.978   0.491   4.378 -0.7124  0.6431  0.4608
 5659SOL    HW228440   3.997   0.432   4.247  0.2838  0.5306 -1.1455
 5660SOL     OW28441   3.319   4.036   8.775  0.2483 -0.4859 -0.4580
 5660SOL    HW128442   3.325   3.958   8.830 -0.8700 -0.6849 -0.6163
 5660SOL    HW228443   3.410   4.035   8.747  0.1335 -1.3262 -0.8086
 5661SOL     OW28444   3.971   1.779  14.834  0.3080 -0.1031 -0.0326
 5661SOL    HW128445   3.891   1.815  14.796  2.3552  1.0834 -3.1678
 5661SOL    HW228446   4.020   1.756  14.755 -0.0266  0.0149 -0.2737
 5662SOL     OW28447   0.620   2.631   1.140  0.1330 -0.7527  0.4725
 5662SOL    HW128448   0.569   2.600   1.065 -3.2028 -0.7476  2.7753
 5662SOL    HW228449   0.677   2.699   1.103 -0.7100  0.0833  0.7035
 5663SOL     OW28450   3.795   0.010  11.794  0.1569  0.5088 -0.4122
 5663SOL    HW128451   3.867   4.720  11.734  0.5973 -1.7236  0.6766
 5663SOL    HW228452   3.720   0.017  11.735 -2.1075 -0.6605  2.3126
 5664SOL     OW28453   0.949   3.877   7.721  0.3154  0.2251  0.4872
 5664SOL    HW128454   0.890   3.803   7.737  0.6796 -0.3458 -0.8397
 5664SOL    HW228455   1.034   3.838   7.740 -0.6021 -2.4287 -0.8243
 5665SOL     OW28456   0.178   4.724   5.775 -0.4969 -0.8403 -0.4115
 5665SOL    HW128457   0.101   4.669   5.763 -2.3223  1.3420  1.4229
 5665SOL    HW228458   0.134   0.082   5.757 -2.9338 -2.2498 -0.9286
 5666SOL     OW28459   2.695   3.883   8.506  0.2039  0.0759 -0.1995
 5666SOL    HW128460   2.714   3.940   8.432  4.7314 -1.1781  0.0118
 5666SOL    HW228461   2.733   3.803   8.469  0.6547  0.1669  0.0724
 5667SOL     OW28462   2.739   0.576   3.947 -0.4347  0.2055 -0.0342
 5667SOL    HW128463   2.794   0.504   3.976  0.4142  0.9911  0.3036
 5667SOL    HW228464   2.808   0.633   3.914 -1.2820  0.4538 -1.3795
 5668SOL     OW28465   4.494   1.969  10.797 -0.0019 -0.4079  0.1722
 5668SOL    HW128466   4.576   1.959  10.845  1.7076  0.6887 -2.5028
 5668SOL    HW228467   4.526   2.040  10.742  0.1783 -0.9600 -0.4437
 5669SOL     OW28468   2.460   1.597   8.591 -0.4842 -0.2249  0.0982
 5669SOL    HW128469   2.388   1.659   8.609  1.4422  2.0440  0.0123
 5669SOL    HW228470   2.478   1.614   8.498 -2.9265 -0.1924 -0.3695
 5670SOL     OW28471   0.838   4.665   2.813 -0.1056 -0.0541 -0.5853
 5670SOL    HW128472   0.878   0.022   2.784 -0.5255  1.0585  1.9381
 5670SOL    HW228473   0.767   4.665   2.749  0.4205 -1.2197 -1.1761
 5671SOL     OW28474   3.377   3.257   3.803  0.2507  0.4502 -0.0582
 5671SOL    HW128475   3.444   3.197   3.836  0.6280  1.0436  0.2546
 5671SOL    HW228476   3.326   3.207   3.739 -1.7355  0.6936  1.3226
 5672SOL     OW28477   4.148   1.261   7.608 -0.1780  0.3384  0.1173
 5672SOL    HW128478   4.147   1.357   7.602  3.3066  0.3783  0.4746
 5672SOL    HW228479   4.199   1.243   7.687  1.3622 -1.7293 -1.3663
 5673SOL     OW28480   2.508   0.038   6.068  0.3040 -0.7812  0.0030
 5673SOL    HW128481   2.450   0.080   6.005 -0.0639 -0.3422  0.6268
 5673SOL    HW228482   2.518   4.676   6.030 -1.3079 -0.6674 -0.6795
 5674SOL     OW28483   3.810   1.093  12.373 -0.6117  0.1919 -0.5219
 5674SOL    HW128484   3.879   1.068  12.435  1.2847 -0.6974 -2.9962
 5674SOL    HW228485   3.812   1.189  12.370 -0.4591  0.2345  0.9931
 5675SOL     OW28486   4.582   3.625   7.677 -0.5343 -0.3117  0.1270
 5675SOL    HW128487   4.566   3.586   7.763 -0.0992  2.3140  1.3748
 5675SOL    HW228488   4.501   3.673   7.663 -1.2644 -1.9134 -1.2342
 5676SOL     OW28489   4.423   2.826   2.840 -0.1452 -0.2971 -0.6283
 5676SOL    HW128490   4.385   2.835   2.752 -2.5787  0.7610  0.5175
 5676SOL    HW228491   4.493   2.890   2.833  0.8915 -1.4236 -0.5100
 5677SOL     OW28492   3.759   1.034   3.189 -0.6397 -0.3233  0.1649
 5677SOL    HW128493   3.705   0.972   3.140  0.4264 -0.4426 -0.8515
 5677SOL    HW228494   3.777   1.106   3.129 -2.8270  0.3662  0.3126
 5678SOL     OW28495   1.975   0.769   0.420  0.2045  0.5442  0.0858
 5678SOL    HW128496   1.909   0.700   0.424 -0.6885  1.4374  0.6986
 5678SOL    HW228497   2.020   0.744   0.339 -1.5075  0.1951 -0.7440
 5679SOL     OW28498   1.850   2.528   5.408  0.3756  0.1585 -0.1460
 5679SOL    HW128499   1.785   2.467   5.373  0.4981  0.1859 -0.4161
 5679SOL    HW228500   1.824   2.613   5.373 -0.0404  0.3849  0.6949
 5680SOL     OW28501   2.884   0.977   4.783 -0.0065  0.3770 -0.0286
 5680SOL    HW128502   2.907   0.911   4.718  0.1309  1.7076 -1.3397
 5680SOL    HW228503   2.959   1.037   4.780  0.8435 -0.7709 -1.7306
 5681SOL     OW28504   2.866   3.481  13.447  0.3069 -0.1513  0.6847
 5681SOL    HW128505   2.908   3.405  13.407  1.5884  1.0524 -0.2654
 5681SOL    HW228506   2.928   3.551  13.426 -3.2468  3.1334  1.1297
 5682SOL     OW28507   2.153   3.175   6.764  0.2143  0.8810 -0.2202
 5682SOL    HW128508   2.064   3.140   6.772  0.4348  0.0447 -1.4500
 5682SOL    HW228509   2.158   3.221   6.848 -1.9864  1.7866 -0.5948
 5683SOL     OW28510   1.452   2.445   8.878 -0.2556  0.4944 -0.0258
 5683SOL    HW128511   1.536   2.409   8.907  0.3476  2.0006  0.1028
 5683SOL    HW228512   1.426   2.481   8.962 -1.9796 -0.3272 -0.2154
 5684SOL     OW28513   0.461   3.715   1.139  0.5302  0.3975 -0.0223
 5684SOL    HW128514   0.460   3.799   1.095  2.3670  0.1497 -0.5033
 5684SOL    HW228515   0.376   3.706   1.182  1.1438  1.1256  1.3343
 5685SOL     OW28516   3.290   1.235   3.803  0.6329  0.3658 -0.0794
 5685SOL    HW128517   3.331   1.316   3.772 -2.5660  2.9344  2.4614
 5685SOL    HW228518   3.362   1.200   3.856  1.1589 -0.0034 -1.0323
 5686SOL     OW28519   0.224   4.459   7.544  0.0480  0.0603  0.7964
 5686SOL    HW128520   0.183   4.502   7.469 -0.9129  1.6829  2.2524
 5686SOL    HW228521   0.317   4.473   7.531  0.2787  0.6697  2.9900
 5687SOL     OW28522   0.873   4.356   8.933  0.1475 -0.2075 -0.0504
 5687SOL    HW128523   0.823   4.397   9.004  0.5960  1.3249 -0.6264
 5687SOL    HW228524   0.949   4.412   8.916  1.0407 -0.7838  1.9700
 5688SOL     OW28525   1.366   3.720   4.187  0.2527 -0.1285  0.0243
 5688SOL    HW128526   1.383   3.809   4.218 -1.6223 -0.1271  1.0717
 5688SOL    HW228527   1.373   3.666   4.265 -1.0001  0.8235  0.7898
 5689SOL     OW28528   2.637   3.269   4.825  0.5489 -0.1132 -0.1750
 5689SOL    HW128529   2.661   3.284   4.916 -1.5046 -0.3801  0.4197
 5689SOL    HW228530   2.668   3.180   4.807  0.0455 -0.3522  0.1214
 5690SOL     OW28531   3.704   4.174   7.858 -0.0349 -0.4714  0.6983
 5690SOL    HW128532   3.686   4.113   7.930  2.6689  0.2270  1.9767
 5690SOL    HW228533   3.615   4.172   7.821 -0.5570  1.2772  1.8220
 5691SOL     OW28534   2.041   3.447  13.618 -0.3408 -0.5938  0.6776
 5691SOL    HW128535   2.000   3.418  13.699  0.2538 -2.1870  0.3996
 5691SOL    HW228536   2.118   3.391  13.619 -0.3163 -0.6178 -2.4132
 5692SOL     OW28537   3.711   1.084  12.117 -0.6790 -0.1555  0.0331
 5692SOL    HW128538   3.631   1.036  12.140 -1.4960  1.0648 -0.3051
 5692SOL    HW228539   3.766   1.093  12.195 -0.8981 -1.6440  0.3636
 5693SOL     OW28540   0.789   0.788   5.115 -0.2203 -0.2911 -0.2016
 5693SOL    HW128541   0.725   0.762   5.181  0.8795 -0.6241  0.7266
 5693SOL    HW228542   0.742   0.817   5.037  1.8104  1.0462 -0.9383
 5694SOL     OW28543   3.011   2.600   9.646  0.0438 -0.0546 -0.3307
 5694SOL    HW128544   3.087   2.578   9.700  1.6123 -1.9834 -3.3180
 5694SOL    HW228545   3.040   2.588   9.555  0.1174 -1.6911 -0.0939
 5695SOL     OW28546   3.154   4.151  17.485 -0.0189 -0.1548 -0.0650
 5695SOL    HW128547   3.085   4.215  17.502 -1.0900 -0.9825 -1.2634
 5695SOL    HW228548   3.229   4.206  17.461 -0.7216  0.3907 -1.0471
 5696SOL     OW28549   3.258   1.752   5.974 -0.1542 -0.1602  0.4428
 5696SOL    HW128550   3.265   1.819   6.042  0.5660 -0.1165  0.3207
 5696SOL    HW228551   3.199   1.692   6.021 -0.3510 -1.4655 -1.4786
 5697SOL     OW28552   3.151   1.443   6.133 -0.5181  0.0747  0.0665
 5697SOL    HW128553   3.084   1.501   6.168  1.3520  2.2919 -0.0650
 5697SOL    HW228554   3.116   1.417   6.047 -0.7655  1.0775 -0.1399
 5698SOL     OW28555   4.627   4.548   2.755  0.2333  0.0633  0.0651
 5698SOL    HW128556   4.702   4.517   2.704 -0.1427  0.4604 -0.7366
 5698SOL    HW228557   4.661   4.559   2.844 -1.1274 -1.8238  0.7998
 5699SOL     OW28558   1.099   1.613   7.082 -0.2926 -0.1367 -0.2108
 5699SOL    HW128559   1.189   1.644   7.087  0.0854 -1.4995  1.1699
 5699SOL    HW228560   1.094   1.566   7.165  2.8975 -0.7560 -0.3708
 5700SOL     OW28561   2.058   2.571   5.041  0.3933 -0.6718 -0.2866
 5700SOL    HW128562   2.063   2.565   4.945 -0.6759  0.4970 -0.4182
 5700SOL    HW228563   2.019   2.658   5.052 -0.0941 -0.9507  0.1885
 5701SOL     OW28564   2.680   3.238  12.884 -0.1819 -0.9370 -0.0974
 5701SOL    HW128565   2.755   3.259  12.829 -0.0308 -2.0466 -0.3028
 5701SOL    HW228566   2.712   3.252  12.973  0.1370  0.8421 -0.4945
 5702SOL     OW28567   4.442   2.254   1.482 -0.8196 -0.1040 -0.2440
 5702SOL    HW128568   4.409   2.164   1.473  0.5254 -0.8511  2.6694
 5702SOL    HW228569   4.376   2.301   1.534 -1.0486 -0.3820 -0.2841
 5703SOL     OW28570   0.523   4.622   4.123  0.0557 -0.1946  0.4787
 5703SOL    HW128571   0.508   4.716   4.129 -0.2208 -0.0981 -1.7052
 5703SOL    HW228572   0.432   4.593   4.117  0.2520 -0.6286 -0.4594
 5704SOL     OW28573   2.433   1.143   7.666 -0.0315 -0.1844 -0.3115
 5704SOL    HW128574   2.432   1.196   7.746  0.9272 -0.2261 -0.2716
 5704SOL    HW228575   2.368   1.079   7.695  0.4461  0.4393  2.1542
 5705SOL     OW28576   0.586   0.019   8.914 -0.1119 -0.0451  0.6042
 5705SOL    HW128577   0.650   4.716   8.849 -1.4090  0.8633 -1.0948
 5705SOL    HW228578   0.635   0.091   8.953 -1.5725  1.6575 -0.6961
 5706SOL     OW28579   0.085   2.485  14.937 -0.3392 -0.4308 -0.1374
 5706SOL    HW128580   0.179   2.488  14.952 -0.0486 -0.1895 -1.9715
 5706SOL    HW228581   0.060   2.411  14.992  1.3102 -0.4574  0.5689
 5707SOL     OW28582   1.449   1.983  13.121 -0.2255 -0.0668 -0.8481
 5707SOL    HW128583   1.374   1.971  13.180  1.1151  0.4315  0.9527
 5707SOL    HW228584   1.439   1.916  13.054 -1.0193 -0.3977 -0.4023
 5708SOL     OW28585   3.274   2.635   9.980 -0.0917 -0.6344 -0.3567
 5708SOL    HW128586   3.227   2.558   9.947  1.6962 -1.6431 -0.5809
 5708SOL    HW228587   3.333   2.644   9.905 -0.2391 -0.7414 -0.4874
 5709SOL     OW28588   2.909   1.838   2.191 -0.0523  0.1003 -0.3179
 5709SOL    HW128589   2.969   1.773   2.227  3.0146  1.6109 -2.7262
 5709SOL    HW228590   2.892   1.796   2.107 -1.1414  2.0486 -1.0695
 5710SOL     OW28591   1.374   3.055   3.175  0.1193 -0.5017  0.4811
 5710SOL    HW128592   1.442   2.988   3.170  0.9268  0.3212  0.4533
 5710SOL    HW228593   1.382   3.076   3.268  1.3770  0.2171  0.2092
 5711SOL     OW28594   2.457   1.730   5.629 -0.4398 -0.3429  0.7778
 5711SOL    HW128595   2.486   1.638   5.632 -0.0043 -0.2288  0.0103
 5711SOL    HW228596   2.364   1.731   5.652 -0.5150 -0.6427  0.4956
 5712SOL     OW28597   0.119   1.500   2.562  0.5312 -0.4543  0.1281
 5712SOL    HW128598   0.203   1.544   2.562  0.9290 -1.2139  1.0808
 5712SOL    HW228599   0.144   1.423   2.613  1.5798  0.3394  0.7968
 5713SOL     OW28600   1.864   2.483  11.445 -0.2715  0.0212  0.3185
 5713SOL    HW128601   1.835   2.476  11.536  1.9849  0.7773  1.1101
 5713SOL    HW228602   1.889   2.575  11.439  1.8529 -0.3208  3.6203
 5714SOL     OW28603   1.315   4.029   4.474  0.4412  0.1040  0.0486
 5714SOL    HW128604   1.403   4.060   4.450  0.2789  0.0550 -0.6201
 5714SOL    HW228605   1.321   4.036   4.569 -1.2819 -1.1417  0.2449
 5715SOL     OW28606   1.029   4.342   6.398  0.0608  0.3869  0.1441
 5715SOL    HW128607   1.040   4.413   6.334  2.3834 -0.9210 -0.8959
 5715SOL    HW228608   0.934   4.340   6.409  0.1577 -1.3875  0.6200
 5716SOL     OW28609   1.636   1.396   2.598 -0.3777 -0.2765  0.1083
 5716SOL    HW128610   1.639   1.306   2.567  0.0166  0.6060 -2.4041
 5716SOL    HW228611   1.618   1.390   2.692 -0.4081  1.6155  0.2420
 5717SOL     OW28612   2.813   3.533  10.606  0.4185  0.0252 -0.4166
 5717SOL    HW128613   2.826   3.533  10.512  0.4008  0.9256 -0.4206
 5717SOL    HW228614   2.719   3.514  10.607  0.5254 -0.5226 -0.8616
 5718SOL     OW28615   3.165   4.177   7.390 -0.5654 -0.4125  0.1147
 5718SOL    HW128616   3.106   4.197   7.317  1.2814  1.5469 -0.8204
 5718SOL    HW228617   3.256   4.184   7.364 -0.4353 -0.0934  0.6452
 5719SOL     OW28618   2.415   3.974   2.068 -0.2943  0.7603 -0.6699
 5719SOL    HW128619   2.358   3.994   1.993  0.4033  3.1867 -0.5580
 5719SOL    HW228620   2.439   4.056   2.111  3.0214 -1.5839  1.9198
 5720SOL     OW28621   3.178   4.529   8.344  0.1066  0.2848  0.4125
 5720SOL    HW128622   3.246   4.468   8.316 -0.0825  0.3346 -0.1655
 5720SOL    HW228623   3.200   4.609   8.295  0.2290  0.4893  0.7960
 5721SOL     OW28624   2.962   1.529   5.043 -0.4948 -0.2307 -0.1084
 5721SOL    HW128625   3.008   1.463   4.991 -2.7092 -1.9965  0.1829
 5721SOL    HW228626   3.018   1.524   5.121  1.0187 -2.8620 -1.3669
 5722SOL     OW28627   2.520   3.441  10.548 -0.1386 -0.4927 -0.2286
 5722SOL    HW128628   2.427   3.418  10.541 -0.6860  1.5500  0.3314
 5722SOL    HW228629   2.549   3.451  10.457  2.4446 -0.1338  0.6327
 5723SOL     OW28630   0.687   1.963   3.392 -0.3720  0.5932  0.2564
 5723SOL    HW128631   0.704   1.871   3.413 -2.2208  1.0822  3.9426
 5723SOL    HW228632   0.638   1.948   3.312 -0.3379 -2.8116  0.8644
 5724SOL     OW28633   3.187   0.585   3.480  0.3842 -0.5583 -0.2192
 5724SOL    HW128634   3.213   0.601   3.389  0.2356  0.3314 -0.1002
 5724SOL    HW228635   3.151   0.671   3.502  1.3461 -0.9796  2.9757
 5725SOL     OW28636   1.694   0.480   3.958 -0.3773 -0.2505  0.6134
 5725SOL    HW128637   1.744   0.547   4.004  1.6083 -2.1865  1.2437
 5725SOL    HW228638   1.727   0.494   3.869  1.2444 -0.2297  1.2217
 5726SOL     OW28639   1.746   2.245   4.835  0.0239  0.5231 -0.0150
 5726SOL    HW128640   1.674   2.308   4.839  2.0072  2.7390  0.5668
 5726SOL    HW228641   1.745   2.218   4.927  2.5661  2.0702  0.4527
 5727SOL     OW28642   2.951   2.253  12.768  0.4425  0.0030 -0.8470
 5727SOL    HW128643   2.960   2.281  12.859  0.7126  0.6702 -1.0789
 5727SOL    HW228644   2.860   2.226  12.772  1.2517 -2.6094 -0.1579
 5728SOL     OW28645   3.788   3.394  11.488 -0.2948 -0.3508 -0.4014
 5728SOL    HW128646   3.703   3.351  11.476 -0.3989  0.1285 -1.3574
 5728SOL    HW228647   3.764   3.481  11.519  1.0119 -0.1981  0.1468
 5729SOL     OW28648   2.949   3.741   6.856 -0.0783  0.9089 -0.5588
 5729SOL    HW128649   2.988   3.765   6.940 -0.8308 -0.3314  0.1535
 5729SOL    HW228650   2.982   3.653   6.842 -0.4602  0.5643  0.6999
 5730SOL     OW28651   3.258   3.585   8.812  0.3709 -0.1294  0.4025
 5730SOL    HW128652   3.304   3.654   8.860 -0.8615  1.6503 -0.9825
 5730SOL    HW228653   3.240   3.531   8.889 -0.4536 -0.2530  0.1158
 5731SOL     OW28654   1.930   4.596   0.348 -0.0003  0.2140 -0.2566
 5731SOL    HW128655   1.940   4.513   0.395 -1.2388  0.0846 -0.2238
 5731SOL    HW228656   1.840   4.606   0.380 -0.2177 -1.8862 -0.2113
 5732SOL     OW28657   4.480   3.159  13.833  0.2005 -0.1618  0.4674
 5732SOL    HW128658   4.561   3.182  13.787 -0.3626 -0.2352 -0.5676
 5732SOL    HW228659   4.502   3.066  13.846 -1.3268 -0.6885 -0.7409
 5733SOL     OW28660   2.188   3.142  14.341  0.2154  0.5233  0.3642
 5733SOL    HW128661   2.100   3.152  14.303  0.3191  0.0037 -0.0106
 5733SOL    HW228662   2.169   3.187  14.423  0.3405  1.0026  0.1318
 5734SOL     OW28663   1.735   4.145   2.646 -0.4196  0.3601 -0.3629
 5734SOL    HW128664   1.714   4.224   2.696  1.0151 -0.0045  0.8309
 5734SOL    HW228665   1.676   4.078   2.680  2.6113 -1.8550  0.5076
 5735SOL     OW28666   0.733   1.049   9.160  0.1131  0.4047 -0.0465
 5735SOL    HW128667   0.662   1.101   9.197 -0.5888  1.3931 -2.7976
 5735SOL    HW228668   0.682   0.976   9.126 -2.3749  2.3023 -0.3823
 5736SOL     OW28669   2.222   2.629   3.001  0.1460 -0.0737  0.9146
 5736SOL    HW128670   2.290   2.567   3.027 -0.8294 -1.6882 -0.4541
 5736SOL    HW228671   2.136   2.588   2.993 -0.5509  1.3323  1.2068
 5737SOL     OW28672   3.968   4.328   4.271  0.0228  0.7662 -0.4739
 5737SOL    HW128673   3.908   4.338   4.196  1.0341 -0.8893 -1.5072
 5737SOL    HW228674   4.050   4.332   4.223 -0.3968 -3.3964 -1.5664
 5738SOL     OW28675   1.133   1.762  15.154 -0.1554  0.7336 -0.5346
 5738SOL    HW128676   1.221   1.771  15.190 -0.4318 -0.0660  0.3314
 5738SOL    HW228677   1.087   1.729  15.231 -0.9420  0.0715 -1.2805
 5739SOL     OW28678   3.794   1.592  17.174 -0.4038 -0.1464  0.1875
 5739SOL    HW128679   3.845   1.557  17.101 -0.3544 -1.5472  0.8977
 5739SOL    HW228680   3.713   1.546  17.151 -0.9531  1.3919 -1.0629
 5740SOL     OW28681   0.935   1.016  11.232  0.0273  0.0184 -0.1701
 5740SOL    HW128682   0.946   1.084  11.298 -1.7383  2.0870 -2.0399
 5740SOL    HW228683   0.862   1.054  11.183  0.9514  2.6220  0.4869
 5741SOL     OW28684   4.401   1.495  13.981  0.3497  0.0541  0.2976
 5741SOL    HW128685   4.424   1.402  13.980 -0.9195 -0.2724  0.9486
 5741SOL    HW228686   4.328   1.505  14.043  0.1557 -0.4243  0.1438
 5742SOL     OW28687   1.632   4.643   4.388  1.0635  0.0907 -0.5407
 5742SOL    HW128688   1.651   4.690   4.470  2.2803  0.4064 -1.0117
 5742SOL    HW228689   1.639   4.551   4.413  0.2980  0.4100  0.8890
 5743SOL     OW28690   2.906   2.934   6.250 -0.4697  0.4202 -0.2580
 5743SOL    HW128691   2.924   2.865   6.186  3.5371  0.7457  0.4567
 5743SOL    HW228692   2.825   2.969   6.214 -0.7309  0.6173  0.5315
 5744SOL     OW28693   2.783   2.966  13.743  0.2852 -0.3753  0.5349
 5744SOL    HW128694   2.751   3.013  13.820  0.1677  1.7352 -0.8137
 5744SOL    HW228695   2.718   2.896  13.736 -0.2171  0.2909 -1.4287
 5745SOL     OW28696   0.762   3.092  12.544  0.2306 -0.0310 -0.0308
 5745SOL    HW128697   0.704   3.092  12.468  0.8380 -0.7054 -0.4871
 5745SOL    HW228698   0.828   3.156  12.516 -0.0119 -0.2910 -1.1828
 5746SOL     OW28699   1.853   2.579   9.440 -0.3287 -0.2279 -0.1624
 5746SOL    HW128700   1.766   2.552   9.470  0.6206 -1.8251  1.1345
 5746SOL    HW228701   1.903   2.513   9.487  1.3063  0.5088 -0.8612
 5747SOL     OW28702   3.662   2.984  11.903 -0.1959 -0.1310 -0.1331
 5747SOL    HW128703   3.627   2.933  11.831  0.0305  1.0418 -1.0620
 5747SOL    HW228704   3.681   3.064  11.854 -1.2840  1.0285  1.3343
 5748SOL     OW28705   4.547   4.547   6.815 -0.3973  0.4277 -0.2334
 5748SOL    HW128706   4.528   4.629   6.769 -0.7754  0.1496 -0.5626
 5748SOL    HW228707   4.552   4.572   6.908 -1.9746  0.4117 -0.1443
 5749SOL     OW28708   0.712   3.656   9.938  0.1061 -0.1908  0.3024
 5749SOL    HW128709   0.718   3.639  10.032  0.9731  0.5253  0.3803
 5749SOL    HW228710   0.798   3.693   9.915  0.1161 -0.4006 -0.0086
 5750SOL     OW28711   2.594   3.254   1.812  0.1069  0.2558  0.4723
 5750SOL    HW128712   2.641   3.301   1.743  1.3576  0.2316  1.2990
 5750SOL    HW228713   2.558   3.175   1.772 -1.7908 -0.0808  2.8717
 5751SOL     OW28714   1.942   3.425  11.565  0.3258 -0.0714  0.0906
 5751SOL    HW128715   2.023   3.472  11.547 -0.9681  2.9052  2.0614
 5751SOL    HW228716   1.876   3.492  11.545  0.9292  0.4736 -0.0380
 5752SOL     OW28717   4.164   3.484   1.771 -0.2395  0.2996  1.1567
 5752SOL    HW128718   4.183   3.390   1.777  1.5647  0.5291 -0.6838
 5752SOL    HW228719   4.071   3.484   1.753  0.2505  1.2855 -1.3144
 5753SOL     OW28720   2.649   1.310  11.806  0.5552  0.5692  0.3409
 5753SOL    HW128721   2.611   1.378  11.861 -3.7605  0.3922 -2.4238
 5753SOL    HW228722   2.731   1.303  11.855  0.6384 -0.2550  0.0890
 5754SOL     OW28723   3.522   0.145   7.342  0.0557 -0.7086 -0.2479
 5754SOL    HW128724   3.431   0.171   7.328  0.1787  0.2384  0.7374
 5754SOL    HW228725   3.540   0.096   7.262  0.1432  0.1840 -0.7792
 5755SOL     OW28726   3.764   1.794   9.103 -0.1886 -0.1743  0.0059
 5755SOL    HW128727   3.806   1.812   9.187 -1.9908 -1.4116  1.1801
 5755SOL    HW228728   3.814   1.715   9.079 -1.6922 -0.3638 -2.5265
 5756SOL     OW28729   1.307   3.403   1.964 -0.4650  0.1710 -0.4267
 5756SOL    HW128730   1.259   3.451   2.032  0.9571  0.9499  0.0222
 5756SOL    HW228731   1.246   3.331   1.948 -0.9701  0.9170 -1.8141
 5757SOL     OW28732   0.447   0.392  11.496  0.0027 -0.1587 -0.1188
 5757SOL    HW128733   0.538   0.364  11.502 -0.8821 -2.4735  2.5764
 5757SOL    HW228734   0.445   0.452  11.570  0.0028  0.7117 -0.8293
 5758SOL     OW28735   0.906   4.477  10.212 -0.3546 -0.2441  0.1220
 5758SOL    HW128736   0.824   4.442  10.175 -0.2447 -0.3880  0.0164
 5758SOL    HW228737   0.922   4.424  10.290 -1.1819  0.0923  0.5190
 5759SOL     OW28738   4.578   1.598  10.834 -0.5506 -0.6087  0.6769
 5759SOL    HW128739   4.488   1.601  10.866 -0.0814  1.6110  1.7766
 5759SOL    HW228740   4.596   1.684  10.796  0.2663 -0.5487  1.2079
 5760SOL     OW28741   0.161   4.154  10.065 -0.5306  0.3865  0.1169
 5760SOL    HW128742   0.246   4.123  10.097 -0.8170  2.3324  2.7471
 5760SOL    HW228743   0.194   4.205   9.991  0.5790 -0.0366  0.3078
 5761SOL     OW28744   0.874   3.145  11.170 -0.1420  0.1293 -0.1873
 5761SOL    HW128745   0.970   3.146  11.167 -0.2014 -1.5868 -2.0601
 5761SOL    HW228746   0.847   3.054  11.179  0.0586  0.0773 -0.1146
 5762SOL     OW28747   1.845   3.648   0.804  0.3479 -0.2132 -0.1210
 5762SOL    HW128748   1.759   3.670   0.839  0.9211  1.4157  0.2417
 5762SOL    HW228749   1.834   3.647   0.709 -2.5832 -0.1640  0.2104
 5763SOL     OW28750   2.266   3.833   6.905  0.3822  0.2408 -0.0997
 5763SOL    HW128751   2.342   3.866   6.953 -1.8809 -0.0755  3.6887
 5763SOL    HW228752   2.211   3.910   6.896  1.0937  0.7091 -0.4584
 5764SOL     OW28753   2.789   0.939   3.058  0.7516 -0.5235  0.8403
 5764SOL    HW128754   2.776   1.033   3.054  0.6502 -0.4494  3.0155
 5764SOL    HW228755   2.698   0.912   3.071  0.7157  0.6146  2.9540
 5765SOL     OW28756   0.243   1.733   8.210 -0.5675  0.2228  0.1134
 5765SOL    HW128757   0.234   1.800   8.142  0.6101  1.1728  0.9130
 5765SOL    HW228758   0.158   1.688   8.210 -0.0189 -0.8391 -1.6894
 5766SOL     OW28759   4.631   1.823   1.528 -0.3441  0.2777  0.4454
 5766SOL    HW128760   4.701   1.837   1.591 -0.9573 -2.1439  1.6386
 5766SOL    HW228761   4.550   1.823   1.578 -0.8487 -2.6415 -0.3689
 5767SOL     OW28762   2.834   1.516   3.915  0.2782  0.1319 -0.0205
 5767SOL    HW128763   2.758   1.490   3.968  1.1629 -1.9126  0.2459
 5767SOL    HW228764   2.903   1.535   3.978 -1.1242  0.6783  1.3532
 5768SOL     OW28765   3.751   3.512   3.112  0.3282 -0.0572  0.1587
 5768SOL    HW128766   3.840   3.532   3.084 -0.3145  1.4680 -0.8170
 5768SOL    HW228767   3.710   3.586   3.066  1.7613  0.1080 -0.8270
 5769SOL     OW28768   3.317   2.011  12.949  0.1946  0.1113  0.7760
 5769SOL    HW128769   3.292   1.919  12.962  1.3329 -0.3005  0.1325
 5769SOL    HW228770   3.311   2.017  12.853 -0.0312 -1.1512  0.7014
 5770SOL     OW28771   2.051   2.526   5.754  0.0113  0.1712 -0.4307
 5770SOL    HW128772   1.969   2.476   5.747  0.6342 -0.9879  0.5519
 5770SOL    HW228773   2.040   2.595   5.689 -0.9973 -0.0953 -0.5407
 5771SOL     OW28774   0.846   4.714   7.577 -0.3633 -0.2954  0.0684
 5771SOL    HW128775   0.809   0.011   7.492  1.3448  1.8546 -0.1134
 5771SOL    HW228776   0.851   0.079   7.608 -0.5146 -0.4612  0.5801
 5772SOL     OW28777   4.562   1.579   5.651  0.0734 -0.0500 -0.0112
 5772SOL    HW128778   4.589   1.661   5.692 -0.7155  0.4714 -0.5297
 5772SOL    HW228779   4.630   1.526   5.694 -1.4203 -1.1956  0.9311
 5773SOL     OW28780   1.814   3.503   5.977 -0.0237 -0.1033  0.3844
 5773SOL    HW128781   1.758   3.563   5.928 -0.1236  1.6414  2.6132
 5773SOL    HW228782   1.785   3.416   5.953 -1.2531 -0.0740  1.7992
 5774SOL     OW28783   0.287   2.844   4.299 -0.0153 -0.0900 -0.1529
 5774SOL    HW128784   0.196   2.867   4.283  0.0961  0.3570 -0.1238
 5774SOL    HW228785   0.335   2.926   4.305 -0.1253 -0.2196  2.7431
 5775SOL     OW28786   3.413   4.409  13.505  0.2813  0.0668 -0.2342
 5775SOL    HW128787   3.477   4.412  13.433 -1.3955 -6.1088 -1.9765
 5775SOL    HW228788   3.458   4.462  13.571 -0.6019 -2.5530  2.4790
 5776SOL     OW28789   3.172   2.593   3.339  0.6216 -0.6521 -0.2494
 5776SOL    HW128790   3.134   2.516   3.382 -2.3072  1.3690  0.7709
 5776SOL    HW228791   3.209   2.559   3.258 -1.8070 -3.4821 -0.1798
 5777SOL     OW28792   1.283   4.031  11.068  0.3915  0.1629  0.5484
 5777SOL    HW128793   1.326   3.957  11.025 -0.0839 -0.0527  0.4405
 5777SOL    HW228794   1.191   4.003  11.058 -0.4893  3.3001  0.1089
 5778SOL     OW28795   1.629   0.249   8.005  0.3363  0.3086 -0.3060
 5778SOL    HW128796   1.636   0.222   8.097 -0.7936 -4.5076 -1.6036
 5778SOL    HW228797   1.614   0.343   8.014  0.8658  0.2574  1.1523
 5779SOL     OW28798   0.396   3.997   9.221  0.8645 -0.2651  0.0828
 5779SOL    HW128799   0.452   4.058   9.172 -0.3886  0.7534 -0.0674
 5779SOL    HW228800   0.327   3.983   9.156  0.2699  0.4047  0.5750
 5780SOL     OW28801   1.028   2.275   3.542 -0.3125 -0.3170 -0.3468
 5780SOL    HW128802   1.103   2.229   3.581 -0.5844 -0.8466 -0.4484
 5780SOL    HW228803   1.066   2.363   3.555  0.5262 -0.0387 -4.7466
 5781SOL     OW28804   1.377   2.401   6.591 -0.1351 -0.2795  0.5093
 5781SOL    HW128805   1.348   2.310   6.601 -1.2655  0.2183  1.7069
 5781SOL    HW228806   1.306   2.449   6.633  0.1675 -0.0333  0.7401
 5782SOL     OW28807   1.110   1.333   8.866 -0.4711  0.2735 -0.2328
 5782SOL    HW128808   1.181   1.310   8.806 -0.1006 -2.7814  1.3330
 5782SOL    HW228809   1.039   1.341   8.802  0.1732 -0.7912 -1.0838
 5783SOL     OW28810   1.951   1.454   5.507 -0.4679  0.3913  0.1676
 5783SOL    HW128811   2.045   1.470   5.494 -0.6157  0.4747 -0.8298
 5783SOL    HW228812   1.916   1.512   5.574  0.1085 -1.0434  1.7159
 5784SOL     OW28813   0.116   4.106   5.488 -0.2247 -1.1070  0.7104
 5784SOL    HW128814   0.160   4.035   5.442  1.0681  1.0611 -1.3610
 5784SOL    HW228815   0.103   4.069   5.576 -1.8036 -0.5542  0.7107
 5785SOL     OW28816   2.148   0.068   3.814 -0.1325  0.2793  0.3365
 5785SOL    HW128817   2.105   0.017   3.883  0.8189 -2.3901 -1.0698
 5785SOL    HW228818   2.238   0.052   3.840 -0.0789  0.0470  0.0062
 5786SOL     OW28819   3.471   0.648   0.024  0.4473  0.1578  0.1856
 5786SOL    HW128820   3.432   0.721  17.679  0.3410 -1.5500 -2.3517
 5786SOL    HW228821   3.518   0.597  17.660  0.0485  0.4053 -0.2824
 5787SOL     OW28822   4.570   2.588   9.583  0.4463  0.1641 -0.3378
 5787SOL    HW128823   4.604   2.506   9.548  0.6727 -0.6716  1.8350
 5787SOL    HW228824   4.519   2.549   9.654 -1.1248 -1.7954 -2.5525
 5788SOL     OW28825   2.759   3.900   3.959 -0.6309  0.1206 -0.0944
 5788SOL    HW128826   2.744   3.991   3.935 -0.2293  0.3704  0.5911
 5788SOL    HW228827   2.855   3.904   3.954 -0.6167 -1.2324 -0.8078
 5789SOL     OW28828   4.251   2.736   8.198 -0.5889 -0.0086  0.8926
 5789SOL    HW128829   4.296   2.764   8.278  0.2213 -2.0383  1.1376
 5789SOL    HW228830   4.322   2.696   8.149 -0.4865  1.4515 -0.1566
 5790SOL     OW28831   4.699   4.490  15.298 -0.4247 -0.1018  0.6989
 5790SOL    HW128832   0.044   4.543  15.334 -0.4623 -0.6952  1.6508
 5790SOL    HW228833   4.633   4.493  15.367 -1.5964  3.1549 -0.5424
 5791SOL     OW28834   3.002   0.944  12.198 -0.2146 -0.6372  0.1071
 5791SOL    HW128835   3.087   0.907  12.174 -0.7507 -1.6901 -0.1883
 5791SOL    HW228836   3.020   0.984  12.283 -0.5984 -2.1478  0.9122
 5792SOL     OW28837   4.691   3.951  16.914  0.3429 -0.1469 -0.1302
 5792SOL    HW128838   4.604   3.953  16.954  0.6743 -1.9527  0.7060
 5792SOL    HW228839   4.653   3.960  16.826 -1.2131 -1.1581  0.4218
 5793SOL     OW28840   3.471   3.463   2.906  0.1115 -0.7869  0.0122
 5793SOL    HW128841   3.396   3.489   2.852 -1.9579 -0.1127  3.2066
 5793SOL    HW228842   3.516   3.545   2.923 -0.0204 -1.2194  2.4274
 5794SOL     OW28843   0.570   2.490   7.917  0.2193 -0.2559 -0.5773
 5794SOL    HW128844   0.656   2.491   7.874  0.5867  0.2635  0.1621
 5794SOL    HW228845   0.536   2.578   7.900 -2.5774 -0.7740  2.5162
 5795SOL     OW28846   2.848   0.195   5.868 -0.0967 -0.2764  0.5046
 5795SOL    HW128847   2.819   0.132   5.802  1.3571  0.5542 -0.9198
 5795SOL    HW228848   2.767   0.231   5.902 -1.0900 -0.5829 -1.5589
 5796SOL     OW28849   3.757   0.729   2.343  0.4646 -0.1383 -0.0799
 5796SOL    HW128850   3.686   0.784   2.375  0.4588 -0.3722  0.2985
 5796SOL    HW228851   3.827   0.792   2.325 -0.2995  0.5150 -0.8091
 5797SOL     OW28852   3.261   3.177   7.491  0.5807 -0.0783 -0.2011
 5797SOL    HW128853   3.285   3.243   7.556  3.9109  0.1760 -1.7169
 5797SOL    HW228854   3.277   3.230   7.414 -1.2353  1.0311  0.1880
 5798SOL     OW28855   4.013   3.798   7.184  0.2184  0.3795  0.3207
 5798SOL    HW128856   4.076   3.730   7.208  0.0963 -0.1583 -0.8387
 5798SOL    HW228857   3.939   3.747   7.150  0.4914  0.5791 -0.5782
 5799SOL     OW28858   0.682   0.552   4.107 -0.2396 -0.3963 -0.1141
 5799SOL    HW128859   0.774   0.525   4.107 -0.1119  0.0117  0.8518
 5799SOL    HW228860   0.673   0.626   4.167  0.5559 -0.6641  0.3377
 5800SOL     OW28861   1.842   4.440   4.111  0.1646 -0.4020 -0.5138
 5800SOL    HW128862   1.810   4.512   4.056  0.0590 -0.4435 -0.5075
 5800SOL    HW228863   1.815   4.466   4.199 -1.1361 -1.0068 -0.7340
 5801SOL     OW28864   1.337   4.718   8.764 -0.7384  0.1272 -0.9821
 5801SOL    HW128865   1.377   0.012   8.849  0.2665 -0.9533 -1.2175
 5801SOL    HW228866   1.330   4.624   8.753 -2.0985  0.1792 -0.5543
 5802SOL     OW28867   2.098   0.585  12.202 -0.2743 -0.3086 -0.4015
 5802SOL    HW128868   2.003   0.595  12.201 -0.3295 -0.7300  0.4277
 5802SOL    HW228869   2.099   0.591  12.298 -0.2986  0.5623 -0.4569
 5803SOL     OW28870   2.490   0.940  16.184 -0.3947  0.0377 -0.4378
 5803SOL    HW128871   2.538   0.903  16.259  0.1466  0.6584 -0.4753
 5803SOL    HW228872   2.403   0.923  16.220 -0.4231  2.2435  0.5429
 5804SOL     OW28873   0.513   0.277   3.930 -0.3302 -0.8592 -0.0703
 5804SOL    HW128874   0.456   0.257   4.004  1.0768 -0.3624  1.1495
 5804SOL    HW228875   0.588   0.219   3.945  0.1953 -0.0293  0.4718
 5805SOL     OW28876   4.555   3.272   9.614  0.5128 -1.2155  0.0501
 5805SOL    HW128877   4.645   3.305   9.606  0.0414 -0.4284 -2.0671
 5805SOL    HW228878   4.561   3.198   9.674 -1.1276 -0.5050  1.1067
 5806SOL     OW28879   1.330   3.222   3.724  0.3789  0.7408 -0.2301
 5806SOL    HW128880   1.422   3.198   3.740  0.4096  0.2142 -1.2391
 5806SOL    HW228881   1.343   3.308   3.764 -3.6898 -0.2179  3.1860
 5807SOL     OW28882   3.897   0.850   6.183  0.2245 -0.4548  0.1673
 5807SOL    HW128883   3.936   0.879   6.100  1.6046 -0.6637  0.7392
 5807SOL    HW228884   3.870   0.764   6.150  1.8742 -1.2272  0.8112
 5808SOL     OW28885   1.493   3.491  12.376 -0.3301  0.0570 -0.0031
 5808SOL    HW128886   1.470   3.433  12.449  1.1181  0.0811  0.4701
 5808SOL    HW228887   1.556   3.437  12.329  0.2026  1.5750 -1.0038
 5809SOL     OW28888   0.278   3.477   3.583  0.4510  0.2585 -0.1829
 5809SOL    HW128889   0.316   3.389   3.581 -0.7258 -0.2591  0.6040
 5809SOL    HW228890   0.309   3.518   3.664 -1.9113  2.1086 -0.2035
 5810SOL     OW28891   3.194   1.047   5.726 -0.6768  0.3714 -0.3944
 5810SOL    HW128892   3.232   1.049   5.814  0.7252 -0.0588 -0.9932
 5810SOL    HW228893   3.158   0.959   5.729  0.9325 -0.2032  1.8650
 5811SOL     OW28894   2.684   1.282   5.531  0.3352 -0.5843 -0.6039
 5811SOL    HW128895   2.766   1.259   5.486  1.8947 -0.9559  2.4095
 5811SOL    HW228896   2.655   1.207   5.582 -0.1301  0.2623  0.3811
 5812SOL     OW28897   0.083   1.833   6.612 -0.4286 -0.1247 -0.5116
 5812SOL    HW128898   0.051   1.890   6.541 -3.3266 -1.3595 -0.1863
 5812SOL    HW228899   0.007   1.778   6.630 -0.5847  0.4595  0.6224
 5813SOL     OW28900   1.663   3.936   6.581 -0.1309  0.2701  0.4193
 5813SOL    HW128901   1.718   3.859   6.566  2.9309  2.1395  1.8533
 5813SOL    HW228902   1.721   3.995   6.631  0.0861 -0.5238  1.1072
 5814SOL     OW28903   3.463   1.270  14.912  0.3580 -0.0539 -0.5673
 5814SOL    HW128904   3.517   1.348  14.915 -1.3481  1.0957  0.6047
 5814SOL    HW228905   3.512   1.205  14.963  2.3418  1.0270 -1.0968
 5815SOL     OW28906   3.983   2.406   3.949  0.3740  0.8428  0.2899
 5815SOL    HW128907   4.006   2.463   3.876  0.2163 -0.1941 -0.5630
 5815SOL    HW228908   3.937   2.330   3.913 -0.5885  1.1265  0.9351
 5816SOL     OW28909   2.671   3.980   4.597  0.0623 -0.1001 -0.3214
 5816SOL    HW128910   2.692   3.921   4.669  0.0047 -0.9899 -1.0192
 5816SOL    HW228911   2.739   4.045   4.611  0.0534  0.0401 -0.9124
 5817SOL     OW28912   2.327   3.412   7.113 -0.5912 -0.0793  0.2803
 5817SOL    HW128913   2.356   3.487   7.164 -1.5979 -0.1399  0.9342
 5817SOL    HW228914   2.259   3.448   7.056 -0.7338  1.2140  1.2882
 5818SOL     OW28915   1.467   1.358   6.907 -0.1102  0.1486 -0.9419
 5818SOL    HW128916   1.435   1.321   6.989 -0.7330  3.4221  0.2888
 5818SOL    HW228917   1.384   1.384   6.867  0.8525 -0.0029 -3.0328
 5819SOL     OW28918   1.251   2.173  10.744 -0.1212  1.0995 -0.0604
 5819SOL    HW128919   1.169   2.178  10.793 -0.8503 -0.9959 -1.0786
 5819SOL    HW228920   1.304   2.115  10.798 -1.1549  0.7102  0.5332
 5820SOL     OW28921   0.994   1.643   1.840 -0.2162 -0.5700 -0.2911
 5820SOL    HW128922   0.953   1.653   1.754  1.1080  0.4109 -0.8020
 5820SOL    HW228923   1.074   1.695   1.838  0.1584 -1.0779  2.1559
 5821SOL     OW28924   0.552   0.123  17.189 -0.6780  0.3737  0.3470
 5821SOL    HW128925   0.492   0.133  17.262  0.1386  2.2531  0.7527
 5821SOL    HW228926   0.633   0.166  17.216 -0.4876 -0.4940  1.1385
 5822SOL     OW28927   3.650   4.433  13.363 -0.0359 -0.1737 -0.4290
 5822SOL    HW128928   3.680   4.382  13.438 -3.0244  0.1179  0.9918
 5822SOL    HW228929   3.737   4.465  13.339  0.2399 -0.3217  0.3570
 5823SOL     OW28930   0.983   1.982   6.848  0.1348 -0.4382 -0.1803
 5823SOL    HW128931   1.071   1.956   6.875  1.1376 -0.6494 -3.6368
 5823SOL    HW228932   0.932   1.906   6.877  0.1258 -0.1208  0.6525
 5824SOL     OW28933   1.311   4.698   4.247 -0.2717  0.0917 -0.0936
 5824SOL    HW128934   1.391   4.681   4.297 -0.5045 -2.2449 -0.5394
 5824SOL    HW228935   1.348   0.026   4.177  2.0010 -0.7901  0.4420
 5825SOL     OW28936   1.588   0.442   1.028 -0.3482  0.1007 -0.4082
 5825SOL    HW128937   1.626   0.529   1.034  3.2561 -1.4702 -0.2866
 5825SOL    HW228938   1.543   0.435   1.112 -1.6681 -0.2303 -1.1455
 5826SOL     OW28939   2.998   0.571   4.267 -0.2395 -0.3841 -0.2554
 5826SOL    HW128940   2.982   0.665   4.258 -1.7744 -0.7560 -1.5760
 5826SOL    HW228941   2.962   0.535   4.185 -1.0995  0.8862 -0.4347
 5827SOL     OW28942   0.237   2.518   2.368  0.2686 -0.6860  0.7171
 5827SOL    HW128943   0.185   2.570   2.306 -0.9382 -3.1299 -0.3086
 5827SOL    HW228944   0.321   2.564   2.365  0.4047 -0.9368  0.7661
 5828SOL     OW28945   3.826   3.591   7.210  0.5162  0.1458 -0.1912
 5828SOL    HW128946   3.851   3.512   7.257  2.1846  1.0491  0.4448
 5828SOL    HW228947   3.773   3.624   7.283 -2.5508  1.9683 -3.1917
 5829SOL     OW28948   3.677   4.309   1.955  0.0915  0.2659  1.4022
 5829SOL    HW128949   3.630   4.291   1.874  4.4443 -1.2525 -0.7777
 5829SOL    HW228950   3.721   4.387   1.921  0.4132 -0.3039  0.4936
 5830SOL     OW28951   3.931   0.180   4.742  0.2068  0.1743 -0.1406
 5830SOL    HW128952   3.845   0.149   4.714  0.2455 -1.1147  1.1009
 5830SOL    HW228953   3.920   0.268   4.779  0.9206 -0.0711  0.6628
 5831SOL     OW28954   4.398   3.028   6.358 -0.0564 -0.2691  0.8648
 5831SOL    HW128955   4.364   2.950   6.314  0.6830  0.3791 -0.8617
 5831SOL    HW228956   4.404   3.085   6.281  1.1760 -0.0131  1.1486
 5832SOL     OW28957   2.121   3.038   8.357  0.0205  0.5439 -0.6576
 5832SOL    HW128958   2.165   2.999   8.434  1.0185 -0.4179 -1.7093
 5832SOL    HW228959   2.034   3.063   8.387  0.5110  1.9089 -0.3447
 5833SOL     OW28960   2.835   1.012   5.064  0.1680 -0.3625 -0.0136
 5833SOL    HW128961   2.836   0.987   4.971  0.5088  0.0645 -0.1265
 5833SOL    HW228962   2.923   0.988   5.093 -1.3775 -2.7874  2.6936
 5834SOL     OW28963   3.197   1.800   3.265 -0.5330 -0.3215 -0.4756
 5834SOL    HW128964   3.129   1.748   3.224  2.8898 -1.4617 -4.7897
 5834SOL    HW228965   3.247   1.820   3.186 -0.0735 -0.7377 -0.2938
 5835SOL     OW28966   0.191   0.423   2.818  0.1083 -0.3951  0.3335
 5835SOL    HW128967   0.113   0.372   2.838  0.3043 -1.6149 -1.9324
 5835SOL    HW228968   0.168   0.474   2.741  3.8986  0.1402 -0.4623
 5836SOL     OW28969   2.860   3.324  13.976 -0.3379 -0.3031  0.3179
 5836SOL    HW128970   2.804   3.246  13.970 -0.6941  0.0556 -0.9935
 5836SOL    HW228971   2.876   3.331  13.882  0.4966 -0.3596  0.4542
 5837SOL     OW28972   0.476   4.476   7.970 -0.2931 -0.0924 -0.2516
 5837SOL    HW128973   0.420   4.416   7.921 -1.7151  0.9711  0.0707
 5837SOL    HW228974   0.556   4.478   7.918 -0.2919 -3.6002 -0.3923
 5838SOL     OW28975   2.955   4.100   3.756  0.6540 -0.1435 -0.2988
 5838SOL    HW128976   3.003   4.024   3.790  1.3008  0.7072  0.6872
 5838SOL    HW228977   2.869   4.080   3.719 -0.4415  3.1088  0.5643
 5839SOL     OW28978   4.274   2.059  15.421  0.2040  0.0031 -0.2411
 5839SOL    HW128979   4.277   2.051  15.326  0.8648  1.7821 -0.3785
 5839SOL    HW228980   4.366   2.035  15.429 -0.1730 -1.1498  0.5885
 5840SOL     OW28981   0.627   4.570   5.966  0.3913 -0.0088  0.1459
 5840SOL    HW128982   0.613   4.479   5.991 -1.6400  0.0145 -0.9184
 5840SOL    HW228983   0.541   4.603   5.939  0.4495  0.4982  0.5724
 5841SOL     OW28984   4.237   1.083  10.384 -0.0400  0.3175  0.1397
 5841SOL    HW128985   4.150   1.072  10.420 -0.3945  1.5588 -0.3516
 5841SOL    HW228986   4.271   1.158  10.433  2.6114  0.2155 -1.4857
 5842SOL     OW28987   1.717   1.516   2.056 -0.3983  0.6118  0.1556
 5842SOL    HW128988   1.702   1.600   2.100 -0.0047 -0.1379  1.7280
 5842SOL    HW228989   1.693   1.447   2.118  0.2720 -0.5981 -0.9391
 5843SOL     OW28990   0.452   2.347  11.334  0.3838 -0.1027  0.1263
 5843SOL    HW128991   0.467   2.314  11.422  0.1501 -0.4780  0.0232
 5843SOL    HW228992   0.425   2.260  11.305 -0.5590  0.3965 -0.5223
 5844SOL     OW28993   3.792   2.727  12.584  0.1172  0.1000 -0.0067
 5844SOL    HW128994   3.739   2.799  12.551 -0.1394 -1.3997 -2.9334
 5844SOL    HW228995   3.881   2.749  12.555 -0.0424 -0.6254 -1.0447
 5845SOL     OW28996   3.202   1.032   4.785  0.1200 -0.0222  0.3003
 5845SOL    HW128997   3.202   1.033   4.690  2.0061  1.0005  0.3123
 5845SOL    HW228998   3.273   1.094   4.804  0.8238 -0.7023 -0.1581
 5846SOL     OW28999   3.455   0.228  12.669 -0.1773  0.5031  0.1074
 5846SOL    HW129000   3.456   0.199  12.578 -0.0397  1.6035 -0.2456
 5846SOL    HW229001   3.412   0.153  12.710 -0.9633  0.9035  0.0106
 5847SOL     OW29002   4.186   0.357   6.611  0.4531 -0.3522  0.0926
 5847SOL    HW129003   4.112   0.375   6.552  1.1802  1.4169 -0.2757
 5847SOL    HW229004   4.171   0.268   6.644 -2.0872  0.1078  0.1497
 5848SOL     OW29005   3.495   3.857   8.246 -0.2632  0.0643  0.4475
 5848SOL    HW129006   3.503   3.798   8.321  2.9953  1.1429  0.9298
 5848SOL    HW229007   3.401   3.857   8.229 -0.0991  0.3299 -0.4311
 5849SOL     OW29008   1.218   0.795   9.231  0.6122  0.4774 -1.0842
 5849SOL    HW129009   1.209   0.888   9.213  0.0280  0.4925 -0.7186
 5849SOL    HW229010   1.262   0.773   9.149  3.0204  1.9340 -0.1671
 5850SOL     OW29011   4.310   1.473   5.551 -0.6788 -0.0965  0.0598
 5850SOL    HW129012   4.378   1.524   5.594 -1.6076 -0.9846  2.5611
 5850SOL    HW229013   4.358   1.404   5.505  2.4513  1.9134  0.3724
 5851SOL     OW29014   4.265   2.774  11.277 -0.3030  0.2475 -0.1372
 5851SOL    HW129015   4.355   2.744  11.290 -0.8177 -0.2723  2.2596
 5851SOL    HW229016   4.243   2.799  11.367 -2.0223  2.6202 -1.2044
 5852SOL     OW29017   1.889   1.862   6.291 -0.0831 -0.0313  0.0529
 5852SOL    HW129018   1.823   1.923   6.261 -1.3422 -1.0854  0.6911
 5852SOL    HW229019   1.916   1.896   6.376  1.7347 -1.4815  0.0790
 5853SOL     OW29020   1.296   0.952  12.854 -0.5254 -0.4082 -0.3344
 5853SOL    HW129021   1.283   1.010  12.929 -1.8048  0.2760 -1.0856
 5853SOL    HW229022   1.296   0.867  12.896 -0.2843 -0.8257 -1.1670
 5854SOL     OW29023   3.992   0.023  11.619 -0.5409  0.3291 -0.1589
 5854SOL    HW129024   4.063   0.077  11.586 -0.7486  0.3156 -0.6252
 5854SOL    HW229025   3.985   4.691  11.542  0.6396  0.5469 -0.4241
 5855SOL     OW29026   0.863   0.246  17.195 -0.1011 -0.5646  0.2765
 5855SOL    HW129027   0.863   0.322  17.253  1.3148 -0.9962  0.8333
 5855SOL    HW229028   0.954   0.218  17.195 -0.3669 -1.4252 -0.4560
 5856SOL     OW29029   3.436   0.081   8.259 -0.2989 -0.8561  0.2673
 5856SOL    HW129030   3.353   0.050   8.223 -0.5200  0.5472 -0.4418
 5856SOL    HW229031   3.474   0.001   8.294 -1.8573 -2.6192 -2.0966
 5857SOL     OW29032   0.628   2.886   2.570 -0.4719  0.2669 -0.6845
 5857SOL    HW129033   0.668   2.827   2.506 -0.0900 -0.3816  0.1557
 5857SOL    HW229034   0.638   2.966   2.518  0.0308  0.1456 -0.7699
 5858SOL     OW29035   3.311   0.197   3.022 -0.5911  0.0315  0.0192
 5858SOL    HW129036   3.228   0.203   2.976  0.5704  4.7133 -1.4607
 5858SOL    HW229037   3.363   0.251   2.962 -1.2099  2.5933  1.8202
 5859SOL     OW29038   2.209   3.569   9.872  0.5379  0.0141 -0.4005
 5859SOL    HW129039   2.250   3.516   9.804  2.3078  1.1976 -0.2494
 5859SOL    HW229040   2.286   3.589   9.925 -2.0393 -1.3039  3.9456
 5860SOL     OW29041   1.028   1.651   2.810 -0.4570 -0.5684 -0.0730
 5860SOL    HW129042   0.957   1.677   2.750  1.0985 -1.4122 -2.2454
 5860SOL    HW229043   1.042   1.730   2.862 -0.1245 -0.4839 -0.2920
 5861SOL     OW29044   2.796   3.150  10.714  0.1698  0.0449 -0.5145
 5861SOL    HW129045   2.706   3.135  10.740  0.4251  0.3538  0.5317
 5861SOL    HW229046   2.811   3.218  10.778 -0.4761 -0.4155  0.1194
 5862SOL     OW29047   2.245   2.282   2.338 -0.2671  0.1686  0.0479
 5862SOL    HW129048   2.246   2.349   2.406 -0.2527 -2.6087  2.8150
 5862SOL    HW229049   2.338   2.268   2.325  0.3448  3.2623  1.1488
 5863SOL     OW29050   0.494   3.790   9.025 -0.0970  0.4752 -0.4214
 5863SOL    HW129051   0.491   3.854   9.096 -1.4408  0.3177 -0.3431
 5863SOL    HW229052   0.408   3.750   9.033 -0.1723  0.4812 -1.1417
 5864SOL     OW29053   3.200   0.652  10.954  0.0216  0.1432 -0.4307
 5864SOL    HW129054   3.196   0.735  11.001  0.3426  0.0671 -0.2650
 5864SOL    HW229055   3.291   0.650  10.926  0.7326 -0.8654  1.9393
 5865SOL     OW29056   3.059   4.629   2.927  0.0280 -0.4456 -0.0712
 5865SOL    HW129057   3.092   4.543   2.953  1.5436  0.1443 -0.0548
 5865SOL    HW229058   3.023   4.649   3.013 -0.2141 -0.3912 -0.1854
 5866SOL     OW29059   4.704   3.791   6.903  1.2324  0.2961  0.1287
 5866SOL    HW129060   0.008   3.842   6.828 -0.5324 -0.5092 -1.1135
 5866SOL    HW229061   4.643   3.851   6.948  2.2313  0.0481  1.8153
 5867SOL     OW29062   0.446   2.942   2.808 -0.4251 -0.1356  0.2538
 5867SOL    HW129063   0.498   2.887   2.866  0.2103  2.4899  2.1725
 5867SOL    HW229064   0.479   2.935   2.718  2.0940  3.7248  0.8720
 5868SOL     OW29065   2.690   3.589  10.993  0.0532 -0.4201 -0.5728
 5868SOL    HW129066   2.732   3.598  11.078 -0.8843 -2.6062  0.1080
 5868SOL    HW229067   2.694   3.680  10.963 -0.1611  0.3859  1.8929
 5869SOL     OW29068   1.145   2.511   5.469 -0.4007  0.0434  0.7087
 5869SOL    HW129069   1.187   2.597   5.477  0.2937 -0.2797  0.5741
 5869SOL    HW229070   1.141   2.474   5.557 -2.1144 -0.7954  0.2735
 5870SOL     OW29071   4.200   3.254   5.657  0.2824  0.5242  0.4626
 5870SOL    HW129072   4.128   3.201   5.623 -2.0343  4.0136 -0.0590
 5870SOL    HW229073   4.184   3.334   5.607 -0.5734 -0.1145 -0.2825
 5871SOL     OW29074   0.349   4.425   5.603  0.0328 -0.3061  0.2497
 5871SOL    HW129075   0.289   4.494   5.575  1.9352  1.5613  0.8193
 5871SOL    HW229076   0.411   4.467   5.662  0.3556 -1.4909  0.7685
 5872SOL     OW29077   1.493   2.915   6.168 -0.4190  0.5664 -0.0346
 5872SOL    HW129078   1.527   2.845   6.224  1.0344  1.7162  0.5221
 5872SOL    HW229079   1.533   2.885   6.086 -0.4178  2.2149 -0.6306
 5873SOL     OW29080   3.231   1.958   3.484  0.0975 -0.7580  0.0849
 5873SOL    HW129081   3.326   1.951   3.485  0.2299  0.9536 -0.3540
 5873SOL    HW229082   3.207   1.908   3.406 -1.8895  0.8312 -0.3197
 5874SOL     OW29083   3.826   0.718  12.033  0.0929  0.0307 -0.2528
 5874SOL    HW129084   3.855   0.756  11.950 -0.0555 -0.3897 -0.4998
 5874SOL    HW229085   3.801   0.629  12.006 -1.5609  0.6453 -0.7139
 5875SOL     OW29086   0.926   0.518   9.214 -0.5837  0.0634  0.1455
 5875SOL    HW129087   0.967   0.446   9.261 -2.0120 -1.0548 -0.2947
 5875SOL    HW229088   0.997   0.563   9.169 -1.1089  1.5979  0.8651
 5876SOL     OW29089   1.816   2.259   7.112  0.1567  0.6190  0.1343
 5876SOL    HW129090   1.826   2.170   7.077 -0.5125  0.4725  0.3060
 5876SOL    HW229091   1.899   2.260   7.158  1.1721  0.0563 -1.7043
 5877SOL     OW29092   2.471   1.215   9.334  0.2552  0.1045 -0.2076
 5877SOL    HW129093   2.503   1.259   9.413  0.0209  0.5601 -0.3658
 5877SOL    HW229094   2.548   1.180   9.289 -0.0094  0.8795 -1.2576
 5878SOL     OW29095   0.147   2.825   2.297 -0.2059  0.1325 -0.1762
 5878SOL    HW129096   0.058   2.798   2.321  0.3880 -2.3029 -0.6751
 5878SOL    HW229097   0.132   2.904   2.244  0.7535  1.1509  1.0866
 5879SOL     OW29098   4.086   2.328  10.474 -0.0478  0.3363 -0.2922
 5879SOL    HW129099   4.026   2.386  10.427  1.3776  0.5537 -1.8517
 5879SOL    HW229100   4.144   2.389  10.519 -1.3187  1.4419 -0.1694
 5880SOL     OW29101   3.108   0.082   1.348  0.4331 -0.2131  0.1287
 5880SOL    HW129102   3.157   0.099   1.428  0.7434  0.2317 -0.1531
 5880SOL    HW229103   3.022   0.112   1.375  0.0052 -0.4489 -0.9984
 5881SOL     OW29104   2.764   1.751   2.625 -0.0489 -0.1298 -0.1691
 5881SOL    HW129105   2.775   1.699   2.545 -3.0278 -0.4472 -0.3586
 5881SOL    HW229106   2.766   1.836   2.580 -1.1191  0.5379  1.0330
 5882SOL     OW29107   3.776   2.082   4.875  0.4695 -0.4943  0.8749
 5882SOL    HW129108   3.734   2.155   4.831 -1.2532 -1.7332  0.4533
 5882SOL    HW229109   3.721   2.070   4.953  1.0299  0.1824  1.3774
 5883SOL     OW29110   2.745   2.032  13.118 -0.3840  0.4198 -0.0795
 5883SOL    HW129111   2.828   2.065  13.084  0.6035 -1.1799  0.7606
 5883SOL    HW229112   2.735   1.965  13.050  1.2936 -0.1578  0.2328
 5884SOL     OW29113   0.433   1.094   2.066  0.0715  0.4443  0.3802
 5884SOL    HW129114   0.458   1.125   1.979  0.1960  1.8661  0.9349
 5884SOL    HW229115   0.519   1.097   2.108  0.8040 -0.0493 -1.0519
 5885SOL     OW29116   2.598   2.583   6.513 -0.3332  0.1334 -0.0434
 5885SOL    HW129117   2.594   2.626   6.428 -1.0233  0.5350  0.1996
 5885SOL    HW229118   2.558   2.498   6.496  3.0322 -2.0181  2.7944
 5886SOL     OW29119   1.914   2.211   7.610 -0.0554  0.2116 -0.5965
 5886SOL    HW129120   1.867   2.152   7.551  0.1029 -0.6731  0.1518
 5886SOL    HW229121   1.908   2.291   7.558  0.5321 -0.4931 -1.7521
 5887SOL     OW29122   0.275   4.003   7.404 -0.2778 -0.2332 -0.3849
 5887SOL    HW129123   0.276   3.915   7.442  0.4703  0.0813  0.3340
 5887SOL    HW229124   0.348   4.043   7.451 -2.7345  2.7106  0.9452
 5888SOL     OW29125   0.563   4.678   7.035  0.5887 -0.3657 -0.4733
 5888SOL    HW129126   0.590   4.586   7.029  2.1551  0.0979 -0.7117
 5888SOL    HW229127   0.482   4.670   6.985 -0.0192 -2.0277  0.7756
 5889SOL     OW29128   1.620   0.063   9.954 -0.5096  0.0817  0.2094
 5889SOL    HW129129   1.548   0.022  10.002 -0.5384  2.3133  2.0300
 5889SOL    HW229130   1.683   4.717   9.945 -0.2825  0.3585 -0.3391
 5890SOL     OW29131   2.784   2.964   7.993 -0.0880 -0.0875  0.1387
 5890SOL    HW129132   2.705   2.952   8.046 -0.6702  0.7172 -0.5636
 5890SOL    HW229133   2.750   2.984   7.906 -0.8358 -0.1115  0.4325
 5891SOL     OW29134   1.780   1.183   9.995  0.1220 -0.1507 -0.0425
 5891SOL    HW129135   1.741   1.268   9.972 -1.0281 -1.3534 -2.5521
 5891SOL    HW229136   1.741   1.179  10.082 -0.1259  0.4967 -0.1254
 5892SOL     OW29137   0.209   2.686   5.018 -0.0422  0.4036  0.9376
 5892SOL    HW129138   0.301   2.692   4.993 -0.3102  0.5773  0.0145
 5892SOL    HW229139   0.168   2.701   4.933  0.3778 -1.7227  0.3487
 5893SOL     OW29140   3.588   2.770   0.342  0.8569  0.2217  0.2870
 5893SOL    HW129141   3.607   2.734   0.428  0.7587  0.0971  0.2573
 5893SOL    HW229142   3.680   2.780   0.317  1.5260 -0.6696  2.4253
 5894SOL     OW29143   3.798   3.311   4.891 -0.6651  0.2070 -0.0378
 5894SOL    HW129144   3.706   3.338   4.883 -0.3319  1.6928  1.0921
 5894SOL    HW229145   3.791   3.229   4.939  0.5134  0.3070  0.2900
 5895SOL     OW29146   4.440   2.332   8.148 -0.0505  0.2771  0.4892
 5895SOL    HW129147   4.406   2.332   8.238 -1.2552 -0.1350  0.0309
 5895SOL    HW229148   4.530   2.307   8.167  0.2282  0.7195 -0.3090
 5896SOL     OW29149   0.286   2.512   9.113 -0.6391 -0.4516 -0.4479
 5896SOL    HW129150   0.315   2.588   9.063 -0.4800 -1.6453 -2.1487
 5896SOL    HW229151   0.292   2.550   9.201  1.9947  1.1743 -1.3085
 5897SOL     OW29152   0.747   3.057  13.459 -0.5505 -0.0744 -0.0818
 5897SOL    HW129153   0.693   3.112  13.404  0.4462  0.0901 -0.9060
 5897SOL    HW229154   0.806   3.038  13.386  1.3493 -0.0265  1.4146
 5898SOL     OW29155   0.827   2.027  10.467 -0.6134  0.0602  0.0512
 5898SOL    HW129156   0.920   2.045  10.455 -1.2785  2.4148 -1.5021
 5898SOL    HW229157   0.800   2.112  10.501 -0.7690  0.0815 -0.1259
 5899SOL     OW29158   2.848   2.094   6.268  0.1920  0.0471  0.9102
 5899SOL    HW129159   2.904   2.077   6.344 -1.0265  0.8782  2.0038
 5899SOL    HW229160   2.813   2.178   6.299 -1.4538  0.6967 -2.7564
 5900SOL     OW29161   4.203   0.661   5.971 -0.5742  0.1177 -0.2632
 5900SOL    HW129162   4.256   0.741   5.975 -0.6729  0.0708  1.8308
 5900SOL    HW229163   4.189   0.648   6.065  1.3220 -0.0399 -0.0013
 5901SOL     OW29164   0.655   1.486   4.176 -0.0540  0.1893  0.3076
 5901SOL    HW129165   0.669   1.580   4.164 -3.2110  0.9986  3.0411
 5901SOL    HW229166   0.734   1.453   4.220 -0.0171  0.2359  0.2769
 5902SOL     OW29167   2.193   3.941   4.469 -0.7468 -0.2762 -0.3858
 5902SOL    HW129168   2.180   3.916   4.378  0.6795  1.5569 -1.1001
 5902SOL    HW229169   2.287   3.946   4.485 -0.9903  1.1162  0.6302
 5903SOL     OW29170   2.589   0.574   7.882 -0.5003 -0.0103  0.0300
 5903SOL    HW129171   2.627   0.504   7.828 -0.3586 -0.7087  1.0319
 5903SOL    HW229172   2.567   0.519   7.957  2.9678  0.0596  1.0708
 5904SOL     OW29173   0.461   0.718   8.358 -0.1453  0.0753  0.1223
 5904SOL    HW129174   0.542   0.669   8.343 -1.3669 -1.8108 -0.3781
 5904SOL    HW229175   0.473   0.807   8.324 -1.7306 -0.3623 -1.5913
 5905SOL     OW29176   2.905   1.649   6.799 -0.5537 -0.2116  0.0603
 5905SOL    HW129177   2.988   1.602   6.810 -0.2041  0.3845 -0.0286
 5905SOL    HW229178   2.901   1.714   6.870  1.6737 -2.4610  2.2359
 5906SOL     OW29179   2.343   0.563   5.340  0.3715  0.5352 -0.0919
 5906SOL    HW129180   2.386   0.483   5.309  0.0692  0.8378 -1.2884
 5906SOL    HW229181   2.383   0.628   5.282 -0.2680  1.2057  0.2255
 5907SOL     OW29182   1.224   4.023   2.977 -0.0234  0.0017 -0.1401
 5907SOL    HW129183   1.214   3.966   3.053  0.8343  2.3354  1.7230
 5907SOL    HW229184   1.144   4.006   2.927  0.3361  0.4496 -0.8711
 5908SOL     OW29185   1.840   3.622  14.621  0.3359  0.4279 -0.2008
 5908SOL    HW129186   1.841   3.700  14.677 -0.9762  1.9673 -2.3332
 5908SOL    HW229187   1.745   3.612  14.611  0.1958  0.7260  0.8008
 5909SOL     OW29188   1.226   1.969   8.172  0.6821 -0.6008  0.0770
 5909SOL    HW129189   1.166   1.992   8.243  0.7862  0.4981 -0.1866
 5909SOL    HW229190   1.240   1.876   8.187 -2.5867 -1.1567 -0.2837
 5910SOL     OW29191   4.428   0.676   5.624  0.3394  0.3004  0.3355
 5910SOL    HW129192   4.465   0.756   5.660  1.6595 -0.4391  0.6270
 5910SOL    HW229193   4.359   0.706   5.564  1.5839  0.1953 -1.1726
 5911SOL     OW29194   2.477   2.020   5.021 -0.2256 -0.1121  0.1066
 5911SOL    HW129195   2.509   2.017   4.931  1.7648 -1.9192  0.8578
 5911SOL    HW229196   2.543   1.972   5.071  1.3460  1.8486 -0.1007
 5912SOL     OW29197   2.378   0.058  15.584 -0.4159 -0.0425  0.2914
 5912SOL    HW129198   2.419   4.705  15.547  1.6616  0.8046  0.8271
 5912SOL    HW229199   2.340   0.088  15.501  1.5486 -0.2274 -0.6614
 5913SOL     OW29200   2.288   1.731  14.675  0.0404  0.1990 -0.3278
 5913SOL    HW129201   2.357   1.738  14.610  0.6612  2.7552  0.6223
 5913SOL    HW229202   2.246   1.658  14.629 -0.3308  0.5041 -0.4717
 5914SOL     OW29203   2.176   2.066   9.904  0.2505  0.2482  1.0842
 5914SOL    HW129204   2.267   2.095   9.894  0.6851 -1.8825 -1.2426
 5914SOL    HW229205   2.131   2.136   9.857  0.8577  0.4200  0.7662
 5915SOL     OW29206   4.622   2.102  17.342  0.0815  0.0770  0.2903
 5915SOL    HW129207   4.561   2.042  17.385 -0.4563  0.6292  0.2969
 5915SOL    HW229208   4.651   2.162  17.412 -1.3379 -0.0228  0.9655
 5916SOL     OW29209   3.690   2.303  11.449 -0.5963  0.2934 -0.2689
 5916SOL    HW129210   3.769   2.252  11.430 -0.6357 -0.3128  1.1642
 5916SOL    HW229211   3.664   2.258  11.530  0.1823  2.7751  1.3499
 5917SOL     OW29212   2.598   3.877   0.603 -0.0244 -0.3348  0.2437
 5917SOL    HW129213   2.531   3.847   0.665 -2.6145 -0.6641 -2.7051
 5917SOL    HW229214   2.552   3.917   0.529  0.0277 -2.3229 -0.8559
 5918SOL     OW29215   1.306   3.125   2.315  0.0945 -0.0145  0.3248
 5918SOL    HW129216   1.276   3.136   2.405  0.9953  3.1701  0.2560
 5918SOL    HW229217   1.229   3.153   2.265  0.9647 -0.0385 -1.0283
 5919SOL     OW29218   2.919   0.238   2.348  0.4707 -0.3137  0.0030
 5919SOL    HW129219   2.930   0.183   2.271  0.2201 -0.3468 -0.0082
 5919SOL    HW229220   2.944   0.320   2.304  0.0333 -0.7470 -1.0634
 5920SOL     OW29221   2.528   3.707   1.687  0.4372 -0.2370  0.0201
 5920SOL    HW129222   2.560   3.628   1.644  1.2639  0.3881 -0.5204
 5920SOL    HW229223   2.514   3.672   1.775  0.7918  0.3125  0.3001
 5921SOL     OW29224   1.812   3.935   4.832  0.2240  0.0775  0.2459
 5921SOL    HW129225   1.829   4.029   4.824 -2.4779  0.5624  0.1899
 5921SOL    HW229226   1.888   3.911   4.885 -0.9534 -0.3991  1.7340
 5922SOL     OW29227   1.564   2.917   3.485  0.4345  0.3554  0.0925
 5922SOL    HW129228   1.588   2.976   3.413 -0.2321  0.2757 -0.1934
 5922SOL    HW229229   1.650   2.883   3.510  0.3414  1.3927  1.8211
 5923SOL     OW29230   2.489   3.510   4.497  0.2524  0.3052  0.4196
 5923SOL    HW129231   2.469   3.603   4.507 -2.0088 -0.7285  5.0739
 5923SOL    HW229232   2.404   3.468   4.502 -0.5807  1.9727  0.2056
 5924SOL     OW29233   2.160   3.090  11.042 -0.2525 -0.0772  0.6462
 5924SOL    HW129234   2.151   3.019  10.978  0.7223  0.6871 -0.3480
 5924SOL    HW229235   2.193   3.160  10.985  0.3365  0.0310  1.1191
 5925SOL     OW29236   3.040   3.911   3.963 -0.1208  0.1659  0.0665
 5925SOL    HW129237   3.099   3.905   3.888  1.1610  0.2593  1.0649
 5925SOL    HW229238   3.070   3.851   4.032  0.2247 -1.0350 -1.1252
 5926SOL     OW29239   2.055   1.318   5.888  0.6596 -0.8030 -0.0902
 5926SOL    HW129240   2.015   1.268   5.817  0.6645  0.0093 -0.6706
 5926SOL    HW229241   1.999   1.292   5.961  0.0414 -1.9754 -0.9832
 5927SOL     OW29242   2.735   2.922   6.638  0.2557  0.1432  0.4761
 5927SOL    HW129243   2.753   2.974   6.560 -0.1676  1.0388  0.9839
 5927SOL    HW229244   2.804   2.857   6.626 -1.0499 -0.8058 -1.9059
 5928SOL     OW29245   4.042   2.878   9.357  0.2306 -0.1678 -0.3096
 5928SOL    HW129246   4.096   2.831   9.293 -1.4089 -1.9311 -0.3706
 5928SOL    HW229247   4.115   2.916   9.406 -0.7154  0.6608  0.4707
 5929SOL     OW29248   4.045   0.271  15.716 -0.3875  0.0701 -0.6368
 5929SOL    HW129249   4.110   0.313  15.659  1.0314 -0.1514  0.8351
 5929SOL    HW229250   4.103   0.247  15.787 -2.5489  0.4565  1.2715
 5930SOL     OW29251   4.087   0.430   3.518  0.2513 -0.0187 -0.1201
 5930SOL    HW129252   4.157   0.394   3.464  0.9971 -0.4555  1.1346
 5930SOL    HW229253   4.043   0.483   3.452 -0.3155 -0.8133 -0.3831
 5931SOL     OW29254   0.047   4.000  10.867  0.1232 -0.0733 -0.1033
 5931SOL    HW129255   0.082   3.943  10.936  2.1704 -1.6607 -2.4742
 5931SOL    HW229256   0.127   4.037  10.830  0.3155 -1.8342 -1.4285
 5932SOL     OW29257   3.168   2.420   9.825  0.5117  0.2073 -0.2776
 5932SOL    HW129258   3.164   2.375   9.741 -0.0105 -1.5172  0.6748
 5932SOL    HW229259   3.159   2.348   9.888  3.3528 -0.3040 -0.4587
 5933SOL     OW29260   1.437   1.846   7.879 -0.1296  0.4350 -0.3371
 5933SOL    HW129261   1.476   1.801   7.805  0.2958 -0.3646  0.3781
 5933SOL    HW229262   1.351   1.807   7.890  0.5665 -0.9217  0.2457
 5934SOL     OW29263   3.118   0.075   8.429 -0.1367 -0.0343 -0.5810
 5934SOL    HW129264   3.175   0.093   8.504  3.6116  0.1624 -3.5389
 5934SOL    HW229265   3.108   4.705   8.436  0.5354 -0.0584  0.0083
 5935SOL     OW29266   2.697   2.147   2.983 -0.0373 -0.1961  0.1927
 5935SOL    HW129267   2.775   2.120   2.935 -0.0731  1.1481 -0.6258
 5935SOL    HW229268   2.640   2.074   2.957  0.5663 -0.6261  0.0929
 5936SOL     OW29269   1.795   0.917   4.184 -0.5772 -0.0625 -0.2890
 5936SOL    HW129270   1.834   0.854   4.123 -0.8318 -2.9051  2.4918
 5936SOL    HW229271   1.716   0.871   4.211 -1.1481  0.4693 -1.0440
 5937SOL     OW29272   3.763   1.978   6.383  0.1500 -0.2637  0.0296
 5937SOL    HW129273   3.670   1.970   6.405 -0.9498  2.9346 -3.5109
 5937SOL    HW229274   3.785   2.035   6.458  0.7742  0.9167 -1.0492
 5938SOL     OW29275   3.818   2.217  13.942 -0.3824  0.1766  0.6543
 5938SOL    HW129276   3.752   2.239  13.876 -0.5927 -0.9312  0.4937
 5938SOL    HW229277   3.779   2.253  14.022  0.5445  1.1585  0.6609
 5939SOL     OW29278   1.897   0.880   8.043  0.0990 -0.4104  0.4359
 5939SOL    HW129279   1.910   0.931   7.963 -0.5744  0.1919  0.7076
 5939SOL    HW229280   1.893   0.952   8.106  0.1751 -1.9664  2.2110
 5940SOL     OW29281   1.821   4.596   7.769 -0.0227  0.0334 -0.3513
 5940SOL    HW129282   1.862   4.524   7.817  3.1358  1.4363 -0.9774
 5940SOL    HW229283   1.879   4.664   7.802  1.6057 -1.9238  0.8487
 5941SOL     OW29284   0.466   3.301   3.677  0.7046 -0.4641  0.3142
 5941SOL    HW129285   0.490   3.209   3.672  2.3742 -0.0568  0.7140
 5941SOL    HW229286   0.505   3.329   3.760 -0.2055  0.1780  0.5268
 5942SOL     OW29287   4.178   3.713  17.343 -0.3362 -0.0980 -0.8556
 5942SOL    HW129288   4.259   3.716  17.395 -0.7294 -0.5722 -0.2065
 5942SOL    HW229289   4.112   3.681  17.405  1.2078  0.4784  1.0740
 5943SOL     OW29290   0.074   0.133   4.498  0.3121 -0.4257  0.4089
 5943SOL    HW129291   0.111   0.107   4.414 -1.4366 -0.5073 -0.3546
 5943SOL    HW229292   0.142   0.190   4.534 -0.1324  0.3801 -0.0034
 5944SOL     OW29293   0.996   2.361   8.900  0.7777  0.2098  0.2730
 5944SOL    HW129294   0.920   2.414   8.876 -1.0279 -2.8835 -0.9179
 5944SOL    HW229295   1.060   2.383   8.833 -0.6852  1.9561 -0.5443
 5945SOL     OW29296   2.284   1.036   5.683  0.2064  0.1912 -0.1178
 5945SOL    HW129297   2.327   0.951   5.676  0.2221  0.2528 -0.7686
 5945SOL    HW229298   2.270   1.052   5.589 -1.9432  0.3076  0.2272
 5946SOL     OW29299   1.848   3.321   1.875 -0.3466  0.2543 -0.0760
 5946SOL    HW129300   1.801   3.367   1.805 -0.2984 -2.1314 -1.6625
 5946SOL    HW229301   1.799   3.349   1.952 -1.2017  1.8618 -1.2032
 5947SOL     OW29302   2.771   1.331   8.479  0.3632  0.6196  0.0649
 5947SOL    HW129303   2.702   1.320   8.544 -1.5616  1.8659 -1.7314
 5947SOL    HW229304   2.781   1.426   8.470 -0.0803  0.5248 -1.5502
 5948SOL     OW29305   2.704   3.983   5.369  0.5750 -0.0408  1.1900
 5948SOL    HW129306   2.714   3.941   5.455 -1.5868 -0.1988  1.3528
 5948SOL    HW229307   2.734   3.907   5.320  2.6405  1.1914  0.5034
 5949SOL     OW29308   3.897   1.219   9.471  0.1727  0.1341  0.1624
 5949SOL    HW129309   3.893   1.142   9.413 -2.1437  0.5477 -0.2237
 5949SOL    HW229310   3.818   1.266   9.445 -1.0435 -1.2791  1.3141
 5950SOL     OW29311   3.758   3.483  11.850 -0.4614 -0.0018  0.4180
 5950SOL    HW129312   3.767   3.425  11.926 -1.4509 -1.4841 -0.5981
 5950SOL    HW229313   3.676   3.458  11.807  0.7399 -1.6838 -0.8918
 5951SOL     OW29314   3.843   2.065   9.335 -0.3430  0.0891  0.6362
 5951SOL    HW129315   3.865   2.106   9.419 -1.6669  0.0477  0.9997
 5951SOL    HW229316   3.848   2.142   9.279  2.0999 -1.6530 -1.5338
 5952SOL     OW29317   0.533   0.533   6.223  0.0941  0.2544 -0.5803
 5952SOL    HW129318   0.582   0.458   6.189 -0.3509 -0.3760  0.1452
 5952SOL    HW229319   0.448   0.490   6.227 -0.1385  0.7591 -0.0467
 5953SOL     OW29320   3.337   2.940   5.666  0.0477  0.3611  0.2688
 5953SOL    HW129321   3.241   2.937   5.672 -0.1069 -0.3217 -2.4631
 5953SOL    HW229322   3.365   2.876   5.731 -0.1714  0.2036  0.2085
 5954SOL     OW29323   4.246   4.392   5.903 -0.4466  0.3298 -0.1357
 5954SOL    HW129324   4.217   4.483   5.907 -0.9937  0.1294  0.4113
 5954SOL    HW229325   4.337   4.405   5.876 -0.2665 -0.0108  0.3106
 5955SOL     OW29326   2.638   0.072  15.394 -0.1112 -0.6594  0.1300
 5955SOL    HW129327   2.643   4.703  15.413  1.9888 -0.3034  1.3463
 5955SOL    HW229328   2.682   0.117  15.467  3.5684 -1.6680 -1.4790
 5956SOL     OW29329   1.532   4.667   6.180  0.0123 -0.5763 -0.1311
 5956SOL    HW129330   1.588   4.622   6.243 -2.1204 -1.5859  1.0428
 5956SOL    HW229331   1.456   4.609   6.188 -1.6001  1.3845 -1.2938
 5957SOL     OW29332   3.763   2.797   7.260  0.3634  0.2731 -0.2364
 5957SOL    HW129333   3.856   2.802   7.235  0.3163  0.9656 -0.2608
 5957SOL    HW229334   3.797   2.760   7.341  0.0789 -0.2888 -0.3706
 5958SOL     OW29335   1.407   1.303  10.995  0.0025  0.3017  0.0948
 5958SOL    HW129336   1.371   1.373  10.940  0.2717 -0.2611 -0.7977
 5958SOL    HW229337   1.492   1.340  11.020  0.1134 -1.0460  1.6823
 5959SOL     OW29338   0.510   0.252   4.610 -0.1454  0.6258 -0.0788
 5959SOL    HW129339   0.534   0.169   4.652  0.0411  1.0829  0.7270
 5959SOL    HW229340   0.566   0.250   4.533 -1.4004  3.0135 -1.0481
 5960SOL     OW29341   4.725   4.054   7.342  0.1009  0.0423  0.0557
 5960SOL    HW129342   0.021   3.961   7.334  0.9845  0.3431 -1.0451
 5960SOL    HW229343   0.092   4.078   7.342  0.1192 -0.0386  6.4846
 5961SOL     OW29344   0.396   1.497   9.830 -1.1761  0.2198 -0.2253
 5961SOL    HW129345   0.441   1.524   9.910 -2.0094 -0.8233  0.5761
 5961SOL    HW229346   0.471   1.459   9.784 -2.1600 -1.5266 -0.3569
 5962SOL     OW29347   0.255   2.814   3.678  0.1974 -0.4276  0.0066
 5962SOL    HW129348   0.307   2.777   3.607 -1.6422 -0.6689 -1.2237
 5962SOL    HW229349   0.323   2.822   3.745  0.0921 -1.0510  0.1906
 5963SOL     OW29350   4.305   0.277  13.673 -0.1801 -0.1219  0.0116
 5963SOL    HW129351   4.228   0.229  13.642  0.4318 -0.9272 -0.2465
 5963SOL    HW229352   4.313   0.246  13.763  2.0626 -1.6773 -0.7320
 5964SOL     OW29353   1.535   0.048   9.365 -0.2431 -0.2481 -0.0196
 5964SOL    HW129354   1.575   0.033   9.451 -0.4036 -2.3172 -0.3002
 5964SOL    HW229355   1.590   4.719   9.308  0.0389 -0.0830  0.0928
 5965SOL     OW29356   1.864   0.459   4.240  0.0574 -0.8375  0.3974
 5965SOL    HW129357   1.886   0.544   4.278  2.6466 -1.0003 -0.7738
 5965SOL    HW229358   1.923   0.404   4.292  0.3683  0.6815  1.6376
 5966SOL     OW29359   1.635   4.568   8.214 -0.1403 -0.1292  0.3093
 5966SOL    HW129360   1.568   4.595   8.152 -0.2625  0.2120  0.5866
 5966SOL    HW229361   1.716   4.601   8.175  0.0248 -0.2644  0.5339
 5967SOL     OW29362   1.459   2.293   3.322 -0.5650 -0.7982 -0.2769
 5967SOL    HW129363   1.370   2.275   3.292  1.1041 -3.9077 -3.3444
 5967SOL    HW229364   1.516   2.236   3.270  0.2136 -0.5419  0.2980
 5968SOL     OW29365   1.690   3.144  17.107  0.0352 -0.1333  0.1141
 5968SOL    HW129366   1.719   3.159  17.017 -0.0067 -0.5705  0.0237
 5968SOL    HW229367   1.602   3.110  17.092 -1.3265  3.1948  0.7171
 5969SOL     OW29368   2.842   4.345   2.972  0.2205  0.1276  0.0823
 5969SOL    HW129369   2.811   4.396   3.046 -0.3350  1.4003 -1.0249
 5969SOL    HW229370   2.810   4.397   2.898 -1.8417  1.6931  2.0934
 5970SOL     OW29371   3.890   1.264   4.522  0.4491 -0.5904  0.0103
 5970SOL    HW129372   3.939   1.293   4.599 -0.3827  0.7442  0.0222
 5970SOL    HW229373   3.952   1.288   4.454 -0.2548 -0.5734 -0.6212
 5971SOL     OW29374   2.879   4.054   6.956 -0.0605 -0.2167  0.0667
 5971SOL    HW129375   2.883   4.022   6.866 -0.6741 -1.7866  0.5946
 5971SOL    HW229376   2.800   4.106   6.943  0.8209  0.8404 -1.0211
 5972SOL     OW29377   0.742   2.083  11.023  0.1331 -0.1683 -0.8528
 5972SOL    HW129378   0.721   2.006  11.075 -0.6753  0.2948 -0.4795
 5972SOL    HW229379   0.797   2.132  11.085 -1.0975  2.4673 -1.8469
 5973SOL     OW29380   1.568   1.680   2.798  0.1072 -0.0438 -0.8293
 5973SOL    HW129381   1.481   1.638   2.800  0.0186  0.2272  1.6329
 5973SOL    HW229382   1.600   1.650   2.713  0.2379  2.3158 -1.6006
 5974SOL     OW29383   4.192   3.464   1.283  0.0700  0.5382 -0.1068
 5974SOL    HW129384   4.115   3.407   1.283  1.0737 -0.8132 -0.6088
 5974SOL    HW229385   4.163   3.532   1.344  1.0373  0.5614  0.3280
 5975SOL     OW29386   3.715   0.936   5.602 -0.5002  0.3829 -0.1624
 5975SOL    HW129387   3.680   0.921   5.690  0.6516  4.3140  0.9390
 5975SOL    HW229388   3.763   1.017   5.616  1.5588 -0.7283 -0.8411
 5976SOL     OW29389   0.303   0.852   7.595  0.4192 -0.2158  0.2478
 5976SOL    HW129390   0.337   0.802   7.669  1.6124 -0.2076 -0.3092
 5976SOL    HW229391   0.211   0.855   7.623  0.6100  0.5749  0.7926
 5977SOL     OW29392   1.304   2.249   9.316  0.0020 -0.5749  0.6826
 5977SOL    HW129393   1.293   2.342   9.337 -1.7287 -0.2102 -1.8058
 5977SOL    HW229394   1.387   2.231   9.360 -0.8763  0.2030  2.6491
 5978SOL     OW29395   3.478   0.318   9.371  1.0829  1.2045 -0.0848
 5978SOL    HW129396   3.418   0.380   9.412 -0.5702  0.2443 -0.9903
 5978SOL    HW229397   3.440   0.234   9.400  1.2297  0.9192 -0.7150
 5979SOL     OW29398   1.795   4.350   6.588 -1.1828  0.1770  0.3781
 5979SOL    HW129399   1.816   4.261   6.616  1.0349  0.3809 -0.6562
 5979SOL    HW229400   1.700   4.344   6.604 -1.5623  3.2083 -0.8905
 5980SOL     OW29401   0.260   3.265   6.618  0.3082 -0.0043  0.5763
 5980SOL    HW129402   0.205   3.201   6.572  1.9265 -0.0778 -1.2089
 5980SOL    HW229403   0.220   3.261   6.706  1.8411 -0.4835  1.2404
 5981SOL     OW29404   0.217   1.844  12.289 -0.3602  0.0776 -0.2762
 5981SOL    HW129405   0.274   1.851  12.365 -2.3417 -0.1725  1.2215
 5981SOL    HW229406   0.196   1.935  12.266 -0.1049  0.0067 -0.7874
 5982SOL     OW29407   3.199   0.539   7.409  0.5237  0.4176 -1.2373
 5982SOL    HW129408   3.234   0.625   7.387  2.6758 -0.1802 -0.1790
 5982SOL    HW229409   3.107   0.567   7.407 -0.1972 -1.8077  0.4957
 5983SOL     OW29410   1.402   2.084   4.428  0.4276 -0.2906 -0.4068
 5983SOL    HW129411   1.435   2.016   4.369 -0.8492  0.7071 -2.2926
 5983SOL    HW229412   1.398   2.028   4.506 -2.3887 -0.2862 -0.5412
 5984SOL     OW29413   3.023   4.012   2.061  0.0812  0.6616 -0.4386
 5984SOL    HW129414   2.988   4.050   2.142  2.5387  0.0269  0.9169
 5984SOL    HW229415   2.973   3.930   2.057  0.3591  0.5437 -1.5025
 5985SOL     OW29416   4.286   3.670   3.301  0.8672 -0.1994  0.1241
 5985SOL    HW129417   4.379   3.690   3.312  0.7148  1.6553 -1.8387
 5985SOL    HW229418   4.274   3.695   3.209  0.3375 -0.5930  0.0846
 5986SOL     OW29419   4.617   1.704   3.975 -0.7753  0.1287  0.4105
 5986SOL    HW129420   4.711   1.689   3.989 -0.1279  2.0068 -1.9110
 5986SOL    HW229421   4.626   1.788   3.930 -0.6395  0.3872  0.9080
 5987SOL     OW29422   1.560   1.369   4.501  0.1403 -0.2097  0.5932
 5987SOL    HW129423   1.578   1.276   4.517 -0.3962 -0.2477  0.9834
 5987SOL    HW229424   1.549   1.397   4.591 -0.7092 -0.7078  0.6390
 5988SOL     OW29425   0.120   0.170   3.141 -0.3429  0.0674 -0.1728
 5988SOL    HW129426   0.096   0.080   3.123 -1.0805 -0.0496  1.4312
 5988SOL    HW229427   0.043   0.219   3.113 -0.4917 -0.5058 -0.7537
 5989SOL     OW29428   3.443   3.037   1.673  0.2673 -0.5892 -0.4308
 5989SOL    HW129429   3.467   2.946   1.657  0.0346 -0.4401 -1.6163
 5989SOL    HW229430   3.397   3.068   1.594  0.4008 -0.9100 -0.6343
 5990SOL     OW29431   2.772   0.247   5.170  0.0062 -0.0162 -0.6685
 5990SOL    HW129432   2.736   0.319   5.119 -0.4091  0.9470  1.0177
 5990SOL    HW229433   2.848   0.224   5.115  0.5482 -2.3488  1.0737
 5991SOL     OW29434   3.501   2.658   9.759  0.0562  0.2349 -0.5325
 5991SOL    HW129435   3.555   2.737   9.758  2.0767 -1.1311  2.7758
 5991SOL    HW229436   3.464   2.666   9.671  0.1510  0.0822 -0.5868
 5992SOL     OW29437   1.287   1.987   7.167  0.4149 -0.5300  0.4009
 5992SOL    HW129438   1.318   2.066   7.211  0.4880  1.8273 -3.9916
 5992SOL    HW229439   1.196   1.971   7.193 -0.2523  0.1303 -1.5664
 5993SOL     OW29440   0.823   0.893   4.686  0.3221 -0.1254 -0.3596
 5993SOL    HW129441   0.897   0.933   4.732  0.5630  1.7453 -2.4191
 5993SOL    HW229442   0.870   0.847   4.617 -0.1804  0.3157 -0.9930
 5994SOL     OW29443   4.276   0.056   8.057 -0.4161  0.6972  0.1882
 5994SOL    HW129444   4.312   0.047   7.968 -0.2697  0.1488  0.3027
 5994SOL    HW229445   4.183   0.063   8.037 -0.0724  0.5241 -1.4919
 5995SOL     OW29446   3.474   3.834  14.461  0.4375  0.2651  0.0859
 5995SOL    HW129447   3.495   3.860  14.371 -1.4290  0.0707 -0.4029
 5995SOL    HW229448   3.466   3.740  14.445 -0.3905  0.4086 -0.3335
 5996SOL     OW29449   2.183   2.639   2.519  0.8373  0.0625  0.4625
 5996SOL    HW129450   2.225   2.554   2.534 -0.5947 -1.0615 -1.9474
 5996SOL    HW229451   2.207   2.679   2.603  0.0122  0.5451  0.4599
 5997SOL     OW29452   2.953   0.668   2.384  0.4358 -0.6761  0.2695
 5997SOL    HW129453   2.863   0.674   2.417  0.4812 -1.3432  0.5010
 5997SOL    HW229454   2.975   0.588   2.336  0.0535 -0.8994  0.4691
 5998SOL     OW29455   4.290   1.640  11.968 -0.5519  0.1919  0.3177
 5998SOL    HW129456   4.199   1.622  11.993 -0.2765  0.6219  1.6366
 5998SOL    HW229457   4.264   1.723  11.927 -0.7381 -0.5241 -0.9987
 5999SOL     OW29458   3.765   0.433   6.371  0.6152  1.3981  0.3624
 5999SOL    HW129459   3.725   0.402   6.290  1.1641 -0.2159  0.7097
 5999SOL    HW229460   3.760   0.529   6.369 -0.1515  1.3507  0.1132
 6000SOL     OW29461   4.473   0.276   4.251 -0.4502  0.2262 -0.1092
 6000SOL    HW129462   4.453   0.366   4.276  0.6860 -0.5401  3.6235
 6000SOL    HW229463   4.413   0.261   4.178 -1.7026  0.5608  0.8349
 6001SOL     OW29464   0.279   1.623   9.080 -0.0806  0.0125 -0.0742
 6001SOL    HW129465   0.287   1.711   9.116  2.0804  0.4575 -1.5907
 6001SOL    HW229466   0.363   1.622   9.033 -0.6789  0.3875 -1.1544
 6002SOL     OW29467   3.550   4.293  16.867  0.1698  0.2963 -0.0206
 6002SOL    HW129468   3.630   4.253  16.902 -0.3423 -0.4079  0.3311
 6002SOL    HW229469   3.588   4.368  16.820 -3.4270  1.3970 -1.1698
 6003SOL     OW29470   2.844   0.764   7.141  0.5322 -0.1868 -0.0493
 6003SOL    HW129471   2.912   0.828   7.162  0.4682 -0.1270 -0.0230
 6003SOL    HW229472   2.858   0.708   7.217  0.4164  0.5243  0.4952
 6004SOL     OW29473   2.712   4.697   5.695  0.4375 -0.4574 -0.4009
 6004SOL    HW129474   2.648   4.658   5.754 -1.3134  3.2856  0.1971
 6004SOL    HW229475   2.784   4.637   5.715  0.2250 -0.1340  1.3092
 6005SOL     OW29476   0.821   3.091  13.201  0.0194  0.4078  0.0388
 6005SOL    HW129477   0.767   3.071  13.124 -0.0948 -0.6635  0.4060
 6005SOL    HW229478   0.862   3.170  13.166  0.5858 -0.0665 -0.3677
 6006SOL     OW29479   0.486   2.335   9.501  0.0164  0.2509 -0.7219
 6006SOL    HW129480   0.497   2.422   9.462  2.0367  0.2699 -0.1502
 6006SOL    HW229481   0.469   2.351   9.593  1.6618  2.5142 -0.8021
 6007SOL     OW29482   2.837   0.453  14.361  0.1758 -0.1413  0.4504
 6007SOL    HW129483   2.809   0.412  14.442 -0.5443  0.2338  0.3960
 6007SOL    HW229484   2.930   0.461  14.384  0.2289  1.4983 -0.3290
 6008SOL     OW29485   1.822   4.087  10.742 -0.0467 -0.0500  0.2652
 6008SOL    HW129486   1.885   4.141  10.696 -0.5877 -0.7103 -1.2546
 6008SOL    HW229487   1.830   4.117  10.833  0.9728  0.7076 -0.0870
 6009SOL     OW29488   1.080   4.155   4.639 -0.4031  0.3040  0.5004
 6009SOL    HW129489   1.025   4.077   4.639 -0.9778  0.7013  1.7989
 6009SOL    HW229490   1.123   4.139   4.723 -0.5794  0.1114  0.5548
 6010SOL     OW29491   1.355   1.516  10.249  0.1446 -0.2107  0.2729
 6010SOL    HW129492   1.407   1.578  10.299  0.3931  1.0905 -1.5934
 6010SOL    HW229493   1.417   1.443  10.247 -1.2874 -1.4773  1.9041
 6011SOL     OW29494   3.339   2.944   2.352 -0.2951  0.1946  0.0189
 6011SOL    HW129495   3.340   3.033   2.388 -0.9962  0.4155 -0.5238
 6011SOL    HW229496   3.322   2.898   2.435 -1.5179  1.2480  0.3366
 6012SOL     OW29497   0.586   2.831  16.486  0.3190  0.2043 -0.2119
 6012SOL    HW129498   0.627   2.910  16.451  1.0320 -0.3394 -0.5894
 6012SOL    HW229499   0.634   2.819  16.568  2.1961 -1.4018 -1.5508
 6013SOL     OW29500   2.969   0.796  11.708  0.2358 -0.5980 -0.0725
 6013SOL    HW129501   3.049   0.836  11.675  0.3803  0.5296  1.5885
 6013SOL    HW229502   2.968   0.714  11.659 -0.6810 -1.0038  0.6365
 6014SOL     OW29503   1.499   0.241  16.403  0.0642  0.1302  0.5340
 6014SOL    HW129504   1.560   0.311  16.379 -1.4932  0.9739 -0.9154
 6014SOL    HW229505   1.421   0.293  16.419 -1.1899 -0.7860 -2.6170
 6015SOL     OW29506   1.014   1.588  15.346 -0.2443  0.8156  0.0114
 6015SOL    HW129507   0.928   1.549  15.358  0.1498  0.4538  1.6243
 6015SOL    HW229508   1.067   1.514  15.377 -1.1950  0.3350  0.4748
 6016SOL     OW29509   0.448   0.997   6.773 -0.3730 -0.3270  0.2962
 6016SOL    HW129510   0.519   1.027   6.829 -2.0031  1.0084  1.6463
 6016SOL    HW229511   0.426   0.910   6.803 -0.4511 -0.8946 -1.3782
 6017SOL     OW29512   4.307   1.114   7.133  0.3439 -0.5006 -0.0125
 6017SOL    HW129513   4.388   1.158   7.155 -1.5678  1.1810  3.7244
 6017SOL    HW229514   4.253   1.124   7.211  0.1115 -0.3496 -0.1924
 6018SOL     OW29515   3.635   0.507   6.141 -0.0032  0.7153  0.1429
 6018SOL    HW129516   3.580   0.482   6.067  1.5323 -1.0858 -0.4089
 6018SOL    HW229517   3.562   0.506   6.202 -1.0749  1.9758 -1.1448
 6019SOL     OW29518   4.430   0.622   4.696 -0.1441 -0.0282 -0.3732
 6019SOL    HW129519   4.379   0.659   4.623  0.9925 -0.6334 -1.4685
 6019SOL    HW229520   4.368   0.641   4.766 -0.1953  0.0568 -0.4405
 6020SOL     OW29521   1.381   4.512   3.535  0.8820 -0.0226 -0.0530
 6020SOL    HW129522   1.316   4.456   3.578  0.8535  0.8261  0.9991
 6020SOL    HW229523   1.368   4.494   3.441  1.1835  0.7303 -0.2372
 6021SOL     OW29524   3.107   2.321  10.286  0.1457  0.3695 -0.1274
 6021SOL    HW129525   3.143   2.293  10.202 -0.4780  0.7733 -0.5259
 6021SOL    HW229526   3.042   2.260  10.320  1.1762 -1.1890 -0.9302
 6022SOL     OW29527   3.856   3.043   5.005  0.1133 -0.7130  0.3224
 6022SOL    HW129528   3.940   3.008   4.976  0.5171 -0.8938  1.7150
 6022SOL    HW229529   3.830   2.974   5.066 -6.6107  0.1271 -1.5426
 6023SOL     OW29530   3.055   1.999   8.173 -0.6450  0.2208 -0.4735
 6023SOL    HW129531   2.973   1.953   8.160 -0.5683  0.0864 -0.4825
 6023SOL    HW229532   3.022   2.083   8.205  2.6076  1.0104  0.8152
 6024SOL     OW29533   3.871   2.697   2.600  0.2122 -0.0192 -0.1948
 6024SOL    HW129534   3.947   2.713   2.543  0.3291 -1.1245 -0.3368
 6024SOL    HW229535   3.891   2.606   2.623  0.6050  0.0998 -0.0607
 6025SOL     OW29536   2.515   1.535   2.566  0.3783 -0.2734 -0.2870
 6025SOL    HW129537   2.445   1.533   2.501 -1.6763  1.3202  1.9062
 6025SOL    HW229538   2.459   1.582   2.628  0.3177  0.8891 -1.2273
 6026SOL     OW29539   0.560   2.365   1.342 -0.3025  0.3495  0.4351
 6026SOL    HW129540   0.538   2.416   1.264  0.3739 -0.6555 -0.3913
 6026SOL    HW229541   0.614   2.436   1.377 -0.3729  0.4667  0.3100
 6027SOL     OW29542   3.317   2.680   5.415 -0.3033 -0.8680  0.1913
 6027SOL    HW129543   3.235   2.630   5.413  0.2249 -1.6676 -1.2877
 6027SOL    HW229544   3.295   2.769   5.387 -1.6936 -2.2228 -3.0928
 6028SOL     OW29545   0.981   2.253   6.441 -0.4004 -0.1013 -0.2792
 6028SOL    HW129546   0.974   2.157   6.438  2.0622 -0.3375  1.9480
 6028SOL    HW229547   0.999   2.268   6.534 -0.7178  0.1711 -0.2623
 6029SOL     OW29548   0.142   1.397   6.104  0.2711  0.0054 -0.3072
 6029SOL    HW129549   0.118   1.490   6.107 -0.2167 -0.1458  0.2770
 6029SOL    HW229550   0.226   1.406   6.058  1.8041  2.5813  2.9851
 6030SOL     OW29551   3.930   0.270   8.095 -0.1867 -0.6026  0.1586
 6030SOL    HW129552   3.978   0.287   8.176 -0.7356 -0.7496  0.5090
 6030SOL    HW229553   3.853   0.235   8.138 -1.2397  2.5043  0.7972
 6031SOL     OW29554   2.603   4.353   1.047 -0.3947  0.2501 -0.1086
 6031SOL    HW129555   2.631   4.435   1.086 -2.8242  1.5590 -1.1766
 6031SOL    HW229556   2.590   4.383   0.957  1.5301  2.7048  0.4514
 6032SOL     OW29557   2.828   4.565   1.509 -0.3650  0.1940  0.0803
 6032SOL    HW129558   2.753   4.526   1.554  0.0411  0.7353  1.2130
 6032SOL    HW229559   2.904   4.546   1.564 -0.1191 -1.0418 -0.6806
 6033SOL     OW29560   0.550   0.535   3.884 -0.5873 -0.4890  0.7050
 6033SOL    HW129561   0.530   0.442   3.876  0.1822 -0.6747  0.9726
 6033SOL    HW229562   0.589   0.541   3.971 -0.7234 -1.4390  0.8338
 6034SOL     OW29563   4.315   3.259   3.750 -0.4953 -0.5916  0.2227
 6034SOL    HW129564   4.367   3.324   3.798 -1.5324  2.3915 -2.6531
 6034SOL    HW229565   4.232   3.260   3.797 -1.0958 -3.9662 -0.7845
 6035SOL     OW29566   4.550   0.645   8.590 -0.5150  0.4261 -0.8929
 6035SOL    HW129567   4.457   0.635   8.567 -0.1848 -1.9364 -1.1592
 6035SOL    HW229568   4.578   0.696   8.514  1.4212  1.5856  0.5867
 6036SOL     OW29569   1.169   0.547   8.479 -0.3205 -0.2047  0.1560
 6036SOL    HW129570   1.254   0.505   8.471  0.8486  2.3871 -0.7948
 6036SOL    HW229571   1.130   0.538   8.392  2.2616  1.9531 -1.2214
 6037SOL     OW29572   4.457   0.794  15.620 -0.2584  0.2800  0.2839
 6037SOL    HW129573   4.531   0.845  15.653  0.1439 -0.2553  0.2113
 6037SOL    HW229574   4.463   0.720  15.681  0.5256 -0.9677 -1.3114
 6038SOL     OW29575   1.643   1.747   2.155  0.0140  0.2366  0.5486
 6038SOL    HW129576   1.641   1.838   2.126  0.9161  0.2667  0.5583
 6038SOL    HW229577   1.551   1.722   2.164  0.1365 -0.6507 -0.5388
 6039SOL     OW29578   3.694   1.783   0.990 -0.2434 -0.0065 -0.0685
 6039SOL    HW129579   3.671   1.850   1.055  4.2317  2.8112 -1.3714
 6039SOL    HW229580   3.780   1.752   1.016 -0.3046  0.0616  0.2115
 6040SOL     OW29581   2.750   2.295   1.675  0.4144  0.0951 -0.1912
 6040SOL    HW129582   2.794   2.211   1.663 -1.1726 -0.5588 -1.3729
 6040SOL    HW229583   2.832   2.344   1.688 -0.1569  0.6491  1.3930
 6041SOL     OW29584   3.353   2.086  14.519  0.0123  0.4878 -0.1808
 6041SOL    HW129585   3.307   2.008  14.548  1.2624  0.4755  1.7848
 6041SOL    HW229586   3.290   2.159  14.523  2.3016  2.5561 -1.7049
 6042SOL     OW29587   2.919   3.153   6.002 -0.1521  0.3186 -0.7598
 6042SOL    HW129588   2.839   3.131   6.049  0.6139  0.3088  0.5488
 6042SOL    HW229589   2.889   3.196   5.922 -2.4450  0.3948  0.1629
 6043SOL     OW29590   4.646   2.981   5.228 -0.1177 -0.3012  0.0227
 6043SOL    HW129591   4.583   2.969   5.299  0.5069  0.1765  0.6662
 6043SOL    HW229592   4.595   3.043   5.176  1.0466  1.7288  1.2605
 6044SOL     OW29593   1.513   3.555   8.431 -0.2552  0.3495 -0.4253
 6044SOL    HW129594   1.452   3.628   8.417 -2.8789 -1.6171  0.8788
 6044SOL    HW229595   1.458   3.494   8.479  0.9701 -0.6662 -0.3285
 6045SOL     OW29596   1.491   2.370   3.792  0.1066 -0.1272  0.3071
 6045SOL    HW129597   1.445   2.399   3.713 -1.5555  1.0553  1.7217
 6045SOL    HW229598   1.573   2.418   3.781 -0.4093  0.2980 -1.6731
 6046SOL     OW29599   1.220   3.127   2.587  0.3139 -0.3562 -0.5712
 6046SOL    HW129600   1.272   3.103   2.664  0.2148  0.3386 -0.2870
 6046SOL    HW229601   1.179   3.042   2.569 -2.6116  0.8521  0.4610
 6047SOL     OW29602   0.179   1.961   1.791  0.1227  0.0602  0.0233
 6047SOL    HW129603   0.138   1.881   1.824  0.5214 -0.9598 -1.9923
 6047SOL    HW229604   0.110   2.024   1.811 -1.8407 -2.0624 -0.1356
 6048SOL     OW29605   1.649   3.456   6.503  0.7123  0.2358  0.4559
 6048SOL    HW129606   1.692   3.402   6.437  0.9372  4.2393 -2.7006
 6048SOL    HW229607   1.583   3.395   6.535  1.0432 -0.0235  0.6332
 6049SOL     OW29608   4.006   0.736   1.880 -0.1283 -0.0133 -0.4527
 6049SOL    HW129609   4.081   0.786   1.910 -0.8822  0.4371  0.6912
 6049SOL    HW229610   4.016   0.720   1.786 -1.7235 -0.3010 -0.5784
 6050SOL     OW29611   1.110   0.712   1.113  0.0378 -0.2883 -0.4306
 6050SOL    HW129612   1.200   0.735   1.092  0.4250 -1.3675  0.0553
 6050SOL    HW229613   1.084   0.675   1.029 -1.3677  0.7063 -0.4365
 6051SOL     OW29614   0.462   1.581   7.268 -0.2434 -0.4824 -0.2353
 6051SOL    HW129615   0.447   1.667   7.229 -1.7940 -0.5461  0.2350
 6051SOL    HW229616   0.490   1.606   7.356  0.8292  0.2858 -0.7980
 6052SOL     OW29617   3.235   2.104   3.113 -0.2422 -0.2509  0.8406
 6052SOL    HW129618   3.219   2.047   3.037 -1.5724 -0.1949  1.0816
 6052SOL    HW229619   3.201   2.187   3.082 -0.6398 -0.7019  0.0691
 6053SOL     OW29620   4.101   4.356   8.887  0.0187  0.3923 -0.0092
 6053SOL    HW129621   4.117   4.263   8.879 -0.5538  0.3656 -0.8513
 6053SOL    HW229622   4.110   4.388   8.797 -3.0988 -1.0602 -0.8422
 6054SOL     OW29623   2.703   3.135   6.186 -0.0335  0.5541 -0.0613
 6054SOL    HW129624   2.671   3.225   6.181 -2.1646 -0.1424  1.0145
 6054SOL    HW229625   2.628   3.088   6.221  1.9763 -0.6216  2.6926
 6055SOL     OW29626   0.136   1.444   2.199 -0.1415 -0.3091 -0.2584
 6055SOL    HW129627   0.126   1.386   2.274 -0.1995  1.2852  0.9833
 6055SOL    HW229628   0.162   1.374   2.139  1.6504 -2.2388  2.8207
 6056SOL     OW29629   0.880   2.630   4.824 -0.0710 -0.7556 -0.3114
 6056SOL    HW129630   0.932   2.552   4.844  0.6347 -0.4827 -1.0746
 6056SOL    HW229631   0.794   2.595   4.847  0.8535 -3.1674 -0.4703
 6057SOL     OW29632   2.380   3.801   0.774  0.4486  0.0237  0.2091
 6057SOL    HW129633   2.351   3.858   0.846  1.1984  1.4973 -0.6596
 6057SOL    HW229634   2.302   3.798   0.719 -0.1001  0.1782  0.9859
 6058SOL     OW29635   1.895   1.253   4.743  0.4325 -0.1617 -0.0281
 6058SOL    HW129636   1.878   1.341   4.709 -2.3147 -0.9429 -0.6865
 6058SOL    HW229637   1.854   1.250   4.830  0.0797  1.4094 -0.1389
 6059SOL     OW29638   1.063   4.612   7.096 -0.3826 -0.1372  0.1734
 6059SOL    HW129639   1.002   4.648   7.031 -0.1549 -0.2671 -0.1152
 6059SOL    HW229640   1.089   4.532   7.051  1.5043  0.2006  0.6580
 6060SOL     OW29641   0.191   4.605  17.635  0.1410  0.5300 -0.4770
 6060SOL    HW129642   0.276   4.648  17.648  0.0267  0.5340  0.3007
 6060SOL    HW229643   0.142   4.662  17.577  2.6159  1.1820 -1.9136
 6061SOL     OW29644   0.207   1.395   8.721 -0.1665  0.3425  0.4588
 6061SOL    HW129645   0.300   1.377   8.712 -1.1491 -3.3914 -2.1149
 6061SOL    HW229646   0.177   1.325   8.778  0.9119 -0.7568 -0.3413
 6062SOL     OW29647   1.177   1.356   3.609 -0.0163 -0.0623  0.4976
 6062SOL    HW129648   1.222   1.440   3.609 -0.4705  0.1781  0.8622
 6062SOL    HW229649   1.122   1.367   3.686 -1.9919 -2.8862 -0.4812
 6063SOL     OW29650   2.916   3.218   4.108 -0.7788  0.4454 -0.5193
 6063SOL    HW129651   2.878   3.226   4.195 -2.2626 -0.5408 -1.0908
 6063SOL    HW229652   3.008   3.230   4.132 -0.9550 -0.4992  0.6294
 6064SOL     OW29653   1.916   1.367   6.634  0.2076 -0.2979 -0.3943
 6064SOL    HW129654   1.996   1.335   6.676 -0.3317 -0.8925  0.1699
 6064SOL    HW229655   1.872   1.399   6.713  0.2082 -0.6937 -0.2375
 6065SOL     OW29656   2.531   2.727   6.300 -0.1141 -0.4646  0.0984
 6065SOL    HW129657   2.513   2.808   6.346 -1.1129 -1.1323  0.8885
 6065SOL    HW229658   2.575   2.761   6.222  3.5102  0.6045  2.5798
 6066SOL     OW29659   1.283   1.899   3.403 -0.1501  0.0616  0.0027
 6066SOL    HW129660   1.217   1.831   3.393 -3.1821  2.6721  2.0776
 6066SOL    HW229661   1.310   1.918   3.313  0.1157 -0.8592 -0.1078
 6067SOL     OW29662   1.458   4.505  11.275  0.1644  0.1874 -0.3317
 6067SOL    HW129663   1.406   4.424  11.270 -1.5689  1.2794  0.0956
 6067SOL    HW229664   1.381   4.558  11.256 -0.1493 -0.2884 -0.4071
 6068SOL     OW29665   0.365   2.936   8.023  0.6016  0.1526  0.4726
 6068SOL    HW129666   0.333   2.848   8.044 -0.8686  0.4820 -0.3877
 6068SOL    HW229667   0.308   2.994   8.073  0.7142  0.3908  0.3257
 6069SOL     OW29668   4.619   0.569   3.612  0.3259 -0.0679 -0.4776
 6069SOL    HW129669   4.599   0.645   3.668  0.0282  0.3513 -1.1642
 6069SOL    HW229670   4.712   0.566   3.637  0.0532  1.5116  0.7618
 6070SOL     OW29671   1.215   2.734  13.147  0.6740 -0.1369 -0.1645
 6070SOL    HW129672   1.181   2.694  13.227 -0.8631  0.8877 -0.3042
 6070SOL    HW229673   1.146   2.796  13.122  1.1471  0.6592  0.5399
 6071SOL     OW29674   3.955   2.544   5.475  0.0328  0.1976  0.1214
 6071SOL    HW129675   3.883   2.486   5.498  0.5782 -1.1996 -1.6090
 6071SOL    HW229676   3.912   2.605   5.415 -0.7831  0.7053  1.2447
 6072SOL     OW29677   1.567   3.569   0.760  0.3306  0.2605  0.7161
 6072SOL    HW129678   1.514   3.647   0.748  0.4323  0.3548  0.8872
 6072SOL    HW229679   1.567   3.560   0.856 -0.5390 -2.7463  0.4421
 6073SOL     OW29680   2.429   0.007   7.678 -0.5112 -0.2091  0.4853
 6073SOL    HW129681   2.344   4.692   7.662 -2.0613  2.0068  3.2204
 6073SOL    HW229682   2.490   4.685   7.621 -0.6659 -1.1043  1.0573
 6074SOL     OW29683   4.511   2.268   1.185  0.3130 -0.0855 -0.1779
 6074SOL    HW129684   4.597   2.227   1.178  0.0950 -0.3325 -1.5697
 6074SOL    HW229685   4.494   2.270   1.279  2.7118  1.5472  0.2193
 6075SOL     OW29686   2.575   2.363  13.262  0.1049  0.0175  0.2032
 6075SOL    HW129687   2.536   2.343  13.178  1.9590 -3.3292  0.1429
 6075SOL    HW229688   2.582   2.457  13.244 -2.4048 -0.1811 -1.7527
 6076SOL     OW29689   4.641   0.254   3.757  0.6260 -0.7146  0.2390
 6076SOL    HW129690   4.673   0.195   3.689 -2.2380 -1.3561 -0.5290
 6076SOL    HW229691   4.584   0.308   3.703  1.0701  1.7067  2.1830
 6077SOL     OW29692   1.420   4.670   8.098  0.7427 -0.4804  0.0065
 6077SOL    HW129693   1.351   4.611   8.131  0.5053  0.4875  1.2058
 6077SOL    HW229694   1.359   0.011   8.065  0.6761  0.2889  1.7329
 6078SOL     OW29695   0.604   0.905  13.301 -0.0732  0.2279 -0.4040
 6078SOL    HW129696   0.514   0.873  13.300  0.1952 -0.5506 -0.2373
 6078SOL    HW229697   0.657   0.825  13.292  0.5349  0.6930 -0.9471
 6079SOL     OW29698   3.568   2.607  12.943  0.8801  0.0250  0.3238
 6079SOL    HW129699   3.597   2.556  12.868  2.3001  1.4812 -0.1178
 6079SOL    HW229700   3.643   2.584  12.997  0.5142  0.3900  0.9820
 6080SOL     OW29701   1.428   1.025   3.758  0.4810 -0.0726  0.1729
 6080SOL    HW129702   1.478   1.027   3.840  1.9162 -1.6129 -0.6625
 6080SOL    HW229703   1.487   0.979   3.697  0.3382  0.5627 -0.4428
 6081SOL     OW29704   2.967   0.225   6.668 -0.4185  0.0984 -0.2087
 6081SOL    HW129705   3.033   0.231   6.737  1.4607  0.3346 -2.0503
 6081SOL    HW229706   3.019   0.208   6.590  0.3324 -1.2525  0.5789
 6082SOL     OW29707   4.157   0.652  13.331 -0.6322 -0.1805  0.0600
 6082SOL    HW129708   4.110   0.618  13.407  2.6538  0.5765  2.4170
 6082SOL    HW229709   4.245   0.638  13.366 -1.3087  0.8057  2.1218
 6083SOL     OW29710   0.282   0.846  11.704  0.4297  0.4722 -0.0147
 6083SOL    HW129711   0.249   0.931  11.675 -0.0377 -0.4331 -2.1031
 6083SOL    HW229712   0.273   0.861  11.798 -3.0126 -3.1170  0.1642
 6084SOL     OW29713   1.315   3.862  12.196  0.1647 -0.2344 -0.0856
 6084SOL    HW129714   1.310   3.782  12.248 -1.2678  0.9588  1.6100
 6084SOL    HW229715   1.274   3.931  12.249  0.4408  0.5677 -0.9241
 6085SOL     OW29716   3.127   1.260  16.079 -0.0740 -0.3228 -0.4576
 6085SOL    HW129717   3.116   1.355  16.072 -1.8598 -0.2760  2.8409
 6085SOL    HW229718   3.059   1.244  16.144  1.6153 -1.2995  1.0944
 6086SOL     OW29719   3.203   1.260   9.608  0.1310  0.3173 -0.4737
 6086SOL    HW129720   3.274   1.296   9.661  0.8650  0.8310 -1.8044
 6086SOL    HW229721   3.123   1.288   9.651  1.3552  2.6809  0.2458
 6087SOL     OW29722   3.534   3.389   5.198 -0.0485  0.0239 -0.0015
 6087SOL    HW129723   3.478   3.317   5.171  0.9843 -1.0227  0.6393
 6087SOL    HW229724   3.605   3.336   5.234  0.9915  0.3758 -1.5334
 6088SOL     OW29725   0.533   2.433   4.407  0.6639  0.1854 -0.4877
 6088SOL    HW129726   0.464   2.483   4.450 -0.1585 -1.3581 -0.0356
 6088SOL    HW229727   0.522   2.475   4.322  0.7858  1.0100 -0.0914
 6089SOL     OW29728   0.335   1.449   5.911 -0.5684  0.4855 -0.2884
 6089SOL    HW129729   0.407   1.428   5.970 -0.1564  0.8184 -0.6735
 6089SOL    HW229730   0.390   1.466   5.835  1.0577 -1.1993  0.5100
 6090SOL     OW29731   1.665   2.828   1.401  0.0720 -0.2641  0.5685
 6090SOL    HW129732   1.750   2.865   1.374 -0.7351  0.7212 -0.6055
 6090SOL    HW229733   1.693   2.812   1.492  2.3730 -2.7548 -0.5803
 6091SOL     OW29734   4.326   1.881   5.431  0.5605 -1.0831 -0.2031
 6091SOL    HW129735   4.288   1.965   5.456 -0.8758 -2.1025  1.0690
 6091SOL    HW229736   4.333   1.885   5.336 -0.7331  0.5796 -0.2312
 6092SOL     OW29737   1.729   1.779  11.777 -0.3982  0.2402 -0.2705
 6092SOL    HW129738   1.822   1.768  11.759 -0.3305 -0.7938  0.7474
 6092SOL    HW229739   1.704   1.747  11.690  2.4212 -0.5447 -0.7972
 6093SOL     OW29740   1.336   2.945   4.720 -0.1322  0.1064 -0.1726
 6093SOL    HW129741   1.392   2.983   4.652  0.9889 -0.2415  0.5620
 6093SOL    HW229742   1.281   2.882   4.673  0.5662 -1.6276  1.3718
 6094SOL     OW29743   4.197   2.670   6.539 -0.4295 -0.3884 -0.3552
 6094SOL    HW129744   4.159   2.744   6.492 -0.0225 -0.6224 -1.0557
 6094SOL    HW229745   4.211   2.607   6.468  2.8510  0.9691 -0.9061
 6095SOL     OW29746   3.495   0.215   8.495 -0.2977 -0.3538  0.1172
 6095SOL    HW129747   3.465   0.161   8.422 -0.5209  0.5939 -0.4892
 6095SOL    HW229748   3.437   0.291   8.490  0.7812  0.5809  1.7239
 6096SOL     OW29749   4.123   4.418   5.622  0.2288 -0.4423  0.1306
 6096SOL    HW129750   4.189   4.412   5.553  0.5060  0.0954  0.3452
 6096SOL    HW229751   4.164   4.390   5.704 -2.7952  3.1726  2.8911
 6097SOL     OW29752   3.656   2.360   5.113  0.4199  0.4874  0.1350
 6097SOL    HW129753   3.599   2.405   5.051 -0.7552  0.2340  1.0420
 6097SOL    HW229754   3.606   2.278   5.119 -1.6497  1.6540 -1.5063
 6098SOL     OW29755   0.554   0.410  14.486 -0.2410  0.5263  0.0249
 6098SOL    HW129756   0.617   0.482  14.488 -1.4418  1.5974 -0.5696
 6098SOL    HW229757   0.487   0.446  14.543 -0.7648  1.7389 -1.3491
 6099SOL     OW29758   1.876   4.144   5.478  0.0183 -0.6022  0.3664
 6099SOL    HW129759   1.915   4.214   5.425  2.2553 -3.4545 -1.7666
 6099SOL    HW229760   1.954   4.099   5.509 -0.1241 -0.8873  0.3082
 6100SOL     OW29761   2.974   3.057   4.389 -0.0294  0.1408  0.2136
 6100SOL    HW129762   2.969   2.986   4.454  0.0341 -2.8671 -3.0393
 6100SOL    HW229763   3.002   3.021   4.305 -0.3982 -0.9759  0.5640
 6101SOL     OW29764   0.850   3.221   7.056  0.6175 -0.0478  1.0352
 6101SOL    HW129765   0.865   3.290   6.992  1.2215 -0.3427  0.8668
 6101SOL    HW229766   0.828   3.272   7.135  1.3212  3.3525 -0.9648
 6102SOL     OW29767   0.414   3.217   7.956 -0.4696  0.7756  0.4115
 6102SOL    HW129768   0.387   3.133   7.993  1.0944  0.3199  0.5371
 6102SOL    HW229769   0.509   3.209   7.944 -0.5156  1.9670 -0.7564
 6103SOL     OW29770   1.611   3.254   3.746 -0.1001 -0.3443 -0.3885
 6103SOL    HW129771   1.629   3.344   3.771  0.8784 -1.3724  2.6167
 6103SOL    HW229772   1.650   3.256   3.659  1.4067 -1.6520  0.2617
 6104SOL     OW29773   0.213   3.602   0.923  0.1440  0.0570  0.1339
 6104SOL    HW129774   0.214   3.570   0.833  1.9060  0.2419  0.1002
 6104SOL    HW229775   0.304   3.604   0.952  0.2938  2.2031 -0.4798
 6105SOL     OW29776   0.601   3.826   5.560  0.0070  0.2612  0.1183
 6105SOL    HW129777   0.545   3.902   5.576 -1.1962 -0.2238 -1.8249
 6105SOL    HW229778   0.639   3.816   5.647  0.3930  0.7679  0.0072
 6106SOL     OW29779   1.065   4.131   5.664 -0.0697 -0.0395 -0.0917
 6106SOL    HW129780   1.043   4.148   5.756  0.4330  0.5143 -0.0789
 6106SOL    HW229781   1.144   4.181   5.643 -0.0956  0.1084  0.1596
 6107SOL     OW29782   3.971   4.235  15.971  0.4455  0.0451 -0.4624
 6107SOL    HW129783   3.940   4.267  15.886  0.6917  1.2306 -0.1084
 6107SOL    HW229784   3.935   4.305  16.026  1.2177 -0.0653  0.1781
 6108SOL     OW29785   2.099   3.635   8.268  0.5465 -0.4988  0.0257
 6108SOL    HW129786   2.069   3.628   8.359 -0.9071 -1.1556 -0.5008
 6108SOL    HW229787   2.189   3.667   8.279 -0.6129  3.1236 -1.0343
 6109SOL     OW29788   4.709   3.053  12.661 -0.2741  0.6622 -0.0395
 6109SOL    HW129789   0.018   2.974  12.703 -2.2485 -1.1410 -1.7773
 6109SOL    HW229790   4.628   3.023  12.618  1.4277 -3.2453 -0.4955
 6110SOL     OW29791   2.021   3.287   0.778  0.0303  0.2856 -0.4356
 6110SOL    HW129792   1.993   3.290   0.686 -0.8162 -0.8300 -0.2098
 6110SOL    HW229793   2.115   3.271   0.775 -0.4479 -2.3752 -1.1841
 6111SOL     OW29794   4.373   0.944   4.899 -0.4355  0.4218  0.2326
 6111SOL    HW129795   4.327   0.871   4.940 -1.7683  1.5914  0.7994
 6111SOL    HW229796   4.357   0.927   4.806 -1.4604 -2.7015  0.9800
 6112SOL     OW29797   1.168   0.222  17.207  0.3959 -0.1386 -0.7078
 6112SOL    HW129798   1.189   0.315  17.201 -0.3985  0.2582  2.5825
 6112SOL    HW229799   1.206   0.198  17.292  0.9061  0.2656 -0.8277
 6113SOL     OW29800   3.859   1.983  11.156 -0.4939 -0.1095  0.3473
 6113SOL    HW129801   3.940   1.949  11.116 -1.9806 -1.0733 -1.8565
 6113SOL    HW229802   3.805   2.014  11.083  1.5382 -0.9600 -1.5439
 6114SOL     OW29803   3.830   1.846  12.693 -0.1245 -0.0891 -0.1007
 6114SOL    HW129804   3.778   1.902  12.750  0.0609  0.8490 -0.8505
 6114SOL    HW229805   3.910   1.834  12.744 -1.1452  0.5893  1.6518
 6115SOL     OW29806   2.051   4.268   5.735  0.3164  0.1877  1.2467
 6115SOL    HW129807   2.089   4.215   5.666  1.8456  0.1467  2.1368
 6115SOL    HW229808   2.084   4.356   5.717 -1.6029  1.2287  2.7964
 6116SOL     OW29809   3.697   4.297   3.311 -0.1026  0.0919 -0.0897
 6116SOL    HW129810   3.792   4.299   3.298  0.1875 -1.4830  1.7153
 6116SOL    HW229811   3.679   4.390   3.308  1.3782  0.3850 -0.1366
 6117SOL     OW29812   0.660   0.732   5.371 -0.2931 -0.7377 -0.6756
 6117SOL    HW129813   0.632   0.717   5.461 -0.0492  1.4561 -0.2389
 6117SOL    HW229814   0.573   0.750   5.337 -1.0885  0.7056  2.1447
 6118SOL     OW29815   4.424   3.317  16.431  0.1863  0.3330 -0.2702
 6118SOL    HW129816   4.497   3.265  16.398  0.5510  1.4945 -1.2596
 6118SOL    HW229817   4.465   3.375  16.495 -0.6376  0.9696 -0.3179
 6119SOL     OW29818   3.208   3.827  17.021 -0.3832  0.1571 -0.2518
 6119SOL    HW129819   3.227   3.855  17.110  0.5197 -2.0455  0.2540
 6119SOL    HW229820   3.226   3.905  16.968  0.1797 -0.9333 -1.6729
 6120SOL     OW29821   2.309   2.699   7.729  0.1065 -0.0927 -0.1010
 6120SOL    HW129822   2.219   2.730   7.733  0.9870  2.4626  0.1429
 6120SOL    HW229823   2.341   2.718   7.817 -0.3397  0.4847 -0.0612
 6121SOL     OW29824   2.954   0.772   2.832 -0.1807 -0.3721 -0.4310
 6121SOL    HW129825   2.963   0.691   2.781 -0.5236  0.3075 -1.5869
 6121SOL    HW229826   2.901   0.744   2.906  0.2472 -2.6314 -0.9716
 6122SOL     OW29827   0.916   4.154   7.168  0.0267  0.4759  0.7081
 6122SOL    HW129828   0.987   4.125   7.226  0.2467  0.9197  0.6620
 6122SOL    HW229829   0.919   4.247   7.191 -1.7862  0.6242  0.3161
 6123SOL     OW29830   4.093   1.327   8.937  0.0599 -0.5080  0.5524
 6123SOL    HW129831   4.028   1.257   8.939 -0.7365  0.2846  2.0826
 6123SOL    HW229832   4.075   1.365   8.851  0.1412  1.3483  1.3452
 6124SOL     OW29833   0.421   0.940   2.988 -0.2003 -0.0771 -0.4503
 6124SOL    HW129834   0.516   0.926   2.985  0.0053  0.9364  1.5045
 6124SOL    HW229835   0.403   1.014   3.046  3.2060  0.0970  0.3709
 6125SOL     OW29836   4.023   1.049   0.229  0.0746 -0.1814 -0.0372
 6125SOL    HW129837   3.997   1.137   0.203 -3.1710 -0.8373  0.9207
 6125SOL    HW229838   4.102   1.071   0.277 -0.8087  1.2948  0.7267
 6126SOL     OW29839   4.224   2.315  15.468  0.1386  0.3411 -0.0932
 6126SOL    HW129840   4.172   2.312  15.388  0.4917  0.6341 -0.3345
 6126SOL    HW229841   4.271   2.232  15.464 -2.4598 -1.1204 -0.5847
 6127SOL     OW29842   0.072   0.960   5.661  0.3192  0.0342 -0.7935
 6127SOL    HW129843   0.074   1.050   5.693  0.0281 -0.1199 -0.3335
 6127SOL    HW229844   0.130   0.909   5.717  1.3669  4.1868  1.8916
 6128SOL     OW29845   1.609   0.731   6.908  0.0214 -0.3406 -0.2108
 6128SOL    HW129846   1.574   0.805   6.956  0.1710 -0.4990  0.1388
 6128SOL    HW229847   1.664   0.776   6.843 -0.9014 -0.7916 -1.3186
 6129SOL     OW29848   1.172   3.062   6.588 -0.1534 -0.1866 -0.3530
 6129SOL    HW129849   1.153   3.059   6.495 -1.2713  1.3532 -0.1800
 6129SOL    HW229850   1.130   3.147   6.602  0.3166  0.4611 -3.0673
 6130SOL     OW29851   0.220   3.261   8.469  0.2896 -0.6194  0.1701
 6130SOL    HW129852   0.154   3.198   8.439 -0.1118 -0.3279  0.4520
 6130SOL    HW229853   0.244   3.246   8.560  1.6444 -1.2945 -0.2907
 6131SOL     OW29854   3.365   4.631  17.599 -0.1056 -0.3257  0.0301
 6131SOL    HW129855   3.354   4.563  17.665  1.2733 -0.1485  0.4400
 6131SOL    HW229856   3.448   4.606  17.558 -0.6697  1.0396 -1.9156
 6132SOL     OW29857   0.862   2.795   7.640 -0.3185 -0.1796 -0.0936
 6132SOL    HW129858   0.916   2.873   7.630 -0.3799 -0.1004  0.2123
 6132SOL    HW229859   0.837   2.784   7.548 -0.3665 -2.8093  0.2341
 6133SOL     OW29860   2.038   0.046   7.960 -0.3445 -0.5158 -0.0497
 6133SOL    HW129861   1.979   0.119   7.938 -0.9305 -0.9986 -0.0812
 6133SOL    HW229862   2.118   0.094   7.981  0.0443 -1.7238  1.2129
 6134SOL     OW29863   0.512   1.443   7.523 -0.9995  0.1901  0.9196
 6134SOL    HW129864   0.485   1.533   7.542 -2.0558  0.1082 -0.1647
 6134SOL    HW229865   0.430   1.403   7.552 -0.1892 -0.2310  2.6852
 6135SOL     OW29866   1.088   1.154  12.754 -0.0283 -0.0977  0.5007
 6135SOL    HW129867   1.104   1.122  12.842  0.0760 -0.6468  0.2811
 6135SOL    HW229868   1.178   1.165  12.725 -0.1727 -4.2945 -1.5109
 6136SOL     OW29869   2.862   3.646   8.267 -0.0437 -0.3984  0.7703
 6136SOL    HW129870   2.909   3.643   8.351  0.8886 -0.2830  0.2546
 6136SOL    HW229871   2.779   3.630   8.311 -0.3280 -2.5660 -0.5795
 6137SOL     OW29872   0.424   2.950   6.494 -0.1299  0.2036 -0.5176
 6137SOL    HW129873   0.415   2.908   6.579 -0.1418 -0.7346 -0.9860
 6137SOL    HW229874   0.356   2.914   6.438 -0.5991 -0.5746  0.5597
 6138SOL     OW29875   4.040   3.820   5.998 -0.1558 -0.2945  0.4410
 6138SOL    HW129876   4.098   3.796   6.070  1.2621  2.4891  0.2257
 6138SOL    HW229877   3.958   3.823   6.047  0.3067 -0.4701  1.2296
 6139SOL     OW29878   4.084   0.320   9.756  0.4276  0.4090 -0.5745
 6139SOL    HW129879   4.073   0.391   9.818  3.4719  0.1832  0.2198
 6139SOL    HW229880   4.129   0.364   9.684  0.5120  0.8662 -0.2413
 6140SOL     OW29881   2.570   1.015   3.284 -0.4047 -0.0567  0.0223
 6140SOL    HW129882   2.509   0.994   3.214  1.0941 -0.1808 -1.2535
 6140SOL    HW229883   2.558   0.941   3.344 -0.2094  0.2783  0.4776
 6141SOL     OW29884   3.540   3.325   5.529 -0.1724 -0.3782 -0.3740
 6141SOL    HW129885   3.524   3.235   5.500  0.0819 -0.8984  1.0795
 6141SOL    HW229886   3.473   3.373   5.481  0.4035  0.4186 -0.3886
 6142SOL     OW29887   2.203   4.445   6.516  0.3461  0.8221 -0.3362
 6142SOL    HW129888   2.233   4.383   6.450  1.6764 -0.0450  1.0859
 6142SOL    HW229889   2.258   4.412   6.588 -1.6002  1.1710  1.2941
 6143SOL     OW29890   3.425   3.670   9.949  0.0259  0.0891  0.0244
 6143SOL    HW129891   3.493   3.620   9.905 -0.8326 -0.0120 -1.1930
 6143SOL    HW229892   3.346   3.643   9.902  0.8768 -1.7788 -0.2965
 6144SOL     OW29893   1.896   1.472  15.399  0.0023 -0.3873  0.7694
 6144SOL    HW129894   1.814   1.509  15.369  1.2169 -0.5364 -2.7162
 6144SOL    HW229895   1.868   1.383  15.420 -0.3306 -0.4847 -0.0769
 6145SOL     OW29896   1.736   2.192   5.110 -0.6825  0.3154  0.0845
 6145SOL    HW129897   1.812   2.247   5.129 -0.8214  0.4782  0.1725
 6145SOL    HW229898   1.658   2.236   5.145 -0.7435 -0.3256  0.7496
 6146SOL     OW29899   3.083   2.089  16.563  0.4423 -0.6943 -0.0351
 6146SOL    HW129900   2.991   2.078  16.589  0.1672 -1.1825 -1.1939
 6146SOL    HW229901   3.112   2.001  16.537 -0.1923  0.0193 -3.2557
 6147SOL     OW29902   0.938   4.350   2.349  0.0916  0.2862 -0.2063
 6147SOL    HW129903   0.963   4.301   2.427 -2.0267 -1.7334 -0.7966
 6147SOL    HW229904   0.954   4.293   2.275  0.3703  0.8041 -0.5415
 6148SOL     OW29905   2.046   1.679   3.899 -0.4329  0.6706 -0.4810
 6148SOL    HW129906   2.065   1.599   3.849  2.6839  0.7495  0.5993
 6148SOL    HW229907   2.008   1.637   3.976  0.0595 -0.8104 -1.0533
 6149SOL     OW29908   1.561   0.748  10.703 -0.0004  0.0597  0.2707
 6149SOL    HW129909   1.598   0.677  10.650 -0.8629  0.0568 -0.3304
 6149SOL    HW229910   1.474   0.752  10.664 -0.6848 -2.5683  1.5477
 6150SOL     OW29911   4.701   0.473   7.929 -0.0876  0.5709  0.3086
 6150SOL    HW129912   0.058   0.518   7.909  1.2386 -2.5553 -1.4225
 6150SOL    HW229913   4.688   0.469   8.023  1.8193  0.1385  0.5528
 6151SOL     OW29914   3.240   2.649   7.608  0.0363 -0.5903  0.5694
 6151SOL    HW129915   3.290   2.727   7.587 -0.8493  0.0473  0.8138
 6151SOL    HW229916   3.225   2.654   7.702  0.6368 -1.1183  0.6886
 6152SOL     OW29917   2.362   4.640   8.103 -0.1085  0.2523  0.1026
 6152SOL    HW129918   2.376   4.546   8.092 -0.9732 -0.1084  2.0925
 6152SOL    HW229919   2.276   4.632   8.146  0.5301 -0.3996  1.2533
 6153SOL     OW29920   3.770   2.922   4.731  0.8871  0.4818  0.6754
 6153SOL    HW129921   3.705   2.922   4.801 -0.5775  0.0543 -0.6945
 6153SOL    HW229922   3.817   3.003   4.751  0.1325  1.0484  0.1617
 6154SOL     OW29923   0.636   2.228   2.495 -0.3122 -0.9291 -0.5619
 6154SOL    HW129924   0.655   2.135   2.479 -3.4907 -1.5897 -0.4927
 6154SOL    HW229925   0.545   2.230   2.465 -0.0532  3.7131 -1.0365
 6155SOL     OW29926   3.882   3.321   4.552  0.4160 -0.1059 -0.3162
 6155SOL    HW129927   3.789   3.334   4.533  0.3612 -1.2028 -0.7452
 6155SOL    HW229928   3.881   3.327   4.648  1.0314 -0.9287 -0.2585
 6156SOL     OW29929   4.307   1.911   7.957  0.3812 -0.3853 -0.0509
 6156SOL    HW129930   4.338   2.001   7.942  1.9146 -0.6057  1.7050
 6156SOL    HW229931   4.297   1.913   8.052  1.6077  2.5083  0.0329
 6157SOL     OW29932   1.583   1.638   5.357 -0.0871  0.2394 -0.3852
 6157SOL    HW129933   1.508   1.660   5.301 -0.8169 -1.7218 -0.1707
 6157SOL    HW229934   1.548   1.558   5.396  2.5955 -0.4165  0.6699
 6158SOL     OW29935   1.116   3.788  10.806  0.1709 -0.3976  0.2478
 6158SOL    HW129936   1.098   3.832  10.889 -0.1979  0.7748 -0.4582
 6158SOL    HW229937   1.180   3.847  10.765 -1.9570  2.1350  0.5823
 6159SOL     OW29938   0.242   4.490   4.603  0.3053 -0.1227 -0.8647
 6159SOL    HW129939   0.305   4.561   4.613  0.1838 -0.0625 -0.5275
 6159SOL    HW229940   0.167   4.529   4.646 -0.0872  0.1871 -1.8391
 6160SOL     OW29941   2.591   1.451   6.334  0.4730 -0.1946  0.1996
 6160SOL    HW129942   2.528   1.507   6.379 -1.0112 -1.3518 -0.4585
 6160SOL    HW229943   2.534   1.392   6.285  1.6714 -0.8747 -0.3771
 6161SOL     OW29944   1.564   1.394   4.779  0.1290 -0.0161  0.1690
 6161SOL    HW129945   1.586   1.307   4.813  0.4845  0.0992  0.2424
 6161SOL    HW229946   1.640   1.447   4.804  0.5155  0.1307 -1.3536
 6162SOL     OW29947   3.064   3.756  14.757 -0.4821 -0.4331 -0.0198
 6162SOL    HW129948   3.121   3.772  14.682  0.9513  1.3244  1.4355
 6162SOL    HW229949   3.050   3.846  14.787 -1.7233 -1.1625  1.6234
 6163SOL     OW29950   3.884   3.364  15.317 -0.1530 -0.0535  0.0845
 6163SOL    HW129951   3.933   3.282  15.310  0.0966  0.1832 -0.8811
 6163SOL    HW229952   3.815   3.343  15.380 -0.6827  0.7296 -0.2412
 6164SOL     OW29953   3.845   1.160   5.804 -0.1688  0.4300  0.8364
 6164SOL    HW129954   3.842   1.130   5.894 -0.1963  2.8266  1.6346
 6164SOL    HW229955   3.939   1.164   5.786 -0.3797  0.3147 -0.2811
 6165SOL     OW29956   2.326   0.580   1.592  0.3947 -0.0278  0.3051
 6165SOL    HW129957   2.290   0.669   1.587 -1.0978 -0.5381  1.9531
 6165SOL    HW229958   2.257   0.552   1.652  0.2246  0.3186  0.2726
 6166SOL     OW29959   3.314   4.580   1.779  0.0392 -0.2398 -0.7517
 6166SOL    HW129960   3.307   4.488   1.805 -1.2930 -0.1025 -0.6268
 6166SOL    HW229961   3.363   4.577   1.696 -1.3687 -1.0864 -1.5434
 6167SOL     OW29962   3.528   1.813   5.099 -0.1649  0.3221 -0.1914
 6167SOL    HW129963   3.536   1.723   5.070  0.4765  0.3036  0.0395
 6167SOL    HW229964   3.565   1.786   5.183 -0.0947 -1.0050 -0.6486
 6168SOL     OW29965   3.857   4.092   7.652 -0.2265 -0.5586 -0.1552
 6168SOL    HW129966   3.890   4.010   7.687  0.0337  0.7967  2.7847
 6168SOL    HW229967   3.793   4.104   7.722  0.2620  1.3039 -0.0084
 6169SOL     OW29968   2.203   1.177  16.059  0.0241 -0.2922  0.6804
 6169SOL    HW129969   2.282   1.232  16.060 -0.4768  0.4494 -0.0608
 6169SOL    HW229970   2.215   1.147  15.968 -0.7306  2.3364 -0.2922
 6170SOL     OW29971   4.336   3.733   8.181  0.4918  0.1223  0.1237
 6170SOL    HW129972   4.256   3.723   8.232 -1.1257  0.0444 -2.4460
 6170SOL    HW229973   4.391   3.676   8.235 -1.0350 -1.2262  0.2746
 6171SOL     OW29974   3.520   1.808   4.794  0.4492 -0.3145  0.5210
 6171SOL    HW129975   3.543   1.716   4.785  0.0223 -0.3479 -0.2041
 6171SOL    HW229976   3.498   1.812   4.887 -1.3826  0.3153  0.0578
 6172SOL     OW29977   0.939   3.620  12.099  0.3924 -0.2570 -0.3050
 6172SOL    HW129978   0.987   3.695  12.066 -0.9305  0.8096  0.1843
 6172SOL    HW229979   0.961   3.550  12.037  1.9038  1.2828 -1.4896
 6173SOL     OW29980   1.698   1.230   0.557  0.5025  0.2022 -0.1838
 6173SOL    HW129981   1.668   1.200   0.643  1.2755 -0.0931 -0.0164
 6173SOL    HW229982   1.663   1.161   0.501  0.0513 -0.1953  0.5881
 6174SOL     OW29983   0.841   1.221   6.759 -0.6831 -0.3461  0.0810
 6174SOL    HW129984   0.919   1.218   6.814 -1.6805  0.2852  1.5191
 6174SOL    HW229985   0.775   1.171   6.808  1.0419  0.0056  2.7617
 6175SOL     OW29986   4.220   2.984   7.781 -0.7378  0.3404 -0.3055
 6175SOL    HW129987   4.182   2.905   7.820  2.6459 -1.9873 -1.7128
 6175SOL    HW229988   4.250   3.044   7.850  0.2252 -0.1026 -0.3355
 6176SOL     OW29989   2.226   1.080   7.427 -0.1501  0.2055 -1.1289
 6176SOL    HW129990   2.256   1.002   7.379  0.6904 -0.0996 -0.1126
 6176SOL    HW229991   2.282   1.079   7.505 -1.9888  0.3416  0.1867
 6177SOL     OW29992   0.001   2.434   1.471  0.3838 -0.2777 -0.0693
 6177SOL    HW129993   4.642   2.477   1.480 -0.1722 -1.5544  0.8885
 6177SOL    HW229994   0.014   2.448   1.377  0.5994 -0.8121 -0.1199
 6178SOL     OW29995   0.978   0.215   3.388 -0.5606  0.3026  0.3921
 6178SOL    HW129996   1.039   0.282   3.418 -1.5765  1.2744  0.2589
 6178SOL    HW229997   0.999   0.143   3.448  0.1533 -0.7367 -1.0887
 6179SOL     OW29998   0.741   2.433  15.767 -0.0197  0.8160  0.2675
 6179SOL    HW129999   0.807   2.490  15.728  2.7522 -1.2376  1.9566
 6179SOL    HW230000   0.666   2.449  15.710 -0.2229 -0.9276  0.0326
 6180SOL     OW30001   0.818   0.116  14.680  0.1536  0.6044  0.6000
 6180SOL    HW130002   0.858   0.103  14.594  0.6110  1.9014  0.6190
 6180SOL    HW230003   0.871   0.053  14.729  0.7586  0.3681 -0.3506
 6181SOL     OW30004   1.218   1.101   2.108  0.1352  0.4138 -0.2219
 6181SOL    HW130005   1.185   1.166   2.171 -0.2496 -1.3561  1.3979
 6181SOL    HW230006   1.152   1.115   2.041 -0.3199 -0.7198 -0.0049
 6182SOL     OW30007   1.721   1.750   3.960 -0.6138 -0.4003  0.3038
 6182SOL    HW130008   1.682   1.794   3.885 -0.6370  1.7469  1.5599
 6182SOL    HW230009   1.809   1.763   3.924 -1.1716  0.1428 -0.8262
 6183SOL     OW30010   1.222   2.955   1.848 -0.2267  0.1976  0.1091
 6183SOL    HW130011   1.308   2.994   1.864 -0.7273  0.3195  2.5501
 6183SOL    HW230012   1.252   2.881   1.795 -1.6873  0.0284 -0.4682
 6184SOL     OW30013   4.632   2.324   9.517  0.4863  0.0241  0.1016
 6184SOL    HW130014   4.584   2.244   9.492 -1.3844  1.1781 -0.0340
 6184SOL    HW230015   4.720   2.296   9.541  0.3358 -0.5076  0.0423
 6185SOL     OW30016   1.458   0.049   3.320 -0.0493 -0.0594 -0.0786
 6185SOL    HW130017   1.371   0.020   3.292 -0.2314  0.3987  0.0149
 6185SOL    HW230018   1.448   0.057   3.415  2.2793  1.6310  0.0368
 6186SOL     OW30019   2.419   4.126   5.449 -0.1532 -0.1587  0.0786
 6186SOL    HW130020   2.351   4.069   5.486  0.3453  0.9578  2.7224
 6186SOL    HW230021   2.405   4.119   5.355  1.8908  0.3680 -0.2684
 6187SOL     OW30022   2.160   4.564   7.815 -0.1790 -0.6372 -0.2960
 6187SOL    HW130023   2.149   4.639   7.757  3.0082 -0.1518 -0.2729
 6187SOL    HW230024   2.129   4.598   7.899  1.0584 -0.4770  0.0953
 6188SOL     OW30025   0.757   1.751   7.574  0.0946 -0.4071 -0.0784
 6188SOL    HW130026   0.806   1.686   7.523  0.5578  1.7103 -2.3142
 6188SOL    HW230027   0.706   1.699   7.637  2.1786 -3.0269 -0.5090
 6189SOL     OW30028   1.743   2.416   1.873 -0.1001 -0.0640 -0.1759
 6189SOL    HW130029   1.653   2.423   1.905  0.0349  4.5366 -0.7912
 6189SOL    HW230030   1.720   2.382   1.787 -2.5399 -2.0152  1.2553
 6190SOL     OW30031   2.170   3.219   8.122  0.1836  0.2369 -0.9849
 6190SOL    HW130032   2.098   3.276   8.147  1.0048  0.8115  0.0794
 6190SOL    HW230033   2.163   3.151   8.190  1.1076 -0.3612 -1.4873
 6191SOL     OW30034   2.748   2.984   7.529  0.2422  0.2242  0.2215
 6191SOL    HW130035   2.833   2.992   7.486 -0.2501 -0.5484 -0.8950
 6191SOL    HW230036   2.780   2.968   7.618  2.4522  0.0256 -0.6097
 6192SOL     OW30037   0.787   3.782   3.610  0.3445 -0.0268 -0.1586
 6192SOL    HW130038   0.713   3.838   3.588 -1.6369 -2.8382 -0.5856
 6192SOL    HW230039   0.831   3.831   3.680  1.0874 -2.0814  0.8235
 6193SOL     OW30040   4.462   1.864   2.292  0.0321  0.1025 -0.3160
 6193SOL    HW130041   4.429   1.795   2.234 -2.1516  1.4299 -0.6737
 6193SOL    HW230042   4.508   1.922   2.232 -0.4777  0.9722  0.1328
 6194SOL     OW30043   2.553   0.519   9.954  0.1444  0.1648  0.1074
 6194SOL    HW130044   2.640   0.494   9.985  0.2972  2.4084  1.5214
 6194SOL    HW230045   2.519   0.570  10.028 -2.4857 -1.9315  0.3718
 6195SOL     OW30046   1.957   4.224   4.003  0.4338 -0.4293  0.3297
 6195SOL    HW130047   1.922   4.303   4.046  1.1887 -1.0675  2.1303
 6195SOL    HW230048   1.984   4.258   3.918  0.4427  1.6461  1.1550
 6196SOL     OW30049   2.568   2.816   0.656 -0.1572  0.4812 -0.5651
 6196SOL    HW130050   2.598   2.776   0.575  1.3505  0.5468 -0.0244
 6196SOL    HW230051   2.613   2.760   0.719  0.8066  0.6909 -1.0834
 6197SOL     OW30052   1.572   1.587   7.330 -0.4118  0.2001  0.2316
 6197SOL    HW130053   1.525   1.577   7.247 -1.3292 -0.0042  0.7665
 6197SOL    HW230054   1.495   1.578   7.386 -1.7552  1.7694 -1.3582
 6198SOL     OW30055   0.446   0.172  15.597  0.2136 -0.0827  0.5329
 6198SOL    HW130056   0.423   0.258  15.632 -0.2703  1.2539 -3.0545
 6198SOL    HW230057   0.402   0.174  15.512 -0.9418  1.5482  1.1683
 6199SOL     OW30058   3.687   0.737   3.865  0.0385 -0.4902  0.0478
 6199SOL    HW130059   3.780   0.758   3.855  1.1484 -4.4258  1.8937
 6199SOL    HW230060   3.675   0.767   3.956  1.0395  0.1530 -0.0406
 6200SOL     OW30061   4.609   3.185   4.701  0.1603  0.0917  0.2872
 6200SOL    HW130062   4.702   3.205   4.716  0.9026 -2.2443 -1.2040
 6200SOL    HW230063   4.626   3.095   4.675 -1.3642  0.0902 -0.7191
 6201SOL     OW30064   1.877   4.482  12.233  0.1656  0.1159  0.2848
 6201SOL    HW130065   1.796   4.510  12.192 -0.4362 -0.7701  0.8756
 6201SOL    HW230066   1.832   4.431  12.300 -1.4342  0.1399 -0.7790
 6202SOL     OW30067   0.227   1.684   5.394  0.2391 -0.6171 -0.4368
 6202SOL    HW130068   0.228   1.751   5.462  2.7671  1.7254 -2.7755
 6202SOL    HW230069   0.194   1.740   5.324 -1.7854 -1.8058 -0.4223
 6203SOL     OW30070   0.584   4.391  14.720  0.0755 -0.3261  0.0843
 6203SOL    HW130071   0.628   4.347  14.793 -2.2270 -0.3206  1.4640
 6203SOL    HW230072   0.568   4.480  14.751 -1.6166 -0.5489 -0.1673
 6204SOL     OW30073   2.040   4.363   2.503 -0.0188 -0.3908 -0.4366
 6204SOL    HW130074   2.041   4.321   2.589 -0.0832  0.5464  0.0304
 6204SOL    HW230075   1.951   4.398   2.494 -0.1227 -0.4067  0.5258
 6205SOL     OW30076   1.428   3.010   8.588 -0.0898 -0.1169  0.3234
 6205SOL    HW130077   1.337   2.998   8.616 -0.1721 -2.8853 -1.1331
 6205SOL    HW230078   1.451   3.059   8.667  1.5068 -0.4978  0.0891
 6206SOL     OW30079   2.701   1.490   0.749 -0.1233 -0.2703 -0.0082
 6206SOL    HW130080   2.664   1.498   0.837 -0.9400 -0.9985 -0.2778
 6206SOL    HW230081   2.779   1.439   0.772  0.9945  0.4197 -2.2519
 6207SOL     OW30082   0.460   3.970   7.111 -0.8082 -0.3542  0.4588
 6207SOL    HW130083   0.428   3.951   7.199 -2.5668  1.5244  0.2098
 6207SOL    HW230084   0.514   3.892   7.094 -1.9757 -1.1236  0.2862
 6208SOL     OW30085   3.613   2.557   6.129  0.5696 -0.0636 -0.6627
 6208SOL    HW130086   3.619   2.552   6.224 -0.9316 -1.2608 -0.6212
 6208SOL    HW230087   3.522   2.530   6.111  0.2295  0.8081 -0.2447
 6209SOL     OW30088   3.373   4.346   8.217 -0.5751 -0.2557  0.2906
 6209SOL    HW130089   3.385   4.413   8.149  0.5827 -1.5056 -0.7197
 6209SOL    HW230090   3.352   4.283   8.148  2.4523 -0.2772 -0.6029
 6210SOL     OW30091   0.807   2.496  15.322  0.2589  0.2911  0.1356
 6210SOL    HW130092   0.870   2.501  15.394  1.3166 -1.5809 -0.6440
 6210SOL    HW230093   0.851   2.540  15.249  1.2183  2.3601  1.9860
 6211SOL     OW30094   2.602   0.947   8.464 -0.3415  0.1077  0.8684
 6211SOL    HW130095   2.525   0.893   8.446 -0.4683  0.6104 -0.1021
 6211SOL    HW230096   2.548   1.020   8.495 -2.6760 -2.1401  2.0482
 6212SOL     OW30097   3.052   3.337   4.487  0.5718 -0.0032 -0.0722
 6212SOL    HW130098   3.065   3.261   4.431 -1.2073 -0.1889 -0.2536
 6212SOL    HW230099   2.981   3.309   4.546 -0.1998  2.1271  0.0180
 6213SOL     OW30100   2.576   3.499   1.120 -0.7291 -0.3914 -0.1012
 6213SOL    HW130101   2.556   3.545   1.039 -0.0498  0.8600  0.4424
 6213SOL    HW230102   2.553   3.408   1.101  2.1206 -1.0108 -0.4998
 6214SOL     OW30103   3.766   1.239   0.695 -0.2784 -0.5650 -0.3049
 6214SOL    HW130104   3.728   1.311   0.646 -0.6396 -1.3894 -1.2347
 6214SOL    HW230105   3.686   1.195   0.724 -0.3033  1.6530  3.0162
 6215SOL     OW30106   1.396   0.334  15.389 -0.0047 -0.2658 -0.2789
 6215SOL    HW130107   1.490   0.350  15.377 -0.2909 -0.8831 -3.3474
 6215SOL    HW230108   1.387   0.261  15.328 -0.9720 -3.1784  3.3540
 6216SOL     OW30109   3.423   2.009   5.983 -0.0280  0.4882 -0.2305
 6216SOL    HW130110   3.446   2.085   6.036 -0.1671  1.0149 -0.9190
 6216SOL    HW230111   3.346   1.980   6.032  1.8373  1.9917  3.5590
 6217SOL     OW30112   4.569   3.223  16.219  0.4120 -0.3869 -0.1085
 6217SOL    HW130113   4.474   3.213  16.222  0.3784  0.2872  1.1247
 6217SOL    HW230114   4.594   3.171  16.143  2.8633 -0.0553  0.4486
 6218SOL     OW30115   1.925   0.161  14.449  0.1430 -0.1023 -0.2181
 6218SOL    HW130116   1.973   0.242  14.429  0.2034 -0.0833  0.0023
 6218SOL    HW230117   1.904   0.194  14.537 -0.1395  1.4994 -0.8792
 6219SOL     OW30118   1.196   4.421   3.059  1.0633 -0.0846 -0.2904
 6219SOL    HW130119   1.141   4.375   2.996  0.0526 -3.3812  3.0458
 6219SOL    HW230120   1.138   4.475   3.113  1.3469  0.2091 -0.2788
 6220SOL     OW30121   3.986   0.911   5.923  0.6728 -0.3774  0.1297
 6220SOL    HW130122   3.964   0.846   5.857 -1.0684 -0.7014  1.0458
 6220SOL    HW230123   4.060   0.949   5.875  0.6878 -1.0250 -0.3551
 6221SOL     OW30124   1.035   2.479   9.153  0.1492  0.3470 -0.7881
 6221SOL    HW130125   1.024   2.433   9.070 -0.0790  0.4431 -0.8115
 6221SOL    HW230126   1.035   2.573   9.132  1.2303  0.9097  1.6996
 6222SOL     OW30127   3.573   0.842   8.334  0.2536  0.4040  0.4224
 6222SOL    HW130128   3.554   0.837   8.428 -0.5274  0.9642  0.2983
 6222SOL    HW230129   3.599   0.753   8.311 -0.5681  0.4207 -0.5917
 6223SOL     OW30130   3.745   2.998  12.237 -0.3637  0.2036 -0.0747
 6223SOL    HW130131   3.766   2.975  12.327 -0.6759 -1.4200 -0.4170
 6223SOL    HW230132   3.813   2.953  12.188 -0.2120  0.1667  0.1714
 6224SOL     OW30133   1.778   4.212   4.805 -1.0914  0.2706 -0.2259
 6224SOL    HW130134   1.687   4.184   4.819 -1.1655  0.8452  0.4104
 6224SOL    HW230135   1.769   4.296   4.850  0.7084 -0.9311  2.3246
 6225SOL     OW30136   1.997   3.016   6.047 -0.0105 -0.2504 -0.4368
 6225SOL    HW130137   2.023   2.927   6.025  0.0612 -0.0999 -0.9454
 6225SOL    HW230138   1.989   3.001   6.141 -0.6842  0.6458 -0.3527
 6226SOL     OW30139   0.662   1.171  13.325  0.1562 -0.2664  0.0805
 6226SOL    HW130140   0.667   1.182  13.231 -0.1535  1.7460  0.3062
 6226SOL    HW230141   0.668   1.076  13.330 -1.9310 -0.3894 -0.0985
 6227SOL     OW30142   0.686   0.244   1.712  0.4979  0.1644 -0.4131
 6227SOL    HW130143   0.662   0.246   1.619 -4.5791 -1.2553  0.9028
 6227SOL    HW230144   0.625   0.304   1.755 -0.3673 -0.1743 -1.1777
 6228SOL     OW30145   0.450   3.642   7.170  0.8509 -0.3538  0.2086
 6228SOL    HW130146   0.366   3.674   7.137  0.3426 -1.8463  0.0495
 6228SOL    HW230147   0.506   3.671   7.099 -1.4466 -1.0929 -1.9171
 6229SOL     OW30148   3.656   4.304   2.544 -0.2981 -0.4245 -0.4478
 6229SOL    HW130149   3.610   4.228   2.510 -5.0711  1.9760  0.7054
 6229SOL    HW230150   3.587   4.370   2.545 -0.8223 -0.9556 -1.5653
 6230SOL     OW30151   0.859   2.967   6.304  0.2887 -0.2712  0.3472
 6230SOL    HW130152   0.783   2.930   6.349  0.7327  0.7272  1.9287
 6230SOL    HW230153   0.818   3.028   6.243 -0.1795 -0.8460  0.0948
 6231SOL     OW30154   2.490   4.123   8.246 -0.2009  0.7995 -0.1447
 6231SOL    HW130155   2.428   4.083   8.307 -0.7217  0.0013 -1.1821
 6231SOL    HW230156   2.566   4.066   8.261 -0.9790 -1.0503 -3.0861
 6232SOL     OW30157   0.536   0.126   2.379 -0.0355  0.0590  0.0060
 6232SOL    HW130158   0.627   0.127   2.410 -0.1122 -0.9207  0.2732
 6232SOL    HW230159   0.512   0.034   2.394 -0.6592  0.0772 -0.9115
 6233SOL     OW30160   0.767   4.434   8.236 -0.2720 -0.0596  0.2625
 6233SOL    HW130161   0.698   4.399   8.179 -0.7928 -1.0552  1.5238
 6233SOL    HW230162   0.840   4.447   8.175 -0.6718 -1.9274 -0.6275
 6234SOL     OW30163   0.539   3.880   9.914  0.4565 -0.5103 -0.6715
 6234SOL    HW130164   0.556   3.886   9.820  3.3463  0.5594 -0.0872
 6234SOL    HW230165   0.569   3.792   9.937 -0.6060 -0.5376  0.6527
 6235SOL     OW30166   1.375   0.020   3.020  0.2733 -0.2863  0.9823
 6235SOL    HW130167   1.316   0.001   2.947 -0.1067  2.1334  0.6390
 6235SOL    HW230168   1.322   4.709   3.092 -0.9341 -2.5220 -1.0380
 6236SOL     OW30169   2.093   1.775   6.138  0.7358  0.2738  0.0162
 6236SOL    HW130170   2.015   1.812   6.178  0.3527 -1.3921  0.8145
 6236SOL    HW230171   2.058   1.724   6.066  1.2642 -0.2560  0.1337
 6237SOL     OW30172   4.503   3.126   4.231  0.3748  0.1306 -0.0370
 6237SOL    HW130173   4.489   3.144   4.324 -1.1748  0.7959 -0.3904
 6237SOL    HW230174   4.598   3.117   4.239  0.4433 -0.8071 -2.0133
 6238SOL     OW30175   4.442   2.709   3.113  0.2703  0.5241 -0.1747
 6238SOL    HW130176   4.516   2.708   3.053 -0.3853 -0.1794 -0.9765
 6238SOL    HW230177   4.383   2.770   3.068 -1.7249 -2.3049 -1.4427
 6239SOL     OW30178   1.944   4.574   7.257  0.1883  0.0324  0.6105
 6239SOL    HW130179   1.886   4.567   7.332  1.0169  1.4173  1.3845
 6239SOL    HW230180   1.872   4.583   7.194  0.2327  1.0489  0.7082
 6240SOL     OW30181   4.281   4.508  14.293 -0.2989  0.9573  0.1753
 6240SOL    HW130182   4.293   4.424  14.338  0.7815  1.1754  0.2894
 6240SOL    HW230183   4.242   4.473  14.212  1.0824 -0.7338  0.2282
 6241SOL     OW30184   4.127   3.640   5.193 -0.0248 -0.2955 -0.2647
 6241SOL    HW130185   4.139   3.572   5.126 -0.1929  0.3029 -0.9100
 6241SOL    HW230186   4.219   3.654   5.214  0.1039 -1.1822 -0.2580
 6242SOL     OW30187   0.493   4.267   2.814  0.2058  0.2578 -0.4501
 6242SOL    HW130188   0.528   4.243   2.900 -0.9832  1.2829  0.3289
 6242SOL    HW230189   0.551   4.336   2.782  1.8205 -1.4401 -1.2030
 6243SOL     OW30190   0.295   4.221   4.706  0.3252  0.2409  0.3011
 6243SOL    HW130191   0.387   4.233   4.682  0.2140  1.7686  0.6213
 6243SOL    HW230192   0.257   4.302   4.671 -1.4658 -0.5962  0.3403
 6244SOL     OW30193   0.413   2.773   9.077 -0.2496 -0.0329  0.2809
 6244SOL    HW130194   0.408   2.825   9.157  1.2204  0.1250  0.2619
 6244SOL    HW230195   0.375   2.834   9.013  1.7182  0.8105 -0.0703
 6245SOL     OW30196   4.432   2.487   5.955 -0.3870 -0.0864 -0.1950
 6245SOL    HW130197   4.457   2.518   5.868 -0.9144 -0.0572 -0.3375
 6245SOL    HW230198   4.436   2.392   5.949 -3.0669 -0.3440  1.8904
 6246SOL     OW30199   1.596   2.107   4.169 -0.5979 -0.4345  0.0062
 6246SOL    HW130200   1.682   2.142   4.143 -1.1204 -0.0503 -1.2490
 6246SOL    HW230201   1.541   2.184   4.180  1.0778  0.7491  0.1670
 6247SOL     OW30202   2.354   1.285   8.145 -0.4528 -0.4254  0.1187
 6247SOL    HW130203   2.423   1.234   8.188 -0.6669 -0.0723  0.8795
 6247SOL    HW230204   2.286   1.260   8.207 -1.2042  0.7220 -0.2592
 6248SOL     OW30205   2.783   4.075   9.714 -0.3456 -0.2396 -0.4678
 6248SOL    HW130206   2.861   4.021   9.724 -0.7264 -0.4594  1.3804
 6248SOL    HW230207   2.769   4.059   9.621 -0.6201  1.1952 -0.6831
 6249SOL     OW30208   1.189   3.158  13.048  0.1646 -0.1038 -1.1244
 6249SOL    HW130209   1.283   3.174  13.040  0.3276  0.5103  2.1208
 6249SOL    HW230210   1.169   3.243  13.087 -0.8874 -0.8115 -0.1133
 6250SOL     OW30211   2.588   3.066   7.809  0.6500  0.4602 -0.1421
 6250SOL    HW130212   2.521   3.029   7.751 -1.5367  3.0666  0.7242
 6250SOL    HW230213   2.531   3.109   7.873  0.6327  1.7311 -1.0112
 6251SOL     OW30214   1.771   0.353  15.007 -0.5611  0.1333  0.3179
 6251SOL    HW130215   1.729   0.383  14.926  0.2441  1.9847  0.5723
 6251SOL    HW230216   1.836   0.423  15.021 -0.1003 -0.4344  1.0096
 6252SOL     OW30217   2.397   3.017  11.131  0.1406  0.0569  0.1350
 6252SOL    HW130218   2.438   3.103  11.122 -0.1722  0.0757 -1.1635
 6252SOL    HW230219   2.302   3.030  11.131  0.2356  0.7249  0.8530
 6253SOL     OW30220   1.323   0.697   3.656  0.4657 -0.0262  0.4113
 6253SOL    HW130221   1.407   0.687   3.610 -0.2533 -1.7452 -0.5409
 6253SOL    HW230222   1.268   0.748   3.597 -0.3431 -1.1071  0.2329
 6254SOL     OW30223   2.374   3.342   2.227 -0.1562  0.1501 -0.2263
 6254SOL    HW130224   2.357   3.423   2.179  1.6125  1.1876  0.8972
 6254SOL    HW230225   2.465   3.347   2.254  0.4043 -0.0177 -2.1052
 6255SOL     OW30226   0.512   0.464   8.139  0.6320 -0.6434 -0.8068
 6255SOL    HW130227   0.525   0.465   8.233 -3.0995 -0.6957 -0.2727
 6255SOL    HW230228   0.461   0.384   8.126 -0.1120 -0.3761  0.5530
 6256SOL     OW30229   1.080   3.432  16.025 -0.6367 -0.0609 -0.4580
 6256SOL    HW130230   1.015   3.501  16.014 -0.4098  0.4060  1.2007
 6256SOL    HW230231   1.044   3.380  16.097  0.8684  0.3915  0.6292
 6257SOL     OW30232   3.724   2.272  10.479 -0.4328  0.6374  0.1156
 6257SOL    HW130233   3.673   2.351  10.461 -0.6678  0.4986  0.1682
 6257SOL    HW230234   3.754   2.284  10.569  2.1645  2.7489 -1.0392
 6258SOL     OW30235   3.483   4.285   4.919  0.2752 -0.2990 -0.2312
 6258SOL    HW130236   3.536   4.297   4.998 -0.8531  0.0024  0.4650
 6258SOL    HW230237   3.534   4.341   4.860  0.2936 -1.0308 -0.9163
 6259SOL     OW30238   1.975   2.264   9.849 -0.0720 -0.3861 -0.3368
 6259SOL    HW130239   1.976   2.328   9.920  1.1469 -1.2720  0.4566
 6259SOL    HW230240   1.884   2.268   9.821 -0.3717 -0.1094  0.6815
 6260SOL     OW30241   2.034   0.281   4.877  0.1917  0.3092 -0.3094
 6260SOL    HW130242   2.027   0.351   4.812  0.2371  0.0883 -0.5530
 6260SOL    HW230243   2.091   0.316   4.946 -1.5739  1.8491  0.3635
 6261SOL     OW30244   0.325   1.218  15.595  0.5743  0.0260  0.1163
 6261SOL    HW130245   0.294   1.203  15.506 -1.7482  1.4657  0.6830
 6261SOL    HW230246   0.259   1.280  15.625  1.7252  0.3986  1.8687
 6262SOL     OW30247   0.488   0.279   2.679  0.0885  0.1091 -0.3333
 6262SOL    HW130248   0.409   0.322   2.712 -0.0704  1.1627 -2.0678
 6262SOL    HW230249   0.491   0.315   2.590 -1.3973 -0.3973 -0.5956
 6263SOL     OW30250   0.575   1.317   2.366 -0.7813 -0.5438  0.2973
 6263SOL    HW130251   0.579   1.386   2.299  1.7930  0.5871  1.5934
 6263SOL    HW230252   0.580   1.236   2.315 -3.8434  0.0119 -0.8544
 6264SOL     OW30253   1.179   2.625   7.436 -0.0967  0.4404  0.1765
 6264SOL    HW130254   1.170   2.587   7.349 -0.2382 -1.0482  0.8506
 6264SOL    HW230255   1.210   2.710   7.406  2.2038 -0.9730 -1.3963
 6265SOL     OW30256   0.834   1.956   2.924  0.3519 -0.3992  0.6639
 6265SOL    HW130257   0.774   1.995   2.989 -1.6943 -3.1833  0.4700
 6265SOL    HW230258   0.799   1.998   2.845  2.3486 -0.7291 -0.3796
 6266SOL     OW30259   2.236   1.670   4.759 -0.6042  0.1491  0.0614
 6266SOL    HW130260   2.213   1.763   4.764  0.6543  0.5419 -1.4757
 6266SOL    HW230261   2.315   1.668   4.813 -1.8728  1.7285  1.9929
 6267SOL     OW30262   4.270   3.308   7.347 -0.0748  0.2660  0.0496
 6267SOL    HW130263   4.226   3.232   7.311  0.0188  0.9333 -1.4938
 6267SOL    HW230264   4.304   3.274   7.430 -1.3862  0.5510  0.7048
 6268SOL     OW30265   4.421   4.098   3.837 -0.5976 -0.0996 -0.1047
 6268SOL    HW130266   4.452   4.121   3.749  1.0093 -2.3968 -0.1385
 6268SOL    HW230267   4.406   4.005   3.821  4.1816 -0.6768 -1.2889
 6269SOL     OW30268   1.185   0.527   2.134  0.0216  0.2833  0.4213
 6269SOL    HW130269   1.203   0.436   2.160 -0.3539 -0.2850 -1.2492
 6269SOL    HW230270   1.125   0.519   2.059  1.1672 -2.3151 -0.2240
 6270SOL     OW30271   2.290   1.646   2.716 -0.1610  0.6447  0.0814
 6270SOL    HW130272   2.249   1.693   2.644 -0.0558  0.5565 -0.0348
 6270SOL    HW230273   2.295   1.713   2.785 -1.4962  0.9726 -0.1515
 6271SOL     OW30274   2.904   0.040   4.826 -0.2546 -0.2915  0.2728
 6271SOL    HW130275   2.950   0.042   4.742 -0.9631 -0.9484 -0.1236
 6271SOL    HW230276   2.817   0.014   4.797  0.0524 -0.0966 -0.8557
 6272SOL     OW30277   2.517   3.547   6.589  0.0628  0.4271 -0.5799
 6272SOL    HW130278   2.507   3.547   6.494 -0.6811  0.7109 -0.4987
 6272SOL    HW230279   2.454   3.480   6.614  1.1839 -0.4141 -0.0319
 6273SOL     OW30280   2.988   2.480  12.136 -0.5297 -0.7614  0.1824
 6273SOL    HW130281   2.984   2.391  12.173 -0.1899 -1.5698 -1.7114
 6273SOL    HW230282   2.953   2.531  12.209 -0.3523 -1.7140  0.9363
 6274SOL     OW30283   4.568   2.850   7.979  0.2091 -0.3341  0.0965
 6274SOL    HW130284   4.564   2.754   7.979 -2.5296 -0.2267  0.6541
 6274SOL    HW230285   4.479   2.883   7.989  1.0697  2.0805 -0.2572
 6275SOL     OW30286   1.686   0.478   7.422  0.4808 -0.7356 -0.2748
 6275SOL    HW130287   1.714   0.538   7.352 -1.9164  0.6672 -0.0393
 6275SOL    HW230288   1.649   0.532   7.492  0.6363 -1.0382  0.0396
 6276SOL     OW30289   2.301   0.714  16.286  0.0254 -0.5787  0.7175
 6276SOL    HW130290   2.258   0.771  16.222  0.4473 -0.5407  0.4685
 6276SOL    HW230291   2.276   0.630  16.248  2.6566 -0.3381 -1.4854
 6277SOL     OW30292   1.985   0.537   4.732 -0.5534 -0.0660  0.0576
 6277SOL    HW130293   2.032   0.621   4.735 -3.2474  1.4586 -0.3818
 6277SOL    HW230294   1.917   0.560   4.795 -2.6537 -0.2866 -2.1599
 6278SOL     OW30295   2.136   2.300   3.134  0.1971  0.4950 -0.0024
 6278SOL    HW130296   2.175   2.329   3.217 -0.0222  2.4358 -0.5809
 6278SOL    HW230297   2.203   2.251   3.085 -0.6409 -1.4099  0.7520
 6279SOL     OW30298   3.254   0.471   4.206  0.2432 -0.1485 -0.3223
 6279SOL    HW130299   3.313   0.528   4.255  0.5741 -1.9164  1.3546
 6279SOL    HW230300   3.168   0.512   4.216  0.1646  0.1464 -2.2665
 6280SOL     OW30301   0.176   4.139   4.200 -0.6015  0.0368 -0.5966
 6280SOL    HW130302   0.157   4.204   4.133 -2.2388 -0.1592 -0.3245
 6280SOL    HW230303   0.132   4.190   4.268 -1.0268 -0.2547 -0.6464
 6281SOL     OW30304   1.913   1.448  13.838 -0.0386  0.5573 -0.0717
 6281SOL    HW130305   1.907   1.377  13.774  0.5868 -0.7565  1.3442
 6281SOL    HW230306   1.892   1.394  13.914 -0.2095  0.8725  0.1098
 6282SOL     OW30307   2.082   4.667   1.430  0.2892 -0.3096 -0.3375
 6282SOL    HW130308   2.154   4.605   1.435 -1.2253 -1.7070  4.1913
 6282SOL    HW230309   2.130   0.014   1.390  0.9354 -1.0063 -0.8020
 6283SOL     OW30310   2.201   3.213  16.284 -0.5078 -0.0304 -0.0457
 6283SOL    HW130311   2.288   3.245  16.260 -0.3353 -1.2164 -1.0197
 6283SOL    HW230312   2.184   3.144  16.220  0.6628 -0.4032  0.0335
 6284SOL     OW30313   3.502   3.317  16.707 -0.4025  0.3419  0.0412
 6284SOL    HW130314   3.460   3.249  16.760 -3.6552  0.7815 -1.9124
 6284SOL    HW230315   3.555   3.356  16.776  0.0723  0.7669 -0.5728
 6285SOL     OW30316   2.370   1.942  10.189  0.2013  0.0130 -0.7124
 6285SOL    HW130317   2.399   1.914  10.102 -4.3866 -0.8414 -1.9656
 6285SOL    HW230318   2.276   1.938  10.172  0.5445 -0.6912 -2.4475
 6286SOL     OW30319   3.073   0.057  16.108  0.5762 -0.4568 -0.2535
 6286SOL    HW130320   3.003   0.114  16.138 -1.1058 -2.1523 -0.9157
 6286SOL    HW230321   3.100   0.011  16.188 -1.3076 -1.3242 -0.1249
 6287SOL     OW30322   0.773   1.135   1.113  0.3176  0.3810 -0.0071
 6287SOL    HW130323   0.686   1.126   1.153  0.3890 -2.1489 -0.4059
 6287SOL    HW230324   0.802   1.044   1.105 -2.0557 -0.4068  0.4092
 6288SOL     OW30325   3.642   3.575   7.826 -0.5924  0.5093 -0.3836
 6288SOL    HW130326   3.664   3.640   7.892  0.9567 -1.4954  1.0911
 6288SOL    HW230327   3.575   3.521   7.870 -0.8540 -0.4184 -1.9488
 6289SOL     OW30328   2.726   2.696   8.527  0.1587  0.1406 -0.0210
 6289SOL    HW130329   2.805   2.712   8.474 -0.2124  0.1181 -0.5845
 6289SOL    HW230330   2.670   2.771   8.508  0.5702  1.0845  2.6069
 6290SOL     OW30331   3.436   2.753   1.026 -0.0061 -0.1079 -0.2688
 6290SOL    HW130332   3.356   2.777   1.073 -0.4819  0.0298 -1.1500
 6290SOL    HW230333   3.444   2.820   0.958  1.8186 -1.8482 -1.7642
 6291SOL     OW30334   2.196   4.554   7.189 -0.1127 -0.5296  0.4619
 6291SOL    HW130335   2.104   4.539   7.212 -0.2893  1.1927  0.8373
 6291SOL    HW230336   2.192   4.638   7.144 -0.6853 -1.4189 -1.1433
 6292SOL     OW30337   4.384   2.401   5.304  0.3324 -0.0150  0.4665
 6292SOL    HW130338   4.381   2.407   5.399  0.0772 -0.1522  0.4674
 6292SOL    HW230339   4.295   2.373   5.284 -0.5302  0.5848  3.4808
 6293SOL     OW30340   3.129   3.049   3.021 -0.6387 -0.2976  0.0367
 6293SOL    HW130341   3.079   3.129   3.002  1.1253  0.2773 -2.2193
 6293SOL    HW230342   3.178   3.052   2.939  0.6613  1.3405  0.8807
 6294SOL     OW30343   0.843   3.894   8.956  0.2881  0.1056  0.1382
 6294SOL    HW130344   0.803   3.815   8.993  2.5885 -2.5766 -3.0702
 6294SOL    HW230345   0.847   3.951   9.033 -0.6948 -1.8743  1.6614
 6295SOL     OW30346   0.354   4.048   4.920 -0.0062 -0.5161  0.2160
 6295SOL    HW130347   0.393   3.980   4.865  1.1647  1.0008 -0.8260
 6295SOL    HW230348   0.301   4.085   4.849 -0.3484  0.1806  0.8307
 6296SOL     OW30349   2.749   1.061  12.169 -0.3988  0.3292  0.2221
 6296SOL    HW130350   2.709   1.041  12.084 -0.2401  1.6181 -0.1631
 6296SOL    HW230351   2.825   1.004  12.163 -0.9529 -0.0141 -3.9395
 6297SOL     OW30352   1.484   0.051   4.603  0.4436  0.3300  0.5196
 6297SOL    HW130353   1.543   0.055   4.678 -1.0374 -0.2019  1.7109
 6297SOL    HW230354   1.474   0.144   4.584 -1.4936  0.0395  0.1236
 6298SOL     OW30355   3.355   2.160   2.707  0.2575  0.4788 -0.4750
 6298SOL    HW130356   3.384   2.090   2.649  1.5413 -1.4305  2.4548
 6298SOL    HW230357   3.382   2.234   2.652  1.6863  0.3408  0.0358
 6299SOL     OW30358   0.676   1.109  12.773  0.6671  0.4619  0.1105
 6299SOL    HW130359   0.617   1.184  12.778 -0.6310 -0.6420  1.3429
 6299SOL    HW230360   0.615   1.036  12.783 -0.1366  1.6596  4.0783
 6300SOL     OW30361   3.783   3.602   8.844  0.0519 -0.5129 -0.2880
 6300SOL    HW130362   3.873   3.584   8.870 -0.2884 -0.7707  0.6881
 6300SOL    HW230363   3.780   3.566   8.755 -0.5345 -1.4328  0.1083
 6301SOL     OW30364   3.639   1.359   4.513 -0.1867  0.1874  0.3705
 6301SOL    HW130365   3.722   1.313   4.525 -0.7015 -0.2499  2.3063
 6301SOL    HW230366   3.660   1.443   4.472  1.1361 -1.6866 -2.7506
 6302SOL     OW30367   3.283   1.517   9.731 -0.1088 -0.6097 -0.3323
 6302SOL    HW130368   3.245   1.464   9.801 -2.3738  0.7221 -0.5410
 6302SOL    HW230369   3.251   1.608   9.735  0.8261 -0.3843  1.8375
 6303SOL     OW30370   0.037   2.231   9.273  0.1798 -0.5420  0.1975
 6303SOL    HW130371   4.697   2.167   9.303 -0.2282  1.5817  3.7703
 6303SOL    HW230372   0.074   2.260   9.356  0.3231 -0.2309  0.0233
 6304SOL     OW30373   0.042   1.185   5.833  0.3019  0.3333  0.2184
 6304SOL    HW130374   0.112   1.144   5.884  0.3749 -0.1644 -0.2898
 6304SOL    HW230375   0.067   1.277   5.832  1.2902  0.0467 -0.9319
 6305SOL     OW30376   1.179   1.093   7.571 -0.5433 -0.8138 -0.6526
 6305SOL    HW130377   1.132   1.016   7.539 -1.7095 -1.0139  1.5057
 6305SOL    HW230378   1.266   1.055   7.563 -0.2723 -0.6858  1.6149
 6306SOL     OW30379   3.493   1.243  14.601  0.4198  0.1967 -0.2830
 6306SOL    HW130380   3.481   1.269  14.692  0.1928  0.7897 -0.4788
 6306SOL    HW230381   3.447   1.159  14.605 -0.2250  0.5586 -0.0412
 6307SOL     OW30382   1.976   0.041  17.507 -0.2994  0.2641  0.3260
 6307SOL    HW130383   2.005   0.036  17.416 -1.0458  1.9101  0.0064
 6307SOL    HW230384   1.881   0.053  17.498 -0.1717  1.7852  1.0272
 6308SOL     OW30385   0.904   1.646  16.985  0.0357 -0.3111 -0.2409
 6308SOL    HW130386   0.910   1.732  17.026  0.2514  0.1186 -1.1730
 6308SOL    HW230387   0.870   1.686  16.905  0.4710  2.3362  0.8801
 6309SOL     OW30388   3.834   2.491  16.826  0.1815  0.3261 -0.3112
 6309SOL    HW130389   3.812   2.546  16.901  0.7601 -2.3738  1.8138
 6309SOL    HW230390   3.763   2.429  16.813  0.4476 -0.0873  0.2033
 6310SOL     OW30391   1.800   4.565   7.481  0.2168  0.2345  0.2959
 6310SOL    HW130392   1.812   4.569   7.576  0.6264  0.1125  0.2485
 6310SOL    HW230393   1.713   4.606   7.478 -0.1370 -0.5255  0.1470
 6311SOL     OW30394   0.495   3.625   6.156  0.1396  0.4262 -0.5091
 6311SOL    HW130395   0.410   3.615   6.114  0.6656 -0.1014 -1.4512
 6311SOL    HW230396   0.462   3.674   6.231 -0.9585 -0.5231 -0.3696
 6312SOL     OW30397   3.615   0.501  12.658  0.2000 -0.2211 -0.2810
 6312SOL    HW130398   3.626   0.580  12.605  0.3375  0.4127  0.7044
 6312SOL    HW230399   3.680   0.450  12.610  2.6865  3.0002 -0.3727
 6313SOL     OW30400   3.708   3.795  11.060 -0.6966  0.0792 -0.2482
 6313SOL    HW130401   3.800   3.769  11.048 -0.2687  1.2240  0.5916
 6313SOL    HW230402   3.660   3.756  10.987 -0.8624 -1.3876  0.6363
 6314SOL     OW30403   3.269   2.733  13.424 -0.2484  0.4843  0.3873
 6314SOL    HW130404   3.358   2.704  13.403 -0.6129 -1.4989  1.5747
 6314SOL    HW230405   3.288   2.811  13.476 -0.5829  0.0112  1.2261
 6315SOL     OW30406   2.344   0.304   5.627  0.3720 -0.3873  0.2972
 6315SOL    HW130407   2.287   0.380   5.635  0.9191 -0.2485  2.9828
 6315SOL    HW230408   2.425   0.352   5.609  0.6959 -0.2520  2.0649
 6316SOL     OW30409   2.795   4.514   7.620 -0.0983  0.2591 -0.7159
 6316SOL    HW130410   2.742   4.452   7.669  2.0867 -0.8785  0.1908
 6316SOL    HW230411   2.728   4.547   7.560 -0.7750 -0.0900 -0.1475
 6317SOL     OW30412   3.652   0.493   4.185  0.3364 -0.0527 -0.0109
 6317SOL    HW130413   3.619   0.416   4.231 -0.7835  0.7074  0.4558
 6317SOL    HW230414   3.737   0.504   4.226  1.2666  1.6481 -2.4064
 6318SOL     OW30415   0.263   3.277   3.142 -0.2826 -0.7912  0.5554
 6318SOL    HW130416   0.286   3.301   3.052 -2.1906 -0.0083  0.2566
 6318SOL    HW230417   0.208   3.354   3.160  1.0952  0.2432  0.3338
 6319SOL     OW30418   2.797   3.205  10.448 -0.6196  0.3311 -0.0866
 6319SOL    HW130419   2.711   3.164  10.456 -0.4639  0.7014  3.1937
 6319SOL    HW230420   2.824   3.188  10.538  1.8446  1.1643 -0.6762
 6320SOL     OW30421   0.343   0.714   2.866  0.4400  0.3516  0.6036
 6320SOL    HW130422   0.285   0.657   2.917 -0.4041  1.7061  1.1604
 6320SOL    HW230423   0.367   0.782   2.929 -0.1696  0.9788  0.1621
 6321SOL     OW30424   0.827   1.475   4.985  0.2335 -0.2821 -0.9158
 6321SOL    HW130425   0.774   1.408   5.028  1.0690  0.8829  1.9238
 6321SOL    HW230426   0.766   1.536   4.942  0.0985  0.2652  0.0634
 6322SOL     OW30427   2.985   2.292   6.690  0.4310 -0.0543 -0.6380
 6322SOL    HW130428   3.043   2.364   6.714 -1.0609  0.6354  0.8807
 6322SOL    HW230429   2.899   2.331   6.674  0.6000  0.7543  0.4263
 6323SOL     OW30430   0.118   3.669   8.226  0.2836 -0.2671  0.5892
 6323SOL    HW130431   0.112   3.675   8.321  0.6867 -3.6588  0.8313
 6323SOL    HW230432   0.207   3.702   8.213  0.2741 -0.8944 -1.0217
 6324SOL     OW30433   3.221   4.713   8.114 -0.0619  0.2560 -0.1305
 6324SOL    HW130434   3.139   0.012   8.070 -1.2023 -1.5506  0.9543
 6324SOL    HW230435   3.265   4.655   8.052  0.4932  0.5699 -0.0287
 6325SOL     OW30436   1.999   2.897  12.114 -0.2170 -0.0115  0.1357
 6325SOL    HW130437   2.010   2.814  12.160  0.9505  0.0239 -0.0669
 6325SOL    HW230438   1.970   2.949  12.189  0.9814  1.5004 -0.4408
 6326SOL     OW30439   0.544   0.877  12.784 -0.1386 -0.2712  0.1690
 6326SOL    HW130440   0.536   0.837  12.871 -1.3567  1.9982  1.0919
 6326SOL    HW230441   0.610   0.828  12.735 -1.1347 -1.9879  0.5494
 6327SOL     OW30442   1.544   0.955   3.985  0.0826  0.5270  0.8736
 6327SOL    HW130443   1.637   0.949   3.965  0.0979 -0.1246  1.1299
 6327SOL    HW230444   1.536   0.896   4.060 -4.4607 -0.8181 -0.6437
 6328SOL     OW30445   1.456   1.250   3.334  0.4248 -0.1135  0.2183
 6328SOL    HW130446   1.520   1.223   3.269 -0.8518 -1.7773 -0.3626
 6328SOL    HW230447   1.510   1.283   3.405 -0.2216  0.5194  0.4162
 6329SOL     OW30448   3.047   0.956   3.955  0.5521 -0.7855  0.7783
 6329SOL    HW130449   3.012   1.032   4.002  1.0363  0.1704 -0.4040
 6329SOL    HW230450   3.132   0.959   4.000  1.3057 -1.4920 -0.6112
 6330SOL     OW30451   1.681   3.471   9.088 -0.1594 -0.7039 -0.2737
 6330SOL    HW130452   1.622   3.547   9.091 -2.7417 -2.6178 -1.4315
 6330SOL    HW230453   1.744   3.508   9.149 -0.7691  0.5679 -0.3953
 6331SOL     OW30454   4.424   3.015  10.401  0.1646 -0.3288  0.4176
 6331SOL    HW130455   4.413   3.109  10.420 -0.9877  0.2455 -3.0680
 6331SOL    HW230456   4.516   2.999  10.424  0.9016 -1.2253 -3.2118
 6332SOL     OW30457   4.181   2.856   5.730 -0.1890  0.0118  0.1368
 6332SOL    HW130458   4.261   2.907   5.737 -0.1114 -0.1972  0.7808
 6332SOL    HW230459   4.123   2.887   5.800  0.6100 -0.6591  1.0958
 6333SOL     OW30460   1.067   2.675  16.112  0.1908  0.1582  0.2388
 6333SOL    HW130461   1.091   2.654  16.202  2.3326 -2.9037 -1.0306
 6333SOL    HW230462   1.154   2.695  16.077  0.9507 -1.1568  1.3564
 6334SOL     OW30463   2.194   0.881   9.889  0.4978 -0.1572 -0.4780
 6334SOL    HW130464   2.248   0.935   9.946 -1.6983  1.6420 -0.0878
 6334SOL    HW230465   2.120   0.939   9.874  0.5732  0.0442 -0.0866
 6335SOL     OW30466   0.393   2.106   4.006  0.6412  0.7088  0.7033
 6335SOL    HW130467   0.354   2.124   4.091  0.7918  1.5007  0.6054
 6335SOL    HW230468   0.465   2.168   4.006 -0.1762  1.6650 -0.9594
 6336SOL     OW30469   1.799   4.312  17.422 -0.1333 -0.3909  0.5894
 6336SOL    HW130470   1.719   4.362  17.438 -0.1535  0.0871 -1.0087
 6336SOL    HW230471   1.854   4.379  17.382 -0.1252  0.1802  1.5594
 6337SOL     OW30472   1.958   4.498  17.279 -0.1408 -0.0370 -0.0382
 6337SOL    HW130473   2.011   4.440  17.225 -0.5231 -1.6504  1.2829
 6337SOL    HW230474   2.030   4.558  17.299 -0.3558  0.4887 -0.8696
 6338SOL     OW30475   0.645   4.357   1.849 -0.3458 -0.0762  0.5031
 6338SOL    HW130476   0.737   4.365   1.875 -0.9358  1.3740  2.1332
 6338SOL    HW230477   0.615   4.290   1.910 -0.0685 -1.4024 -0.8025
 6339SOL     OW30478   0.501   1.142   9.510  0.0975 -0.3714 -0.1177
 6339SOL    HW130479   0.591   1.121   9.483  0.9839  0.3658  2.2274
 6339SOL    HW230480   0.515   1.144   9.605 -0.0460  1.5866 -0.1283
 6340SOL     OW30481   0.679   2.715   5.653 -0.1457  0.0581 -1.2605
 6340SOL    HW130482   0.768   2.746   5.665  0.2018 -1.8555  1.2309
 6340SOL    HW230483   0.669   2.730   5.559  1.8128  0.8783 -1.3206
 6341SOL     OW30484   0.275   1.298   7.617  0.0366  0.1455  0.1172
 6341SOL    HW130485   0.264   1.215   7.573  0.3000 -0.2204  0.7361
 6341SOL    HW230486   0.335   1.262   7.683  0.7754  1.4611  0.1703
 6342SOL     OW30487   0.827   3.801   6.637 -0.5180  0.0195 -0.2513
 6342SOL    HW130488   0.743   3.841   6.616 -0.3416 -0.6470 -2.2662
 6342SOL    HW230489   0.866   3.788   6.551 -0.5048 -0.3690 -0.1884
 6343SOL     OW30490   3.399   0.306   6.565  0.2270 -0.1746  0.3076
 6343SOL    HW130491   3.312   0.270   6.580  0.3153 -0.4295  0.2184
 6343SOL    HW230492   3.399   0.395   6.599  2.9543  0.0098 -0.1462
 6344SOL     OW30493   0.025   0.565   3.051  0.5034 -0.2799 -0.1323
 6344SOL    HW130494   0.057   0.570   2.961  1.3817 -0.8322  0.1466
 6344SOL    HW230495   4.697   0.486   3.043  0.5209 -0.1903 -1.1281
 6345SOL     OW30496   1.165   3.346   3.068  0.1477 -0.2032 -0.2970
 6345SOL    HW130497   1.079   3.371   3.036  0.2571  0.0112 -0.4277
 6345SOL    HW230498   1.176   3.262   3.023  0.1318 -0.5319  0.3129
 6346SOL     OW30499   3.751   2.712   0.581 -0.1377 -0.2244 -0.0185
 6346SOL    HW130500   3.764   2.723   0.675  1.1598  0.7876 -0.3128
 6346SOL    HW230501   3.773   2.801   0.554 -0.9927  0.1247  0.4361
 6347SOL     OW30502   1.456   1.101  13.149 -0.4662 -0.1540  0.2290
 6347SOL    HW130503   1.433   1.193  13.136  1.4422  0.0649 -1.5042
 6347SOL    HW230504   1.416   1.077  13.233  0.0241  0.8210  0.7489
 6348SOL     OW30505   3.075   2.433   7.796  0.4733 -0.6028 -0.5663
 6348SOL    HW130506   3.149   2.489   7.818 -0.6638  1.0755 -0.9743
 6348SOL    HW230507   3.098   2.350   7.837  2.2247 -0.0333 -0.4027
 6349SOL     OW30508   3.187   0.502  13.025 -0.2523  0.2521  0.1932
 6349SOL    HW130509   3.260   0.442  13.043 -0.0221  0.6706  0.6537
 6349SOL    HW230510   3.204   0.569  13.091  1.9653 -0.3447  0.2479
 6350SOL     OW30511   2.174   2.621  12.923 -0.4072  0.5192 -0.6486
 6350SOL    HW130512   2.161   2.536  12.880  0.4285 -1.1880  2.4510
 6350SOL    HW230513   2.124   2.677  12.864 -1.6608  1.3966  1.2509
 6351SOL     OW30514   0.709   4.014   8.161 -0.1061  0.5915  0.3265
 6351SOL    HW130515   0.719   4.029   8.255  0.5154  2.3214 -0.0110
 6351SOL    HW230516   0.641   4.078   8.143 -0.8848  0.4521  2.7388
 6352SOL     OW30517   0.004   1.019   1.659  0.2480 -0.4221 -0.1132
 6352SOL    HW130518   4.636   1.000   1.663 -0.2565  2.0874 -0.1224
 6352SOL    HW230519   0.030   0.947   1.601 -2.1755 -0.7835 -0.7383
 6353SOL     OW30520   0.849   0.859  15.467 -0.3116 -0.7638 -0.2199
 6353SOL    HW130521   0.944   0.847  15.460 -0.0632  1.1660 -0.2792
 6353SOL    HW230522   0.851   0.949  15.434 -1.2683 -0.6635  0.0168
 6354SOL     OW30523   2.969   1.810   7.809 -0.5264 -0.2633 -0.0070
 6354SOL    HW130524   2.983   1.844   7.720  1.0392 -0.0077  0.3345
 6354SOL    HW230525   2.986   1.716   7.804 -2.2473 -0.6596  1.8399
 6355SOL     OW30526   2.232   4.418  11.908 -0.2660 -0.4011  0.5445
 6355SOL    HW130527   2.251   4.340  11.959 -0.9724  0.5245  2.2266
 6355SOL    HW230528   2.276   4.491  11.952  0.5032 -1.7595  2.0038
 6356SOL     OW30529   2.322   1.095   3.174  0.1623 -0.6564 -0.4160
 6356SOL    HW130530   2.275   1.153   3.115  2.5107  0.4099 -1.2299
 6356SOL    HW230531   2.336   1.021   3.115  1.8991 -0.3081 -0.4582
 6357SOL     OW30532   2.532   0.269   0.887  0.2162  0.0641 -0.1562
 6357SOL    HW130533   2.603   0.248   0.948  1.0608  0.5417 -0.9757
 6357SOL    HW230534   2.507   0.359   0.908 -2.0934 -0.8046  0.7795
 6358SOL     OW30535   3.478   3.549  14.667 -0.2518 -0.0647 -1.0797
 6358SOL    HW130536   3.462   3.457  14.690 -0.9782  0.1607 -0.6845
 6358SOL    HW230537   3.466   3.548  14.572 -1.3222  1.6150 -0.9611
 6359SOL     OW30538   3.275   4.449   7.191  0.0447 -0.7608 -0.1974
 6359SOL    HW130539   3.219   4.377   7.218  0.9420 -2.7058 -3.5130
 6359SOL    HW230540   3.255   4.450   7.097 -0.0294 -0.1566 -0.1775
 6360SOL     OW30541   4.543   2.177   8.811  0.3658 -0.0961  0.2556
 6360SOL    HW130542   4.615   2.211   8.864 -1.0843  2.0026  0.9061
 6360SOL    HW230543   4.493   2.137   8.881  1.5410 -0.5081  0.8468
 6361SOL     OW30544   4.154   4.295   7.275  0.7716 -0.2426  0.2684
 6361SOL    HW130545   4.201   4.230   7.326 -0.5380 -0.3126  1.3957
 6361SOL    HW230546   4.089   4.232   7.243  2.0700 -0.8220 -1.2317
 6362SOL     OW30547   0.779   0.604   3.498  0.2917 -0.0804  0.1838
 6362SOL    HW130548   0.844   0.586   3.566  0.0042 -3.6360 -0.4698
 6362SOL    HW230549   0.768   0.521   3.450  0.8045  1.0402 -1.8431
 6363SOL     OW30550   2.195   2.032   2.258  0.3256 -0.6574 -0.2029
 6363SOL    HW130551   2.275   2.022   2.207  1.2984  0.0477  1.1859
 6363SOL    HW230552   2.205   2.125   2.277 -3.6289 -0.6802  2.0740
 6364SOL     OW30553   1.802   2.991   6.563 -0.3983 -0.1209 -0.5254
 6364SOL    HW130554   1.781   3.053   6.632  0.0491 -0.1557 -0.3596
 6364SOL    HW230555   1.833   2.918   6.617 -1.2767 -0.8460 -0.9974
 6365SOL     OW30556   4.369   1.382  10.783 -0.4167  0.1039  0.7867
 6365SOL    HW130557   4.402   1.304  10.827 -2.0138 -1.7734 -1.3507
 6365SOL    HW230558   4.403   1.443  10.849 -1.4484 -0.9406  2.2893
 6366SOL     OW30559   1.594   3.285   0.940  0.4075 -0.4660  0.5237
 6366SOL    HW130560   1.605   3.229   0.863 -3.1825  0.3313 -0.5580
 6366SOL    HW230561   1.675   3.336   0.939  0.0499  0.1122  1.2799
 6367SOL     OW30562   3.025   2.967  13.371 -0.5136 -0.4077  0.4419
 6367SOL    HW130563   2.944   3.008  13.339 -0.0101  1.0150  0.9953
 6367SOL    HW230564   3.092   3.020  13.328 -0.9118  0.5583  1.0121
 6368SOL     OW30565   1.716   2.145   9.397  0.0935 -0.2960  0.4658
 6368SOL    HW130566   1.634   2.178   9.432  1.1173  1.0499  1.5582
 6368SOL    HW230567   1.690   2.054   9.383  0.9925 -0.0709 -2.5852
 6369SOL     OW30568   2.225   1.772  16.903  0.1556  0.3346 -0.3822
 6369SOL    HW130569   2.132   1.784  16.882  0.3446  1.8555 -0.3325
 6369SOL    HW230570   2.237   1.849  16.958  1.7548  0.7294 -1.2756
 6370SOL     OW30571   3.227   0.106  16.611  0.4407  0.0139  0.0793
 6370SOL    HW130572   3.262   0.186  16.650  3.1916 -2.0016  1.7157
 6370SOL    HW230573   3.303   0.054  16.584  1.0330 -0.1749  2.1369
 6371SOL     OW30574   2.504   3.421  10.816 -0.2512 -0.1631  0.6468
 6371SOL    HW130575   2.513   3.432  10.721 -0.0770  2.6301  1.0123
 6371SOL    HW230576   2.426   3.365  10.818 -1.5882  1.7525  1.8729
 6372SOL     OW30577   0.786   4.129   4.536  0.2125 -0.1764 -0.3486
 6372SOL    HW130578   0.695   4.155   4.525  0.7388  2.4122  1.3075
 6372SOL    HW230579   0.804   4.194   4.603  0.7136 -2.2590  1.5279
 6373SOL     OW30580   2.731   4.380   8.956 -0.1844 -0.1469 -0.1668
 6373SOL    HW130581   2.806   4.409   8.904 -1.1189 -2.7329 -2.9717
 6373SOL    HW230582   2.662   4.377   8.889  2.0053  0.9266 -2.4866
 6374SOL     OW30583   1.371   2.908   6.978 -0.4526  0.1507 -0.4635
 6374SOL    HW130584   1.348   3.001   6.983 -1.0154 -0.0633  0.6996
 6374SOL    HW230585   1.418   2.907   6.894  2.2418  5.0152  0.9667
 6375SOL     OW30586   2.549   1.829   6.339 -0.3704 -0.0113 -0.2871
 6375SOL    HW130587   2.458   1.803   6.328  0.2997 -2.4611  0.0931
 6375SOL    HW230588   2.548   1.921   6.310  0.2880 -0.4681 -1.7611
 6376SOL     OW30589   0.033   4.236  15.895 -0.1718  0.5022 -0.2290
 6376SOL    HW130590   4.672   4.212  15.928 -0.1556 -1.4336 -1.6097
 6376SOL    HW230591   0.046   4.300  15.965  3.3630 -0.1054 -0.3411
 6377SOL     OW30592   1.495   3.321  15.275  0.0930 -0.2380 -0.1934
 6377SOL    HW130593   1.515   3.357  15.361 -1.1548  0.5180 -0.2235
 6377SOL    HW230594   1.404   3.290  15.284  0.0891  0.2653  1.5997
 6378SOL     OW30595   1.558   3.992   8.322  0.5780  0.1155 -0.1270
 6378SOL    HW130596   1.599   4.074   8.351  2.2990 -0.2787 -1.4502
 6378SOL    HW230597   1.524   3.945   8.398  2.9816 -2.5218 -0.7248
 6379SOL     OW30598   1.702   1.573   8.660 -0.0432  0.0346  0.1357
 6379SOL    HW130599   1.646   1.623   8.601 -1.9742 -0.3987  1.5947
 6379SOL    HW230600   1.646   1.557   8.736 -0.0922  0.3064  0.1571
 6380SOL     OW30601   0.320   1.072  12.472 -0.0317 -0.0611 -0.2266
 6380SOL    HW130602   0.243   1.092  12.418 -0.9401 -3.6235 -0.2940
 6380SOL    HW230603   0.307   1.124  12.551  0.1115 -0.7926  0.2782
 6381SOL     OW30604   0.818   4.476   5.227  0.1196  0.0549 -0.4782
 6381SOL    HW130605   0.729   4.508   5.243  0.5652 -0.0750  2.2122
 6381SOL    HW230606   0.836   4.450   5.317 -0.7041  1.2481  0.0262
 6382SOL     OW30607   2.322   0.461   8.965  0.2754 -0.0089 -0.0553
 6382SOL    HW130608   2.295   0.492   8.879  0.7940 -1.7337 -0.8180
 6382SOL    HW230609   2.349   0.547   9.000  1.7175  0.5819 -2.6709
 6383SOL     OW30610   0.182   3.239  13.335  0.0552  0.3812  0.0420
 6383SOL    HW130611   0.130   3.319  13.326  0.4754  0.5167 -1.2341
 6383SOL    HW230612   0.112   3.179  13.360 -1.1133  1.5555 -0.3961
 6384SOL     OW30613   2.343   0.148  12.516 -0.1185 -0.1124 -0.2091
 6384SOL    HW130614   2.262   0.198  12.504 -0.1759  0.2984  1.9408
 6384SOL    HW230615   2.374   0.204  12.587 -0.6189  2.0011 -1.6811
 6385SOL     OW30616   0.727   2.806   8.197 -0.7387 -0.3527 -0.2162
 6385SOL    HW130617   0.706   2.845   8.282 -0.8291  1.6334 -1.1599
 6385SOL    HW230618   0.683   2.721   8.207  3.3990 -2.2329  2.1598
 6386SOL     OW30619   1.128   4.153  13.163 -0.0642  0.0761  0.1364
 6386SOL    HW130620   1.148   4.108  13.081  1.5834  1.1722 -0.0552
 6386SOL    HW230621   1.043   4.194  13.150 -0.5986 -0.4673  1.7692
 6387SOL     OW30622   4.427   1.188   4.591  0.2686  0.1961 -0.8421
 6387SOL    HW130623   4.483   1.177   4.668 -1.3344 -0.4734  0.2083
 6387SOL    HW230624   4.457   1.114   4.539  0.5696 -0.9554  0.9579
 6388SOL     OW30625   3.755   0.318   7.743 -0.0621 -0.4081  0.5939
 6388SOL    HW130626   3.850   0.314   7.726 -0.0939 -0.4152  0.4250
 6388SOL    HW230627   3.739   0.225   7.759  0.9089 -0.4010  1.6364
 6389SOL     OW30628   3.618   3.470  10.368  0.5750 -0.1508 -0.6952
 6389SOL    HW130629   3.537   3.440  10.409 -0.6946  2.2062 -1.4582
 6389SOL    HW230630   3.658   3.384  10.377  0.2640 -0.2878 -0.6228
 6390SOL     OW30631   4.401   1.625   3.389  0.1683  0.2277  0.0355
 6390SOL    HW130632   4.426   1.678   3.313 -1.5203  0.8539 -0.0921
 6390SOL    HW230633   4.308   1.615   3.368 -0.6514  1.0738  3.3703
 6391SOL     OW30634   1.424   2.900   4.971  0.0462 -0.2720 -0.6710
 6391SOL    HW130635   1.422   2.943   4.885 -1.0548  0.7190 -0.1543
 6391SOL    HW230636   1.361   2.829   4.962  1.7345 -2.0197  1.3499
 6392SOL     OW30637   3.961   3.146   2.516  0.0407 -0.3696 -0.0154
 6392SOL    HW130638   3.905   3.069   2.516 -0.4808  0.0183  1.5205
 6392SOL    HW230639   3.892   3.208   2.540 -0.0582 -0.4972  0.0331
 6393SOL     OW30640   4.016   2.068   9.630  0.0149  0.0123  0.1629
 6393SOL    HW130641   4.075   2.025   9.567 -0.1267 -1.3710  0.9649
 6393SOL    HW230642   3.976   1.993   9.675  0.4535  0.2452  0.9351
 6394SOL     OW30643   0.748   1.160  13.031 -0.0814  0.1844  0.5074
 6394SOL    HW130644   0.796   1.084  13.065 -1.2396 -0.6446  0.3096
 6394SOL    HW230645   0.754   1.148  12.936  0.3884  1.0115  0.4389
 6395SOL     OW30646   1.951   0.499  12.508  0.5493 -0.5445 -0.5368
 6395SOL    HW130647   1.914   0.577  12.467  0.0390  0.3328  1.5896
 6395SOL    HW230648   2.002   0.535  12.581 -1.2226 -0.4132  0.6550
 6396SOL     OW30649   3.239   3.076   2.765  0.1789  0.3666 -0.1463
 6396SOL    HW130650   3.206   2.998   2.719  1.4853 -0.0572 -0.3528
 6396SOL    HW230651   3.208   3.153   2.717  1.1383  1.4345  0.9872
 6397SOL     OW30652   0.986   1.142   4.129 -0.3387  0.2333 -0.5123
 6397SOL    HW130653   0.980   1.068   4.068 -2.4100  2.8432 -3.4515
 6397SOL    HW230654   1.078   1.164   4.115  0.3809 -2.3943  0.0837
 6398SOL     OW30655   3.932   2.445  17.191 -0.3992  0.1682 -0.8737
 6398SOL    HW130656   3.958   2.518  17.136 -2.1181  2.0136  0.7824
 6398SOL    HW230657   3.837   2.444  17.182 -0.7512 -0.0539  2.7112
 6399SOL     OW30658   3.160   0.524  12.277 -0.1955 -0.8151  0.8728
 6399SOL    HW130659   3.120   0.593  12.330 -0.0343 -0.1476  0.1344
 6399SOL    HW230660   3.139   0.562  12.192  0.6660 -1.2982  0.4412
 6400SOL     OW30661   1.167   3.969  10.182  0.3754 -0.3420 -0.2455
 6400SOL    HW130662   1.099   4.036  10.184 -0.0307 -0.7093 -2.0542
 6400SOL    HW230663   1.114   3.893  10.161  0.6700 -0.4207 -0.7013
 6401SOL     OW30664   4.015   2.876   5.967 -0.7987  0.4232 -0.2071
 6401SOL    HW130665   4.045   2.947   6.024  0.9353  0.8262 -1.6260
 6401SOL    HW230666   3.962   2.818   6.021 -0.4529 -0.8859 -1.2756
 6402SOL     OW30667   0.061   4.349   4.042  0.4327 -0.4965 -0.2039
 6402SOL    HW130668   0.049   4.344   3.948 -0.4674  2.4665 -0.2440
 6402SOL    HW230669   4.702   4.387   4.066  1.2505  2.7868 -2.5317
 6403SOL     OW30670   1.597   3.753   8.165 -0.1913  0.0961 -0.4561
 6403SOL    HW130671   1.690   3.757   8.142  0.7380 -2.6935  2.8081
 6403SOL    HW230672   1.598   3.831   8.222  1.4631  1.1717 -1.9553
 6404SOL     OW30673   1.106   1.406   2.919  0.1850  0.8101  0.4892
 6404SOL    HW130674   1.091   1.493   2.881  2.5000  0.2318 -1.7528
 6404SOL    HW230675   1.172   1.421   2.986 -0.3426 -0.3382  1.2549
 6405SOL     OW30676   4.589   3.549   9.053 -0.1581  0.2597 -0.0668
 6405SOL    HW130677   4.496   3.555   9.031  0.4822 -1.8910 -3.3987
 6405SOL    HW230678   4.592   3.460   9.088  1.9862 -0.3706 -1.8088
 6406SOL     OW30679   3.655   1.191   2.554 -0.1228 -0.2796  0.1787
 6406SOL    HW130680   3.633   1.283   2.540  1.4534  0.1326  0.3964
 6406SOL    HW230681   3.707   1.169   2.477  0.5670 -1.4403  0.9680
 6407SOL     OW30682   2.429   0.248   8.310 -0.1125  0.5913 -0.0078
 6407SOL    HW130683   2.509   0.243   8.362  0.3904  2.8783 -0.5422
 6407SOL    HW230684   2.465   0.252   8.221 -1.5381 -0.9270 -0.6569
 6408SOL     OW30685   1.284   3.042   7.709 -0.1242  0.5627  0.8643
 6408SOL    HW130686   1.343   3.058   7.783 -1.1692 -0.3411  1.9010
 6408SOL    HW230687   1.212   3.002   7.759  2.4867 -2.2476  2.3826
 6409SOL     OW30688   4.647   2.546   0.983  0.3674 -0.4794  0.0427
 6409SOL    HW130689   4.599   2.625   1.007  0.5384  0.2258 -1.9741
 6409SOL    HW230690   4.624   2.553   0.891 -0.0346 -0.2597  0.1548
 6410SOL     OW30691   3.527   3.217  14.971  0.5719  0.5191 -0.7401
 6410SOL    HW130692   3.597   3.153  14.981  0.4180  0.2993 -1.0612
 6410SOL    HW230693   3.515   3.222  14.876  0.1970 -2.2852 -0.8628
 6411SOL     OW30694   3.036   2.800   4.406 -0.5433 -0.0379  0.3945
 6411SOL    HW130695   3.058   2.755   4.324 -0.0009  0.3846  0.3074
 6411SOL    HW230696   2.958   2.755   4.440  0.9878 -2.5091  0.7187
 6412SOL     OW30697   1.383   1.656  12.382  0.4806  0.2289  0.0986
 6412SOL    HW130698   1.384   1.564  12.408  0.9181 -0.3541 -1.9148
 6412SOL    HW230699   1.467   1.689  12.415 -0.9040  3.2911  0.5346
 6413SOL     OW30700   3.758   4.293  11.196  0.3560  0.0003  0.2787
 6413SOL    HW130701   3.831   4.240  11.163  2.4919  2.6495  0.8148
 6413SOL    HW230702   3.764   4.291  11.291 -1.0956 -0.5324  0.3637
 6414SOL     OW30703   0.488   0.951  17.587  0.4605 -0.4184  0.1806
 6414SOL    HW130704   0.398   0.920  17.593  0.9221 -1.7287  0.2057
 6414SOL    HW230705   0.519   0.935  17.676 -2.5841 -1.4260  1.0816
 6415SOL     OW30706   2.515   0.167   2.296  0.5073  0.2056 -0.4884
 6415SOL    HW130707   2.451   0.117   2.347  0.2606 -0.7344 -1.7048
 6415SOL    HW230708   2.463   0.241   2.263 -0.7204 -1.0130 -1.2992
 6416SOL     OW30709   4.433   2.991   5.757  0.2157 -0.0856 -0.8183
 6416SOL    HW130710   4.499   2.942   5.806  0.2742 -0.3431 -1.1564
 6416SOL    HW230711   4.421   3.074   5.803 -0.7074 -1.3780  1.2677
 6417SOL     OW30712   3.665   2.873   9.757 -0.0503 -0.3414 -0.1086
 6417SOL    HW130713   3.721   2.835   9.825 -0.0555 -0.1754 -0.0118
 6417SOL    HW230714   3.635   2.948   9.807 -3.4531 -2.4096  0.9770
 6418SOL     OW30715   0.711   1.367   1.776 -0.8014  0.6952 -0.5651
 6418SOL    HW130716   0.761   1.292   1.808 -0.4002  0.2592 -2.2046
 6418SOL    HW230717   0.640   1.323   1.728 -0.2142 -1.5241  0.5901
 6419SOL     OW30718   4.050   4.420   8.624 -0.1766 -0.3640  0.6867
 6419SOL    HW130719   3.988   4.437   8.553  0.7983  1.1441  0.2005
 6419SOL    HW230720   4.107   4.494   8.606  0.0306 -0.7628 -0.2993
 6420SOL     OW30721   3.377   4.266  13.116  0.1065  0.1831 -0.2179
 6420SOL    HW130722   3.461   4.308  13.099  0.5718 -0.2597  0.9573
 6420SOL    HW230723   3.410   4.201  13.178  2.3225  3.0477  1.5886
 6421SOL     OW30724   2.067   3.068   7.751  0.0224  0.0208  0.2192
 6421SOL    HW130725   2.065   2.973   7.758  0.1843 -0.1128 -1.5304
 6421SOL    HW230726   2.032   3.097   7.836 -1.1122 -2.1371  0.4738
 6422SOL     OW30727   2.713   4.677   2.244  0.3283 -0.0179 -0.2324
 6422SOL    HW130728   2.800   4.693   2.208  0.0874  0.2148 -0.7194
 6422SOL    HW230729   2.691   0.043   2.261 -0.9527  0.0395 -2.1076
 6423SOL     OW30730   4.157   2.409  17.413 -0.1062 -0.1727  0.2836
 6423SOL    HW130731   4.106   2.490  17.423  1.0187  0.6431 -0.6025
 6423SOL    HW230732   4.248   2.439  17.409 -0.6965  1.5246 -0.5754
 6424SOL     OW30733   2.614   3.855  11.174  0.0769  0.3347  0.4008
 6424SOL    HW130734   2.698   3.811  11.189 -0.8529 -1.3628  0.6725
 6424SOL    HW230735   2.620   3.867  11.079  2.2849  0.9039  0.6152
 6425SOL     OW30736   1.115   3.977   4.308  0.5227 -0.3239 -0.0152
 6425SOL    HW130737   1.095   3.885   4.324  1.8649 -0.9621 -1.9865
 6425SOL    HW230738   1.181   3.996   4.375 -2.5426  2.3354  2.2638
 6426SOL     OW30739   0.789   2.897  11.219  0.0022  0.1670 -0.5048
 6426SOL    HW130740   0.766   2.813  11.180  2.2650 -2.1069  3.0253
 6426SOL    HW230741   0.704   2.937  11.241 -0.6557 -2.3945  1.5725
 6427SOL     OW30742   0.891   0.856   1.468 -0.1917 -0.7976 -0.2574
 6427SOL    HW130743   0.973   0.810   1.485  0.0193  0.1982  1.4115
 6427SOL    HW230744   0.893   0.847   1.373  0.7881 -2.0144 -0.1094
 6428SOL     OW30745   0.137   1.979   8.730  0.8974  0.0183  0.0895
 6428SOL    HW130746   0.208   2.025   8.774  1.2323  1.2827 -1.7549
 6428SOL    HW230747   0.184   1.909   8.685 -1.2096 -0.3907 -1.4527
 6429SOL     OW30748   3.643   3.889   4.778  0.3399  0.0817 -0.0117
 6429SOL    HW130749   3.702   3.963   4.790  0.9344 -0.3576 -0.2107
 6429SOL    HW230750   3.588   3.904   4.855  0.7725 -2.0087  0.7018
 6430SOL     OW30751   0.215   4.619   7.881  0.2736  0.0051 -0.3884
 6430SOL    HW130752   0.182   4.555   7.943  3.3327 -0.2915  0.9551
 6430SOL    HW230753   0.308   4.595   7.878  1.0501  2.8225  1.6126
 6431SOL     OW30754   1.734   1.231   4.984  0.3693  0.5048 -0.4192
 6431SOL    HW130755   1.671   1.201   5.050 -2.2186 -0.6079 -3.4392
 6431SOL    HW230756   1.752   1.321   5.012 -1.0769  0.0865  1.8758
 6432SOL     OW30757   0.191   2.792   9.921 -0.9197  0.0879 -0.0001
 6432SOL    HW130758   0.269   2.821   9.874 -0.4558  0.6497  1.1122
 6432SOL    HW230759   0.130   2.810   9.850 -0.7672  0.9037  0.0712
 6433SOL     OW30760   3.683   3.031   4.489  0.2946  0.7528  0.2067
 6433SOL    HW130761   3.631   3.111   4.496 -1.1117  0.0449 -1.9764
 6433SOL    HW230762   3.670   2.999   4.578 -2.0188 -0.7991 -0.6819
 6434SOL     OW30763   2.464   0.801   2.273  0.4210  0.5753  0.5049
 6434SOL    HW130764   2.437   0.893   2.272  0.4748  0.5668 -2.6365
 6434SOL    HW230765   2.394   0.762   2.220  0.4961  1.7558 -0.4568
 6435SOL     OW30766   0.879   0.483   6.901 -0.2328  0.1666  0.7194
 6435SOL    HW130767   0.842   0.503   6.987  0.3302  0.0639  0.9830
 6435SOL    HW230768   0.903   0.392   6.917 -2.9493  0.2472  5.2388
 6436SOL     OW30769   3.732   2.009   0.571  0.1153  0.0733  0.6692
 6436SOL    HW130770   3.704   1.935   0.625 -2.8157  1.4281  1.0471
 6436SOL    HW230771   3.803   2.044   0.624 -1.4579 -1.7885  4.0527
 6437SOL     OW30772   3.283   0.356   5.463 -0.4072 -0.4071 -0.7512
 6437SOL    HW130773   3.339   0.280   5.478  0.1885  0.1738 -0.0048
 6437SOL    HW230774   3.347   0.428   5.458 -1.4332  0.4561 -1.6598
 6438SOL     OW30775   1.727   0.139  17.474  0.7241 -0.1356 -0.0554
 6438SOL    HW130776   1.761   0.218  17.432  1.0738  0.2936  1.0451
 6438SOL    HW230777   1.646   0.118  17.428 -0.0128  0.6396  0.8942
 6439SOL     OW30778   3.095   4.183   4.039 -0.0859  0.5215 -0.1388
 6439SOL    HW130779   3.020   4.148   4.087 -1.4007  2.1218 -1.0539
 6439SOL    HW230780   3.064   4.152   3.954  0.3159  0.8054 -0.3904
 6440SOL     OW30781   3.844   1.312   6.506  0.2322 -0.2359 -1.1807
 6440SOL    HW130782   3.780   1.340   6.440 -1.0202 -1.1768 -0.3684
 6440SOL    HW230783   3.815   1.221   6.515 -0.6293 -0.0015 -1.6161
 6441SOL     OW30784   4.118   1.080  16.816  0.5350 -0.2076 -0.5882
 6441SOL    HW130785   4.138   1.154  16.874 -0.3203 -1.7986  1.7704
 6441SOL    HW230786   4.028   1.101  16.793  1.1385  3.4337  0.3204
 6442SOL     OW30787   2.020   1.628   5.903  0.3035  0.0242 -0.1171
 6442SOL    HW130788   2.025   1.549   5.848 -1.3025 -0.5078  0.5183
 6442SOL    HW230789   1.935   1.662   5.877  0.6218  0.6192 -0.3828
 6443SOL     OW30790   0.473   4.350   4.329  0.3326  0.3544 -0.4259
 6443SOL    HW130791   0.386   4.388   4.320  2.3833  5.0829 -0.5195
 6443SOL    HW230792   0.534   4.409   4.373  2.1274 -0.7344 -1.4418
 6444SOL     OW30793   4.352   1.933   2.918  0.3092 -0.4703  0.7792
 6444SOL    HW130794   4.260   1.951   2.935  0.0873  0.2309 -1.0930
 6444SOL    HW230795   4.392   2.005   2.966  1.9968 -0.6684 -0.2926
 6445SOL     OW30796   1.644   3.034   9.263  0.4075 -0.3203 -0.5444
 6445SOL    HW130797   1.601   3.073   9.339  1.1109 -1.3012  0.3585
 6445SOL    HW230798   1.720   3.091   9.250  1.4712 -1.4914  0.5197
 6446SOL     OW30799   1.020   0.140  15.324 -0.0830  0.1761 -0.1213
 6446SOL    HW130800   0.947   0.081  15.345  0.0910  0.5242  1.4428
 6446SOL    HW230801   1.058   0.105  15.243 -2.0973 -0.7264 -0.6912
 6447SOL     OW30802   1.614   0.621  17.220  0.6872  0.1435 -0.1619
 6447SOL    HW130803   1.708   0.606  17.227  0.6281  1.0724  2.7857
 6447SOL    HW230804   1.572   0.540  17.250  1.1823  0.9109  2.6136
 6448SOL     OW30805   0.636   2.069  14.050 -0.0765 -0.5157 -0.2406
 6448SOL    HW130806   0.599   1.983  14.028 -0.4841 -0.4510  0.1972
 6448SOL    HW230807   0.679   2.048  14.132  0.9189  0.5294 -0.4979
 6449SOL     OW30808   1.550   2.493   6.410 -0.0104  0.3895  0.3235
 6449SOL    HW130809   1.614   2.425   6.431  0.4891  0.5937 -0.5342
 6449SOL    HW230810   1.479   2.461   6.465 -0.1171  1.4741  0.8224
 6450SOL     OW30811   3.401   0.952  14.403 -0.4555  0.5211 -0.6613
 6450SOL    HW130812   3.366   0.871  14.439 -1.1476  1.4065  0.6328
 6450SOL    HW230813   3.340   1.017  14.437 -1.1224  0.2839 -1.4171
 6451SOL     OW30814   0.111   0.285   7.674  0.2416 -0.1780 -0.1229
 6451SOL    HW130815   0.082   0.305   7.763  0.9630  0.6972 -0.0803
 6451SOL    HW230816   0.153   0.369   7.655 -0.9406 -0.0364 -2.1301
 6452SOL     OW30817   1.192   4.457  15.564  0.0583 -0.3874 -0.5747
 6452SOL    HW130818   1.211   4.388  15.628  0.9405  0.8407  0.4836
 6452SOL    HW230819   1.220   4.529  15.620 -0.8596 -0.3297 -0.1928
 6453SOL     OW30820   0.453   3.183   7.126 -0.0994 -0.0746 -0.0176
 6453SOL    HW130821   0.429   3.272   7.098 -1.8802 -0.0644  1.5152
 6453SOL    HW230822   0.489   3.152   7.043  1.6297  0.7656  0.4115
 6454SOL     OW30823   3.243   0.748   2.845  0.3673  0.4012 -0.2084
 6454SOL    HW130824   3.265   0.661   2.878  0.1468  0.6395  0.5669
 6454SOL    HW230825   3.148   0.752   2.850  0.3164 -1.1063  0.0443
 6455SOL     OW30826   1.275   2.257   3.010  0.2999 -0.2849 -0.5569
 6455SOL    HW130827   1.267   2.352   3.022  2.7671  0.1112 -2.1731
 6455SOL    HW230828   1.295   2.247   2.917 -1.9082 -2.0521 -0.8487
 6456SOL     OW30829   1.874   3.370   9.450  0.7061  0.1678 -0.0246
 6456SOL    HW130830   1.965   3.391   9.468  0.0609  1.5790  1.5902
 6456SOL    HW230831   1.860   3.309   9.522 -2.1791  1.5471  0.5807
 6457SOL     OW30832   3.721   1.749   0.386  0.5666 -0.2747 -0.4546
 6457SOL    HW130833   3.759   1.795   0.461  1.5822 -1.9239  0.0486
 6457SOL    HW230834   3.650   1.698   0.422 -0.7255  0.7664 -1.5256
 6458SOL     OW30835   1.727   1.136   2.514  0.9014 -0.0470  0.0751
 6458SOL    HW130836   1.681   1.058   2.545  2.2961 -0.4823  1.0544
 6458SOL    HW230837   1.811   1.120   2.557  1.2652 -1.4677 -1.1695
 6459SOL     OW30838   1.712   4.135   6.078  0.4093  0.4843 -0.2606
 6459SOL    HW130839   1.728   4.220   6.119  1.2709  0.4028 -0.4315
 6459SOL    HW230840   1.728   4.159   5.987 -1.7479 -0.3214 -0.8575
 6460SOL     OW30841   1.955   0.003   9.137 -0.0574 -0.0731 -0.2282
 6460SOL    HW130842   1.970   0.030   9.227 -1.3676  0.6671 -0.2461
 6460SOL    HW230843   1.986   4.638   9.147 -1.7715 -0.7583 -1.2379
 6461SOL     OW30844   4.285   4.463   8.025 -0.2464 -0.0071 -0.7817
 6461SOL    HW130845   4.369   4.436   7.987 -0.3534 -0.3720 -0.7616
 6461SOL    HW230846   4.306   4.554   8.048 -1.5336  0.2698 -0.7143
 6462SOL     OW30847   3.874   3.851   6.444  0.1413 -0.0057 -0.5631
 6462SOL    HW130848   3.825   3.910   6.502  0.5111  1.7003 -2.0068
 6462SOL    HW230849   3.954   3.834   6.494  0.0666 -3.7445 -1.7276
 6463SOL     OW30850   4.176   1.656   4.777  0.2169  0.1491  0.0035
 6463SOL    HW130851   4.132   1.583   4.820  0.9400 -0.0758  0.3605
 6463SOL    HW230852   4.178   1.716   4.852 -1.7808 -1.2093  1.1487
 6464SOL     OW30853   0.566   4.656  14.878  0.1320  0.5221 -0.1413
 6464SOL    HW130854   0.543   4.648  14.970  1.6583 -1.2135  0.0772
 6464SOL    HW230855   0.656   4.687  14.888  0.3095 -0.4595  1.1545
 6465SOL     OW30856   4.391   1.738   4.623  0.1528 -0.2721  0.5979
 6465SOL    HW130857   4.357   1.826   4.608  0.4056 -0.5073 -1.3388
 6465SOL    HW230858   4.350   1.709   4.705 -0.9367 -1.3045 -0.3286
 6466SOL     OW30859   3.390   2.079   8.644 -0.0082  0.2108  0.1162
 6466SOL    HW130860   3.369   1.987   8.657 -0.1034  0.7141  3.5320
 6466SOL    HW230861   3.370   2.091   8.551 -0.3177 -1.5148 -0.0417
 6467SOL     OW30862   3.310   0.603   8.193  0.3771  0.2261 -1.0430
 6467SOL    HW130863   3.231   0.618   8.142 -0.3078 -1.3983 -0.4730
 6467SOL    HW230864   3.344   0.528   8.144  1.6719  1.1538 -1.5683
 6468SOL     OW30865   4.062   2.566   3.403 -0.9114  0.2406  0.3740
 6468SOL    HW130866   4.140   2.609   3.370 -0.7642 -1.7091 -1.8549
 6468SOL    HW230867   4.086   2.544   3.493 -2.9044 -0.3024  0.7865
 6469SOL     OW30868   0.177   1.266   3.354 -0.0796  0.2182 -0.3757
 6469SOL    HW130869   0.253   1.304   3.397 -0.4461 -1.0050  1.3496
 6469SOL    HW230870   0.105   1.290   3.413  0.4774 -2.8325  1.5517
 6470SOL     OW30871   2.391   2.308   6.755 -0.3612 -0.3098  0.6702
 6470SOL    HW130872   2.481   2.301   6.785  0.1373  2.1923 -0.2021
 6470SOL    HW230873   2.393   2.247   6.681 -1.0829 -1.1721  1.3568
 6471SOL     OW30874   0.382   3.804   7.872 -0.4409 -0.3528 -0.3176
 6471SOL    HW130875   0.399   3.895   7.849 -1.5674  0.1643  0.8982
 6471SOL    HW230876   0.440   3.761   7.809  0.6198 -0.4188  0.7084
 6472SOL     OW30877   4.472   2.664   7.074 -0.1310  0.2614  0.0160
 6472SOL    HW130878   4.546   2.610   7.044 -0.7171  1.0300 -2.8721
 6472SOL    HW230879   4.395   2.607   7.071 -0.2368  0.3604  1.0051
 6473SOL     OW30880   3.395   1.091  13.532  0.5205 -0.6757 -0.1228
 6473SOL    HW130881   3.451   1.015  13.519 -0.9205 -1.4456 -1.7561
 6473SOL    HW230882   3.446   1.140  13.597 -1.1686  0.1176  0.5998
 6474SOL     OW30883   4.653   2.142   1.625  0.1748  0.0107  0.0605
 6474SOL    HW130884   4.602   2.182   1.555  0.5238  0.2221 -0.0721
 6474SOL    HW230885   0.012   2.163   1.586  0.2404 -1.0070 -0.3490
 6475SOL     OW30886   0.971   3.021   7.185  0.1010 -0.6315 -0.1311
 6475SOL    HW130887   1.061   3.043   7.161  0.2972 -0.7390  0.5053
 6475SOL    HW230888   0.935   3.098   7.141 -0.4502 -1.1260 -0.5509
 6476SOL     OW30889   4.063   2.073  12.049  0.1967  0.3463 -0.0143
 6476SOL    HW130890   4.119   2.120  12.111 -1.6306  1.0985  1.0675
 6476SOL    HW230891   3.981   2.064  12.098  0.6195 -1.0542  0.4321
 6477SOL     OW30892   3.175   4.051   4.876 -0.3502  0.7685  0.2721
 6477SOL    HW130893   3.111   4.079   4.941  0.0345  2.6759 -0.1663
 6477SOL    HW230894   3.142   3.962   4.862  0.5155  0.7257 -1.4966
 6478SOL     OW30895   4.013   3.489   3.326 -0.1608  0.3556 -0.2890
 6478SOL    HW130896   3.954   3.558   3.357 -0.3930  0.7658 -1.6200
 6478SOL    HW230897   4.071   3.496   3.401 -0.8886 -0.3551  0.3356
 6479SOL     OW30898   2.000   1.798   5.392 -0.6631  0.0976 -0.5617
 6479SOL    HW130899   2.095   1.794   5.391 -0.6565 -0.1779  2.6757
 6479SOL    HW230900   1.986   1.798   5.487  0.0365 -1.3719 -0.4662
 6480SOL     OW30901   1.764   4.549   2.715  0.0522  0.0446  0.1696
 6480SOL    HW130902   1.819   4.488   2.765 -0.1783  1.5162  2.2444
 6480SOL    HW230903   1.678   4.508   2.728 -0.4221  1.4170  1.4394
 6481SOL     OW30904   3.299   0.345   7.802 -0.0630  0.4052  0.3874
 6481SOL    HW130905   3.251   0.315   7.879 -2.1120  3.5119  0.3091
 6481SOL    HW230906   3.388   0.345   7.837 -0.5583  1.1201  1.6626
 6482SOL     OW30907   1.108   0.992   6.252  0.1764 -0.5250  0.6278
 6482SOL    HW130908   1.055   0.916   6.274 -0.4475 -0.1582  0.3839
 6482SOL    HW230909   1.180   0.992   6.315  0.3531 -1.8062  0.4456
 6483SOL     OW30910   2.630   0.616   4.374  0.0191  0.1184  0.1988
 6483SOL    HW130911   2.713   0.592   4.416 -0.0192  0.0116  0.2128
 6483SOL    HW230912   2.566   0.609   4.445 -2.2591 -4.1115 -2.2811
 6484SOL     OW30913   1.676   0.258   5.825 -0.3427  0.0772  0.6727
 6484SOL    HW130914   1.670   0.163   5.830 -2.8281  0.2835  1.5805
 6484SOL    HW230915   1.648   0.278   5.736  0.1228  1.5137  0.8550
 6485SOL     OW30916   2.545   2.325   2.106 -0.2495 -1.0584 -0.3487
 6485SOL    HW130917   2.462   2.293   2.070 -0.3357 -0.7115 -0.4560
 6485SOL    HW230918   2.607   2.272   2.055 -1.6647 -0.2564 -2.9314
 6486SOL     OW30919   3.804   1.829   2.574 -0.5025  0.3915 -0.1952
 6486SOL    HW130920   3.900   1.822   2.576 -0.7239 -2.2056  0.8956
 6486SOL    HW230921   3.770   1.752   2.528  1.4132 -0.1947 -0.6353
 6487SOL     OW30922   2.598   3.920  13.837  0.2005  0.8002  0.1448
 6487SOL    HW130923   2.570   3.850  13.778 -2.3135  1.9553 -0.0282
 6487SOL    HW230924   2.635   3.976  13.769 -0.2602  1.1595  0.1884
 6488SOL     OW30925   2.212   1.183   9.660  0.2486 -0.3064  0.2188
 6488SOL    HW130926   2.173   1.154   9.742  1.3146  0.8532  1.1281
 6488SOL    HW230927   2.135   1.202   9.606 -1.5279 -0.1564  2.8217
 6489SOL     OW30928   0.853   0.294   5.504 -0.3622 -0.3500 -0.6038
 6489SOL    HW130929   0.825   0.223   5.446 -2.2373 -0.8595  0.9328
 6489SOL    HW230930   0.807   0.277   5.586  1.1744  0.6667  0.4540
 6490SOL     OW30931   3.974   0.494   7.577 -0.4667  0.4236  0.0181
 6490SOL    HW130932   4.042   0.511   7.643 -0.4719  0.3255  0.0478
 6490SOL    HW230933   4.021   0.425   7.530  0.5585  1.5587 -0.6397
 6491SOL     OW30934   1.250   0.622   7.106  0.1831  0.8443 -0.0401
 6491SOL    HW130935   1.162   0.616   7.069  0.7322 -0.2107 -1.1728
 6491SOL    HW230936   1.232   0.592   7.195  2.0160 -0.0450  0.0545
 6492SOL     OW30937   3.058   2.296   7.363  0.7690  0.0986  0.1956
 6492SOL    HW130938   3.126   2.259   7.308  0.0600  1.5976 -1.7205
 6492SOL    HW230939   3.112   2.331   7.433  0.1625 -0.1923  0.8125
 6493SOL     OW30940   3.748   0.426  11.634 -0.5075 -0.0216 -0.7914
 6493SOL    HW130941   3.726   0.415  11.541  1.1212 -1.1737 -1.0570
 6493SOL    HW230942   3.670   0.396  11.679 -0.1631  0.9839  0.4681
 6494SOL     OW30943   0.716   4.226   8.723  0.6838  0.3069 -0.0394
 6494SOL    HW130944   0.765   4.240   8.804  0.4491 -0.6703  0.2669
 6494SOL    HW230945   0.771   4.261   8.653  0.7370 -0.4068 -0.3496
 6495SOL     OW30946   1.961   3.200  11.387  0.5696 -0.5216 -0.1103
 6495SOL    HW130947   1.877   3.237  11.414 -0.4521 -3.0865  0.2812
 6495SOL    HW230948   2.016   3.239  11.454 -0.2761  0.0324  0.2589
 6496SOL     OW30949   0.731   4.692   8.382 -0.4743  0.0678  0.2084
 6496SOL    HW130950   0.686   4.648   8.455 -1.8268 -1.9453 -1.8182
 6496SOL    HW230951   0.750   4.609   8.337  1.7463  0.3537  0.6269
 6497SOL     OW30952   4.388   1.417  13.367 -0.2759  0.2843  0.3188
 6497SOL    HW130953   4.359   1.507  13.348  0.5438  1.0233  2.6192
 6497SOL    HW230954   4.481   1.436  13.360 -0.1657 -0.9044 -1.5228
 6498SOL     OW30955   0.108   3.022   4.179 -0.6568  0.0337 -0.4975
 6498SOL    HW130956   0.134   3.013   4.088  0.0939  2.5639 -0.5343
 6498SOL    HW230957   0.112   3.117   4.186 -0.2335 -0.0080 -0.1466
 6499SOL     OW30958   3.138   4.540  13.785 -0.4036 -0.2765 -0.0465
 6499SOL    HW130959   3.227   4.523  13.816  0.2501  1.6199 -0.8576
 6499SOL    HW230960   3.148   4.625  13.741 -1.2355 -1.0880 -1.8274
 6500SOL     OW30961   0.735   1.021  10.210  0.8941 -0.2482  0.2890
 6500SOL    HW130962   0.813   1.040  10.159  0.6732 -0.3601 -0.0917
 6500SOL    HW230963   0.687   0.972  10.143  1.4185 -0.4482  0.0645
 6501SOL     OW30964   3.109   1.936   4.829  0.0550  0.3759  0.1085
 6501SOL    HW130965   3.163   1.955   4.905 -0.7099  0.6200  0.5959
 6501SOL    HW230966   3.155   1.859   4.798  0.7553 -0.3718  2.9820
 6502SOL     OW30967   2.977   4.299   3.418  0.4169 -0.1044  0.1797
 6502SOL    HW130968   3.045   4.269   3.479  1.6398  1.7038 -0.2693
 6502SOL    HW230969   3.015   4.265   3.337 -1.9891  0.4429 -1.1623
 6503SOL     OW30970   3.921   0.997   2.006 -0.7962 -0.1956  0.3002
 6503SOL    HW130971   3.834   1.030   1.987 -0.3536 -0.7629 -2.6573
 6503SOL    HW230972   3.918   0.906   1.975 -1.1746 -0.4701  1.1555
 6504SOL     OW30973   1.868   4.661   8.153 -0.1087 -0.5443 -0.5966
 6504SOL    HW130974   1.910   4.714   8.085 -1.8504  2.0230  0.3179
 6504SOL    HW230975   1.914   4.695   8.230 -0.8730  0.1969 -0.4680
 6505SOL     OW30976   4.666   2.283   3.503  0.3799  0.0051  0.5136
 6505SOL    HW130977   4.613   2.213   3.541 -0.9256  0.1262 -1.0267
 6505SOL    HW230978   4.651   2.260   3.411 -0.1015 -1.3862  0.9381
 6506SOL     OW30979   1.586   0.749   4.507  0.3691 -0.5218  0.0824
 6506SOL    HW130980   1.611   0.658   4.497 -0.4303 -0.8563  1.2609
 6506SOL    HW230981   1.671   0.793   4.516  0.1477 -0.0244 -0.2252
 6507SOL     OW30982   1.093   3.045   9.161  0.2371 -0.3397  0.7107
 6507SOL    HW130983   1.172   3.092   9.187  0.2460  1.0977 -1.8654
 6507SOL    HW230984   1.052   3.032   9.247 -0.3293 -1.1566  0.3222
 6508SOL     OW30985   1.948   2.398  14.863 -0.4634 -0.0278  0.3403
 6508SOL    HW130986   2.033   2.439  14.848 -1.3900  1.7257 -0.0494
 6508SOL    HW230987   1.896   2.428  14.789  0.9305 -2.6235 -1.7021
 6509SOL     OW30988   4.197   0.486   0.013  0.5382 -0.6757  0.2859
 6509SOL    HW130989   4.179   0.560   0.070  2.2253 -2.2985  2.9487
 6509SOL    HW230990   4.169   0.414   0.070 -3.1848  0.3251 -0.3089
 6510SOL     OW30991   2.820   1.419   7.050  0.2795  0.6306 -0.4650
 6510SOL    HW130992   2.752   1.482   7.075  0.3466  0.2879  0.5979
 6510SOL    HW230993   2.889   1.476   7.016 -0.6667  2.9839  1.5072
 6511SOL     OW30994   1.533   1.040   7.782  0.1536  0.3474  0.0064
 6511SOL    HW130995   1.591   1.039   7.707 -0.1759  0.0180 -0.2452
 6511SOL    HW230996   1.561   1.123   7.821  0.2513 -0.5647  1.9072
 6512SOL     OW30997   3.434   3.641   4.477  0.8602 -0.0108  0.1399
 6512SOL    HW130998   3.442   3.590   4.396 -0.6420  2.3946 -1.5063
 6512SOL    HW230999   3.338   3.646   4.480  0.9882  0.3489  4.1977
 6513SOL     OW31000   0.991   2.834  14.991  0.0285 -0.4427 -0.6908
 6513SOL    HW131001   0.906   2.876  14.981 -0.1596 -0.3807  1.1878
 6513SOL    HW231002   0.965   2.751  15.030  0.5097 -0.6565 -0.8196
 6514SOL     OW31003   2.905   0.082   3.884 -0.0630 -0.1000  0.3679
 6514SOL    HW131004   2.864   4.724   3.860  0.4867 -0.8630  2.0733
 6514SOL    HW231005   2.897   0.132   3.803 -2.5871  1.3929  1.5402
 6515SOL     OW31006   2.140   2.064   8.480  0.1384 -0.3717  0.2023
 6515SOL    HW131007   2.095   1.999   8.534 -1.0433 -1.1704 -1.7432
 6515SOL    HW231008   2.124   2.148   8.524  1.6039 -0.0917  0.1901
 6516SOL     OW31009   1.833   3.619   3.827  0.1969 -0.2978 -0.2636
 6516SOL    HW131010   1.824   3.617   3.732 -0.6078  0.6953 -0.2113
 6516SOL    HW231011   1.909   3.677   3.836 -1.1703  1.6305 -1.0096
 6517SOL     OW31012   4.165   1.181  10.932  0.0792  1.1546 -0.0808
 6517SOL    HW131013   4.081   1.184  10.886 -1.6019 -1.2183  2.8056
 6517SOL    HW231014   4.127   1.138  11.009 -1.1548  2.4438  0.0303
 6518SOL     OW31015   2.321   0.146   4.099  0.9516 -0.3811  0.0070
 6518SOL    HW131016   2.335   0.166   4.006  1.2735 -0.3527  0.0611
 6518SOL    HW231017   2.258   0.074   4.098  1.4858 -0.8590  0.4956
 6519SOL     OW31018   1.554   2.158   5.852  0.3567  0.7021  0.0026
 6519SOL    HW131019   1.512   2.082   5.893 -0.0493  2.2511  2.4622
 6519SOL    HW231020   1.633   2.119   5.816  0.7793 -0.0967  1.7851
 6520SOL     OW31021   0.113   1.607   3.821 -0.4951 -0.2485  0.5404
 6520SOL    HW131022   0.071   1.561   3.748  0.5469  0.1813 -0.3157
 6520SOL    HW231023   0.192   1.641   3.781 -1.1600  1.4256  0.6562
 6521SOL     OW31024   4.007   3.078   2.173  0.3179  0.3877  0.0134
 6521SOL    HW131025   4.067   3.052   2.243 -1.0983 -1.0979  0.6706
 6521SOL    HW231026   4.023   3.004   2.114 -0.3475 -1.4201  2.0937
 6522SOL     OW31027   4.061   1.331  12.042 -0.3453  0.0444 -0.4954
 6522SOL    HW131028   4.044   1.425  12.032  2.7943  0.4971 -1.8584
 6522SOL    HW231029   4.137   1.328  12.100 -1.6780 -0.7910  1.2077
 6523SOL     OW31030   1.608   0.879   6.146  0.2810 -0.2234 -0.2183
 6523SOL    HW131031   1.562   0.851   6.067 -0.4022 -1.7531  0.7442
 6523SOL    HW231032   1.680   0.925   6.102 -0.7372  0.7344 -0.8752
 6524SOL     OW31033   4.465   1.204  11.296  0.1585  0.1934  0.1516
 6524SOL    HW131034   4.373   1.204  11.321  0.1586 -2.3589  0.1792
 6524SOL    HW231035   4.495   1.291  11.322 -1.6922  0.2830  1.9796
 6525SOL     OW31036   4.705   3.536   6.614  0.7072 -0.4059  0.0442
 6525SOL    HW131037   4.651   3.458   6.628 -0.3512  0.2831 -0.2400
 6525SOL    HW231038   0.000   3.548   6.707 -2.0532 -0.2599  0.6319
 6526SOL     OW31039   2.671   0.132  15.132 -0.2258 -0.1079  0.3068
 6526SOL    HW131040   2.664   0.116  15.227  1.8086 -3.4075 -0.1088
 6526SOL    HW231041   2.589   0.111  15.086 -0.1191 -2.0203  0.9915
 6527SOL     OW31042   3.460   4.331   2.246 -0.1310 -0.7193  0.0500
 6527SOL    HW131043   3.423   4.356   2.161  1.3292  3.1358  0.5534
 6527SOL    HW231044   3.382   4.333   2.302 -0.8036 -1.7119 -0.8643
 6528SOL     OW31045   1.382   1.914   1.223  0.4040  0.4039  0.4679
 6528SOL    HW131046   1.404   1.821   1.233 -0.5213 -0.0118 -1.2548
 6528SOL    HW231047   1.452   1.953   1.275 -0.3841 -0.1951  2.0037
 6529SOL     OW31048   0.607   4.570  11.730  0.1260 -0.2241 -0.0951
 6529SOL    HW131049   0.598   4.649  11.677  0.6608 -0.4674 -0.5536
 6529SOL    HW231050   0.655   4.514  11.669 -1.2670  0.7337 -2.0895
 6530SOL     OW31051   2.564   0.495   3.051  0.0965  0.8213 -0.1276
 6530SOL    HW131052   2.543   0.427   3.115 -1.6088  1.3057 -0.1637
 6530SOL    HW231053   2.486   0.550   3.044 -0.2080  0.2479 -1.4027
 6531SOL     OW31054   3.820   1.800   6.199  0.0676 -0.2116  0.2423
 6531SOL    HW131055   3.867   1.857   6.138 -1.7365  0.6961 -0.2929
 6531SOL    HW231056   3.802   1.863   6.269 -1.1554  0.1930 -0.4386
 6532SOL     OW31057   2.192   3.120  16.562 -0.1360 -0.8353  0.2950
 6532SOL    HW131058   2.132   3.156  16.497 -0.2764  0.7201  1.2957
 6532SOL    HW231059   2.149   3.034  16.569 -1.7011  0.0494  1.6707
 6533SOL     OW31060   1.854   1.180   4.122 -0.1095  0.1582 -0.8253
 6533SOL    HW131061   1.941   1.179   4.083 -0.0053  0.5065 -0.6115
 6533SOL    HW231062   1.842   1.087   4.138  0.2001  0.1083 -0.8756
 6534SOL     OW31063   0.594   2.751   3.003 -0.3714 -0.1396 -0.2029
 6534SOL    HW131064   0.613   2.682   2.939  1.0305  1.5647 -1.6353
 6534SOL    HW231065   0.505   2.732   3.031 -0.2459  0.6582  0.7514
 6535SOL     OW31066   2.199   0.427   8.136 -0.1093  0.1046 -0.0425
 6535SOL    HW131067   2.210   0.371   8.059 -1.1258  1.8132 -1.4366
 6535SOL    HW231068   2.177   0.363   8.205 -0.6272  0.7770  0.4079
 6536SOL     OW31069   0.802   3.870   4.449  0.3914  0.3642 -0.3310
 6536SOL    HW131070   0.884   3.860   4.498  0.2720  2.0038  0.2008
 6536SOL    HW231071   0.770   3.959   4.467  2.5404  0.9607  0.5587
 6537SOL     OW31072   2.393   3.055   2.137  0.0676  0.4928 -0.2492
 6537SOL    HW131073   2.475   3.066   2.089  0.6016  0.0750  0.5611
 6537SOL    HW231074   2.393   3.141   2.178  0.1225 -0.1884  1.2142
 6538SOL     OW31075   3.876   4.493   8.969 -0.3433 -0.3743 -0.2194
 6538SOL    HW131076   3.949   4.440   8.935 -0.7080 -0.4691 -0.8607
 6538SOL    HW231077   3.892   4.487   9.063  0.7919  0.3784 -0.3655
 6539SOL     OW31078   0.552   4.714   4.732 -0.3913  0.2428  0.3317
 6539SOL    HW131079   0.562   4.628   4.772 -0.4258 -0.2148 -0.6357
 6539SOL    HW231080   0.492   0.027   4.796 -0.1230  0.3794  0.4981
 6540SOL     OW31081   4.686   2.714   2.971 -0.3254  0.7087 -0.2267
 6540SOL    HW131082   4.682   2.717   2.875 -2.6450 -2.5837 -0.2500
 6540SOL    HW231083   4.695   2.806   2.994  2.1807  0.7325 -1.3686
 6541SOL     OW31084   2.369   4.386   5.989 -0.1490 -0.1021  0.2910
 6541SOL    HW131085   2.278   4.415   6.000  0.2406  1.8677 -1.7956
 6541SOL    HW231086   2.413   4.395   6.073  0.8886  0.0851 -0.2817
 6542SOL     OW31087   2.168   2.825   6.541 -0.2048 -0.0923  0.3754
 6542SOL    HW131088   2.216   2.742   6.546  1.0787  0.7207  1.7326
 6542SOL    HW231089   2.085   2.808   6.585 -1.6596  0.3080 -2.2596
 6543SOL     OW31090   1.143   1.658   2.156  0.4600 -0.1289 -0.5236
 6543SOL    HW131091   1.147   1.687   2.065  1.6766 -0.5806 -0.6214
 6543SOL    HW231092   1.233   1.629   2.172  0.5877  0.9676  0.8088
 6544SOL     OW31093   0.862   1.210   7.447  0.0801 -0.0625  0.3141
 6544SOL    HW131094   0.904   1.128   7.472 -1.1535 -0.3254  1.5321
 6544SOL    HW231095   0.875   1.205   7.352 -0.5409 -1.8400  0.3357
 6545SOL     OW31096   4.323   2.838   7.573  0.1645  0.0563  0.1315
 6545SOL    HW131097   4.400   2.785   7.593 -1.2683 -1.2861  2.1568
 6545SOL    HW231098   4.311   2.894   7.650  0.4429 -0.6479  0.6896
 6546SOL     OW31099   1.025   0.659  15.335 -0.3922 -0.2556  0.3622
 6546SOL    HW131100   1.020   0.565  15.319  2.0314 -0.3274 -0.0080
 6546SOL    HW231101   1.086   0.658  15.409 -0.1756 -1.3480  0.1625
 6547SOL     OW31102   1.537   0.786   7.359  0.3495 -0.6136 -0.5316
 6547SOL    HW131103   1.601   0.820   7.422 -0.2943 -1.1595  0.4159
 6547SOL    HW231104   1.583   0.706   7.333  0.6085 -0.2084 -1.3063
 6548SOL     OW31105   2.137   4.557   6.767 -0.5306 -0.4001 -0.5202
 6548SOL    HW131106   2.131   4.542   6.673 -0.8659  1.8851 -0.8747
 6548SOL    HW231107   2.091   4.641   6.764 -1.5286 -0.9688 -1.1517
 6549SOL     OW31108   4.113   1.315   8.212  0.4169  0.6890  0.2315
 6549SOL    HW131109   4.208   1.301   8.217  0.4178  0.5270 -0.2109
 6549SOL    HW231110   4.089   1.232   8.170 -2.6608  2.1267 -0.8637
 6550SOL     OW31111   4.322   3.442   8.956  0.1852 -0.2672  0.2919
 6550SOL    HW131112   4.295   3.487   9.036 -0.9844  1.1693 -0.9045
 6550SOL    HW231113   4.350   3.358   8.993  0.7662 -0.4301 -0.5133
 6551SOL     OW31114   0.986   2.804   8.044 -0.0264 -0.0609 -0.1424
 6551SOL    HW131115   0.982   2.712   8.015  1.8039 -0.0223 -0.5229
 6551SOL    HW231116   0.898   2.816   8.081 -0.0122  1.0724 -0.4768
 6552SOL     OW31117   3.812   1.921   2.223 -0.0119 -0.1154  0.7479
 6552SOL    HW131118   3.870   1.858   2.179  0.3564 -0.2066  1.3697
 6552SOL    HW231119   3.823   1.994   2.163  0.1410 -0.8046 -0.0671
 6553SOL     OW31120   1.993   3.281  13.220 -0.5286 -0.0715  0.3273
 6553SOL    HW131121   2.042   3.350  13.263 -0.8243  1.1769 -1.3249
 6553SOL    HW231122   1.926   3.329  13.171  0.9606 -0.3079 -1.9675
 6554SOL     OW31123   2.744   4.104   1.195 -0.3575  0.2801  0.7729
 6554SOL    HW131124   2.787   4.132   1.275 -1.5487  1.3262  1.0560
 6554SOL    HW231125   2.702   4.184   1.163  0.5570 -0.7266 -3.0034
 6555SOL     OW31126   4.123   0.996   1.571  0.3138  0.2470 -0.1362
 6555SOL    HW131127   4.175   1.001   1.491 -0.4194  0.0558 -0.6261
 6555SOL    HW231128   4.159   0.916   1.608  1.1962  0.2309 -1.0568
 6556SOL     OW31129   3.557   0.465   3.928 -0.0145 -0.4631  0.5068
 6556SOL    HW131130   3.568   0.474   4.023  1.9641 -1.9653  0.4188
 6556SOL    HW231131   3.604   0.540   3.892  0.1483 -0.7069  0.2171
 6557SOL     OW31132   0.732   3.628  14.432 -1.1552 -0.6182  0.0200
 6557SOL    HW131133   0.766   3.583  14.354  0.1556 -0.5026  0.5204
 6557SOL    HW231134   0.651   3.583  14.453 -2.6567  1.1536 -1.9211
 6558SOL     OW31135   2.999   2.604   8.766  0.2507  0.2134 -0.4672
 6558SOL    HW131136   3.045   2.610   8.682  0.0843  1.1577 -0.4969
 6558SOL    HW231137   3.069   2.605   8.831  0.6634 -1.8258 -0.8963
 6559SOL     OW31138   3.253   2.764   1.369 -0.4285 -0.4329 -0.2417
 6559SOL    HW131139   3.221   2.779   1.280 -2.2910 -1.3278  0.2747
 6559SOL    HW231140   3.227   2.839   1.422  0.6340 -1.6772  2.0425
 6560SOL     OW31141   0.127   2.496   4.572 -0.3016 -0.2670 -0.3270
 6560SOL    HW131142   0.216   2.533   4.573  0.0228 -1.0178 -1.7591
 6560SOL    HW231143   0.104   2.519   4.482  0.9967 -1.4751 -0.9646
 6561SOL     OW31144   2.453   2.751  11.244 -0.1595 -0.4047 -0.0136
 6561SOL    HW131145   2.450   2.662  11.210  1.8643 -0.1824 -0.7692
 6561SOL    HW231146   2.432   2.803  11.167 -1.2963  0.6192  0.9930
 6562SOL     OW31147   0.060   0.333   8.843 -0.3052  0.2898 -0.0484
 6562SOL    HW131148   0.010   0.395   8.896  1.3380  0.6729  1.0348
 6562SOL    HW231149   0.112   0.397   8.795  1.5327 -0.2659  1.2306
 6563SOL     OW31150   3.764   3.697  12.016 -0.3762 -0.1088  0.1871
 6563SOL    HW131151   3.847   3.728  11.978  0.4859  0.0889  2.2387
 6563SOL    HW231152   3.730   3.635  11.951  0.5644 -0.2462 -0.1888
 6564SOL     OW31153   4.581   1.177   8.414 -0.1025  0.1058 -0.1953
 6564SOL    HW131154   4.594   1.248   8.478 -1.8833  0.1880  0.0652
 6564SOL    HW231155   4.670   1.176   8.377  0.4376  0.1539  1.0980
 6565SOL     OW31156   2.196   2.625   7.987  0.2705  0.1392 -0.0427
 6565SOL    HW131157   2.106   2.642   7.959  0.1699 -2.8337 -1.5432
 6565SOL    HW231158   2.212   2.692   8.053 -0.4159  1.9842 -1.7537
 6566SOL     OW31159   1.441   3.701   1.372 -1.4833  0.0193  0.3569
 6566SOL    HW131160   1.522   3.670   1.413 -0.2651  0.8005 -1.4500
 6566SOL    HW231161   1.466   3.754   1.296  0.2274  0.8221  1.4699
 6567SOL     OW31162   0.988   0.262   6.960  0.3644  0.1632 -0.7099
 6567SOL    HW131163   1.032   0.228   6.882 -0.9555  0.6090 -1.6406
 6567SOL    HW231164   1.031   0.213   7.030  1.4429  0.3693 -1.2391
 6568SOL     OW31165   0.140   0.727  11.122 -0.1725 -0.3855 -0.5740
 6568SOL    HW131166   0.211   0.791  11.117  1.3235 -1.9168  1.6103
 6568SOL    HW231167   0.181   0.641  11.112 -1.8106 -1.0713 -1.4494
 6569SOL     OW31168   0.781   2.994  13.734 -0.0598  0.0618  0.2818
 6569SOL    HW131169   0.862   3.044  13.743  1.0086 -2.0355  2.2189
 6569SOL    HW231170   0.758   3.030  13.648 -1.7222  2.0971  1.5619
 6570SOL     OW31171   0.516   0.436  11.799 -1.0353 -0.5857  0.4117
 6570SOL    HW131172   0.463   0.498  11.848  0.9747 -0.1160  1.9866
 6570SOL    HW231173   0.504   0.359  11.854 -0.1889 -0.2843  1.0108
 6571SOL     OW31174   1.619   1.269   3.126  0.3872  0.1890  0.6446
 6571SOL    HW131175   1.715   1.264   3.131  0.3642 -2.4590 -1.4988
 6571SOL    HW231176   1.627   1.364   3.117  0.1585  0.0256 -1.3931
 6572SOL     OW31177   2.904   1.182   4.035  0.3007 -0.0110 -1.0166
 6572SOL    HW131178   2.952   1.263   4.019 -0.2800  0.4445 -0.4585
 6572SOL    HW231179   2.813   1.205   4.020  0.8964  2.0819 -1.4008
 6573SOL     OW31180   0.721   1.624   1.923  0.1603  0.2067  0.3147
 6573SOL    HW131181   0.724   1.545   1.870 -0.0823 -0.3296  1.0911
 6573SOL    HW231182   0.813   1.650   1.913 -0.6135  3.7005  2.0934
 6574SOL     OW31183   0.105   1.570   0.332  0.1358 -0.1026 -0.3229
 6574SOL    HW131184   0.066   1.572   0.419  1.5488  1.1958  0.2670
 6574SOL    HW231185   0.142   1.483   0.321  2.9927  1.5061 -3.5147
 6575SOL     OW31186   4.188   3.286   4.184  0.0705  0.0386 -0.1697
 6575SOL    HW131187   4.141   3.335   4.252  4.2542  1.6645  1.5792
 6575SOL    HW231188   4.132   3.310   4.110 -0.1129  3.1120  0.9411
 6576SOL     OW31189   2.208   0.586   4.075  0.2865  0.0697  0.5389
 6576SOL    HW131190   2.303   0.600   4.078  0.2274  0.5784 -0.1723
 6576SOL    HW231191   2.177   0.628   4.156  2.7874 -0.1324  1.6229
 6577SOL     OW31192   4.642   2.924   3.295 -0.2154 -0.1453 -0.5091
 6577SOL    HW131193   4.592   2.977   3.233  0.6319  1.1590 -0.0798
 6577SOL    HW231194   4.610   2.836   3.275 -0.0742 -0.5667  1.1255
 6578SOL     OW31195   0.218   4.266   2.856 -0.0113  0.0190 -0.1336
 6578SOL    HW131196   0.301   4.309   2.840 -0.1719  0.2463 -0.3528
 6578SOL    HW231197   0.243   4.206   2.926 -1.0694 -2.1799 -1.5963
 6579SOL     OW31198   2.288   3.986   8.865 -0.5531  0.0969 -0.0743
 6579SOL    HW131199   2.253   4.021   8.946 -1.4896  0.9388 -0.8544
 6579SOL    HW231200   2.334   3.903   8.882  2.2473  2.1967  2.6847
 6580SOL     OW31201   4.545   0.982   8.850 -0.0905  0.1462 -0.3110
 6580SOL    HW131202   4.463   1.026   8.873  0.3021  1.6223 -1.7632
 6580SOL    HW231203   4.576   0.983   8.940 -0.1577  0.5507 -0.2887
 6581SOL     OW31204   4.622   3.348   6.431 -0.4307  0.1348 -0.6382
 6581SOL    HW131205   4.702   3.399   6.434  1.8156 -3.4070 -0.2487
 6581SOL    HW231206   4.614   3.327   6.338 -0.6142 -1.0761 -0.3609
 6582SOL     OW31207   0.252   0.034   2.133  0.8137  0.2500  0.1732
 6582SOL    HW131208   0.204   0.113   2.112  0.3244 -0.7905 -2.5449
 6582SOL    HW231209   0.178   4.710   2.168 -1.3511  1.2201 -3.0632
 6583SOL     OW31210   1.948   0.577  14.792 -0.4430 -0.1288  0.0541
 6583SOL    HW131211   2.002   0.527  14.730  0.4712  0.8110  0.0945
 6583SOL    HW231212   1.863   0.587  14.749  1.1086  0.0242 -3.0441
 6584SOL     OW31213   2.657   2.761   2.037  0.2433 -0.2033  0.2255
 6584SOL    HW131214   2.707   2.754   2.118  3.6640  4.0154 -1.5351
 6584SOL    HW231215   2.719   2.816   1.988  0.4061 -0.3988  0.2060
 6585SOL     OW31216   3.575   3.791  17.499  0.3987 -0.4083 -0.1652
 6585SOL    HW131217   3.579   3.759  17.589 -0.6569  0.6520  0.2628
 6585SOL    HW231218   3.484   3.775  17.474  1.1009 -3.2286 -0.8998
 6586SOL     OW31219   4.400   1.684   9.133  0.1536  0.0052  0.5923
 6586SOL    HW131220   4.441   1.676   9.047  0.4391  2.2364  0.5262
 6586SOL    HW231221   4.365   1.597   9.152  0.2412 -0.2953 -0.6188
 6587SOL     OW31222   3.289   2.974   6.577 -0.1071 -0.0762 -0.1259
 6587SOL    HW131223   3.202   2.993   6.541  0.3559 -0.0972 -1.2488
 6587SOL    HW231224   3.278   2.919   6.654 -2.9140 -1.1043 -1.2554
 6588SOL     OW31225   4.451   4.318   2.882  0.0994 -0.7578 -0.5500
 6588SOL    HW131226   4.372   4.315   2.828 -0.2390  0.3513 -0.1093
 6588SOL    HW231227   4.476   4.410   2.882 -2.0170 -0.1829 -0.0165
 6589SOL     OW31228   0.196   0.683  11.464 -0.4246 -0.3275 -0.0754
 6589SOL    HW131229   0.217   0.727  11.546  1.9972 -2.2630  0.3507
 6589SOL    HW231230   0.203   0.752  11.398  0.4131  0.0049  0.3615
 6590SOL     OW31231   3.830   3.669   4.770 -0.8426  0.3486 -0.1608
 6590SOL    HW131232   3.762   3.731   4.743  0.0043  0.6820 -1.5458
 6590SOL    HW231233   3.765   3.612   4.811 -1.7147  1.1411 -0.4223
 6591SOL     OW31234   2.479   2.582   8.647 -0.4461  0.3193  0.4519
 6591SOL    HW131235   2.426   2.506   8.671 -0.8192  0.0624 -1.1993
 6591SOL    HW231236   2.553   2.545   8.598 -2.0840 -0.5479 -1.3911
 6592SOL     OW31237   4.406   1.864   6.620 -0.4465  1.2667  0.4003
 6592SOL    HW131238   4.390   1.775   6.588  1.2055  1.4902 -1.0247
 6592SOL    HW231239   4.460   1.857   6.698 -2.5886  1.1140  1.8604
 6593SOL     OW31240   0.851   2.009   5.115  0.3296 -0.1390  0.2807
 6593SOL    HW131241   0.812   1.964   5.190  0.0031 -2.2147 -1.1240
 6593SOL    HW231242   0.931   2.045   5.152  0.0219 -0.1809  0.9827
 6594SOL     OW31243   2.413   4.358   8.155  0.2599  0.5649  0.4565
 6594SOL    HW131244   2.435   4.271   8.188  0.2326  0.6273  0.6366
 6594SOL    HW231245   2.338   4.332   8.103  0.2744  0.5696  0.4331
 6595SOL     OW31246   2.103   2.809  12.700 -0.0632 -0.9798 -0.3804
 6595SOL    HW131247   2.144   2.871  12.760 -0.7495 -0.0402 -0.8977
 6595SOL    HW231248   2.014   2.810  12.735 -0.6903 -1.5492 -1.9807
 6596SOL     OW31249   2.987   4.666   4.400  0.4996 -0.3411 -0.1160
 6596SOL    HW131250   2.970   4.575   4.372 -0.9633  0.0823 -0.6018
 6596SOL    HW231251   3.019   4.710   4.321 -0.6612 -0.4669 -0.6609
 6597SOL     OW31252   1.735   0.980   9.214  0.2553  0.6872  0.1013
 6597SOL    HW131253   1.824   0.947   9.225 -0.3873 -1.2625 -0.5105
 6597SOL    HW231254   1.708   0.990   9.305 -1.4822 -0.1758 -0.3177
 6598SOL     OW31255   2.543   1.892   8.898 -0.1302  0.1311  0.1470
 6598SOL    HW131256   2.461   1.934   8.871  0.2513  1.2453  0.6918
 6598SOL    HW231257   2.589   1.974   8.918  0.2169 -0.2591  0.9936
 6599SOL     OW31258   3.199   3.782   6.669  0.1351 -0.0278 -0.4490
 6599SOL    HW131259   3.220   3.697   6.708 -0.0147 -0.6401 -1.6831
 6599SOL    HW231260   3.287   3.813   6.649 -0.0742 -1.4594 -3.6643
 6600SOL     OW31261   0.926   1.094   0.458 -0.1755  0.2320 -0.6848
 6600SOL    HW131262   0.909   1.104   0.552  5.4261 -0.5747  0.4184
 6600SOL    HW231263   0.859   1.154   0.425  0.5325  0.4740 -1.6693
 6601SOL     OW31264   3.636   2.298   4.743 -0.4668 -0.0912  0.5065
 6601SOL    HW131265   3.582   2.264   4.671  1.6002 -0.7390 -0.7199
 6601SOL    HW231266   3.692   2.350   4.686  4.2974 -1.2672  4.1848
 6602SOL     OW31267   2.137   4.683   2.108  0.6489  0.2271  0.1060
 6602SOL    HW131268   2.045   4.703   2.090  0.4966 -0.6719 -0.0748
 6602SOL    HW231269   2.187   0.017   2.052  2.6959  1.6485  3.4081
 6603SOL     OW31270   0.040   1.228   8.878 -0.0161  0.2626 -0.2225
 6603SOL    HW131271   0.041   1.133   8.877  0.9671  0.2819 -1.0124
 6603SOL    HW231272   4.672   1.242   8.894  0.2129  2.1976 -0.5202
 6604SOL     OW31273   0.017   0.033   7.778  0.0126  0.4324  0.7185
 6604SOL    HW131274   0.043   0.125   7.778 -0.2368  0.5016 -0.2031
 6604SOL    HW231275   0.087   0.001   7.835 -1.2175 -3.1377  0.2398
 6605SOL     OW31276   4.703   4.679   3.280  0.0384 -0.3095 -0.2035
 6605SOL    HW131277   4.624   4.716   3.240  1.6426 -0.1632 -3.2917
 6605SOL    HW231278   4.686   4.585   3.284  0.2285 -0.2882  0.9515
 6606SOL     OW31279   0.558   3.598   5.396  0.2539 -0.6737  0.2714
 6606SOL    HW131280   0.580   3.681   5.438 -0.8966 -0.1199 -0.2271
 6606SOL    HW231281   0.464   3.614   5.388  0.5689  0.7570 -0.6197
 6607SOL     OW31282   2.376   3.220   0.452  0.5235  0.4495 -0.1627
 6607SOL    HW131283   2.349   3.154   0.388  0.0112  1.2010 -0.7158
 6607SOL    HW231284   2.366   3.156   0.523 -2.2695 -0.4765 -1.3750
 6608SOL     OW31285   1.644   3.062   2.601 -0.4511 -0.0111 -0.1013
 6608SOL    HW131286   1.700   3.068   2.678 -1.4660  0.0511  0.6304
 6608SOL    HW231287   1.616   2.971   2.601  0.0069 -0.1431  1.5623
 6609SOL     OW31288   0.441   1.402   0.843  0.1082  0.5516  0.4197
 6609SOL    HW131289   0.397   1.454   0.776 -1.9957 -1.5179  0.2133
 6609SOL    HW231290   0.528   1.418   0.804  0.2322  0.5633  0.7032
 6610SOL     OW31291   3.945   0.232   5.325  0.0729  0.0518  0.0842
 6610SOL    HW131292   3.994   0.249   5.245  0.4979  0.4848  0.4381
 6610SOL    HW231293   4.016   0.203   5.381  0.0742 -0.2355 -0.0650
 6611SOL     OW31294   0.396   3.788   2.493 -0.0624 -0.0701  0.4379
 6611SOL    HW131295   0.349   3.827   2.566 -0.9538 -0.6428  0.1734
 6611SOL    HW231296   0.476   3.841   2.499 -0.2053  0.2879 -0.8650
 6612SOL     OW31297   2.115   0.926   2.258 -0.1041  0.4397 -0.0878
 6612SOL    HW131298   2.163   1.008   2.265  0.8413 -0.1138 -0.1482
 6612SOL    HW231299   2.032   0.975   2.254 -1.7788 -2.3848 -0.2018
 6613SOL     OW31300   0.818   0.064  13.239  0.3456  0.2210  0.4504
 6613SOL    HW131301   0.784   0.059  13.149  1.0334 -0.6080  0.2401
 6613SOL    HW231302   0.897   0.114  13.219  0.2714 -0.8076 -2.3922
 6614SOL     OW31303   0.608   1.844   5.915  0.4992  0.3972 -0.2999
 6614SOL    HW131304   0.594   1.761   5.959 -0.1071 -0.4976 -2.1888
 6614SOL    HW231305   0.657   1.892   5.981  0.5549  1.7815 -1.3377
 6615SOL     OW31306   1.710   3.029   0.806 -0.1896 -0.3340 -0.0032
 6615SOL    HW131307   1.671   2.947   0.836 -1.6196  0.9024  1.4475
 6615SOL    HW231308   1.805   3.025   0.817 -0.2936  0.3128  1.0920
 6616SOL     OW31309   0.918   1.451   5.515 -0.2066  0.5032  0.5897
 6616SOL    HW131310   0.976   1.425   5.587 -1.8592  0.1185  1.7875
 6616SOL    HW231311   0.991   1.469   5.456 -0.7940  0.6252 -0.1013
 6617SOL     OW31312   0.054   1.975  14.794  0.0878  0.6198 -0.0619
 6617SOL    HW131313   0.051   1.880  14.790 -2.7380  0.6261  2.6543
 6617SOL    HW231314   0.045   1.982  14.889  0.5073  2.2303 -0.1428
 6618SOL     OW31315   3.570   0.439  16.833  0.0410 -0.1485 -0.4749
 6618SOL    HW131316   3.607   0.520  16.796 -1.0904  0.5479 -0.1101
 6618SOL    HW231317   3.619   0.368  16.792  0.7454  0.2459 -0.3190
 6619SOL     OW31318   1.749   3.891  14.703 -0.0565  0.0471 -0.3892
 6619SOL    HW131319   1.657   3.868  14.697 -0.1353  0.2410  0.0702
 6619SOL    HW231320   1.755   3.984  14.681 -1.5851  0.3074  0.3114
 6620SOL     OW31321   3.260   3.419   5.672 -0.3145 -0.3890  0.1287
 6620SOL    HW131322   3.168   3.435   5.652  0.0377  1.5363  0.0633
 6620SOL    HW231323   3.257   3.339   5.725  1.3574  1.9831  3.7966
 6621SOL     OW31324   3.811   3.095   4.120 -0.7236 -0.3934 -0.2513
 6621SOL    HW131325   3.763   3.177   4.105  0.7543  0.2832 -1.3114
 6621SOL    HW231326   3.846   3.105   4.208  0.9239  1.8836 -1.1721
 6622SOL     OW31327   1.998   0.856  14.679 -0.1558 -0.5947 -0.3202
 6622SOL    HW131328   1.935   0.865  14.607  2.8407  0.4324 -2.8192
 6622SOL    HW231329   1.977   0.767  14.706 -0.2940  0.3291  2.5949
 6623SOL     OW31330   4.582   3.141   6.853  0.1142  0.1953  0.6433
 6623SOL    HW131331   4.520   3.214   6.854  1.0345  0.9963 -0.9564
 6623SOL    HW231332   4.565   3.109   6.764  0.8050 -2.1475  1.3573
 6624SOL     OW31333   2.259   2.235   4.869  0.1554 -0.3119 -0.5860
 6624SOL    HW131334   2.349   2.267   4.880 -0.3072  0.3714  1.1627
 6624SOL    HW231335   2.260   2.140   4.858  1.2830 -0.2478 -1.0768
 6625SOL     OW31336   2.104   1.003  12.456 -0.3418 -0.1211  0.6409
 6625SOL    HW131337   2.018   0.962  12.468 -1.1489  2.0100  2.1683
 6625SOL    HW231338   2.146   0.985  12.540 -1.1570 -0.6296  0.9451
 6626SOL     OW31339   1.651   4.690   5.908  0.0031  0.1342  0.3096
 6626SOL    HW131340   1.565   4.665   5.943 -0.0631 -1.2100 -0.7914
 6626SOL    HW231341   1.707   4.676   5.984 -0.0222 -0.7490  0.1704
 6627SOL     OW31342   1.606   4.081   8.879  0.0065 -0.2784  0.1791
 6627SOL    HW131343   1.552   4.157   8.898  1.7182  1.2848 -1.2105
 6627SOL    HW231344   1.549   4.012   8.912 -0.5597  0.5881  1.0024
 6628SOL     OW31345   2.936   3.509   4.290  0.0825  0.7110 -0.2984
 6628SOL    HW131346   2.980   3.450   4.351 -1.1314  0.6132  0.4958
 6628SOL    HW231347   2.849   3.473   4.274  0.4027 -0.1016 -0.1769
 6629SOL     OW31348   4.193   0.803   5.480 -0.3194 -0.5636  0.3517
 6629SOL    HW131349   4.098   0.804   5.495 -0.2685  0.4693  0.6574
 6629SOL    HW231350   4.217   0.893   5.458 -1.3034 -0.1176  1.0980
 6630SOL     OW31351   0.564   0.404  12.948 -0.1779 -0.3016 -0.1351
 6630SOL    HW131352   0.594   0.348  12.876  2.1270 -2.6492  2.6423
 6630SOL    HW231353   0.649   0.424  12.988  0.4529 -0.7438 -1.2517
 6631SOL     OW31354   0.584   3.737   7.686 -0.2431 -0.3521  0.3879
 6631SOL    HW131355   0.578   3.745   7.591 -0.3245 -0.7499  0.3604
 6631SOL    HW231356   0.671   3.701   7.704 -1.4111 -2.7280  1.3274
 6632SOL     OW31357   1.746   1.583   2.403  0.2749  0.1824  0.1040
 6632SOL    HW131358   1.698   1.561   2.323  0.8214  2.0663 -0.7477
 6632SOL    HW231359   1.698   1.520   2.457  1.0859  2.2067  3.1543
 6633SOL     OW31360   0.798   0.374   3.081  0.2604 -0.5587  0.2712
 6633SOL    HW131361   0.745   0.318   3.024  0.2352 -3.2364  2.9427
 6633SOL    HW231362   0.808   0.446   3.019 -1.5582 -2.0349 -1.7794
 6634SOL     OW31363   2.586   2.875   7.348 -0.3110 -0.3461  0.4773
 6634SOL    HW131364   2.640   2.931   7.404 -0.7943  1.4687 -0.8919
 6634SOL    HW231365   2.513   2.852   7.406 -1.6560  1.3465 -0.5289
 6635SOL     OW31366   1.345   4.425   7.900  1.0020  0.5209  0.0672
 6635SOL    HW131367   1.330   4.463   7.987  1.5486  1.8747 -0.4353
 6635SOL    HW231368   1.259   4.452   7.867  1.2249 -0.1673 -1.0438
 6636SOL     OW31369   1.030   3.291   4.845 -0.3322 -0.5227 -0.7773
 6636SOL    HW131370   1.026   3.370   4.898  1.2041 -0.5815 -0.5653
 6636SOL    HW231371   1.090   3.319   4.775  0.5591 -1.9506 -0.6019
 6637SOL     OW31372   1.337   0.211   5.397 -0.0770 -0.0221 -0.7037
 6637SOL    HW131373   1.335   0.186   5.305 -2.4064  0.7092 -0.8398
 6637SOL    HW231374   1.273   0.282   5.391  1.4856  1.5147  0.4990
 6638SOL     OW31375   4.674   1.777  11.107  0.2607  0.7000  0.5014
 6638SOL    HW131376   4.636   1.726  11.035 -0.9016  0.0712  1.5553
 6638SOL    HW231377   0.042   1.755  11.111  0.0218 -0.6315 -1.2749
 6639SOL     OW31378   3.057   0.526   2.692  0.0358  0.2826 -0.5310
 6639SOL    HW131379   2.999   0.466   2.644  0.8310 -0.6473 -0.3335
 6639SOL    HW231380   3.100   0.463   2.750  1.2754  0.8571 -0.8319
 6640SOL     OW31381   3.435   2.279   7.734  0.3361 -0.2834  0.2512
 6640SOL    HW131382   3.517   2.316   7.700 -0.7724  1.6922 -0.2175
 6640SOL    HW231383   3.435   2.213   7.664  2.6078  0.3441 -0.3357
 6641SOL     OW31384   3.142   1.996  12.715  0.2250  0.1565 -0.3882
 6641SOL    HW131385   3.109   2.082  12.687  0.4469  0.7836  1.2389
 6641SOL    HW231386   3.196   1.973  12.640  0.6701 -2.2447  0.6562
 6642SOL     OW31387   0.744   4.427  11.550 -0.2093  0.7708 -0.3165
 6642SOL    HW131388   0.819   4.472  11.510  0.4818 -0.9751 -0.9974
 6642SOL    HW231389   0.733   4.344  11.504  2.7859  0.0322  0.2987
 6643SOL     OW31390   2.499   1.469   5.651 -0.2600 -0.7631  0.4686
 6643SOL    HW131391   2.424   1.412   5.665 -0.3956 -0.1147  2.4878
 6643SOL    HW231392   2.560   1.417   5.599  2.5839  2.0530  0.9658
 6644SOL     OW31393   0.261   2.213  17.508 -0.1252  0.6096  0.3941
 6644SOL    HW131394   0.322   2.187  17.439 -0.5761  3.2283 -1.0376
 6644SOL    HW231395   0.314   2.184  17.581 -0.6498  0.8250  0.8584
 6645SOL     OW31396   4.481   3.116   5.081 -0.3594 -0.3609  0.4146
 6645SOL    HW131397   4.420   3.136   5.011 -1.1828  0.9915  1.5174
 6645SOL    HW231398   4.472   3.190   5.141 -0.0956  0.9113 -1.1085
 6646SOL     OW31399   4.019   3.258  12.125  0.0429  0.7942  0.9552
 6646SOL    HW131400   3.933   3.293  12.101  1.1842  2.2914 -0.9932
 6646SOL    HW231401   4.018   3.272  12.219  2.3421  0.2978  1.0416
 6647SOL     OW31402   4.006   1.366   5.366 -0.3145  0.3516 -0.4309
 6647SOL    HW131403   4.070   1.410   5.310 -0.6524  2.6632  1.0324
 6647SOL    HW231404   4.052   1.351   5.448  1.0167  0.3132 -1.1720
 6648SOL     OW31405   0.666   2.407  17.530 -0.0799  0.3928 -0.2263
 6648SOL    HW131406   0.736   2.439  17.472 -0.3373  0.1950 -0.6424
 6648SOL    HW231407   0.607   2.481  17.519 -1.9054 -1.1862 -0.9642
 6649SOL     OW31408   2.282   3.631  17.233  0.4315 -0.3017 -0.0332
 6649SOL    HW131409   2.322   3.702  17.182  2.3844 -1.7428 -0.5265
 6649SOL    HW231410   2.273   3.565  17.164  3.7515 -0.7304 -0.0487
 6650SOL     OW31411   0.462   3.834   5.106  0.0045 -0.2450  0.4918
 6650SOL    HW131412   0.394   3.874   5.160  2.3639  2.1138  1.6425
 6650SOL    HW231413   0.405   3.828   5.029  2.3154  2.6888 -1.4285
 6651SOL     OW31414   1.687   0.699   1.052 -0.7513 -0.5686 -0.5244
 6651SOL    HW131415   1.725   0.731   0.971  2.7984  2.2663  2.2257
 6651SOL    HW231416   1.670   0.784   1.093 -2.7724 -0.0605 -2.4308
 6652SOL     OW31417   3.376   1.629  10.040  0.1379  0.3032  0.3691
 6652SOL    HW131418   3.424   1.621  10.123  1.8602 -1.7670 -0.8234
 6652SOL    HW231419   3.425   1.570   9.982 -1.3404 -1.1898  0.6337
 6653SOL     OW31420   0.866   0.237   4.674 -0.2011 -0.0304  0.1196
 6653SOL    HW131421   0.946   0.185   4.665 -0.7796 -0.9242  0.1410
 6653SOL    HW231422   0.829   0.193   4.751  0.0373 -0.9487 -0.2853
 6654SOL     OW31423   3.894   1.469   9.202  0.2272  0.2532 -0.5690
 6654SOL    HW131424   3.902   1.485   9.108  1.7378 -1.8771 -0.8220
 6654SOL    HW231425   3.847   1.385   9.207 -0.8159  0.8896  0.1594
 6655SOL     OW31426   0.956   2.885  17.155  0.2201 -0.5030  0.6254
 6655SOL    HW131427   0.885   2.947  17.139  1.1423  0.5935  0.8273
 6655SOL    HW231428   0.996   2.942  17.220  1.3140  0.7012 -1.1248
 6656SOL     OW31429   0.521   4.619   7.471  0.1059  0.3709 -0.3181
 6656SOL    HW131430   0.455   4.687   7.485 -0.2653  0.2288 -1.3674
 6656SOL    HW231431   0.559   4.618   7.559 -0.6212  0.4313 -0.0053
 6657SOL     OW31432   4.499   2.322   7.229  0.3329  0.1067  0.3492
 6657SOL    HW131433   4.440   2.380   7.180 -1.1690 -1.0519  0.8070
 6657SOL    HW231434   4.565   2.298   7.163  0.1060  0.9850 -0.1970
 6658SOL     OW31435   1.475   2.813   4.152  0.3646 -0.7848  0.1483
 6658SOL    HW131436   1.484   2.908   4.140 -1.6797 -0.6622 -0.5047
 6658SOL    HW231437   1.382   2.795   4.135  0.0859 -0.5655  1.4999
 6659SOL     OW31438   3.952   0.860  13.782 -0.2208 -0.2614  0.3883
 6659SOL    HW131439   4.027   0.840  13.727 -0.2426  2.2597 -0.5682
 6659SOL    HW231440   3.877   0.827  13.733 -1.3713  1.7248  0.8173
 6660SOL     OW31441   2.787   1.599   5.537 -0.1402  0.0454  0.0683
 6660SOL    HW131442   2.769   1.562   5.451 -2.3464  0.1977  0.4727
 6660SOL    HW231443   2.704   1.645   5.551 -0.4772 -1.7244  3.6565
 6661SOL     OW31444   2.907   1.818   3.113 -0.7293  0.2413  0.1075
 6661SOL    HW131445   2.874   1.742   3.162  0.9528 -0.6683 -0.1976
 6661SOL    HW231446   2.934   1.783   3.029  3.2253  1.0142  1.0548
 6662SOL     OW31447   4.542   1.066   9.405 -0.1237 -0.3830  0.0006
 6662SOL    HW131448   4.567   1.113   9.325  0.3497 -1.6990 -0.6252
 6662SOL    HW231449   4.540   0.973   9.385 -1.6408 -0.5674  1.0121
 6663SOL     OW31450   1.391   2.187   8.283  0.7408  0.0431 -0.0787
 6663SOL    HW131451   1.370   2.108   8.333 -2.7755  1.1330  0.1433
 6663SOL    HW231452   1.337   2.169   8.206  0.6729  1.2650 -0.3023
 6664SOL     OW31453   3.920   2.097   2.052  0.1089 -0.0651 -0.1122
 6664SOL    HW131454   3.897   2.186   2.078  1.3040  0.8518 -2.1979
 6664SOL    HW231455   3.927   2.097   1.956  0.7821  0.2746 -0.0608
 6665SOL     OW31456   1.149   0.196   1.186  0.4357 -0.0012 -0.1768
 6665SOL    HW131457   1.192   0.181   1.270  2.2658  0.8010 -0.9769
 6665SOL    HW231458   1.080   0.258   1.211  0.1305  0.6659 -2.6784
 6666SOL     OW31459   3.604   4.668  12.444  0.1685 -0.0692  0.0108
 6666SOL    HW131460   3.531   0.004  12.439 -1.1852 -1.9027 -3.0092
 6666SOL    HW231461   3.631   4.662  12.352  0.1645  0.7438 -0.0496
 6667SOL     OW31462   1.057   3.410   3.830 -0.7125 -0.4561  0.4223
 6667SOL    HW131463   1.041   3.316   3.843 -0.7738 -0.8907 -2.7559
 6667SOL    HW231464   1.144   3.411   3.871 -0.5951  1.0685  0.1245
 6668SOL     OW31465   3.201   4.452   6.899  0.2122 -0.0656 -0.0086
 6668SOL    HW131466   3.176   4.365   6.867 -1.0239 -0.8537  3.1283
 6668SOL    HW231467   3.226   4.503   6.822 -1.3133 -0.3742 -0.7056
 6669SOL     OW31468   3.265   2.710   8.922 -0.0461 -0.0811 -0.2699
 6669SOL    HW131469   3.268   2.638   8.986  0.7531  0.8502  0.7290
 6669SOL    HW231470   3.337   2.764   8.954 -0.2263 -0.5780  0.9697
 6670SOL     OW31471   4.293   0.613  11.597 -0.0186  0.2368  0.0787
 6670SOL    HW131472   4.338   0.545  11.546 -1.5572 -0.7091 -0.0180
 6670SOL    HW231473   4.204   0.577  11.602 -0.4748  1.5132  1.0730
 6671SOL     OW31474   0.621   0.331   6.786  0.2901  0.5667 -0.1087
 6671SOL    HW131475   0.652   0.367   6.702  0.9255 -0.3994 -0.2900
 6671SOL    HW231476   0.608   0.238   6.770  0.9039  0.2591  1.2514
 6672SOL     OW31477   4.302   0.752   1.687 -0.0625 -0.0785  0.4741
 6672SOL    HW131478   4.240   0.695   1.642 -1.4518  0.8240  1.2256
 6672SOL    HW231479   4.266   0.757   1.775 -1.2217 -1.2047  0.0705
 6673SOL     OW31480   0.133   1.923  12.809  0.0803 -0.1961  0.2785
 6673SOL    HW131481   0.190   1.897  12.736 -1.5248  0.3974 -1.1774
 6673SOL    HW231482   0.182   1.891  12.884  1.6220  1.0745 -0.1837
 6674SOL     OW31483   2.137   1.043  15.805  0.5871 -0.1034 -0.6197
 6674SOL    HW131484   2.172   1.060  15.717 -1.1378 -0.4666 -1.3655
 6674SOL    HW231485   2.043   1.033  15.796  0.5523 -1.6547  1.3894
 6675SOL     OW31486   4.370   1.899  16.884  0.0745 -0.5374  0.6002
 6675SOL    HW131487   4.431   1.878  16.813 -1.1491  2.1096 -1.2336
 6675SOL    HW231488   4.426   1.951  16.942  1.0147 -1.0237  0.1208
 6676SOL     OW31489   3.608   1.531   2.837  0.5760 -0.2690  0.3059
 6676SOL    HW131490   3.528   1.496   2.875  0.4843 -1.9783 -1.4710
 6676SOL    HW231491   3.570   1.588   2.770  0.9558  0.9167  1.1005
 6677SOL     OW31492   0.837   2.848   7.379  0.6792 -0.0710 -0.4496
 6677SOL    HW131493   0.884   2.883   7.303  3.2617  2.8547  2.5309
 6677SOL    HW231494   0.805   2.760   7.360 -2.0304  1.0458 -1.2084
 6678SOL     OW31495   1.551   0.662   3.230 -0.3530  0.1838 -0.4610
 6678SOL    HW131496   1.497   0.685   3.155 -0.1097  2.5488  0.1154
 6678SOL    HW231497   1.641   0.675   3.200 -0.2946 -3.5702 -1.9612
 6679SOL     OW31498   2.655   0.926  10.301 -0.7345  0.0468  0.5067
 6679SOL    HW131499   2.742   0.925  10.343 -2.0384  0.8465  3.1960
 6679SOL    HW231500   2.651   0.836  10.268  0.6311  0.5700 -1.0883
 6680SOL     OW31501   4.413   2.709   1.819 -0.4230  0.2602  0.0060
 6680SOL    HW131502   4.338   2.678   1.870  0.1181  2.3988  2.1337
 6680SOL    HW231503   4.410   2.804   1.832 -4.1212  0.0220  0.8481
 6681SOL     OW31504   4.028   0.791   0.082 -0.3545  0.1521  0.3171
 6681SOL    HW131505   3.987   0.856   0.140  1.4647  1.2893  0.3449
 6681SOL    HW231506   4.114   0.831   0.065 -0.3065 -0.5427 -1.0630
 6682SOL     OW31507   0.125   2.413  12.644  0.2326  0.1047 -0.0504
 6682SOL    HW131508   0.200   2.354  12.638  1.0286  0.8830  2.0806
 6682SOL    HW231509   0.144   2.488  12.701  1.7557 -0.5813  0.3497
 6683SOL     OW31510   3.548   1.489  12.830  0.0557 -0.8046  0.4608
 6683SOL    HW131511   3.641   1.482  12.851  0.7062  1.5781 -1.7766
 6683SOL    HW231512   3.525   1.579  12.854  0.0918 -0.6263 -0.1894
 6684SOL     OW31513   2.441   1.063   2.308  1.0632 -0.0381 -0.2975
 6684SOL    HW131514   2.450   1.120   2.384  2.0091 -0.2078 -0.2860
 6684SOL    HW231515   2.368   1.109   2.266  1.1448 -0.0921 -0.4970
 6685SOL     OW31516   4.207   2.015   0.650 -0.4353 -0.0669  0.0613
 6685SOL    HW131517   4.147   1.998   0.578 -0.9277  0.5235  0.3296
 6685SOL    HW231518   4.269   1.942   0.644 -0.5064  0.0510 -1.9687
 6686SOL     OW31519   4.455   0.560  15.790 -0.0094 -0.2492  0.5703
 6686SOL    HW131520   4.422   0.540  15.878 -0.0747 -2.0831  0.1197
 6686SOL    HW231521   4.532   0.615  15.803 -1.3876  2.0850 -1.2080
 6687SOL     OW31522   0.563   4.149   3.056  0.7362  0.2605 -0.4528
 6687SOL    HW131523   0.570   4.182   3.146  2.9393 -0.0625 -0.4820
 6687SOL    HW231524   0.650   4.116   3.032  0.4428  0.2911 -1.5178
 6688SOL     OW31525   3.274   0.007  12.761  0.1494  0.2545  0.1954
 6688SOL    HW131526   3.226   4.696  12.834 -1.0814  1.3956 -0.0351
 6688SOL    HW231527   3.319   4.655  12.729 -0.9819 -0.3543  0.0848
 6689SOL     OW31528   3.102   3.842   3.216 -0.0379  0.0679 -0.1589
 6689SOL    HW131529   3.130   3.766   3.165 -1.2830 -0.9327  0.6437
 6689SOL    HW231530   3.125   3.809   3.303 -0.3758  1.5616  0.4912
 6690SOL     OW31531   0.696   1.687   3.485 -0.3811  0.6205  0.1503
 6690SOL    HW131532   0.754   1.648   3.550  0.5156  1.0500 -0.3964
 6690SOL    HW231533   0.619   1.689   3.542 -0.2404 -0.1483  0.3656
 6691SOL     OW31534   3.041   0.323   3.357 -0.1769 -0.1383 -0.9259
 6691SOL    HW131535   3.035   0.228   3.356 -1.2067 -0.0968  1.0522
 6691SOL    HW231536   3.132   0.348   3.374  0.4901 -3.2056 -0.0342
 6692SOL     OW31537   3.693   1.559   4.258  0.3581  0.0392 -0.0715
 6692SOL    HW131538   3.715   1.652   4.255  0.9866 -0.1321 -0.8337
 6692SOL    HW231539   3.776   1.515   4.273  0.3035  0.1236  0.4822
 6693SOL     OW31540   2.498   0.472   2.583 -0.2432  0.4379 -0.2472
 6693SOL    HW131541   2.540   0.516   2.509  1.8300 -0.0044  0.6970
 6693SOL    HW231542   2.560   0.400   2.584 -1.5091 -0.6197  1.5460
 6694SOL     OW31543   1.018   0.115  15.591  0.6498 -0.2392 -0.2010
 6694SOL    HW131544   1.024   0.142  15.499 -0.8670  1.4465  0.2082
 6694SOL    HW231545   0.930   0.146  15.611  1.3406  1.5270  0.0193
 6695SOL     OW31546   3.362   2.520   1.799  0.3293  0.2762  0.0506
 6695SOL    HW131547   3.362   2.490   1.708 -0.4241  1.5375 -0.3647
 6695SOL    HW231548   3.305   2.597   1.799  0.5193  0.4034 -1.0649
 6696SOL     OW31549   2.275   2.340   3.378  0.4986  0.2308  0.6438
 6696SOL    HW131550   2.249   2.299   3.461 -0.7819  0.9588  0.5902
 6696SOL    HW231551   2.369   2.346   3.394  0.4716  1.9624  0.0909
 6697SOL     OW31552   4.676   1.936  16.834  0.2314 -0.3076 -0.2202
 6697SOL    HW131553   4.668   2.030  16.852 -0.0999 -0.3991  0.1162
 6697SOL    HW231554   0.005   1.910  16.908 -1.0913 -1.4944  0.3283
 6698SOL     OW31555   3.598   1.013  11.692  0.0940 -0.5472 -0.0913
 6698SOL    HW131556   3.621   1.051  11.777  0.3711 -2.4795  0.7005
 6698SOL    HW231557   3.681   1.029  11.648 -2.0542 -1.5782 -4.4803
 6699SOL     OW31558   1.869   3.806   5.433  0.5966 -0.0492  0.9936
 6699SOL    HW131559   1.905   3.717   5.436 -1.6051 -0.9441  1.3235
 6699SOL    HW231560   1.912   3.840   5.354  0.0052 -0.5733  0.4385
 6700SOL     OW31561   1.633   4.400   3.544  0.4245 -0.2112 -0.2307
 6700SOL    HW131562   1.687   4.420   3.468  2.4573  1.0712  1.5356
 6700SOL    HW231563   1.552   4.450   3.532  1.1492  1.2649  0.9830
 6701SOL     OW31564   1.414   3.730  11.139 -0.1493 -0.0162  0.1126
 6701SOL    HW131565   1.483   3.761  11.197 -0.3269 -1.2341  0.9777
 6701SOL    HW231566   1.462   3.671  11.081  1.5634  2.1083 -0.6207
 6702SOL     OW31567   3.077   2.962   4.949  0.0294 -0.1366  0.2059
 6702SOL    HW131568   3.033   3.045   4.967  0.4902  0.0046  0.6720
 6702SOL    HW231569   3.045   2.903   5.017  1.4746 -1.4581 -0.2618
 6703SOL     OW31570   3.748   0.137  13.062  0.4750 -0.9270  0.2120
 6703SOL    HW131571   3.697   0.058  13.043 -0.4975  0.0972 -1.3900
 6703SOL    HW231572   3.761   0.178  12.976 -0.2177 -0.6406  0.2452
 6704SOL     OW31573   0.651   0.999   0.821  0.8272  0.4848 -0.0384
 6704SOL    HW131574   0.734   0.959   0.794 -0.2385  0.7214 -3.6357
 6704SOL    HW231575   0.670   1.083   0.862 -1.2454  0.6027  0.6585
 6705SOL     OW31576   4.399   4.672  13.568  0.3941  0.4996 -0.4483
 6705SOL    HW131577   4.405   4.614  13.644 -3.0842  1.3126  0.4185
 6705SOL    HW231578   4.310   4.666  13.535  0.4007 -1.8535 -0.0274
 6706SOL     OW31579   1.379   4.285   8.922 -0.2345  0.1359 -0.5322
 6706SOL    HW131580   1.325   4.245   8.854 -0.4303  0.7455 -0.7342
 6706SOL    HW231581   1.314   4.326   8.978 -0.5550 -0.1555 -0.6938
 6707SOL     OW31582   2.792   3.659   7.842 -0.1296 -0.2721 -0.1169
 6707SOL    HW131583   2.807   3.572   7.880  2.0098  0.3551  0.4783
 6707SOL    HW231584   2.700   3.671   7.865 -0.0584 -1.3832  0.7271
 6708SOL     OW31585   1.415   3.428   3.138  0.7623 -0.1941 -0.0278
 6708SOL    HW131586   1.325   3.396   3.126  0.0664  0.6038  2.9468
 6708SOL    HW231587   1.417   3.489   3.064 -2.0398 -1.1728 -0.9311
 6709SOL     OW31588   0.456   2.845   4.972  0.7457 -0.5812 -0.0738
 6709SOL    HW131589   0.497   2.772   4.924  1.0623 -1.5813  1.7158
 6709SOL    HW231590   0.534   2.864   5.024 -0.2490 -2.3471  2.0706
 6710SOL     OW31591   4.405   1.962   6.010  0.2333 -0.1106 -0.2786
 6710SOL    HW131592   4.376   2.039   6.059  2.9328  0.5344  0.2893
 6710SOL    HW231593   4.434   2.000   5.927 -0.0181  0.6809 -0.0092
 6711SOL     OW31594   4.408   3.337   6.841 -0.6403  0.0234  0.0805
 6711SOL    HW131595   4.367   3.378   6.765 -3.3018 -1.0643  0.9300
 6711SOL    HW231596   4.330   3.299   6.881  0.3168 -1.9144  0.0648
 6712SOL     OW31597   3.587   4.548  14.122 -0.0266  0.0171  0.5398
 6712SOL    HW131598   3.643   4.473  14.104 -0.0555  0.1190  0.0198
 6712SOL    HW231599   3.654   4.616  14.125 -0.0153  0.0171  0.3052
 6713SOL     OW31600   3.520   2.015   1.410  0.1912  0.0810 -0.7727
 6713SOL    HW131601   3.519   2.054   1.497 -1.7637 -1.9858  0.1408
 6713SOL    HW231602   3.551   1.927   1.431  0.7737  0.9825  2.0237
 6714SOL     OW31603   4.088   4.059   4.529  0.3767 -0.2413 -0.0378
 6714SOL    HW131604   4.091   4.049   4.434 -1.5101  2.5647 -0.3791
 6714SOL    HW231605   3.995   4.074   4.543  0.6510  0.5583  0.9548
 6715SOL     OW31606   1.257   1.525   1.044 -0.3441  0.1669  0.0659
 6715SOL    HW131607   1.209   1.446   1.068  0.8816 -0.7275 -0.4521
 6715SOL    HW231608   1.286   1.560   1.128  0.9354 -1.3240  0.2390
 6716SOL     OW31609   2.175   1.085   1.984  0.4606  0.2932  0.0304
 6716SOL    HW131610   2.193   1.117   2.072 -1.0067  2.7390 -0.5618
 6716SOL    HW231611   2.194   1.155   1.922 -3.3465  1.4799  0.1584
 6717SOL     OW31612   4.062   4.031   4.859  0.1527 -0.2008 -0.5324
 6717SOL    HW131613   4.105   4.108   4.896 -1.0786  0.3378 -0.2395
 6717SOL    HW231614   3.971   4.057   4.869  0.1451 -0.5812  0.4145
 6718SOL     OW31615   1.372   0.876   2.079 -0.4873  0.5411 -0.0975
 6718SOL    HW131616   1.315   0.952   2.088 -1.5866 -0.4013  0.9615
 6718SOL    HW231617   1.364   0.867   1.984 -0.6403 -0.1060 -0.0289
 6719SOL     OW31618   3.018   1.805   4.165  0.3495 -0.2878 -0.0902
 6719SOL    HW131619   2.985   1.820   4.254  1.9169 -1.7810  0.7387
 6719SOL    HW231620   3.085   1.873   4.160 -0.2513  0.3754  0.8736
 6720SOL     OW31621   2.131   0.995   6.541  0.7648  0.2817 -0.9396
 6720SOL    HW131622   2.150   1.084   6.510 -0.8916 -0.2660 -3.5893
 6720SOL    HW231623   2.042   0.978   6.508  0.7027  0.7127 -0.9894
 6721SOL     OW31624   4.205   1.691   8.763  0.0227  0.2398 -0.7884
 6721SOL    HW131625   4.139   1.646   8.710  1.0663 -0.5979 -1.3886
 6721SOL    HW231626   4.218   1.774   8.717 -0.6330 -0.3623 -2.0825
 6722SOL     OW31627   3.873   1.349  12.300 -0.1314  0.3918  0.0145
 6722SOL    HW131628   3.801   1.411  12.304 -0.7813 -0.4843  1.7548
 6722SOL    HW231629   3.924   1.386  12.227 -1.9025  0.1055 -1.3652
 6723SOL     OW31630   3.543   3.378  11.395 -0.0822  0.0428 -0.3316
 6723SOL    HW131631   3.481   3.324  11.345 -0.8890 -0.7448  1.4886
 6723SOL    HW231632   3.595   3.403  11.319  0.6046  1.2089  0.5392
 6724SOL     OW31633   3.116   3.711  10.031  1.1194 -0.1896 -0.0936
 6724SOL    HW131634   3.119   3.673   9.943 -0.1385 -0.0633 -0.1902
 6724SOL    HW231635   3.145   3.631  10.076 -1.1207 -1.5435 -1.0671
 6725SOL     OW31636   2.837   0.763   6.117 -0.3805  0.0718  0.0796
 6725SOL    HW131637   2.883   0.838   6.077 -1.5831 -0.0066 -1.4470
 6725SOL    HW231638   2.863   0.776   6.208  1.9979 -0.3195 -0.5365
 6726SOL     OW31639   2.822   0.376   1.648  0.2081  0.0571 -0.1373
 6726SOL    HW131640   2.759   0.310   1.618  0.1025 -0.1011  0.4310
 6726SOL    HW231641   2.764   0.425   1.706 -0.1462  0.9363 -1.2368
 6727SOL     OW31642   3.748   1.550   6.613 -0.5237  0.1019 -0.5401
 6727SOL    HW131643   3.722   1.563   6.521 -0.4485  0.4673 -0.5100
 6727SOL    HW231644   3.791   1.465   6.603  0.2053  0.3822  0.2526
 6728SOL     OW31645   1.159   0.327  13.276 -0.1787 -0.1854  0.3587
 6728SOL    HW131646   1.147   0.395  13.342 -1.3456 -0.6562  0.6238
 6728SOL    HW231647   1.164   0.249  13.332  1.4486  0.7909  1.5749
 6729SOL     OW31648   1.138   3.590   7.987  0.0839 -0.3308 -0.5783
 6729SOL    HW131649   1.198   3.612   8.058  0.9883 -2.4576 -0.7128
 6729SOL    HW231650   1.191   3.526   7.940  1.5114  0.6789 -0.3477
 6730SOL     OW31651   2.826   0.290   6.894 -0.5537  0.2565 -0.1983
 6730SOL    HW131652   2.879   0.215   6.921  0.2116  0.9539  0.2211
 6730SOL    HW231653   2.847   0.283   6.801  2.5604 -0.4724  0.5397
 6731SOL     OW31654   4.045   0.078   2.328 -0.4008 -0.6667 -0.1398
 6731SOL    HW131655   4.015   4.713   2.338 -0.7810 -0.7572 -2.1796
 6731SOL    HW231656   4.067   0.091   2.420  0.4080 -1.9740 -0.1486
 6732SOL     OW31657   3.992   3.387   6.058  0.4169  0.2707 -0.5495
 6732SOL    HW131658   3.933   3.423   6.124  1.1656  2.6916 -1.1713
 6732SOL    HW231659   4.024   3.466   6.013 -0.0102 -0.5558 -2.3139
 6733SOL     OW31660   1.801   2.823   2.023 -0.3294  0.6793  0.1163
 6733SOL    HW131661   1.781   2.911   1.990  1.5490  1.5404  1.2728
 6733SOL    HW231662   1.716   2.783   2.005  0.3934 -1.1761  0.8879
 6734SOL     OW31663   1.079   0.288   4.921  0.1995 -0.0313 -0.5394
 6734SOL    HW131664   1.041   0.373   4.900  2.7223  0.3734 -3.3842
 6734SOL    HW231665   1.105   0.262   4.833  0.5233  2.3121 -1.1507
 6735SOL     OW31666   0.839   3.771   1.013  0.3848  0.0454 -0.0658
 6735SOL    HW131667   0.818   3.865   1.006  1.9548  0.3282 -0.9820
 6735SOL    HW231668   0.883   3.753   0.930  1.5003 -0.2162  0.5873
 6736SOL     OW31669   4.619   2.048   9.402 -0.2799  0.4139  0.3329
 6736SOL    HW131670   4.524   2.047   9.389 -0.2652 -1.1638  0.3573
 6736SOL    HW231671   4.644   1.970   9.451  0.2614 -0.6151 -1.6035
 6737SOL     OW31672   4.695   2.493  15.250 -0.1902 -0.2350 -0.2446
 6737SOL    HW131673   4.626   2.429  15.268  0.4416 -0.9098 -0.2231
 6737SOL    HW231674   4.717   2.521  15.339  1.9647  0.5194 -1.0247
 6738SOL     OW31675   3.752   2.708   1.420  0.0051  0.0627 -0.3732
 6738SOL    HW131676   3.762   2.739   1.330 -3.2425 -0.3055 -0.8548
 6738SOL    HW231677   3.758   2.613   1.408 -0.8920  0.1682 -1.6279
 6739SOL     OW31678   2.124   3.395  16.766  0.0236  0.3051 -0.5831
 6739SOL    HW131679   2.142   3.425  16.855  0.3194 -1.7384  0.0540
 6739SOL    HW231680   2.041   3.350  16.778  0.2179 -0.2828 -1.4272
 6740SOL     OW31681   3.940   2.022   1.795 -0.1181  0.0674 -0.4081
 6740SOL    HW131682   3.851   2.021   1.758 -0.7632  1.3008  1.0995
 6740SOL    HW231683   3.952   1.927   1.794 -0.9447 -0.0533  1.0275
 6741SOL     OW31684   4.460   0.783   1.428  0.2603  0.2424 -0.1182
 6741SOL    HW131685   4.379   0.814   1.388  0.8332  0.9303 -0.7358
 6741SOL    HW231686   4.415   0.720   1.485 -1.8405  3.4828  1.8378
 6742SOL     OW31687   2.803   3.108   0.544  0.2063  0.4973  0.3524
 6742SOL    HW131688   2.819   3.192   0.588  0.6168  0.5157  0.1639
 6742SOL    HW231689   2.794   3.142   0.455 -0.2263 -1.0631 -0.1817
 6743SOL     OW31690   1.097   1.982   2.661  0.5166 -0.3903 -0.4431
 6743SOL    HW131691   1.163   1.938   2.608 -0.1338 -0.5761 -1.1128
 6743SOL    HW231692   1.122   1.949   2.747 -0.8611 -2.5906 -0.8743
 6744SOL     OW31693   1.357   1.613   7.478 -0.2546  0.1346  0.1437
 6744SOL    HW131694   1.282   1.671   7.464 -1.2631 -1.3089 -0.4495
 6744SOL    HW231695   1.318   1.528   7.496 -2.3529  0.8113 -1.1900
 6745SOL     OW31696   3.928   1.491   2.227 -0.0039  0.0450  0.0176
 6745SOL    HW131697   3.944   1.569   2.174  0.1956  0.2048  0.3166
 6745SOL    HW231698   3.930   1.419   2.164 -0.1852  1.5019 -1.6835
 6746SOL     OW31699   1.130   1.461   9.867 -0.6664 -0.3990  0.5220
 6746SOL    HW131700   1.192   1.392   9.886  0.9725  0.7652 -0.6275
 6746SOL    HW231701   1.112   1.510   9.948 -0.7021 -0.9977  0.8745
 6747SOL     OW31702   1.116   3.108   8.157  0.2982 -0.2158 -0.2048
 6747SOL    HW131703   1.134   3.047   8.085  0.9684 -1.9893  1.4854
 6747SOL    HW231704   1.026   3.137   8.141  0.7866  0.1126 -2.3659
 6748SOL     OW31705   1.953   1.822  16.850 -0.8179  0.3897  0.7268
 6748SOL    HW131706   1.937   1.916  16.852  1.0128  0.7202 -0.8039
 6748SOL    HW231707   1.905   1.803  16.769  4.4652 -2.9056 -1.6437
 6749SOL     OW31708   3.025   1.120   3.733 -0.6899 -0.3415 -0.1896
 6749SOL    HW131709   3.028   1.042   3.788  0.6430 -0.6453 -0.6998
 6749SOL    HW231710   3.101   1.168   3.766 -0.1486 -2.0771  1.0967
 6750SOL     OW31711   3.525   3.954  14.216  0.6521  0.1094  0.3761
 6750SOL    HW131712   3.619   3.951  14.201  0.7766 -1.2379  1.4121
 6750SOL    HW231713   3.518   4.049  14.218  2.2813  0.2609 -1.0505
 6751SOL     OW31714   1.212   2.347   1.844 -0.3616  0.2280  0.4772
 6751SOL    HW131715   1.171   2.433   1.848  0.6926  0.7338  0.3370
 6751SOL    HW231716   1.153   2.298   1.901 -0.1649 -1.2885 -0.6128
 6752SOL     OW31717   0.369   0.564  12.855  0.2088 -0.5670 -0.3466
 6752SOL    HW131718   0.393   0.645  12.900  0.3009  0.4240 -2.1661
 6752SOL    HW231719   0.441   0.513  12.890  1.9464  2.2062  0.1171
 6753SOL     OW31720   2.576   3.680   7.402  0.1858 -0.5486  0.2428
 6753SOL    HW131721   2.487   3.669   7.369 -0.6289 -1.3170  2.6788
 6753SOL    HW231722   2.565   3.747   7.469 -0.8565  0.0839 -0.5746
 6754SOL     OW31723   3.693   0.947   5.268  0.1921  0.2036 -0.3139
 6754SOL    HW131724   3.688   0.896   5.349 -1.0153  1.2709  0.2798
 6754SOL    HW231725   3.737   1.024   5.305  0.4316 -0.4899  0.8625
 6755SOL     OW31726   3.051   4.286   8.500 -0.3006 -0.5263  0.3631
 6755SOL    HW131727   3.095   4.364   8.467 -2.7451  0.4255 -0.7125
 6755SOL    HW231728   3.065   4.231   8.423  1.6052  1.1372 -0.4814
 6756SOL     OW31729   1.510   3.879   9.738  0.4763 -0.5560  0.1589
 6756SOL    HW131730   1.555   3.954   9.777 -3.1536 -0.0917  3.4456
 6756SOL    HW231731   1.577   3.810   9.747 -0.0536 -1.1127 -0.1949
 6757SOL     OW31732   1.072   4.415  12.667  0.6478 -0.3065  0.2025
 6757SOL    HW131733   0.982   4.437  12.646  0.9275  0.5032 -0.1685
 6757SOL    HW231734   1.110   4.492  12.626 -2.4835  2.0749  1.7636
 6758SOL     OW31735   1.343   0.624   8.192  0.9275 -0.3800 -0.2616
 6758SOL    HW131736   1.435   0.646   8.206  0.8183 -0.0624 -0.0362
 6758SOL    HW231737   1.331   0.569   8.269  0.2675 -1.1407 -0.9039
 6759SOL     OW31738   2.078   0.354   2.923 -0.1183  0.2087 -0.2611
 6759SOL    HW131739   2.135   0.306   2.982  0.8846  1.4527 -0.2055
 6759SOL    HW231740   2.021   0.289   2.882  0.5000  1.5081 -3.2393
 6760SOL     OW31741   4.652   2.993   3.845 -0.3245  0.3922  0.2052
 6760SOL    HW131742   4.668   2.940   3.923  0.1175 -0.4082 -0.4298
 6760SOL    HW231743   4.560   3.015   3.861 -1.6168 -3.2924 -2.1243
 6761SOL     OW31744   3.651   1.335  17.481 -0.2878 -0.0034 -0.4829
 6761SOL    HW131745   3.745   1.349  17.473 -0.3399 -0.3365 -1.7016
 6761SOL    HW231746   3.641   1.322  17.576 -0.7625 -0.8734 -0.6500
 6762SOL     OW31747   3.739   2.997   8.508  0.2109  0.1869  0.2861
 6762SOL    HW131748   3.816   2.980   8.454  0.1918 -0.9154  0.6009
 6762SOL    HW231749   3.708   3.086   8.492 -1.3161 -0.3390  0.2575
 6763SOL     OW31750   2.172   2.084   6.397  0.0088 -0.1597  0.6170
 6763SOL    HW131751   2.188   2.155   6.459 -1.1804 -1.5897  2.5652
 6763SOL    HW231752   2.096   2.040   6.434  0.2735 -0.7809  0.4334
 6764SOL     OW31753   0.034   1.973  13.604  0.3456  0.2643 -0.3004
 6764SOL    HW131754   0.003   1.912  13.537  0.0424  0.3919 -0.2773
 6764SOL    HW231755   4.699   2.047  13.596 -0.7792 -0.5167  1.0449
 6765SOL     OW31756   1.383   2.300   4.043 -0.1297 -0.1539  0.8705
 6765SOL    HW131757   1.438   2.337   3.974  1.0720 -1.6243  1.0478
 6765SOL    HW231758   1.325   2.377   4.047  0.1958  0.0840  1.0419
 6766SOL     OW31759   1.404   2.969   5.667  0.3575  0.4792  0.4305
 6766SOL    HW131760   1.427   2.967   5.574  2.1633 -1.8761  0.9319
 6766SOL    HW231761   1.309   2.972   5.664  0.5079  3.1965 -2.4538
 6767SOL     OW31762   1.971   2.860   1.328 -0.0141  0.0871 -0.6948
 6767SOL    HW131763   2.046   2.804   1.308  0.5908  0.3774  0.7741
 6767SOL    HW231764   1.988   2.910   1.248  1.4829  2.1663  0.9126
 6768SOL     OW31765   1.101   1.281   6.234  0.4065 -0.2964 -0.1042
 6768SOL    HW131766   1.094   1.187   6.244 -0.4092 -0.1560  0.6058
 6768SOL    HW231767   1.012   1.313   6.247  1.0645  1.5135 -0.0218
 6769SOL     OW31768   4.339   2.143   9.787 -0.5516  0.7077  0.3135
 6769SOL    HW131769   4.289   2.224   9.783 -0.4750  0.6796 -1.2388
 6769SOL    HW231770   4.349   2.133   9.692 -0.2040  0.1951  0.4030
 6770SOL     OW31771   1.424   3.684   8.734  0.3639  0.3837 -0.6180
 6770SOL    HW131772   1.393   3.602   8.773  0.4432  0.7487  0.2212
 6770SOL    HW231773   1.341   3.730   8.736  0.3435  0.2890  1.0172
 6771SOL     OW31774   0.832   4.657   8.804 -0.0604  0.2520  0.2159
 6771SOL    HW131775   0.859   4.685   8.716 -1.3760  1.1067  0.0849
 6771SOL    HW231776   0.912   4.655   8.855 -0.3053  0.2822  0.5974
 6772SOL     OW31777   4.313   4.411  13.488 -0.0377 -0.8884 -0.3987
 6772SOL    HW131778   4.389   4.438  13.436 -0.0254  0.8269  0.5175
 6772SOL    HW231779   4.358   4.410  13.573 -2.1263 -0.1240  0.7015
 6773SOL     OW31780   1.059   1.843  15.459 -0.3482  0.1184 -0.1264
 6773SOL    HW131781   0.980   1.882  15.497  0.5923  0.7106  1.2121
 6773SOL    HW231782   1.035   1.750  15.459  0.6352 -0.1359 -0.6822
 6774SOL     OW31783   4.112   1.594   4.519  0.2497 -0.6551 -0.3841
 6774SOL    HW131784   4.113   1.684   4.487  0.7928 -0.4312  0.2565
 6774SOL    HW231785   4.139   1.613   4.609 -1.5453  0.6805 -0.1358
 6775SOL     OW31786   3.580   2.096   5.079 -0.2014 -0.2674  0.0396
 6775SOL    HW131787   3.552   2.010   5.108  1.1319  0.1551  2.6400
 6775SOL    HW231788   3.527   2.107   5.000  1.2064 -0.9605 -1.0053
 6776SOL     OW31789   4.387   3.936   7.293 -0.0261  0.1520  0.5835
 6776SOL    HW131790   4.461   3.876   7.278 -0.4816 -0.2210 -0.1773
 6776SOL    HW231791   4.312   3.899   7.247  1.0724 -2.3143  0.7865
 6777SOL     OW31792   2.080   1.149   8.977 -0.6343  1.0555 -0.1547
 6777SOL    HW131793   2.162   1.156   9.026  0.6691 -0.4175 -2.1066
 6777SOL    HW231794   2.030   1.119   9.053  0.6519  3.4291  1.6325
 6778SOL     OW31795   4.076   3.250  10.969  0.1204  0.3210 -0.0334
 6778SOL    HW131796   4.033   3.202  10.899 -1.1924  0.2008  0.8431
 6778SOL    HW231797   4.007   3.316  10.978  1.5933  1.7321  1.0798
 6779SOL     OW31798   1.991   1.088   7.299  0.2485 -0.2481  0.1481
 6779SOL    HW131799   2.073   1.094   7.346 -0.7936 -1.7712  2.1549
 6779SOL    HW231800   1.990   1.001   7.260 -0.2812 -0.6070  0.9669
 6780SOL     OW31801   0.305   3.086   0.408  0.3302 -0.2095  0.0158
 6780SOL    HW131802   0.212   3.105   0.400 -0.0005 -1.1547  1.5496
 6780SOL    HW231803   0.320   3.055   0.498  1.3005  2.5675  0.8028
 6781SOL     OW31804   0.990   3.506   6.119  0.3367 -0.0344 -0.2749
 6781SOL    HW131805   1.081   3.510   6.149  0.8857  0.9550 -2.0814
 6781SOL    HW231806   0.986   3.424   6.069 -1.2490  1.9113 -3.3339
 6782SOL     OW31807   1.368   3.952   5.889 -0.3132 -0.4037 -0.2991
 6782SOL    HW131808   1.312   3.876   5.902 -0.4553 -0.1799  0.4210
 6782SOL    HW231809   1.440   3.938   5.951 -0.3741 -1.3976 -0.4681
 6783SOL     OW31810   1.536   3.052  15.201 -0.9217 -0.3743 -0.1821
 6783SOL    HW131811   1.540   3.048  15.106  0.4067  0.5415 -0.1634
 6783SOL    HW231812   1.531   3.146  15.219 -0.1135 -0.3174 -0.2822
 6784SOL     OW31813   0.875   2.799  10.601 -0.3435  0.4458  0.9256
 6784SOL    HW131814   0.968   2.815  10.586  0.5440 -3.8706  1.8666
 6784SOL    HW231815   0.839   2.883  10.573  1.3413  0.4667 -1.1084
 6785SOL     OW31816   0.100   3.055   6.572 -0.5486 -0.3941  0.6669
 6785SOL    HW131817   0.006   3.040   6.587 -1.4039  1.3804 -2.7815
 6785SOL    HW231818   0.130   2.987   6.632  1.0675  1.7900  2.3179
 6786SOL     OW31819   1.914   2.984   1.075 -0.8517 -0.6062 -0.0588
 6786SOL    HW131820   1.827   2.950   1.056 -1.4653  1.7473 -1.4185
 6786SOL    HW231821   1.948   2.974   0.986 -1.8793 -0.4726 -0.4650
 6787SOL     OW31822   2.392   0.420   7.373  0.3523 -0.4957  0.2478
 6787SOL    HW131823   2.442   0.345   7.402  0.9561  0.0155  0.5330
 6787SOL    HW231824   2.313   0.383   7.334  0.4129 -1.2126  0.8166
 6788SOL     OW31825   2.964   4.172  16.398  0.3495  0.5605  0.2855
 6788SOL    HW131826   2.944   4.084  16.366  3.0828 -0.7418  2.1870
 6788SOL    HW231827   2.960   4.224  16.318 -2.0526 -0.0776 -0.0130
 6789SOL     OW31828   2.909   1.769   1.919 -0.0070 -0.2685  0.4725
 6789SOL    HW131829   2.856   1.691   1.935 -2.0149  1.0555  0.1928
 6789SOL    HW231830   2.943   1.757   1.830 -1.4054  0.8330 -0.2114
 6790SOL     OW31831   1.655   0.797   7.935  0.3235  0.0347  0.0907
 6790SOL    HW131832   1.740   0.831   7.966  0.9919 -0.2408 -1.4535
 6790SOL    HW231833   1.612   0.876   7.902 -0.7389 -1.8535 -3.0028
 6791SOL     OW31834   1.315   2.584   8.630 -0.3680 -0.2829  0.3388
 6791SOL    HW131835   1.400   2.584   8.672 -0.6588 -2.7473  0.8940
 6791SOL    HW231836   1.332   2.552   8.542 -0.0510  1.1321 -0.1163
 6792SOL     OW31837   3.424   4.498  12.582  0.2318 -0.1137  0.5589
 6792SOL    HW131838   3.501   4.551  12.562  0.9741 -0.6278  2.0862
 6792SOL    HW231839   3.412   4.463  12.494 -3.4140 -1.9187  1.7586
 6793SOL     OW31840   1.300   1.018  17.124 -0.6347  0.1585  0.1877
 6793SOL    HW131841   1.320   1.111  17.113 -1.4504  0.6050  2.4953
 6793SOL    HW231842   1.382   0.976  17.099 -2.1407 -2.4321 -0.4582
 6794SOL     OW31843   3.497   2.713   8.325  0.8926 -0.3434 -0.1739
 6794SOL    HW131844   3.440   2.644   8.358  1.4220 -0.4965  0.4250
 6794SOL    HW231845   3.585   2.688   8.355  1.1531  0.4385 -0.2878
 6795SOL     OW31846   3.145   2.505   6.465  0.1294  0.2968 -0.4626
 6795SOL    HW131847   3.161   2.505   6.559  3.1233 -0.3930 -0.9764
 6795SOL    HW231848   3.153   2.412   6.444 -1.9436 -0.1979  0.9302
 6796SOL     OW31849   0.882   3.154  11.528 -0.1943 -0.5993 -0.2493
 6796SOL    HW131850   0.868   3.248  11.543  4.1790  0.0231 -0.0619
 6796SOL    HW231851   0.794   3.122  11.545 -1.8629  3.4199 -1.1649
 6797SOL     OW31852   1.979   1.914   2.398  0.2340 -0.1295  0.7791
 6797SOL    HW131853   2.015   1.857   2.466  1.0144 -1.1456 -0.4878
 6797SOL    HW231854   2.053   1.950   2.349 -0.1568  0.0915  0.3438
 6798SOL     OW31855   4.049   4.406   0.388  0.1533  0.1055 -0.2884
 6798SOL    HW131856   4.127   4.391   0.335 -0.5474  0.4943 -1.4400
 6798SOL    HW231857   4.081   4.446   0.469 -0.7687 -3.5304  1.8550
 6799SOL     OW31858   0.167   1.739   4.105  0.5711 -0.2478 -0.2292
 6799SOL    HW131859   0.208   1.669   4.055  1.5394 -0.6896  1.1767
 6799SOL    HW231860   0.122   1.695   4.178 -0.3579  2.4610  0.8299
 6800SOL     OW31861   4.671   0.166   5.040  0.0448  0.4992 -0.1024
 6800SOL    HW131862   4.597   0.225   5.029 -0.7713 -0.8285 -1.7685
 6800SOL    HW231863   0.008   0.208   4.980 -0.7602  0.3049 -1.0659
 6801SOL     OW31864   0.022   1.778   4.558 -0.3622 -0.0529  0.0995
 6801SOL    HW131865   0.014   1.705   4.620  0.8380  1.0174  1.5079
 6801SOL    HW231866   0.104   1.817   4.587  0.0222 -1.9919  1.6396
 6802SOL     OW31867   0.726   1.888   7.330 -0.0270  0.5792  1.1214
 6802SOL    HW131868   0.727   1.846   7.416  0.2607 -0.7383  0.4652
 6802SOL    HW231869   0.715   1.981   7.350  1.0038  1.2458 -1.4337
 6803SOL     OW31870   1.326   2.470   7.627  0.1707 -0.0429 -0.1529
 6803SOL    HW131871   1.291   2.501   7.543  0.3866 -0.4655 -0.3990
 6803SOL    HW231872   1.408   2.435   7.591  0.5264 -0.6042  1.2214
 6804SOL     OW31873   1.825   0.314  10.401  0.7084  0.1776  0.0568
 6804SOL    HW131874   1.811   0.248  10.468  0.0210  3.0543  2.7256
 6804SOL    HW231875   1.736   0.334  10.372  1.0317  0.4056 -0.7996
 6805SOL     OW31876   1.509   3.845   2.268 -0.1410  0.3077 -0.3666
 6805SOL    HW131877   1.422   3.809   2.288  0.4132  0.0500  1.5170
 6805SOL    HW231878   1.569   3.783   2.309 -1.4943 -1.9036 -1.7253
 6806SOL     OW31879   0.104   0.950   8.956 -0.0426 -0.2374  0.4248
 6806SOL    HW131880   0.170   0.885   8.980 -0.2365  0.6024  3.1848
 6806SOL    HW231881   0.042   0.902   8.902  1.5559  0.6622 -2.2133
 6807SOL     OW31882   2.727   3.159   0.295 -0.2848  0.4723  0.1017
 6807SOL    HW131883   2.651   3.217   0.293 -0.2308  0.5174 -0.6255
 6807SOL    HW231884   2.766   3.170   0.209 -0.4101 -0.1038 -0.0315
 6808SOL     OW31885   2.486   2.756  10.908  0.2002 -0.1957  0.6880
 6808SOL    HW131886   2.533   2.737  10.827 -1.4427  3.1447 -1.0137
 6808SOL    HW231887   2.560   2.786  10.961 -0.5141 -2.0440  2.7451
 6809SOL     OW31888   3.451   0.983   5.090  0.3300 -0.1215 -0.7824
 6809SOL    HW131889   3.542   1.001   5.114 -0.3973  1.2664  0.9443
 6809SOL    HW231890   3.463   0.905   5.037  3.4166 -1.3928  1.7998
 6810SOL     OW31891   3.893   2.800   8.915 -0.6521 -0.1094 -0.6993
 6810SOL    HW131892   3.812   2.749   8.914 -2.7277  3.1925 -1.8003
 6810SOL    HW231893   3.955   2.753   8.971  0.5376  0.3164 -1.6552
 6811SOL     OW31894   4.107   2.379   5.334 -0.0815  0.5978  0.5709
 6811SOL    HW131895   4.071   2.437   5.401 -0.6195  2.0561 -0.9762
 6811SOL    HW231896   4.040   2.380   5.265  1.4078 -1.4939 -0.9180
 6812SOL     OW31897   3.355   3.014   3.995 -0.2662 -0.8864 -0.2317
 6812SOL    HW131898   3.371   2.944   3.932  0.1399 -1.2858  0.3154
 6812SOL    HW231899   3.432   3.013   4.052 -0.1879 -1.9466 -0.3610
 6813SOL     OW31900   2.743   0.228   1.068 -0.5389 -0.5818  0.7912
 6813SOL    HW131901   2.755   0.193   1.157 -0.1724  0.4732  1.1508
 6813SOL    HW231902   2.828   0.268   1.055 -1.8895  1.3192 -2.1650
 6814SOL     OW31903   3.316   3.137   4.327  0.4918  0.4496  0.7930
 6814SOL    HW131904   3.269   3.125   4.245  1.1827 -1.1831  0.6514
 6814SOL    HW231905   3.369   3.059   4.310 -1.7563 -1.5023  2.7815
 6815SOL     OW31906   4.711   0.254   2.886 -0.1556  0.1996 -0.4787
 6815SOL    HW131907   4.632   0.308   2.898 -0.2793  0.3186 -1.8284
 6815SOL    HW231908   4.683   0.193   2.818  0.0468 -0.0313 -0.3559
 6816SOL     OW31909   3.787   1.614   4.565 -0.2383  0.6417  0.1005
 6816SOL    HW131910   3.773   1.689   4.507 -4.7534 -1.4368 -1.5475
 6816SOL    HW231911   3.872   1.580   4.537 -0.3206 -1.0912  1.9658
 6817SOL     OW31912   3.263   3.744   7.170 -0.2514  0.1633 -0.0237
 6817SOL    HW131913   3.214   3.825   7.157 -0.0731 -0.1079 -2.3802
 6817SOL    HW231914   3.333   3.764   7.107 -2.4021  1.0866 -2.1410
 6818SOL     OW31915   1.441   4.581  15.877 -0.4060  0.1209 -0.0262
 6818SOL    HW131916   1.429   4.571  15.972 -3.8793 -1.5167 -0.6556
 6818SOL    HW231917   1.348   4.590  15.860 -0.2539  2.0646  0.1707
 6819SOL     OW31918   2.790   3.468   0.436  0.3811 -0.0692  0.0927
 6819SOL    HW131919   2.834   3.450   0.353  0.1982 -1.4430  0.2976
 6819SOL    HW231920   2.824   3.556   0.447 -0.1960  0.1703 -0.0117
 6820SOL     OW31921   1.678   2.743   4.338 -0.9553  0.2297  0.2721
 6820SOL    HW131922   1.589   2.740   4.302 -0.9437 -1.3722  0.3757
 6820SOL    HW231923   1.721   2.760   4.254  2.1361 -1.0380  1.5783
 6821SOL     OW31924   1.702   1.502  16.164  0.1538  0.2276  0.1515
 6821SOL    HW131925   1.657   1.427  16.123  0.4673 -0.8490  1.7523
 6821SOL    HW231926   1.776   1.455  16.203 -0.2746 -0.9454 -0.4494
 6822SOL     OW31927   4.225   0.830  16.819  0.3529  0.1324  0.3235
 6822SOL    HW131928   4.304   0.863  16.776  0.6564 -1.2986 -0.2007
 6822SOL    HW231929   4.188   0.913  16.850 -0.5660 -0.2988  0.3924
 6823SOL     OW31930   2.818   3.338   0.688 -0.0545  0.2616  0.3610
 6823SOL    HW131931   2.823   3.390   0.607  0.0603  0.8408  0.7372
 6823SOL    HW231932   2.798   3.407   0.751 -0.2379 -0.7244  1.3818
 6824SOL     OW31933   1.544   4.143   4.902 -0.3192 -1.0616 -0.1115
 6824SOL    HW131934   1.472   4.205   4.917 -1.1593 -1.9723 -0.4266
 6824SOL    HW231935   1.556   4.106   4.990 -1.1592 -1.7648 -0.2883
 6825SOL     OW31936   4.386   4.061   2.587 -0.3508 -0.0147  0.2280
 6825SOL    HW131937   4.330   4.078   2.512 -1.3120 -0.8420  0.7627
 6825SOL    HW231938   4.454   4.124   2.562 -0.7932  0.9587  1.4770
 6826SOL     OW31939   1.577   0.678   3.499 -0.1596  0.6922  0.7259
 6826SOL    HW131940   1.562   0.665   3.406 -1.4751  3.8229  0.5119
 6826SOL    HW231941   1.587   0.588   3.530 -0.7935  0.5144  0.3972
 6827SOL     OW31942   1.546   0.292   7.274  0.2300 -0.2471  0.1466
 6827SOL    HW131943   1.489   0.263   7.345  1.0361 -2.1580  0.0163
 6827SOL    HW231944   1.594   0.361   7.320  2.3422 -1.4883 -0.1800
 6828SOL     OW31945   3.326   1.510   5.680 -0.0503  0.0169 -0.0503
 6828SOL    HW131946   3.326   1.597   5.720  1.2744 -0.2281  0.5229
 6828SOL    HW231947   3.406   1.470   5.715 -0.8792 -1.5002  0.0924
 6829SOL     OW31948   1.519   4.039   3.251  0.5837 -0.3097  0.0807
 6829SOL    HW131949   1.468   4.072   3.325 -0.6273 -2.0149 -0.0071
 6829SOL    HW231950   1.454   3.976   3.220  0.4694 -0.3643  0.4331
 6830SOL     OW31951   4.007   0.311   6.405 -0.2041  0.0222 -0.0643
 6830SOL    HW131952   3.976   0.223   6.425 -1.6535  0.5492  0.0298
 6830SOL    HW231953   3.923   0.358   6.403  0.1079  0.5525 -0.9017
 6831SOL     OW31954   1.994   4.390   1.024  0.3018  0.1406  0.2348
 6831SOL    HW131955   1.930   4.431   1.082  1.3009  2.5847 -0.4152
 6831SOL    HW231956   2.065   4.453   1.034 -0.3756  0.9001  0.2245
 6832SOL     OW31957   3.244   1.449   2.128 -0.3104  0.7237 -0.2424
 6832SOL    HW131958   3.222   1.359   2.105  1.9585 -0.6426  2.9351
 6832SOL    HW231959   3.286   1.482   2.048 -0.0630  0.5625 -0.1788
 6833SOL     OW31960   3.793   3.464   9.386 -0.0007 -0.2218 -0.7960
 6833SOL    HW131961   3.739   3.488   9.461 -0.1907 -0.1188 -0.9662
 6833SOL    HW231962   3.838   3.388   9.423  2.2661  0.8539 -1.3323
 6834SOL     OW31963   1.323   3.449   8.841 -0.2868  0.5821 -0.1302
 6834SOL    HW131964   1.229   3.456   8.860 -0.5583 -0.3710 -1.1241
 6834SOL    HW231965   1.326   3.395   8.762 -1.1672  0.9636 -0.4286
 6835SOL     OW31966   1.196   3.426   6.392  0.1124 -0.4290 -0.5127
 6835SOL    HW131967   1.213   3.425   6.297  0.0496 -1.1381 -0.5155
 6835SOL    HW231968   1.222   3.517   6.405  1.1543 -1.0222  1.4212
 6836SOL     OW31969   2.334   4.483  10.606  0.7870 -0.5023 -0.3168
 6836SOL    HW131970   2.274   4.471  10.680 -1.0058 -0.1633 -1.7295
 6836SOL    HW231971   2.401   4.418  10.628  1.2334  1.2898  3.5939
 6837SOL     OW31972   3.673   1.772   5.303 -0.4277  0.0531  0.2534
 6837SOL    HW131973   3.717   1.694   5.335  0.3653 -0.2553 -1.5786
 6837SOL    HW231974   3.693   1.837   5.370 -2.7243 -1.1163  2.0969
 6838SOL     OW31975   4.118   0.790   0.611  0.4348  0.0647 -0.0900
 6838SOL    HW131976   4.082   0.867   0.657 -2.7237 -1.6155  0.2174
 6838SOL    HW231977   4.150   0.736   0.683 -2.6239 -0.3423  0.9900
 6839SOL     OW31978   2.409   4.155   3.247 -0.9851 -0.2978  0.0902
 6839SOL    HW131979   2.341   4.111   3.195  0.5083 -0.4536 -1.7471
 6839SOL    HW231980   2.466   4.085   3.277 -0.8464  0.1143  0.7887
 6840SOL     OW31981   1.130   1.344  15.520 -0.1254  0.1378 -0.6430
 6840SOL    HW131982   1.144   1.423  15.573 -0.6346 -0.6089  0.6152
 6840SOL    HW231983   1.035   1.355  15.521 -0.0411  0.7685  0.5156
 6841SOL     OW31984   4.325   2.004   1.952 -0.3769 -0.2027 -0.3949
 6841SOL    HW131985   4.275   2.062   2.010 -0.0295 -2.9731  2.6549
 6841SOL    HW231986   4.286   2.052   1.879 -0.2869 -0.0369 -0.3338
 6842SOL     OW31987   0.465   0.084   5.700 -0.2367 -0.0560  0.3537
 6842SOL    HW131988   0.400   0.144   5.663 -2.2163 -1.1973  2.0004
 6842SOL    HW231989   0.409   0.035   5.759  0.6798 -0.5152  0.8360
 6843SOL     OW31990   4.195   4.056   1.057 -0.4466  0.3406  0.1101
 6843SOL    HW131991   4.195   4.117   1.131  1.3538 -0.9140  1.1684
 6843SOL    HW231992   4.228   3.977   1.100  0.9570  1.9980  2.1160
 6844SOL     OW31993   2.908   0.385  12.774  0.3395  0.4521 -0.3070
 6844SOL    HW131994   2.917   0.359  12.866  1.8354  2.4878  0.1258
 6844SOL    HW231995   2.964   0.314  12.741 -0.9378 -1.0008  0.6560
 6845SOL     OW31996   3.957   3.537   8.577 -0.3720 -0.2302 -0.2566
 6845SOL    HW131997   4.035   3.515   8.628 -0.9926  1.2184  1.3248
 6845SOL    HW231998   3.895   3.468   8.600 -1.0463  0.4267 -0.1130
 6846SOL     OW31999   2.590   2.119  16.816  0.1086 -0.1068 -0.7202
 6846SOL    HW132000   2.502   2.081  16.815  1.1181 -2.4031 -2.3047
 6846SOL    HW232001   2.597   2.137  16.910  0.1869  0.0790 -0.7637
 6847SOL     OW32002   1.200   1.294   5.957 -0.0645  0.3137  0.0100
 6847SOL    HW132003   1.187   1.199   5.958 -2.1580  0.6008  0.3926
 6847SOL    HW232004   1.175   1.306   6.049 -1.4601  0.8849 -0.4405
 6848SOL     OW32005   0.574   3.459   5.701 -0.1015 -0.1171 -0.0609
 6848SOL    HW132006   0.588   3.382   5.756  0.0637  0.4237  0.6590
 6848SOL    HW232007   0.618   3.443   5.618  0.6373 -2.0468  0.7144
 6849SOL     OW32008   0.329   3.254  15.265  0.4289 -0.7610 -0.8761
 6849SOL    HW132009   0.254   3.293  15.220  0.4533  1.5531  1.0875
 6849SOL    HW232010   0.323   3.166  15.227 -2.1836 -1.8505  2.1336
 6850SOL     OW32011   1.015   1.183  13.732  0.4513  0.3064 -0.2213
 6850SOL    HW132012   1.076   1.240  13.778 -0.9407  0.6171  1.2506
 6850SOL    HW232013   0.944   1.242  13.707 -0.3221 -0.2172  0.7312
 6851SOL     OW32014   3.982   2.603  10.438 -0.2611 -0.1500 -0.1187
 6851SOL    HW132015   4.068   2.613  10.479 -0.9392 -0.6643  1.4596
 6851SOL    HW232016   3.930   2.582  10.516 -0.9884 -1.1911 -0.9006
 6852SOL     OW32017   2.127   2.537   5.383  0.0186  0.0736 -0.4680
 6852SOL    HW132018   2.115   2.556   5.290  1.0682  2.1001 -0.1842
 6852SOL    HW232019   2.038   2.513   5.409  0.0743 -0.2506 -0.5684
 6853SOL     OW32020   3.378   0.493  15.195  0.1709  0.1654  0.3040
 6853SOL    HW132021   3.394   0.415  15.248  0.5886 -0.3871 -0.6172
 6853SOL    HW232022   3.327   0.453  15.124  1.1579 -0.3022 -0.1415
 6854SOL     OW32023   0.233   4.564  16.792 -0.2111  0.1812 -0.0437
 6854SOL    HW132024   0.326   4.545  16.808 -0.1030  1.8227  1.2361
 6854SOL    HW232025   0.186   4.483  16.812 -0.4782  0.3607  0.0557
 6855SOL     OW32026   3.077   2.942   2.541  0.4284  0.5684  0.1884
 6855SOL    HW132027   3.073   2.870   2.604  1.2897  0.0894 -0.3002
 6855SOL    HW232028   2.986   2.971   2.536 -0.1846 -1.3811  0.0602
 6856SOL     OW32029   1.035   0.297  17.592  0.2637 -0.1816 -0.4834
 6856SOL    HW132030   1.093   0.369  17.618  0.7089  0.6462 -3.8178
 6856SOL    HW232031   1.088   0.217  17.595  0.4720 -0.0286 -0.0534
 6857SOL     OW32032   3.706   1.118   4.810 -0.1501  0.0731 -0.0795
 6857SOL    HW132033   3.615   1.146   4.796 -0.1694 -0.9769 -2.1048
 6857SOL    HW232034   3.735   1.172   4.884  1.1835 -1.3429  0.4326
 6858SOL     OW32035   3.296   1.832   8.670 -0.2627 -0.5718  0.3009
 6858SOL    HW132036   3.292   1.762   8.604 -0.3640 -0.7226  0.4654
 6858SOL    HW232037   3.210   1.831   8.711 -0.1397  0.7045  0.5855
 6859SOL     OW32038   2.874   3.721  13.213  0.4279  0.3863  0.1623
 6859SOL    HW132039   2.825   3.800  13.235  0.1454  0.0063  0.9026
 6859SOL    HW232040   2.928   3.717  13.292  1.1112 -0.9278 -0.3844
 6860SOL     OW32041   3.029   4.171  16.818  0.3767  0.1479  0.5184
 6860SOL    HW132042   3.108   4.118  16.828 -1.1381 -2.0967  0.6447
 6860SOL    HW232043   3.051   4.222  16.739  1.2526 -0.5330  0.3150
 6861SOL     OW32044   4.272   4.312   4.362 -0.5318  0.3952 -0.0558
 6861SOL    HW132045   4.261   4.295   4.456 -0.4888 -1.6196 -0.4260
 6861SOL    HW232046   4.259   4.407   4.360 -2.5455  0.1222 -0.6571
 6862SOL     OW32047   1.278   1.331  11.690  0.2518  0.4312 -0.0740
 6862SOL    HW132048   1.304   1.326  11.598 -2.4412  3.0000 -0.9837
 6862SOL    HW232049   1.205   1.270  11.697  0.8086 -0.1747  0.3902
 6863SOL     OW32050   3.730   1.113   2.275 -0.2522 -0.0011  0.5499
 6863SOL    HW132051   3.741   1.130   2.181  0.3322  0.5605  0.7207
 6863SOL    HW232052   3.802   1.053   2.290 -1.0560 -1.1924 -0.3923
 6864SOL     OW32053   0.871   0.780  12.863  0.3763 -0.4046 -0.1078
 6864SOL    HW132054   0.796   0.739  12.820 -0.5559  0.1326  1.0069
 6864SOL    HW232055   0.907   0.835  12.793 -0.9016  0.1770 -0.3143
 6865SOL     OW32056   0.749   0.792   7.339  0.2736  0.0048  0.6228
 6865SOL    HW132057   0.711   0.719   7.290 -1.0797  1.4129 -0.4108
 6865SOL    HW232058   0.693   0.863   7.308 -2.5784 -2.0788  0.9601
 6866SOL     OW32059   1.165   0.975   5.770 -0.6617 -0.0327  0.3308
 6866SOL    HW132060   1.156   0.898   5.713 -0.6130 -0.1222  0.4421
 6866SOL    HW232061   1.152   1.046   5.708  0.2632 -0.4053 -0.2896
 6867SOL     OW32062   0.412   4.238   7.484 -0.3895  0.5699  0.8455
 6867SOL    HW132063   0.419   4.233   7.579  2.3665  0.9603  0.6896
 6867SOL    HW232064   0.503   4.224   7.455 -0.6250 -0.8871  0.8229
 6868SOL     OW32065   4.439   2.292  14.329  0.3784  0.8492 -0.0181
 6868SOL    HW132066   4.520   2.297  14.379  2.8373 -2.1663 -3.7464
 6868SOL    HW232067   4.385   2.249  14.395  2.0739  0.3297  1.0257
 6869SOL     OW32068   3.298   3.624   2.749  0.0595  0.6130 -0.2633
 6869SOL    HW132069   3.218   3.651   2.705 -0.6638 -3.6256 -1.5640
 6869SOL    HW232070   3.343   3.708   2.762  1.3836 -0.4826  2.1788
 6870SOL     OW32071   0.555   2.169   3.530  0.1468  0.1702  0.4003
 6870SOL    HW132072   0.599   2.100   3.481 -1.0812 -1.3028  1.3690
 6870SOL    HW232073   0.598   2.250   3.503 -0.9826  0.1855 -1.3462
 6871SOL     OW32074   4.697   4.038   8.632  0.0689  0.3445 -0.0350
 6871SOL    HW132075   4.708   4.131   8.614 -1.8063  0.2616 -1.5589
 6871SOL    HW232076   0.022   4.013   8.554  0.8688  2.7618 -0.3027
 6872SOL     OW32077   3.863   3.002  16.021 -0.0087 -0.0909 -0.1287
 6872SOL    HW132078   3.784   3.048  16.050 -0.6721 -0.6182 -1.0868
 6872SOL    HW232079   3.843   3.012  15.928  3.8964  1.6320 -0.7741
 6873SOL     OW32080   4.410   1.876   9.320  0.1217  0.1111  0.2079
 6873SOL    HW132081   4.498   1.848   9.345  0.3870 -0.6320 -1.5903
 6873SOL    HW232082   4.396   1.796   9.269  0.1161  0.5412 -0.4628
 6874SOL     OW32083   3.855   4.184   8.676  0.0209 -0.5955  0.2985
 6874SOL    HW132084   3.946   4.172   8.650  0.5494  1.0213  1.3859
 6874SOL    HW232085   3.854   4.275   8.707 -0.3227 -0.0723 -1.2690
 6875SOL     OW32086   1.336   1.745   8.604 -0.1047  0.3098 -0.4641
 6875SOL    HW132087   1.409   1.717   8.550 -0.5464 -0.3893 -0.6839
 6875SOL    HW232088   1.327   1.836   8.574 -1.2693 -0.1058 -1.3698
 6876SOL     OW32089   1.394   1.724  10.055 -0.3709 -0.6496  0.0740
 6876SOL    HW132090   1.486   1.724  10.080  0.2085 -1.7905 -2.1020
 6876SOL    HW232091   1.354   1.690  10.136  1.2180  0.3527  1.2807
 6877SOL     OW32092   0.747   0.529   0.543 -0.8782 -0.7661 -0.1992
 6877SOL    HW132093   0.842   0.525   0.530 -0.7207 -1.7955  1.3381
 6877SOL    HW232094   0.719   0.484   0.463 -1.3336  0.8610 -0.9749
 6878SOL     OW32095   1.727   3.634   4.123 -0.5820 -0.0944  0.5496
 6878SOL    HW132096   1.685   3.588   4.052 -0.8386 -0.2558  0.8065
 6878SOL    HW232097   1.727   3.721   4.083  0.4399  0.4262  1.6664
 6879SOL     OW32098   0.086   1.730  16.130 -0.5429 -0.0096 -0.1485
 6879SOL    HW132099   0.170   1.753  16.091  0.6526 -0.2236  2.3301
 6879SOL    HW232100   0.082   1.804  16.191 -0.2459  0.0858 -0.2433
 6880SOL     OW32101   3.738   4.334   4.107 -0.4109  0.2021 -0.1952
 6880SOL    HW132102   3.685   4.348   4.029  2.0954 -0.0507 -1.9500
 6880SOL    HW232103   3.808   4.286   4.062  0.2604 -1.4724  2.5988
 6881SOL     OW32104   2.078   0.246  10.519  0.1705  0.4092 -0.0795
 6881SOL    HW132105   2.084   0.242  10.423 -0.0205  0.6838 -0.1044
 6881SOL    HW232106   1.988   0.218  10.534 -0.3466  0.8932 -2.2730
 6882SOL     OW32107   2.996   3.270  14.777 -0.5432 -0.5429 -0.3188
 6882SOL    HW132108   3.021   3.246  14.867  0.2785  2.8411  0.3471
 6882SOL    HW232109   2.928   3.334  14.796 -0.2237 -0.5953  1.0753
 6883SOL     OW32110   3.373   3.839   8.983 -0.2889 -0.2864 -0.0456
 6883SOL    HW132111   3.425   3.864   9.059  0.5829 -0.4739 -0.5799
 6883SOL    HW232112   3.288   3.846   9.026 -0.5056 -0.9277 -0.3662
 6884SOL     OW32113   1.721   2.423   8.501 -0.5913  0.0641 -0.2075
 6884SOL    HW132114   1.704   2.329   8.510 -0.9049  0.0931 -0.5191
 6884SOL    HW232115   1.673   2.440   8.420  0.2936  0.3167 -0.6797
 6885SOL     OW32116   2.859   4.319   5.250  0.3800 -0.2098 -0.1567
 6885SOL    HW132117   2.950   4.311   5.279  0.0356 -1.3388  0.5816
 6885SOL    HW232118   2.880   4.391   5.190 -0.3425  0.1572  0.0367
 6886SOL     OW32119   2.652   4.626   1.130 -0.1610 -0.5089  0.1968
 6886SOL    HW132120   2.571   4.670   1.104 -1.0831 -0.6562  2.8233
 6886SOL    HW232121   2.701   4.702   1.158 -0.1538 -0.7002  0.7044
 6887SOL     OW32122   3.234   0.147   1.576 -0.1185  0.1525  0.2619
 6887SOL    HW132123   3.221   0.187   1.662  1.6325 -0.9968  1.0765
 6887SOL    HW232124   3.330   0.142   1.578 -0.3045 -1.6707  3.4124
 6888SOL     OW32125   2.514   0.675  16.058  0.3063  0.4679 -0.4232
 6888SOL    HW132126   2.489   0.764  16.084  1.5712  1.1547 -1.5471
 6888SOL    HW232127   2.429   0.632  16.069  0.8290 -0.3324  0.5329
 6889SOL     OW32128   1.342   3.556   5.895  0.0307  0.7156  0.0177
 6889SOL    HW132129   1.323   3.645   5.924 -2.2021  0.2100  0.1535
 6889SOL    HW232130   1.289   3.548   5.816 -1.4402  0.6030  0.9968
 6890SOL     OW32131   0.766   0.181  17.599 -0.0521 -0.2953  0.0743
 6890SOL    HW132132   0.850   0.220  17.574  0.3617 -0.7939  0.7024
 6890SOL    HW232133   0.790   0.097  17.637 -1.3698 -0.8282 -0.2680
 6891SOL     OW32134   3.570   3.437   0.336  0.0583 -0.3693  0.2552
 6891SOL    HW132135   3.554   3.531   0.344 -1.0099 -0.4559 -0.9080
 6891SOL    HW232136   3.658   3.435   0.376  0.5074  2.5239 -0.5929
 6892SOL     OW32137   1.819   0.536   0.388  0.3278 -0.0161  0.6125
 6892SOL    HW132138   1.773   0.546   0.305 -0.1931 -2.0343  0.6374
 6892SOL    HW232139   1.866   0.452   0.383  0.3754  0.0722 -0.3105
 6893SOL     OW32140   2.733   3.810  17.377  0.3566 -0.6082  0.0260
 6893SOL    HW132141   2.702   3.899  17.393  1.5126 -0.6843  2.7279
 6893SOL    HW232142   2.737   3.804  17.282 -2.1204 -1.8265 -0.0206
 6894SOL     OW32143   0.448   3.698  10.135 -0.4464 -0.0568 -0.0162
 6894SOL    HW132144   0.399   3.628  10.090 -0.5706  0.5102 -0.7573
 6894SOL    HW232145   0.530   3.652  10.152  0.8628  2.4519  0.4290
 6895SOL     OW32146   2.187   2.363  12.387  0.5307  0.1489  0.0036
 6895SOL    HW132147   2.232   2.400  12.310 -0.5754 -1.2474 -1.3238
 6895SOL    HW232148   2.175   2.434  12.450  1.5864 -0.8922  1.3847
 6896SOL     OW32149   3.737   1.619   2.413  0.6560  0.0199  0.3563
 6896SOL    HW132150   3.815   1.589   2.367 -1.0335 -1.4007 -1.6208
 6896SOL    HW232151   3.672   1.561   2.373  1.5889 -0.8863  0.1488
 6897SOL     OW32152   1.584   2.243   7.349  0.0305  0.2187 -0.5213
 6897SOL    HW132153   1.651   2.211   7.289 -1.4696 -0.7935 -1.6897
 6897SOL    HW232154   1.580   2.168   7.409  1.2165 -0.7488 -1.6491
 6898SOL     OW32155   0.102   3.087   3.418  0.3527  0.9523 -0.1648
 6898SOL    HW132156   0.048   3.021   3.373  0.8029  0.8091 -0.4983
 6898SOL    HW232157   0.186   3.046   3.399  0.6355  2.7717 -2.8641
 6899SOL     OW32158   1.418   0.746   2.988  0.0782 -0.4271  0.1794
 6899SOL    HW132159   1.333   0.703   2.976  0.0938 -0.0289 -1.3788
 6899SOL    HW232160   1.397   0.838   2.975  1.1086 -0.2858 -0.4552
 6900SOL     OW32161   2.112   0.445  10.242  0.1870 -0.0128  0.3994
 6900SOL    HW132162   2.107   0.504  10.167 -0.2156 -1.7804 -0.9803
 6900SOL    HW232163   2.144   0.362  10.205  2.4362 -0.0843  2.5477
 6901SOL     OW32164   0.964   4.447  10.882 -0.1763  0.2267  0.5438
 6901SOL    HW132165   0.925   4.361  10.897 -0.4047  0.2163 -0.1525
 6901SOL    HW232166   0.890   4.504  10.864  0.4301  0.5554 -0.8950
 6902SOL     OW32167   3.341   4.114  13.509 -0.1560 -0.9956  0.3146
 6902SOL    HW132168   3.407   4.127  13.441 -2.0631  0.7464 -1.1833
 6902SOL    HW232169   3.274   4.182  13.502  2.7555  1.7146 -0.9122
 6903SOL     OW32170   2.629   2.702  12.274  0.3808  0.1617 -0.1237
 6903SOL    HW132171   2.580   2.766  12.326  0.1910 -2.8161  3.3974
 6903SOL    HW232172   2.708   2.753  12.257  1.0897 -0.5483  0.9738
 6904SOL     OW32173   2.875   2.382  15.343 -0.4521 -0.1336  0.0713
 6904SOL    HW132174   2.955   2.415  15.385 -0.4807 -0.9556  0.7555
 6904SOL    HW232175   2.830   2.466  15.340  0.6040  0.4086 -1.0997
 6905SOL     OW32176   4.428   1.198   4.046 -0.3424 -0.2097  0.5799
 6905SOL    HW132177   4.369   1.201   4.121  0.0844 -1.3490  0.9648
 6905SOL    HW232178   4.440   1.291   4.026 -1.8466 -0.5480 -1.8177
 6906SOL     OW32179   4.205   1.925   9.483 -0.0102 -0.0675  1.1691
 6906SOL    HW132180   4.270   1.911   9.414  0.7471 -0.0959  1.8989
 6906SOL    HW232181   4.240   1.870   9.553 -0.2455  1.2721  2.3313
 6907SOL     OW32182   1.170   3.945   5.289  0.0143 -0.2941  0.7493
 6907SOL    HW132183   1.092   4.000   5.299 -0.4804 -1.1250  1.3965
 6907SOL    HW232184   1.237   4.002   5.327 -0.6218  1.1309 -0.2454
 6908SOL     OW32185   2.199   4.262   8.014 -0.1883 -0.3291  0.2867
 6908SOL    HW132186   2.133   4.331   8.003  0.5136  0.4203  0.7841
 6908SOL    HW232187   2.150   4.182   8.032  1.5075 -1.3666  0.2287
 6909SOL     OW32188   0.945   2.854   6.063 -0.4443 -0.2199  0.4425
 6909SOL    HW132189   0.896   2.772   6.054 -1.4721  0.8462 -3.6101
 6909SOL    HW232190   0.924   2.871   6.155 -0.7630 -2.9162  0.8839
 6910SOL     OW32191   2.144   0.691   6.241 -0.0192 -0.1021  0.3872
 6910SOL    HW132192   2.211   0.664   6.178  2.9873  2.7900  2.3374
 6910SOL    HW232193   2.062   0.678   6.195  0.5696 -0.8979 -0.4356
 6911SOL     OW32194   2.356   2.415  14.227  0.1596 -0.2848  0.4025
 6911SOL    HW132195   2.338   2.371  14.144  1.6328  0.5258 -0.3471
 6911SOL    HW232196   2.442   2.374  14.241 -0.6178 -2.2583 -0.5208
 6912SOL     OW32197   3.536   3.658   6.489  0.1301  0.1068 -0.4321
 6912SOL    HW132198   3.591   3.604   6.546 -2.5525 -1.2493  0.8622
 6912SOL    HW232199   3.464   3.599   6.465  2.1018 -1.4399 -2.4365
 6913SOL     OW32200   4.269   2.235   6.970  0.2986 -0.1053 -0.2266
 6913SOL    HW132201   4.246   2.142   6.967 -0.1321  0.0251 -1.0518
 6913SOL    HW232202   4.325   2.248   6.893  1.0818  0.9589  0.5313
 6914SOL     OW32203   0.414   2.746   4.079  0.0988 -0.2961  0.0191
 6914SOL    HW132204   0.491   2.696   4.106  1.0563 -0.4119 -2.9300
 6914SOL    HW232205   0.389   2.774   4.167  0.4254  0.9083 -0.2635
 6915SOL     OW32206   2.364   1.384   2.827 -0.0334 -0.0178 -0.0703
 6915SOL    HW132207   2.436   1.393   2.889 -0.2086 -1.1188  0.2978
 6915SOL    HW232208   2.347   1.472   2.795 -0.4558 -0.5219 -1.2421
 6916SOL     OW32209   2.621   0.761  12.530 -0.2988 -0.6227  0.3223
 6916SOL    HW132210   2.565   0.695  12.489 -0.8486  1.1530 -1.7577
 6916SOL    HW232211   2.703   0.714  12.543 -0.3109 -1.1879 -1.5974
 6917SOL     OW32212   0.307   0.287  14.852  0.5543  0.2933  0.1190
 6917SOL    HW132213   0.323   0.378  14.828  3.3843 -0.4993 -0.9400
 6917SOL    HW232214   0.372   0.246  14.796  0.5703  1.4256 -0.6771
 6918SOL     OW32215   1.437   0.397   6.556 -0.1091 -0.2851 -0.0626
 6918SOL    HW132216   1.450   0.484   6.594 -0.4375 -0.0122 -0.5587
 6918SOL    HW232217   1.344   0.403   6.534  0.0777  0.4630 -0.6496
 6919SOL     OW32218   0.761   3.052   0.910  0.1151 -0.4878 -0.0762
 6919SOL    HW132219   0.844   3.041   0.865  0.3407  0.0553  0.2063
 6919SOL    HW232220   0.775   3.139   0.947 -0.9617  0.6001 -2.2314
 6920SOL     OW32221   2.804   3.726   0.480  0.4344  0.5772 -0.4186
 6920SOL    HW132222   2.854   3.791   0.529 -1.3222 -0.1783  2.4044
 6920SOL    HW232223   2.720   3.751   0.520  0.9223  0.6394  0.5790
 6921SOL     OW32224   4.702   2.988  10.433  0.3074 -0.1587  0.2680
 6921SOL    HW132225   0.015   2.927  10.370  1.4379  1.6976 -0.8283
 6921SOL    HW232226   0.048   3.005  10.494  0.1063 -0.6157  0.6339
 6922SOL     OW32227   1.498   3.065   7.872 -0.1704  0.1180  0.2035
 6922SOL    HW132228   1.493   3.101   7.961  0.0383  0.1411  0.2044
 6922SOL    HW232229   1.568   3.001   7.876 -1.3547 -1.2124 -0.4656
 6923SOL     OW32230   0.507   4.500   1.689  0.1039 -0.3446  0.0372
 6923SOL    HW132231   0.573   4.449   1.737 -0.6265 -0.6478  0.7138
 6923SOL    HW232232   0.435   4.484   1.750  0.7217  0.7521  1.0656
 6924SOL     OW32233   4.374   2.177   6.196  0.6325  0.8853 -0.0992
 6924SOL    HW132234   4.417   2.177   6.281  1.8678  2.6030 -0.7196
 6924SOL    HW232235   4.429   2.250   6.166  3.9186 -1.8656 -0.7838
 6925SOL     OW32236   2.689   4.376   7.318  0.3472 -0.2338  0.2542
 6925SOL    HW132237   2.607   4.424   7.302  0.3711 -0.2133  0.1931
 6925SOL    HW232238   2.661   4.305   7.376 -0.6585  0.0897  0.1785
 6926SOL     OW32239   1.999   0.579  15.048 -0.0205  0.4869  0.3622
 6926SOL    HW132240   1.980   0.558  14.956  1.4715 -2.3269  0.6891
 6926SOL    HW232241   2.020   0.672  15.035 -0.1010  0.3613 -0.7066
 6927SOL     OW32242   4.487   1.975   4.814 -0.1783  0.6989  0.2139
 6927SOL    HW132243   4.467   1.897   4.866  1.4548 -0.4331 -0.8600
 6927SOL    HW232244   4.403   1.988   4.770 -0.3147  1.1463  0.6059
 6928SOL     OW32245   1.663   4.113   9.826  0.0165 -0.3397 -0.0346
 6928SOL    HW132246   1.688   4.113   9.919  0.1835 -1.1164 -0.0800
 6928SOL    HW232247   1.738   4.151   9.780  1.4786  0.7140  3.1670
 6929SOL     OW32248   4.561   3.157  16.770 -0.0677 -0.4286  0.1457
 6929SOL    HW132249   4.567   3.169  16.865 -2.0602  2.0745 -0.0505
 6929SOL    HW232250   4.630   3.220  16.750  0.3874 -2.1934 -3.8202
 6930SOL     OW32251   1.317   4.089   3.427  0.0572  0.0890  0.2342
 6930SOL    HW132252   1.316   3.998   3.456  0.8291  0.7409  2.3449
 6930SOL    HW232253   1.368   4.119   3.502  0.9934  0.6335 -0.6133
 6931SOL     OW32254   4.556   3.693   3.306  0.4439  0.1009  0.1869
 6931SOL    HW132255   4.620   3.628   3.337  1.1369  0.4116 -0.5753
 6931SOL    HW232256   4.602   3.720   3.226 -2.6369  0.9558 -1.2697
 6932SOL     OW32257   2.240   2.002  10.970  0.4771 -0.1030  0.1379
 6932SOL    HW132258   2.316   2.048  11.007 -0.5996  0.6415  1.4153
 6932SOL    HW232259   2.232   2.055  10.891 -1.1811  1.6601  1.4782
 6933SOL     OW32260   2.746   2.892   1.280  0.1015 -0.4517  0.1501
 6933SOL    HW132261   2.798   2.822   1.320  0.7914 -0.1725 -0.2645
 6933SOL    HW232262   2.726   2.936   1.362 -1.3995 -0.3115 -0.2798
 6934SOL     OW32263   1.619   2.577   9.589 -1.1046 -0.4082 -0.8051
 6934SOL    HW132264   1.607   2.656   9.641  2.8198 -0.5202  0.2794
 6934SOL    HW232265   1.586   2.513   9.652 -0.6753  0.3907  0.2254
 6935SOL     OW32266   0.431   4.033   7.706 -0.5089  0.2099  0.5560
 6935SOL    HW132267   0.495   3.970   7.673 -1.0693  0.0078 -0.1359
 6935SOL    HW232268   0.484   4.112   7.720 -1.2151  0.1778  3.5732
 6936SOL     OW32269   0.526   2.273   6.608  0.8844 -0.3981 -0.0020
 6936SOL    HW132270   0.615   2.250   6.634  0.5639 -1.7240 -0.1148
 6936SOL    HW232271   0.534   2.338   6.538 -2.9228 -1.0824 -1.0500
 6937SOL     OW32272   3.179   3.091   6.038  0.0675 -0.3124 -0.5702
 6937SOL    HW132273   3.090   3.124   6.031 -0.7971 -2.1441  1.8767
 6937SOL    HW232274   3.162   2.997   6.050 -1.9830  0.2914  1.1469
 6938SOL     OW32275   1.873   2.535   6.431  0.4292  0.1054 -0.0804
 6938SOL    HW132276   1.887   2.576   6.517  1.3101  0.6578 -0.4929
 6938SOL    HW232277   1.844   2.613   6.383  0.0008  0.4442  0.7093
 6939SOL     OW32278   4.394   4.510  16.248  0.1151 -0.1707 -0.1211
 6939SOL    HW132279   4.386   4.416  16.265 -1.6365  0.1222  0.6979
 6939SOL    HW232280   4.329   4.523  16.179  0.5388  1.1239 -0.2707
 6940SOL     OW32281   1.370   3.060   2.810  0.0806  0.2162  0.5774
 6940SOL    HW132282   1.460   3.092   2.822  0.6247 -1.9643  2.2061
 6940SOL    HW232283   1.376   2.967   2.830  0.7419 -0.6044 -3.4552
 6941SOL     OW32284   3.620   2.213  11.685  1.4139 -0.7069 -0.2111
 6941SOL    HW132285   3.623   2.160  11.765  0.5121 -1.2369 -0.5331
 6941SOL    HW232286   3.528   2.202  11.664  1.5227  0.4334 -1.2563
 6942SOL     OW32287   4.266   2.303   7.732  0.0294 -0.0617 -0.0974
 6942SOL    HW132288   4.207   2.247   7.682 -1.4240  1.2603  0.1328
 6942SOL    HW232289   4.300   2.366   7.670  2.4885 -0.9633  0.3302
 6943SOL     OW32290   3.268   3.626  15.231  0.0379  0.2337 -0.0621
 6943SOL    HW132291   3.363   3.628  15.241  0.0294  0.9427 -0.0969
 6943SOL    HW232292   3.253   3.706  15.180  1.0628  1.5077  1.6288
 6944SOL     OW32293   2.712   0.163   3.400 -0.6030 -0.5227  0.1027
 6944SOL    HW132294   2.708   0.142   3.493  1.2637  0.4917  0.4193
 6944SOL    HW232295   2.754   0.249   3.409 -1.5385 -0.3243  2.3852
 6945SOL     OW32296   2.774   1.969  11.875 -0.4240 -0.1432  0.0661
 6945SOL    HW132297   2.746   2.038  11.935 -0.6113 -2.1640  2.3112
 6945SOL    HW232298   2.698   1.950  11.820  0.2138 -1.0632 -0.4921
 6946SOL     OW32299   4.552   0.878   8.319 -0.7743  0.2222  0.1173
 6946SOL    HW132300   4.532   0.969   8.341 -4.6249 -0.1903 -1.5951
 6946SOL    HW232301   4.489   0.860   8.250 -0.5433  0.1156 -0.0638
 6947SOL     OW32302   4.520   1.594   8.039 -0.0213 -0.3764  0.3539
 6947SOL    HW132303   4.519   1.519   7.979  1.1045 -0.3370  0.2942
 6947SOL    HW232304   4.525   1.664   7.973 -2.7708 -1.3161 -0.8712
 6948SOL     OW32305   3.299   2.841   3.425 -0.4084  0.6407  0.3967
 6948SOL    HW132306   3.391   2.817   3.434 -0.6159 -0.3145 -0.0183
 6948SOL    HW232307   3.268   2.763   3.378 -0.9536  0.8215  0.4535
 6949SOL     OW32308   3.233   3.907  10.181  0.1122 -0.5751 -0.5150
 6949SOL    HW132309   3.192   3.853  10.115 -1.3263 -0.9371  0.6761
 6949SOL    HW232310   3.221   3.852  10.259 -0.9182  1.2473  0.6095
 6950SOL     OW32311   1.083   3.717   5.167  0.2934 -0.5635  0.1025
 6950SOL    HW132312   1.124   3.784   5.220 -1.9123  1.3357 -0.5749
 6950SOL    HW232313   1.035   3.675   5.238  0.0785 -1.5639 -0.6309
 6951SOL     OW32314   0.943   4.526   4.675  0.1327  0.4566  0.0802
 6951SOL    HW132315   1.025   4.492   4.640 -0.3528 -1.2635  0.6358
 6951SOL    HW232316   0.976   4.568   4.754  0.1182 -1.0276  0.8704
 6952SOL     OW32317   3.685   2.491   5.853 -1.1166 -0.2707  0.1569
 6952SOL    HW132318   3.684   2.586   5.867 -1.6741 -0.2024 -0.3378
 6952SOL    HW232319   3.705   2.474   5.945  1.0509  0.6637 -0.1399
 6953SOL     OW32320   4.548   3.035   6.596 -0.3089 -0.5725 -0.0867
 6953SOL    HW132321   4.526   2.942   6.599  0.5154 -0.7501  0.3170
 6953SOL    HW232322   4.516   3.065   6.510 -1.4015 -1.0928  0.1368
 6954SOL     OW32323   2.180   3.933   1.616 -0.8157  0.2663 -0.5485
 6954SOL    HW132324   2.088   3.910   1.602 -0.5161 -1.6000  0.5763
 6954SOL    HW232325   2.205   3.852   1.660  0.1009  0.1471 -1.3081
 6955SOL     OW32326   4.297   2.451   7.114 -0.0286  0.2734  0.1378
 6955SOL    HW132327   4.221   2.503   7.088 -0.7962 -1.0675 -0.2832
 6955SOL    HW232328   4.276   2.365   7.078 -1.8489  0.0710  1.6495
 6956SOL     OW32329   0.819   2.652   8.908  0.1475  0.2387  0.1882
 6956SOL    HW132330   0.802   2.732   8.857  0.0480 -1.0121 -1.7309
 6956SOL    HW232331   0.909   2.672   8.930  0.3936 -0.8234  0.1061
 6957SOL     OW32332   2.039   4.322   3.777 -0.4103  0.4563  0.0200
 6957SOL    HW132333   2.098   4.385   3.736 -2.2123  2.3862  0.4203
 6957SOL    HW232334   1.958   4.361   3.744 -0.0469  0.6638 -0.6122
 6958SOL     OW32335   3.706   1.281   6.171  0.3007 -0.2839  0.5013
 6958SOL    HW132336   3.711   1.366   6.127 -0.2867 -0.2496  0.5003
 6958SOL    HW232337   3.795   1.250   6.161 -0.1802 -1.1147 -1.0826
 6959SOL     OW32338   1.268   0.967   6.942 -0.0458 -0.4111  0.5646
 6959SOL    HW132339   1.331   0.948   7.011 -0.5457 -0.2240  1.0700
 6959SOL    HW232340   1.189   0.956   6.996 -0.3675  0.2448  0.2262
 6960SOL     OW32341   4.634   4.049   7.020 -1.0042 -0.1099 -0.0200
 6960SOL    HW132342   4.668   4.016   7.103  0.5035  0.7261 -0.3104
 6960SOL    HW232343   4.551   4.093   7.040 -2.1104 -2.7511  1.2245
 6961SOL     OW32344   2.775   4.532   4.116 -0.4791 -0.1008  0.4784
 6961SOL    HW132345   2.681   4.547   4.124 -0.1891  2.6389 -1.1434
 6961SOL    HW232346   2.787   4.459   4.177  1.5240 -1.0609 -1.0731
 6962SOL     OW32347   0.321   0.671   4.071 -0.2476  0.6454 -0.3625
 6962SOL    HW132348   0.324   0.658   3.976 -0.5562  0.5396 -0.3562
 6962SOL    HW232349   0.395   0.730   4.085  0.5996 -0.2865 -0.9535
 6963SOL     OW32350   1.655   4.186   2.985 -0.3770  1.0187  0.2046
 6963SOL    HW132351   1.664   4.097   2.952 -0.5497  0.9866  0.2427
 6963SOL    HW232352   1.560   4.195   2.991 -0.5812 -1.0509 -0.1653
 6964SOL     OW32353   0.988   3.326   9.125 -0.1677 -0.5092 -0.3477
 6964SOL    HW132354   1.040   3.247   9.111  1.4687  0.8344 -1.7138
 6964SOL    HW232355   0.900   3.291   9.145 -0.0634 -0.2482  0.5632
 6965SOL     OW32356   3.524   1.256  15.401 -0.6854 -0.1775  0.0601
 6965SOL    HW132357   3.605   1.295  15.369 -0.8286  0.8192  0.9392
 6965SOL    HW232358   3.474   1.241  15.320 -4.5667 -1.6721  2.7118
 6966SOL     OW32359   2.623   2.187   3.569 -0.0811 -0.0991 -0.6192
 6966SOL    HW132360   2.657   2.228   3.648  0.4636 -2.4901  0.3959
 6966SOL    HW232361   2.701   2.146   3.532  0.3206  1.1729 -1.1609
 6967SOL     OW32362   3.197   1.948   6.165 -0.0156  0.8602 -0.1062
 6967SOL    HW132363   3.176   1.990   6.248 -0.0351  0.6276  0.0062
 6967SOL    HW232364   3.128   1.982   6.108 -0.6963  1.0828  0.8520
 6968SOL     OW32365   1.252   3.785   9.716  0.1767 -0.2240 -0.5575
 6968SOL    HW132366   1.272   3.691   9.712  0.5075 -0.1544 -0.4842
 6968SOL    HW232367   1.341   3.820   9.714 -0.0231  0.3323  0.3750
 6969SOL     OW32368   0.389   0.845   8.609  0.2118  0.4556 -0.0708
 6969SOL    HW132369   0.349   0.931   8.599  1.2213  0.8480 -0.6897
 6969SOL    HW232370   0.401   0.818   8.518  1.2871  0.4479  0.0718
 6970SOL     OW32371   3.389   4.620   0.895  0.2191  0.0667  0.3634
 6970SOL    HW132372   3.447   4.561   0.943 -0.4138 -0.6123  0.2807
 6970SOL    HW232373   3.397   4.695   0.954 -3.1983 -0.3611  1.3465
 6971SOL     OW32374   3.430   1.747   4.347 -0.0036  0.4088 -0.3329
 6971SOL    HW132375   3.514   1.702   4.340 -0.3287 -0.3761  0.6500
 6971SOL    HW232376   3.449   1.831   4.306 -0.8479  0.0156 -1.5188
 6972SOL     OW32377   1.686   0.516   2.355 -0.5772  0.2773  0.1855
 6972SOL    HW132378   1.739   0.457   2.301 -0.7780 -2.2179  2.6985
 6972SOL    HW232379   1.629   0.555   2.289 -1.8743 -3.1318 -0.7437
 6973SOL     OW32380   4.717   1.073   1.928 -0.3678 -0.4646  0.3630
 6973SOL    HW132381   0.003   1.033   1.841  1.6953  1.3092 -0.1927
 6973SOL    HW232382   4.646   1.133   1.905  1.0761  1.8032  1.8152
 6974SOL     OW32383   0.777   1.229   8.671  0.0435  0.5013 -0.0443
 6974SOL    HW132384   0.743   1.139   8.678  2.0658 -0.2638  0.0547
 6974SOL    HW232385   0.867   1.201   8.652 -0.4679  0.3306 -2.2698
 6975SOL     OW32386   0.330   1.304  11.723  0.1202 -0.2807  0.3288
 6975SOL    HW132387   0.365   1.294  11.635 -0.5442  0.5796 -0.0334
 6975SOL    HW232388   0.262   1.238  11.722  3.1253 -3.3950  1.1859
 6976SOL     OW32389   1.507   3.811  14.633  0.0897 -0.3700 -0.1401
 6976SOL    HW132390   1.484   3.829  14.542 -1.3797 -1.2644  0.0553
 6976SOL    HW232391   1.510   3.715  14.641 -3.2714 -0.4655 -0.2518
 6977SOL     OW32392   1.319   1.625   1.341  0.4904  0.3023 -0.2245
 6977SOL    HW132393   1.233   1.667   1.327  0.8850  0.5100 -2.0895
 6977SOL    HW232394   1.310   1.591   1.430 -1.0302  2.9235  0.6262
 6978SOL     OW32395   2.929   0.270   2.647  0.5752  0.0550 -0.0189
 6978SOL    HW132396   2.969   0.238   2.567 -1.1910  1.2395 -1.3771
 6978SOL    HW232397   2.840   0.234   2.648  0.7857 -0.4866 -2.2326
 6979SOL     OW32398   4.209   0.218   9.489  0.8244 -0.3102  0.4265
 6979SOL    HW132399   4.128   0.268   9.495  2.0588  1.9656 -1.9253
 6979SOL    HW232400   4.227   0.209   9.583 -1.6587  0.1832  0.9382
 6980SOL     OW32401   2.425   2.421   7.622 -0.4172  0.1456 -0.2943
 6980SOL    HW132402   2.342   2.386   7.655  1.4662 -3.1915  0.9211
 6980SOL    HW232403   2.419   2.500   7.674 -1.8201  0.4546 -0.9194
 6981SOL     OW32404   2.025   2.087  10.624  0.1364  0.0384 -0.4033
 6981SOL    HW132405   1.969   2.060  10.696  0.0479  1.5901  0.1047
 6981SOL    HW232406   1.991   2.172  10.596 -1.0229 -0.2815  0.0598
 6982SOL     OW32407   1.135   0.399  15.316 -0.5385 -0.6362 -0.6406
 6982SOL    HW132408   1.095   0.315  15.342 -0.3304 -0.7185 -0.5895
 6982SOL    HW232409   1.223   0.393  15.353 -0.4117  0.5093 -0.7777
 6983SOL     OW32410   1.851   2.648   8.327  0.1028 -0.1092  0.2217
 6983SOL    HW132411   1.893   2.734   8.331  1.1738 -0.5950 -0.5691
 6983SOL    HW232412   1.819   2.633   8.416 -0.5366 -2.3520 -0.3748
 6984SOL     OW32413   3.366   0.181  15.603 -0.1575  0.9214 -0.4242
 6984SOL    HW132414   3.350   0.274  15.618 -0.0980  0.9039 -0.2408
 6984SOL    HW232415   3.398   0.153  15.689 -0.2227  2.0394 -0.0406
 6985SOL     OW32416   2.076   2.902   2.661 -0.2159 -0.0939 -0.3928
 6985SOL    HW132417   2.149   2.862   2.710 -0.0690 -1.3318 -1.6169
 6985SOL    HW232418   2.109   2.919   2.573 -0.8199  1.1184 -0.3828
 6986SOL     OW32419   1.198   3.789   2.302 -0.5198  0.0843  0.1047
 6986SOL    HW132420   1.105   3.767   2.296 -0.0383 -2.1738  1.2358
 6986SOL    HW232421   1.204   3.848   2.227 -2.8125  1.9928  1.3995
 6987SOL     OW32422   0.030   4.199   7.967 -0.2126 -0.0636  0.0360
 6987SOL    HW132423   4.666   4.166   7.965  1.0084 -3.3810  0.5676
 6987SOL    HW232424   0.065   4.162   7.886  0.1417 -1.2665  0.7394
 6988SOL     OW32425   4.302   1.577  10.947 -0.3034 -0.4168 -0.2103
 6988SOL    HW132426   4.240   1.543  11.012  0.9257  0.7400  1.5730
 6988SOL    HW232427   4.255   1.657  10.925 -1.6002 -0.9646  0.5525
 6989SOL     OW32428   4.506   3.028   5.506 -0.0839  0.0690 -0.9319
 6989SOL    HW132429   4.471   3.102   5.456 -0.9784 -0.0728 -0.5160
 6989SOL    HW232430   4.453   3.031   5.586  0.9284  0.2546 -0.2753
 6990SOL     OW32431   2.420   1.333   6.627 -0.3967 -0.3189 -0.9229
 6990SOL    HW132432   2.407   1.408   6.570  0.0325 -0.1353 -0.7795
 6990SOL    HW232433   2.347   1.280   6.595 -0.5132 -0.3115 -0.6693
 6991SOL     OW32434   3.523   4.524   6.330  1.0110 -0.2606  0.7430
 6991SOL    HW132435   3.534   4.598   6.272 -3.0113 -0.1541  0.1354
 6991SOL    HW232436   3.435   4.541   6.362  0.5665 -0.1251 -0.5745
 6992SOL     OW32437   0.515   3.021   5.273 -0.0564 -0.1828 -0.4031
 6992SOL    HW132438   0.504   2.929   5.297  1.9219 -0.0156  1.1172
 6992SOL    HW232439   0.575   3.023   5.198 -0.4799  2.0432 -0.6900
 6993SOL     OW32440   2.428   0.636  13.657 -0.0995 -0.9748 -0.3443
 6993SOL    HW132441   2.341   0.621  13.621 -0.8099  1.7220  0.2582
 6993SOL    HW232442   2.474   0.625  13.574  0.9360 -1.3946  0.2814
 6994SOL     OW32443   4.347   1.237   2.555 -0.6879 -0.3366  0.1956
 6994SOL    HW132444   4.420   1.285   2.516 -0.4744 -0.4581  0.4491
 6994SOL    HW232445   4.313   1.303   2.615  1.6910 -0.4680  1.6436
 6995SOL     OW32446   3.133   0.196  12.577 -0.2110 -0.0076 -0.6409
 6995SOL    HW132447   3.138   0.130  12.508  0.0859 -0.7191  0.0567
 6995SOL    HW232448   3.160   0.141  12.651  1.4354  0.3003 -1.0056
 6996SOL     OW32449   2.945   1.190   4.342 -0.6137 -0.1121  0.1111
 6996SOL    HW132450   2.916   1.281   4.344  0.7021  0.2471  2.8632
 6996SOL    HW232451   2.949   1.186   4.247 -2.0752  1.6809 -0.0347
 6997SOL     OW32452   2.643   1.599  17.541 -0.2655 -0.0880 -0.7511
 6997SOL    HW132453   2.683   1.532  17.595 -0.7589 -0.7800 -1.2454
 6997SOL    HW232454   2.569   1.547  17.510  0.8330 -0.2573 -3.0968
 6998SOL     OW32455   0.941   4.082   5.267  0.7096 -0.2315  0.3931
 6998SOL    HW132456   0.856   4.067   5.225  0.7925  3.2826 -0.9760
 6998SOL    HW232457   0.901   4.116   5.347  0.0264  0.1330 -0.0996
 6999SOL     OW32458   1.545   3.539   0.352  0.0811 -0.3456 -0.5281
 6999SOL    HW132459   1.463   3.588   0.345 -0.6358 -1.0821  2.5493
 6999SOL    HW232460   1.585   3.577   0.274  1.3545 -2.3154 -0.8281
 7000SOL     OW32461   1.254   2.737  14.803  0.4217  0.9355 -0.7378
 7000SOL    HW132462   1.311   2.678  14.852 -1.2565 -0.8918 -0.9861
 7000SOL    HW232463   1.234   2.800  14.873 -0.8185 -0.7026  0.3888
 7001SOL     OW32464   2.539   2.318   3.354  0.5792 -0.2154  0.8136
 7001SOL    HW132465   2.572   2.276   3.433  1.2546  1.0977  1.2250
 7001SOL    HW232466   2.617   2.319   3.297 -0.8147 -4.3046 -1.2271
 7002SOL     OW32467   0.618   2.587   9.085 -0.6808 -0.2563 -0.2088
 7002SOL    HW132468   0.550   2.652   9.066 -1.0919 -0.2621  1.1751
 7002SOL    HW232469   0.693   2.625   9.039 -1.0081  0.6165 -0.0231
 7003SOL     OW32470   2.684   4.651   3.170 -0.2203  0.3304  0.2714
 7003SOL    HW132471   2.704   4.597   3.247 -0.5294  0.2454  0.2939
 7003SOL    HW232472   2.765   4.702   3.176  1.9027 -3.1402  1.1675
 7004SOL     OW32473   1.096   1.448   5.065 -0.4315 -0.0016  0.5275
 7004SOL    HW132474   1.007   1.474   5.042 -0.6869 -1.6256 -0.3501
 7004SOL    HW232475   1.138   1.469   4.982 -0.8096 -0.2595  0.2670
 7005SOL     OW32476   2.947   2.888   3.190  0.1869  0.1327  0.3208
 7005SOL    HW132477   2.968   2.890   3.283  2.0303  1.9683 -0.1417
 7005SOL    HW232478   3.014   2.942   3.148  0.2336  0.8817  1.3527
 7006SOL     OW32479   4.418   3.717  10.257 -0.3863  0.1235  0.2142
 7006SOL    HW132480   4.491   3.717  10.196 -0.3582 -1.3664  0.2586
 7006SOL    HW232481   4.384   3.803  10.232  2.7073  1.6514  1.3237
 7007SOL     OW32482   0.308   3.453   0.053  0.2943 -0.0954  0.3633
 7007SOL    HW132483   0.337   3.499  17.677  1.9301 -0.7184  0.5989
 7007SOL    HW232484   0.337   3.507   0.127  2.4069  1.6815 -1.7636
 7008SOL     OW32485   4.627   4.231   1.260  0.4413  0.3295 -0.2809
 7008SOL    HW132486   4.587   4.144   1.247  0.9381 -0.1614  1.4751
 7008SOL    HW232487   4.630   4.243   1.355  0.5524 -2.0203  0.0153
 7009SOL     OW32488   3.519   0.184   5.772 -0.1146 -0.2094 -0.3809
 7009SOL    HW132489   3.464   0.173   5.694 -0.2984  2.0281 -0.5653
 7009SOL    HW232490   3.460   0.167   5.845 -2.5433 -1.2106 -2.5658
 7010SOL     OW32491   3.160   2.201   9.167 -0.3093  0.0240  0.0426
 7010SOL    HW132492   3.207   2.244   9.238 -1.1688  0.7521  0.1758
 7010SOL    HW232493   3.105   2.138   9.215 -0.3164 -0.9549 -1.2277
 7011SOL     OW32494   4.486   3.439   5.018 -0.1674  0.4828  0.1883
 7011SOL    HW132495   4.419   3.507   5.025 -0.2975  0.4405 -0.6951
 7011SOL    HW232496   4.559   3.473   5.070 -0.2623  0.9702 -0.0008
 7012SOL     OW32497   3.285   2.014  16.155  0.3701 -0.5737  0.2319
 7012SOL    HW132498   3.298   1.919  16.153 -1.1600 -0.7958  0.9141
 7012SOL    HW232499   3.316   2.047  16.071 -0.8814 -1.1187 -0.4454
 7013SOL     OW32500   3.502   2.264   3.867  0.2729 -0.2977  0.5686
 7013SOL    HW132501   3.573   2.274   3.804  0.5721  0.6010  1.0418
 7013SOL    HW232502   3.461   2.350   3.859  2.1734  0.4591 -1.0654
 7014SOL     OW32503   0.775   1.373   8.164 -0.2684  0.3709 -0.3447
 7014SOL    HW132504   0.759   1.285   8.131 -0.1591  0.1010  0.3330
 7014SOL    HW232505   0.833   1.408   8.096  0.1792 -1.0549 -0.6917
 7015SOL     OW32506   4.461   2.135   3.099 -0.0328  0.0624 -0.0055
 7015SOL    HW132507   4.543   2.143   3.149 -0.6581 -0.2669  1.0796
 7015SOL    HW232508   4.486   2.202   3.035 -0.5480 -0.5951 -0.8906
 7016SOL     OW32509   3.839   1.267   0.166 -0.1010 -0.2051 -0.7210
 7016SOL    HW132510   3.855   1.356   0.197 -0.3912  0.9230 -3.7421
 7016SOL    HW232511   3.769   1.292   0.106  1.2019  2.0100 -1.3090
 7017SOL     OW32512   1.453   0.871   9.602 -0.0317 -0.2000  0.0171
 7017SOL    HW132513   1.399   0.922   9.663 -0.2639 -1.1064  0.5679
 7017SOL    HW232514   1.452   0.786   9.645 -1.0239  0.0121  0.4066
 7018SOL     OW32515   1.207   3.981   4.941  0.4224 -0.3754  0.0278
 7018SOL    HW132516   1.112   3.968   4.945  0.1972  0.7172 -1.5118
 7018SOL    HW232517   1.226   3.911   5.003  1.8832  0.9080  1.0548
 7019SOL     OW32518   0.549   3.249   3.235  0.6606  0.1792 -0.3767
 7019SOL    HW132519   0.457   3.273   3.226  0.1666 -1.6703 -0.1668
 7019SOL    HW232520   0.564   3.317   3.300 -2.3990 -0.5765  1.1193
 7020SOL     OW32521   4.157   1.330   3.171  0.1857  0.6934  0.3201
 7020SOL    HW132522   4.237   1.353   3.123 -0.1314 -0.8630 -0.9707
 7020SOL    HW232523   4.175   1.242   3.203 -0.3376  0.9402  1.2934
 7021SOL     OW32524   2.611   2.206   7.567  0.4363  0.4005 -0.0087
 7021SOL    HW132525   2.559   2.281   7.594  1.6996 -0.2365  4.1934
 7021SOL    HW232526   2.694   2.221   7.612 -0.3159 -0.9945  1.8633
 7022SOL     OW32527   1.598   3.367  10.855  0.5107 -0.8389 -0.1127
 7022SOL    HW132528   1.559   3.393  10.772  1.1478  0.1747 -0.0978
 7022SOL    HW232529   1.672   3.314  10.825 -0.7004 -0.4901 -3.6103
 7023SOL     OW32530   2.911   1.173   7.437  0.4454 -0.5082  0.5119
 7023SOL    HW132531   2.826   1.171   7.480  0.2464 -2.2704  0.0181
 7023SOL    HW232532   2.937   1.083   7.418 -2.3944 -1.8108  2.9962
 7024SOL     OW32533   0.981   0.119   9.210 -0.1162 -0.3231 -0.1089
 7024SOL    HW132534   1.023   0.187   9.157 -0.0072  1.1154  1.8434
 7024SOL    HW232535   0.995   0.145   9.301  1.3333  1.7885 -0.9384
 7025SOL     OW32536   2.010   1.245   1.402 -0.5946 -0.3427  0.7526
 7025SOL    HW132537   2.033   1.266   1.312  0.2262  1.0725  1.2938
 7025SOL    HW232538   1.987   1.332   1.433 -0.3623  0.4179 -1.2578
 7026SOL     OW32539   2.502   1.459  11.954  0.3290  0.1082 -0.1328
 7026SOL    HW132540   2.511   1.500  12.039 -1.1104 -5.1082  2.5389
 7026SOL    HW232541   2.438   1.515  11.910 -1.9817 -2.3764  0.0591
 7027SOL     OW32542   1.539   4.350   7.170 -0.4404  0.1228 -0.1996
 7027SOL    HW132543   1.590   4.343   7.089 -0.5360  0.4448 -0.2883
 7027SOL    HW232544   1.520   4.443   7.168 -2.1338 -0.1819  1.8424
 7028SOL     OW32545   2.393   4.346   6.741  0.7044 -0.3567  0.0450
 7028SOL    HW132546   2.374   4.313   6.829 -1.1392 -1.9404 -0.9491
 7028SOL    HW232547   2.488   4.342   6.747  0.6872  0.0201  0.6434
 7029SOL     OW32548   0.590   4.711   2.689 -0.2306  0.0737  0.3277
 7029SOL    HW132549   0.585   0.079   2.671  0.2613  0.1949  0.7938
 7029SOL    HW232550   0.507   4.692   2.731 -1.2038 -1.4384 -2.3080
 7030SOL     OW32551   0.229   1.693   1.511  0.4158 -0.1198  0.3401
 7030SOL    HW132552   0.267   1.773   1.545 -1.2698  0.2712  1.3057
 7030SOL    HW232553   0.250   1.714   1.420 -0.1945  0.3721  0.3147
 7031SOL     OW32554   3.695   0.832   4.122  0.2721 -0.0483  0.4216
 7031SOL    HW132555   3.790   0.825   4.136  0.6147 -1.2077 -2.4396
 7031SOL    HW232556   3.680   0.919   4.160  0.8245  0.0755  0.3571
 7032SOL     OW32557   2.086   0.688   3.203 -0.3365  0.2233  0.4377
 7032SOL    HW132558   2.045   0.722   3.123  1.3820 -1.8160 -1.3111
 7032SOL    HW232559   2.088   0.593   3.191 -0.4745  0.3979 -0.9563
 7033SOL     OW32560   0.793   4.651   9.145 -0.1850  0.1498 -0.2845
 7033SOL    HW132561   0.847   0.001   9.171  0.3887  0.0452 -1.1764
 7033SOL    HW232562   0.740   4.699   9.082  1.5340  1.2945 -0.8671
 7034SOL     OW32563   2.347   3.660   4.917 -0.4114 -0.0456  0.0513
 7034SOL    HW132564   2.294   3.627   4.844 -0.2509 -0.6509  0.2147
 7034SOL    HW232565   2.402   3.729   4.880  0.9369 -0.9884  0.3124
 7035SOL     OW32566   4.582   2.747   7.561  0.3964  0.5382  0.0113
 7035SOL    HW132567   4.676   2.769   7.562  0.7316 -0.9301  0.4344
 7035SOL    HW232568   4.563   2.722   7.471  2.0931  0.3343 -0.2847
 7036SOL     OW32569   3.306   2.067  15.549 -0.5637 -0.3754  0.0412
 7036SOL    HW132570   3.395   2.100  15.563 -0.9963  0.8762 -0.1094
 7036SOL    HW232571   3.256   2.117  15.614  1.8967  2.1547 -0.0278
 7037SOL     OW32572   3.876   3.849   7.860  0.2901  0.1684  0.3071
 7037SOL    HW132573   3.869   3.797   7.940 -2.6279  0.5447  0.2989
 7037SOL    HW232574   3.786   3.859   7.830  0.4791  0.5524 -0.1359
 7038SOL     OW32575   0.586   3.602   6.651 -0.5582 -0.2516  0.4003
 7038SOL    HW132576   0.654   3.669   6.646 -0.1833 -0.5604  1.3748
 7038SOL    HW232577   0.606   3.564   6.566  1.3899  2.4800 -0.3557
 7039SOL     OW32578   4.549   0.074   4.428 -0.2108  0.2091 -0.1584
 7039SOL    HW132579   4.634   0.085   4.470 -0.2130  0.2587 -0.1671
 7039SOL    HW232580   4.553   0.134   4.354 -2.0687 -0.8502 -1.1150
 7040SOL     OW32581   2.885   0.327   8.076  0.0005  0.1046  0.0730
 7040SOL    HW132582   2.900   0.236   8.052  1.1839  0.4493 -0.5057
 7040SOL    HW232583   2.940   0.366   8.008  1.6085 -1.9653  0.1861
 7041SOL     OW32584   4.083   3.828   6.615 -0.1175 -0.4245  0.6141
 7041SOL    HW132585   4.114   3.914   6.587  1.9560 -1.0881  0.8936
 7041SOL    HW232586   4.165   3.793   6.648  0.1603 -1.9893 -1.6905
 7042SOL     OW32587   0.308   4.487   1.198  0.1640 -0.4697  0.0411
 7042SOL    HW132588   0.257   4.410   1.171  0.9274 -0.8618 -0.2628
 7042SOL    HW232589   0.371   4.488   1.126  0.2986  4.9164  0.1991
 7043SOL     OW32590   2.200   0.270   0.144  0.2574 -0.1094 -0.1810
 7043SOL    HW132591   2.145   0.248   0.219  1.7031 -0.4565  0.7817
 7043SOL    HW232592   2.185   0.198   0.083 -1.5030  0.0013  0.1164
 7044SOL     OW32593   4.165   1.762   5.042  0.2280  0.2062  0.0344
 7044SOL    HW132594   4.190   1.820   5.115 -1.4861  0.3502  0.5105
 7044SOL    HW232595   4.073   1.784   5.026  0.5898  0.5929 -1.5183
 7045SOL     OW32596   3.736   1.586   7.168  0.4055  0.1888  0.6236
 7045SOL    HW132597   3.748   1.585   7.264  0.5500 -1.2735  0.5897
 7045SOL    HW232598   3.731   1.681   7.159  0.6586  0.2136  0.7410
 7046SOL     OW32599   2.904   4.511   5.769 -0.4122  0.6152  0.1117
 7046SOL    HW132600   2.956   4.543   5.842 -0.3297 -1.3441  0.8859
 7046SOL    HW232601   2.954   4.493   5.689 -1.8053 -0.9140 -0.4226
 7047SOL     OW32602   3.150   1.854  16.442 -0.2497  0.2314 -0.5845
 7047SOL    HW132603   3.171   1.794  16.370 -2.2401  0.8676 -1.6871
 7047SOL    HW232604   3.135   1.785  16.506  0.2323 -0.8311 -1.6100
 7048SOL     OW32605   2.491   0.568   4.100  0.8701  0.0476 -0.7697
 7048SOL    HW132606   2.560   0.570   4.166  0.2286 -0.4986 -0.0773
 7048SOL    HW232607   2.543   0.592   4.024  1.9708  2.8698  0.8671
 7049SOL     OW32608   3.274   0.922   3.721 -0.0444 -0.2363  0.1924
 7049SOL    HW132609   3.272   0.860   3.793  2.7371  0.0033  0.4744
 7049SOL    HW232610   3.283   1.005   3.768  1.5046 -0.4418  0.2516
 7050SOL     OW32611   0.751   0.797   2.817  0.5923 -0.2819  0.2179
 7050SOL    HW132612   0.671   0.766   2.774  1.0886 -1.1311 -0.1048
 7050SOL    HW232613   0.812   0.789   2.744 -1.3941  1.1233 -1.6039
 7051SOL     OW32614   2.616   2.888   8.384 -0.4812  0.1543 -0.1983
 7051SOL    HW132615   2.702   2.928   8.400  0.2589 -1.7416  0.4836
 7051SOL    HW232616   2.591   2.911   8.294 -1.5186 -1.3409 -0.2794
 7052SOL     OW32617   4.238   2.312   0.778 -0.1460  0.7230  0.3504
 7052SOL    HW132618   4.307   2.247   0.767  1.3832  2.2557  0.9447
 7052SOL    HW232619   4.205   2.289   0.865  2.0041  0.8496  1.1885
 7053SOL     OW32620   2.811   3.106   1.096  0.1362  0.0538  0.1304
 7053SOL    HW132621   2.898   3.145   1.109  0.3205  0.4485 -2.4537
 7053SOL    HW232622   2.799   3.050   1.173 -0.6931  1.9796  1.4051
 7054SOL     OW32623   1.121   2.691   5.896 -0.0933 -0.0968 -0.5753
 7054SOL    HW132624   1.109   2.645   5.813 -0.4521  0.5894 -0.8989
 7054SOL    HW232625   1.033   2.706   5.930 -0.0414  1.0546 -0.9581
 7055SOL     OW32626   3.824   1.508   6.022  0.4143  0.2037 -0.7830
 7055SOL    HW132627   3.783   1.579   5.972 -1.3044  0.3781  0.8907
 7055SOL    HW232628   3.869   1.461   5.952 -1.5559 -0.6725 -1.4459
 7056SOL     OW32629   2.334   4.037   7.723 -0.1600  0.1498 -0.0736
 7056SOL    HW132630   2.247   4.012   7.753 -0.1756  0.3462  0.0467
 7056SOL    HW232631   2.380   4.031   7.807 -1.6301 -0.6202  0.6544
 7057SOL     OW32632   4.591   2.017   4.155 -0.2559  0.3389  0.2213
 7057SOL    HW132633   4.678   1.979   4.167  0.2508  1.1408 -0.9648
 7057SOL    HW232634   4.596   2.028   4.060  0.3682 -2.1635 -0.0339
 7058SOL     OW32635   3.730   2.422  13.122  0.0816  0.0429  0.0319
 7058SOL    HW132636   3.777   2.474  13.057 -1.3548  1.4041  0.0869
 7058SOL    HW232637   3.767   2.455  13.204  0.6070 -2.5424  0.8400
 7059SOL     OW32638   2.970   0.410   4.043 -0.1551  0.3657  0.2751
 7059SOL    HW132639   3.017   0.416   3.960 -0.8708 -0.3927 -0.1798
 7059SOL    HW232640   2.998   0.324   4.073  0.2043 -0.1034 -1.4379
 7060SOL     OW32641   3.556   2.213   9.254  0.6451 -0.4496 -0.7387
 7060SOL    HW132642   3.561   2.120   9.279 -2.7515 -0.8346 -1.4511
 7060SOL    HW232643   3.545   2.252   9.340  1.5482  0.0688 -0.8589
 7061SOL     OW32644   3.629   0.513  17.555  0.3429  0.3132  0.7707
 7061SOL    HW132645   3.711   0.529  17.601  0.1983  2.3696  0.3144
 7061SOL    HW232646   3.648   0.552  17.470 -0.3021  0.8068  0.8489
 7062SOL     OW32647   3.618   0.036   2.394  0.8665  1.5285  0.2471
 7062SOL    HW132648   3.656   0.119   2.366 -0.3282  1.3956 -1.7872
 7062SOL    HW232649   3.675   4.693   2.359 -1.2626 -0.1464  0.0288
 7063SOL     OW32650   3.606   1.327   0.046 -0.5561  0.6913  0.6041
 7063SOL    HW132651   3.619   1.422   0.047  2.0777  0.3411 -0.9524
 7063SOL    HW232652   3.511   1.334   0.049 -0.6501  0.5122 -2.1239
 7064SOL     OW32653   3.062   2.886   1.515 -0.1842 -0.1161 -0.0237
 7064SOL    HW132654   3.008   2.807   1.513 -0.3535  0.0003 -0.0398
 7064SOL    HW232655   2.990   2.949   1.523  1.3528  1.4169  1.6549
 7065SOL     OW32656   0.917   4.166   2.636 -0.2208  0.3288  0.1538
 7065SOL    HW132657   0.827   4.200   2.628  0.2150  0.8496 -2.5590
 7065SOL    HW232658   0.941   4.124   2.553 -0.7131  0.3905 -0.0246
 7066SOL     OW32659   4.709   1.662   8.275 -0.0233  0.1559  0.2065
 7066SOL    HW132660   4.646   1.679   8.204 -0.0471 -1.3376 -0.1140
 7066SOL    HW232661   4.693   1.732   8.339 -2.3397  0.8693 -1.1563
 7067SOL     OW32662   0.636   4.092   5.656 -0.2868  0.0607 -0.6614
 7067SOL    HW132663   0.541   4.097   5.661 -0.1909 -0.9865  2.5518
 7067SOL    HW232664   0.655   4.056   5.743 -0.5396 -0.1551 -0.6971
 7068SOL     OW32665   4.073   0.271   1.728 -0.2445 -0.9226 -0.2010
 7068SOL    HW132666   4.057   0.332   1.656 -0.5960  1.1448  1.6335
 7068SOL    HW232667   4.156   0.293   1.770  0.0021 -1.1347 -0.5708
 7069SOL     OW32668   1.517   3.317  12.600 -0.0544 -0.2467  0.2344
 7069SOL    HW132669   1.460   3.271  12.662 -1.4637  0.2497 -0.6748
 7069SOL    HW232670   1.586   3.251  12.611 -2.1858 -2.6533 -0.7294
 7070SOL     OW32671   1.905   2.056   3.703 -0.2652  0.3158 -0.0369
 7070SOL    HW132672   1.925   1.966   3.678 -3.1749 -0.2825 -0.2598
 7070SOL    HW232673   1.856   2.076   3.623 -1.6182  3.9375  1.7131
 7071SOL     OW32674   0.288   1.552   1.782  0.2126 -0.0600 -0.3120
 7071SOL    HW132675   0.291   1.615   1.710  0.4418 -0.3822 -0.5869
 7071SOL    HW232676   0.322   1.475   1.735 -2.4332 -0.4304 -1.6056
 7072SOL     OW32677   4.675   4.007  16.283  0.2142 -0.1181  0.0292
 7072SOL    HW132678   4.592   4.031  16.243  2.2172  1.5297 -3.1507
 7072SOL    HW232679   0.008   4.079  16.258  0.4867  0.1395  1.4002
 7073SOL     OW32680   0.324   2.186  12.556  0.0032 -0.5556 -0.2961
 7073SOL    HW132681   0.386   2.251  12.525 -0.9118  0.5760  0.2329
 7073SOL    HW232682   0.379   2.109  12.570  1.9433  0.6517 -1.3917
 7074SOL     OW32683   3.123   4.285   4.710  0.0599 -0.3798 -0.4803
 7074SOL    HW132684   3.150   4.219   4.774  0.6147 -0.9335 -1.2867
 7074SOL    HW232685   3.179   4.252   4.640 -0.0361  0.3078 -0.8832
 7075SOL     OW32686   3.245   0.395  14.979 -0.2272  0.1992  0.0218
 7075SOL    HW132687   3.161   0.355  14.956  0.1300 -0.6148  0.1338
 7075SOL    HW232688   3.303   0.319  14.987  0.5064  0.7487 -0.1640
 7076SOL     OW32689   1.850   0.351  17.360  0.0101  0.3273 -0.2765
 7076SOL    HW132690   1.830   0.433  17.314 -2.3625 -0.3282 -0.4355
 7076SOL    HW232691   1.906   0.379  17.432 -0.3052  0.6673 -0.1643
 7077SOL     OW32692   1.631   2.756   2.630  0.6065  0.3030  0.7365
 7077SOL    HW132693   1.727   2.753   2.637  0.6501  0.1236  0.1239
 7077SOL    HW232694   1.608   2.677   2.679 -0.6186 -1.9817 -3.5256
 7078SOL     OW32695   4.460   0.200   8.212 -0.0632  0.1841 -0.5796
 7078SOL    HW132696   4.449   0.295   8.201  2.9022  0.7932  1.5540
 7078SOL    HW232697   4.395   0.167   8.151 -0.7963 -1.6463  1.1857
 7079SOL     OW32698   2.611   1.874   1.943 -0.0735  0.1664 -0.6003
 7079SOL    HW132699   2.608   1.812   2.016 -0.6196  0.4765 -0.3575
 7079SOL    HW232700   2.642   1.826   1.867 -1.1920 -1.7492  0.1723
 7080SOL     OW32701   3.434   3.826  10.441 -0.1086  0.6206 -0.3169
 7080SOL    HW132702   3.342   3.798  10.435 -0.0619  0.4813 -0.3662
 7080SOL    HW232703   3.460   3.808  10.351 -2.0634 -0.3486 -0.6979
 7081SOL     OW32704   0.123   2.080  12.248 -0.6184 -0.0664 -0.1707
 7081SOL    HW132705   0.060   2.127  12.193 -0.9711  0.2885  0.5293
 7081SOL    HW232706   0.096   2.106  12.337 -2.4636  1.0694 -1.0572
 7082SOL     OW32707   3.538   1.266   6.873  0.2258 -0.0659 -0.4441
 7082SOL    HW132708   3.443   1.276   6.868 -0.0757 -3.4009 -0.9401
 7082SOL    HW232709   3.568   1.355   6.894 -1.3047  0.5499 -0.8391
 7083SOL     OW32710   2.021   2.091  10.244 -0.0405  0.5478 -0.1379
 7083SOL    HW132711   1.930   2.076  10.218  0.1104 -0.1468 -0.2635
 7083SOL    HW232712   2.012   2.130  10.331 -0.1034  0.1846  0.0197
 7084SOL     OW32713   0.517   0.491   3.358  0.1001  0.2885  0.3110
 7084SOL    HW132714   0.500   0.529   3.272  0.8346  1.3323  0.6261
 7084SOL    HW232715   0.590   0.430   3.350 -2.0562 -2.1222 -1.1142
 7085SOL     OW32716   0.019   0.766   5.047 -0.5471  0.2599  0.7019
 7085SOL    HW132717   4.710   0.774   4.958  2.1780  0.8353 -0.2954
 7085SOL    HW232718   4.678   0.712   5.090  1.2283 -1.8129  0.8514
 7086SOL     OW32719   1.681   1.971   1.484  0.3301 -0.4299 -0.4187
 7086SOL    HW132720   1.634   2.055   1.485  1.5049  0.2268 -0.6326
 7086SOL    HW232721   1.670   1.943   1.575  0.4172 -0.8325 -0.5309
 7087SOL     OW32722   2.592   1.722   6.011  0.0112  0.7438  0.1359
 7087SOL    HW132723   2.654   1.726   6.084  2.0327  0.5769 -1.5941
 7087SOL    HW232724   2.598   1.628   5.993 -1.9181  0.9908 -1.8359
 7088SOL     OW32725   4.198   0.311  15.475 -0.3589  0.7868 -0.1623
 7088SOL    HW132726   4.173   0.291  15.385 -3.0935 -0.2088  0.8199
 7088SOL    HW232727   4.178   0.404  15.484  1.6620  1.2346 -0.3007
 7089SOL     OW32728   1.821   0.373   2.575  0.0689 -0.2535 -0.4530
 7089SOL    HW132729   1.908   0.370   2.614 -0.7632 -0.7163  1.4023
 7089SOL    HW232730   1.818   0.293   2.523  1.8021 -1.6734  1.6265
 7090SOL     OW32731   4.000   3.354   2.822 -0.1517  0.2980 -0.4936
 7090SOL    HW132732   4.025   3.405   2.899  3.3677  0.1118 -1.5299
 7090SOL    HW232733   3.906   3.340   2.834  0.0367  1.2909  2.0779
 7091SOL     OW32734   0.633   2.458   2.924  0.2997  0.4653 -0.3041
 7091SOL    HW132735   0.692   2.401   2.876 -1.4394 -1.1365 -0.5607
 7091SOL    HW232736   0.584   2.494   2.849 -3.7142 -1.4670  1.3879
 7092SOL     OW32737   3.787   3.258   3.008  0.2948 -0.3021  0.7345
 7092SOL    HW132738   3.703   3.216   2.992  1.6198 -2.4539 -0.6456
 7092SOL    HW232739   3.759   3.347   3.030  1.5917 -0.8047  4.5271
 7093SOL     OW32740   1.728   3.496   1.222 -0.4702 -0.4263  0.3240
 7093SOL    HW132741   1.693   3.464   1.305  2.1834 -1.0360  1.2224
 7093SOL    HW232742   1.741   3.408   1.187  1.1923 -0.0657  0.0133
 7094SOL     OW32743   3.357   0.514   2.974 -0.1546 -0.2999 -0.2079
 7094SOL    HW132744   3.404   0.531   3.056 -2.0223  2.4395  0.3012
 7094SOL    HW232745   3.276   0.484   3.016 -1.5640 -1.1389 -3.5360
 7095SOL     OW32746   2.045   0.199   1.759 -0.2527  0.3423  0.3238
 7095SOL    HW132747   1.983   0.147   1.708  0.2318  0.4257 -0.3429
 7095SOL    HW232748   2.116   0.205   1.695  1.3308 -1.7335  1.8684
 7096SOL     OW32749   2.744   4.368   7.982 -0.0533  0.8413  0.8181
 7096SOL    HW132750   2.772   4.448   8.026 -0.9948  2.0728 -0.7941
 7096SOL    HW232751   2.828   4.346   7.942 -0.5446  0.6398 -0.1258
 7097SOL     OW32752   0.524   0.505   7.493 -0.0898  0.2047  0.1085
 7097SOL    HW132753   0.562   0.566   7.555 -2.3972  1.8858 -0.1131
 7097SOL    HW232754   0.596   0.443   7.480  1.5279  2.0695  0.1727
 7098SOL     OW32755   2.465   0.558   7.139  0.4453  0.3203  0.4704
 7098SOL    HW132756   2.510   0.486   7.096  0.3312  0.4760  0.0907
 7098SOL    HW232757   2.418   0.512   7.209  1.0639 -1.9147 -0.5760
 7099SOL     OW32758   2.215   3.018   5.424 -0.4507  0.0646  0.0228
 7099SOL    HW132759   2.262   2.936   5.434 -0.3492  0.1347  0.1199
 7099SOL    HW232760   2.272   3.079   5.470 -0.9462 -1.0606  2.1184
 7100SOL     OW32761   1.736   1.507   4.975  0.3876 -0.1832  0.5253
 7100SOL    HW132762   1.828   1.523   4.955  0.9647 -1.1504  2.4473
 7100SOL    HW232763   1.739   1.530   5.067 -1.6079  0.1442  0.5089
 7101SOL     OW32764   0.580   2.454   1.660 -0.0285 -0.0129  0.2839
 7101SOL    HW132765   0.490   2.422   1.664  0.1101 -0.1015  2.9250
 7101SOL    HW232766   0.587   2.480   1.752  0.1087  1.1727 -0.0555
 7102SOL     OW32767   2.544   2.315   4.805  0.0017  0.2736  0.3596
 7102SOL    HW132768   2.597   2.249   4.761  2.2970  0.2970  3.1181
 7102SOL    HW232769   2.508   2.353   4.725  1.8341 -1.6685 -1.3700
 7103SOL     OW32770   2.653   1.439   1.016  0.6278 -0.4804 -0.7109
 7103SOL    HW132771   2.704   1.359   1.006  1.4735 -0.2170  1.5338
 7103SOL    HW232772   2.657   1.455   1.110  2.1713 -0.0182 -0.8671
 7104SOL     OW32773   3.269   2.569   7.884  0.8322 -0.0610 -0.0773
 7104SOL    HW132774   3.347   2.624   7.891  1.6076 -0.8582 -2.4901
 7104SOL    HW232775   3.274   2.539   7.974  2.2197 -1.2377 -0.5447
 7105SOL     OW32776   3.692   4.383  11.929 -0.6092  0.3070 -0.0272
 7105SOL    HW132777   3.741   4.362  12.008 -0.1878  2.1615  0.2037
 7105SOL    HW232778   3.752   4.395  11.856 -0.1942  0.4829  0.3423
 7106SOL     OW32779   4.180   3.874  13.501  0.4151 -0.3001 -0.3643
 7106SOL    HW132780   4.147   3.790  13.533 -0.9976 -0.3989 -2.0304
 7106SOL    HW232781   4.274   3.859  13.492  0.5538 -1.0538  2.4830
 7107SOL     OW32782   4.719   1.049   2.212  0.0861  0.2137 -0.4855
 7107SOL    HW132783   4.709   1.022   2.120 -2.1013  1.6553 -0.6568
 7107SOL    HW232784   4.636   1.095   2.224 -0.0685 -0.4259  0.8410
 7108SOL     OW32785   2.446   2.828  10.631  0.1022 -0.1044  0.1037
 7108SOL    HW132786   2.431   2.895  10.564  4.2596 -0.1273 -0.8713
 7108SOL    HW232787   2.541   2.814  10.632  0.7142  3.9420 -0.1861
 7109SOL     OW32788   0.688   4.070   4.085 -0.0746 -0.3006  0.0933
 7109SOL    HW132789   0.603   4.114   4.091  0.0991  0.0119  0.2438
 7109SOL    HW232790   0.662   3.983   4.115  2.8430 -0.4289  2.1549
 7110SOL     OW32791   4.476   2.816  15.970  0.2745  0.6716  0.3376
 7110SOL    HW132792   4.551   2.814  16.028 -0.8760  0.6174  1.8329
 7110SOL    HW232793   4.504   2.890  15.916  1.2687 -0.3931 -0.5988
 7111SOL     OW32794   1.443   2.728  15.757  0.6657 -0.5299  0.3085
 7111SOL    HW132795   1.508   2.797  15.768 -0.6396  0.4058  2.1954
 7111SOL    HW232796   1.395   2.761  15.681  0.6458 -1.1770  0.0431
 7112SOL     OW32797   2.879   4.153   4.614  0.1613  0.0580 -0.0309
 7112SOL    HW132798   2.962   4.117   4.584  0.4840 -0.0882  1.0567
 7112SOL    HW232799   2.913   4.207   4.685 -0.6487  2.3112 -1.3572
 7113SOL     OW32800   3.785   2.243   3.360  0.2569 -0.2192 -0.3381
 7113SOL    HW132801   3.841   2.299   3.308  2.2134 -0.0567  1.9518
 7113SOL    HW232802   3.801   2.157   3.320  0.3192 -0.1754 -0.4056
 7114SOL     OW32803   2.034   4.396   3.259 -0.7112  0.0482 -0.6575
 7114SOL    HW132804   2.070   4.371   3.174 -0.1371 -1.1340 -0.0528
 7114SOL    HW232805   2.115   4.437   3.288 -0.6614 -2.8452  3.2267
 7115SOL     OW32806   4.470   4.074   6.031  0.2724 -0.0998  0.5673
 7115SOL    HW132807   4.382   4.081   5.993  0.9379 -1.1192 -1.1677
 7115SOL    HW232808   4.466   3.981   6.056  0.6869  0.0715  1.2513
 7116SOL     OW32809   2.534   1.742   0.066 -0.2401  0.3398 -0.2067
 7116SOL    HW132810   2.593   1.720   0.138 -0.7678 -1.4194 -0.3065
 7116SOL    HW232811   2.566   1.699  17.689  0.3752  0.2134  0.1102
 7117SOL     OW32812   1.592   4.169   5.424 -0.5084 -0.2127  0.5186
 7117SOL    HW132813   1.563   4.258   5.407  2.7631  0.7314 -0.0986
 7117SOL    HW232814   1.675   4.179   5.470 -0.2459 -1.1951  0.2574
 7118SOL     OW32815   2.774   2.626   3.779  0.0293 -0.3905 -0.0182
 7118SOL    HW132816   2.753   2.716   3.754 -2.0276 -1.5800 -2.7352
 7118SOL    HW232817   2.727   2.604   3.860  1.4546 -2.0489  0.3561
 7119SOL     OW32818   1.145   3.124  17.168 -0.0510  0.8165  0.1495
 7119SOL    HW132819   1.065   3.126  17.117 -0.5521 -2.6620  0.8025
 7119SOL    HW232820   1.118   3.109  17.259  2.4378  1.8037  1.0669
 7120SOL     OW32821   4.387   3.255   4.850  0.1644 -0.3932  0.2282
 7120SOL    HW132822   4.415   3.304   4.928 -0.7297 -0.8740  0.8540
 7120SOL    HW232823   4.460   3.231   4.793  1.9137  0.1647  2.2339
 7121SOL     OW32824   2.376   4.631   6.943 -0.0543 -0.3163  1.1994
 7121SOL    HW132825   2.344   4.577   6.871 -1.5042  2.1732 -0.0337
 7121SOL    HW232826   2.298   4.685   6.954 -1.0368 -1.7579  1.1780
 7122SOL     OW32827   2.189   2.342  16.309 -0.7762 -0.6857 -0.0293
 7122SOL    HW132828   2.253   2.354  16.239 -0.0956  0.1884  0.7447
 7122SOL    HW232829   2.174   2.430  16.344  2.6138  0.0570 -0.4586
 7123SOL     OW32830   1.110   1.672   5.613  0.2127  0.3769  0.0554
 7123SOL    HW132831   1.034   1.660   5.671  0.3181 -1.0885 -0.1209
 7123SOL    HW232832   1.066   1.725   5.547  0.9359  0.5596 -0.2776
 7124SOL     OW32833   4.070   3.090  14.484  0.1994 -0.2566 -0.3036
 7124SOL    HW132834   3.991   3.070  14.434  0.0363  0.3873 -0.3020
 7124SOL    HW232835   4.084   3.176  14.446 -3.6344  0.5093  0.0014
 7125SOL     OW32836   4.412   4.287   6.219 -0.6222 -0.1517  0.2208
 7125SOL    HW132837   4.432   4.260   6.308  1.7159 -0.1660 -0.3314
 7125SOL    HW232838   4.481   4.251   6.164 -1.7531 -0.1819 -1.2022
 7126SOL     OW32839   2.333   2.775   4.347  0.0670  0.4348 -0.4288
 7126SOL    HW132840   2.416   2.762   4.394 -0.6025  0.4720  0.7602
 7126SOL    HW232841   2.275   2.793   4.421 -0.3360 -0.0315 -0.6393
 7127SOL     OW32842   4.418   2.103   6.469  0.0775  0.3502  0.3517
 7127SOL    HW132843   4.499   2.143   6.501  0.3744  0.2767 -0.3069
 7127SOL    HW232844   4.420   2.021   6.519 -0.7850 -0.1314 -0.4140
 7128SOL     OW32845   4.277   0.661   8.573  0.2683  0.3041 -0.2124
 7128SOL    HW132846   4.219   0.602   8.622 -0.1417  1.0948  0.2473
 7128SOL    HW232847   4.246   0.741   8.614  1.1499  1.6160 -2.1322
 7129SOL     OW32848   2.935   1.287   8.287 -0.6210 -0.5297 -0.0896
 7129SOL    HW132849   2.901   1.197   8.285 -1.5599 -0.1707 -0.4319
 7129SOL    HW232850   2.874   1.323   8.351 -0.4035  1.3263 -0.9317
 7130SOL     OW32851   3.210   4.396   6.181 -0.3222  0.3639  0.3503
 7130SOL    HW132852   3.228   4.397   6.087  1.1516 -2.0066  0.6093
 7130SOL    HW232853   3.172   4.308   6.191 -0.9773  0.7515  1.3388
 7131SOL     OW32854   0.514   1.477   3.946  0.1948 -0.0989  0.5152
 7131SOL    HW132855   0.563   1.474   4.028  1.1795 -1.7832 -0.1417
 7131SOL    HW232856   0.544   1.397   3.903  0.4032 -0.0446  0.5596
 7132SOL     OW32857   3.170   2.652   6.231 -0.4793  0.2287 -0.1966
 7132SOL    HW132858   3.132   2.603   6.304  2.0893  1.9267  2.2953
 7132SOL    HW232859   3.095   2.685   6.182  0.1542  0.1254 -1.2347
 7133SOL     OW32860   1.761   4.150   6.981  0.6799  0.2521 -0.6092
 7133SOL    HW132861   1.792   4.241   6.990  0.2923  0.1655  1.6702
 7133SOL    HW232862   1.804   4.133   6.897 -1.7262 -2.1421 -1.3621
 7134SOL     OW32863   0.215   0.672   2.546 -0.1029  0.6137 -0.3924
 7134SOL    HW132864   0.287   0.731   2.569  0.1328  0.8393 -1.7079
 7134SOL    HW232865   0.166   0.739   2.499  1.0543  0.2579 -2.1217
 7135SOL     OW32866   2.707   1.103  17.635 -0.3002 -0.3954  0.2114
 7135SOL    HW132867   2.638   1.165  17.660  0.5690  1.1534 -1.1694
 7135SOL    HW232868   2.653   1.038  17.590 -0.9280 -0.0967  0.5357
 7136SOL     OW32869   2.963   0.779  12.403  0.2098  0.3063  0.3254
 7136SOL    HW132870   2.946   0.806  12.313  1.6623 -1.4970 -0.5031
 7136SOL    HW232871   2.921   0.851  12.450 -1.5075 -1.0287  0.8008
 7137SOL     OW32872   0.041   1.412   2.866  0.2402  0.1519 -0.5582
 7137SOL    HW132873   0.114   1.370   2.821  0.4913  0.1165 -0.1156
 7137SOL    HW232874   0.052   1.375   2.953  0.1672  0.4920 -0.4024
 7138SOL     OW32875   1.872   2.352   3.407 -0.1747  0.0734  0.5615
 7138SOL    HW132876   1.814   2.315   3.474 -1.8014  0.9560 -0.3564
 7138SOL    HW232877   1.922   2.277   3.375  0.6792 -0.3157  2.7758
 7139SOL     OW32878   2.138   4.200   8.693  0.8810  0.4732 -0.1707
 7139SOL    HW132879   2.191   4.126   8.722  0.6228 -0.8299 -2.9690
 7139SOL    HW232880   2.202   4.271   8.698  0.1421  0.9983  1.6661
 7140SOL     OW32881   3.833   4.382   2.855  0.3283 -0.1763 -0.0119
 7140SOL    HW132882   3.858   4.461   2.903 -1.5492 -0.1309  0.8740
 7140SOL    HW232883   3.888   4.315   2.897 -1.2940 -0.8505  1.0216
 7141SOL     OW32884   2.440   1.568   6.974 -0.1003  0.3663  0.3299
 7141SOL    HW132885   2.472   1.482   7.003 -0.3066 -0.3028 -1.4249
 7141SOL    HW232886   2.349   1.559   7.002 -0.0217 -0.8324  0.2282
 7142SOL     OW32887   1.341   1.189   9.738 -0.5574 -0.3687 -0.3095
 7142SOL    HW132888   1.318   1.097   9.751  0.0305 -1.0139 -3.6408
 7142SOL    HW232889   1.347   1.221   9.827  1.2227 -2.5528  0.3636
 7143SOL     OW32890   0.325   3.283   4.210  0.0100 -0.0841 -0.3167
 7143SOL    HW132891   0.395   3.347   4.225  1.6480 -1.2075 -3.0536
 7143SOL    HW232892   0.246   3.334   4.197 -0.2589 -0.0118  1.6953
 7144SOL     OW32893   3.377   2.507   8.405 -0.7218 -0.1154  0.6095
 7144SOL    HW132894   3.293   2.468   8.379 -1.1672  0.3543  1.3568
 7144SOL    HW232895   3.397   2.445   8.476  2.8955  1.6185  1.1115
 7145SOL     OW32896   2.353   1.493   2.353 -0.4083 -0.4697 -0.5863
 7145SOL    HW132897   2.342   1.554   2.281  1.3815  0.6225  0.0923
 7145SOL    HW232898   2.418   1.435   2.313  1.7287  2.2901 -1.0855
 7146SOL     OW32899   2.385   2.521   1.770  0.2061 -0.2041  0.6364
 7146SOL    HW132900   2.384   2.436   1.814 -1.4967 -0.0150  0.9797
 7146SOL    HW232901   2.449   2.562   1.828 -2.6208  0.5993  3.1950
 7147SOL     OW32902   4.582   3.454   3.020 -0.0663 -0.1588  0.0979
 7147SOL    HW132903   4.613   3.412   2.939 -1.6432 -0.1585 -0.5110
 7147SOL    HW232904   4.505   3.504   2.991 -0.0181  0.4628  1.0492
 7148SOL     OW32905   2.558   0.532  14.402  0.1078  0.2083 -0.0897
 7148SOL    HW132906   2.635   0.523  14.347 -1.5231 -1.0796 -2.1700
 7148SOL    HW232907   2.593   0.511  14.488 -1.6618  1.8400  1.0315
 7149SOL     OW32908   4.591   1.173   7.212 -0.5506 -0.4101 -0.0559
 7149SOL    HW132909   4.633   1.206   7.133  0.7196 -0.3087  0.6707
 7149SOL    HW232910   4.580   1.257   7.257  3.7725 -1.5925  3.0806
 7150SOL     OW32911   1.481   3.529   6.730  0.1554  0.2736 -0.3814
 7150SOL    HW132912   1.545   3.557   6.664  1.1065  1.0820  0.8936
 7150SOL    HW232913   1.417   3.482   6.675 -0.0394  1.2419 -0.9844
 7151SOL     OW32914   3.477   0.542   7.500  0.0130  0.3729  0.6846
 7151SOL    HW132915   3.390   0.532   7.462  1.3066 -2.2552 -1.6320
 7151SOL    HW232916   3.448   0.562   7.589  2.5716  1.3863  1.2858
 7152SOL     OW32917   1.966   4.519  17.648  0.3272  0.0446  0.5031
 7152SOL    HW132918   1.970   4.587  17.580 -2.4947 -1.2203 -0.9231
 7152SOL    HW232919   2.050   4.475  17.632  0.1371 -1.1602  2.8351
 7153SOL     OW32920   0.987   2.226   4.053 -0.3431 -0.4263  0.1557
 7153SOL    HW132921   0.912   2.191   4.101 -1.2872 -0.4120 -1.2799
 7153SOL    HW232922   1.032   2.148   4.021 -1.0019 -0.7094 -0.0785
 7154SOL     OW32923   2.865   1.190  10.219 -0.0519 -0.0827 -0.4715
 7154SOL    HW132924   2.865   1.131  10.143  2.0466 -1.4396  0.5669
 7154SOL    HW232925   2.883   1.121  10.283  2.0403  2.4348  1.6472
 7155SOL     OW32926   3.107   0.951   5.047  0.8712 -0.6053 -0.5083
 7155SOL    HW132927   3.078   0.871   5.003  0.4379 -1.0964  0.6654
 7155SOL    HW232928   3.150   0.990   4.971  2.6843  1.5661  1.6192
 7156SOL     OW32929   2.832   2.131   4.115 -0.3952 -0.9150 -0.1503
 7156SOL    HW132930   2.757   2.117   4.174 -0.5300 -0.3477 -0.1853
 7156SOL    HW232931   2.862   2.221   4.126 -0.2422 -0.7668 -1.8987
 7157SOL     OW32932   4.332   1.979  14.334  0.1695 -0.4150  0.1430
 7157SOL    HW132933   4.370   1.993  14.247 -2.7623  0.1505 -1.0303
 7157SOL    HW232934   4.282   2.060  14.332  1.7408  0.5975  1.2257
 7158SOL     OW32935   3.454   1.492  12.471  0.1886 -0.0106  0.3297
 7158SOL    HW132936   3.482   1.558  12.535  2.3895  0.1256 -0.7936
 7158SOL    HW232937   3.374   1.461  12.513  0.3809  1.0131  1.4587
 7159SOL     OW32938   3.578   4.094  15.419  0.3689  0.3068  0.2152
 7159SOL    HW132939   3.632   4.123  15.492  1.1767 -2.1333  0.5919
 7159SOL    HW232940   3.650   4.091  15.356 -0.1547  2.2183 -0.4621
 7160SOL     OW32941   1.904   0.783   3.396  0.0793  0.0392  0.2816
 7160SOL    HW132942   1.962   0.767   3.321 -1.2348  0.3781 -0.8076
 7160SOL    HW232943   1.830   0.824   3.349  1.1695  1.3681 -0.3043
 7161SOL     OW32944   3.729   1.049   2.799 -0.1111 -0.5149  0.1869
 7161SOL    HW132945   3.676   1.054   2.879 -1.4078 -0.9544 -0.6459
 7161SOL    HW232946   3.681   1.098   2.734  1.2702  0.7705  0.1317
 7162SOL     OW32947   1.247   4.485  15.274 -0.2764 -0.2505 -0.1406
 7162SOL    HW132948   1.274   4.453  15.360 -1.3645  0.3807  0.4395
 7162SOL    HW232949   1.158   4.453  15.261 -1.1316  1.4313  1.5088
 7163SOL     OW32950   3.616   3.548   9.044 -0.1219 -0.1093 -0.0546
 7163SOL    HW132951   3.658   3.580   8.964 -0.5238  0.3054 -0.1008
 7163SOL    HW232952   3.664   3.592   9.114 -0.3136 -1.4951  0.9291
 7164SOL     OW32953   0.352   3.358   4.698  0.4138 -0.2741 -0.5645
 7164SOL    HW132954   0.286   3.291   4.681  0.5135  0.2932 -3.2705
 7164SOL    HW232955   0.306   3.435   4.664  0.0685 -0.2436 -0.0202
 7165SOL     OW32956   0.633   0.730  11.292 -0.1451 -0.0091  0.3006
 7165SOL    HW132957   0.589   0.775  11.364 -0.5703 -1.5214  0.9655
 7165SOL    HW232958   0.564   0.687  11.241  0.9497  0.3097 -1.4346
 7166SOL     OW32959   2.773   2.105   8.166  0.3293 -0.2912  0.1363
 7166SOL    HW132960   2.721   2.053   8.105  2.0604 -0.9409 -0.7816
 7166SOL    HW232961   2.750   2.197   8.148  0.1837 -0.7581 -2.1051
 7167SOL     OW32962   3.217   4.039   9.724  0.4757 -0.2120  0.4626
 7167SOL    HW132963   3.199   4.114   9.667 -1.4445 -2.3375 -1.6823
 7167SOL    HW232964   3.307   4.023   9.694  0.5994 -1.1095  1.3101
 7168SOL     OW32965   0.396   0.249   8.005  0.0247 -0.2679  0.6865
 7168SOL    HW132966   0.443   0.166   8.016  0.0306 -0.7517 -3.2020
 7168SOL    HW232967   0.306   0.220   7.989  0.6930 -2.2186  0.5038
 7169SOL     OW32968   3.662   0.422  15.222  0.1203  0.0425 -0.2150
 7169SOL    HW132969   3.597   0.359  15.254  0.8103 -0.3918  0.3233
 7169SOL    HW232970   3.605   0.487  15.181  0.2067 -0.9926 -1.9848
 7170SOL     OW32971   4.058   1.604   9.382 -0.0565 -0.1567 -0.1500
 7170SOL    HW132972   3.991   1.538   9.362  1.0854 -1.5792  0.6518
 7170SOL    HW232973   4.018   1.684   9.349 -0.7546 -0.4419  0.0078
 7171SOL     OW32974   0.022   0.250  16.482  0.3701 -0.4981  0.1305
 7171SOL    HW132975   4.679   0.308  16.517 -0.4183 -0.8201 -0.8962
 7171SOL    HW232976   4.708   0.163  16.486 -0.5381 -0.1463 -1.2685
 7172SOL     OW32977   1.933   4.474   8.593  0.3428 -0.1133 -0.5855
 7172SOL    HW132978   1.905   4.393   8.635 -1.0001  1.8086  2.2150
 7172SOL    HW232979   1.857   4.498   8.541 -0.8027  3.2413  2.6703
 7173SOL     OW32980   3.300   3.712   9.551 -0.1849  0.2214 -0.1627
 7173SOL    HW132981   3.300   3.803   9.521 -0.1837  1.0550  2.3390
 7173SOL    HW232982   3.207   3.695   9.570  0.2350 -1.4899  0.3683
 7174SOL     OW32983   1.220   4.566   6.753 -0.8917  0.6548  0.3872
 7174SOL    HW132984   1.164   4.512   6.809  0.5607  0.5471  1.7515
 7174SOL    HW232985   1.156   4.593   6.688 -0.2899  0.5332 -0.2593
 7175SOL     OW32986   1.639   1.849   7.290 -0.0574 -0.9119  0.0379
 7175SOL    HW132987   1.617   1.858   7.383  1.1479 -0.1666  0.2375
 7175SOL    HW232988   1.596   1.765   7.273 -0.6698 -0.8384  1.2093
 7176SOL     OW32989   3.813   0.683  17.667 -0.2505  0.4659 -0.1944
 7176SOL    HW132990   3.741   0.727   0.009 -0.2053  0.0664  0.2703
 7176SOL    HW232991   3.886   0.719   0.014  0.1265 -2.1965  1.1450
 7177SOL     OW32992   2.143   1.356   7.712 -0.0591 -0.6201 -0.0077
 7177SOL    HW132993   2.137   1.441   7.756 -0.5282  0.1879 -1.6703
 7177SOL    HW232994   2.233   1.332   7.735  0.7836  2.7280  0.1889
 7178SOL     OW32995   3.638   2.300   2.719  0.3227  0.3881  0.0689
 7178SOL    HW132996   3.695   2.269   2.648  0.1843  1.0169 -0.3221
 7178SOL    HW232997   3.697   2.346   2.779  0.6875  0.7836 -0.5909
 7179SOL     OW32998   0.231   1.663  13.548  0.3962 -0.0114 -0.2393
 7179SOL    HW132999   0.173   1.731  13.514  0.1299  0.3038  0.8713
 7179SOL    HW233000   0.204   1.586  13.498 -0.2025  1.3048 -1.9514
 7180SOL     OW33001   4.252   3.176   3.314 -0.4475  0.1082  0.1272
 7180SOL    HW133002   4.275   3.222   3.233  0.1327 -2.5060 -1.1917
 7180SOL    HW233003   4.159   3.164   3.297 -0.4988 -0.6290  0.9155
 7181SOL     OW33004   3.111   1.527   6.557 -0.1566  0.2144 -0.1881
 7181SOL    HW133005   3.201   1.500   6.575 -0.3946 -1.4490 -1.5376
 7181SOL    HW233006   3.119   1.623   6.557  2.3293  0.0070 -2.6171
 7182SOL     OW33007   3.150   2.824   6.020  0.2501  0.8495  0.2030
 7182SOL    HW133008   3.100   2.749   5.987  1.2364  0.4981 -0.5165
 7182SOL    HW233009   3.235   2.813   5.978 -0.9558  1.4984 -2.4172
 7183SOL     OW33010   2.137   4.456   8.288 -0.2405 -0.1537  0.3842
 7183SOL    HW133011   2.096   4.498   8.364  0.0668  0.7605  0.0335
 7183SOL    HW233012   2.185   4.391   8.340  0.3976  0.7672  0.9378
 7184SOL     OW33013   2.036   1.770   7.842  0.5733  0.4895 -0.3959
 7184SOL    HW133014   2.008   1.772   7.751 -0.3318 -0.0867 -0.1320
 7184SOL    HW233015   1.964   1.710   7.855  0.2549  1.1711  1.0211
 7185SOL     OW33016   3.906   0.952   2.391 -0.0893 -0.1690  0.2920
 7185SOL    HW133017   3.889   0.949   2.485  3.6031 -0.1164  0.9567
 7185SOL    HW233018   3.993   0.989   2.404  0.1740 -0.8740  0.5670
 7186SOL     OW33019   1.623   1.317   8.168 -0.3445 -0.4749  0.4337
 7186SOL    HW133020   1.668   1.401   8.156  0.4897 -0.9574  0.2218
 7186SOL    HW233021   1.691   1.269   8.122  0.8691  2.8160 -1.2170
 7187SOL     OW33022   3.985   2.940  13.419 -0.1197  0.5474  0.1090
 7187SOL    HW133023   3.975   2.889  13.339  0.9568  2.2697 -1.1227
 7187SOL    HW233024   4.069   2.903  13.444  0.0721  0.1824 -1.1064
 7188SOL     OW33025   3.370   3.388  10.043  0.3200 -0.4603  0.0993
 7188SOL    HW133026   3.396   3.328   9.973  1.8958  1.0236 -0.5855
 7188SOL    HW233027   3.457   3.415  10.069  0.6722  0.2979 -1.8359
 7189SOL     OW33028   1.263   1.056   6.506 -0.2281  0.5464 -0.2295
 7189SOL    HW133029   1.309   1.010   6.577 -1.1794  0.2543  0.2017
 7189SOL    HW233030   1.176   1.021   6.528 -0.8508 -0.0848 -3.7576
 7190SOL     OW33031   0.655   4.566  10.483 -0.4849  0.4919  0.2747
 7190SOL    HW133032   0.576   4.591  10.531 -2.7569 -0.6965 -2.8360
 7190SOL    HW233033   0.686   4.489  10.530 -1.2785 -0.1368 -0.2325
 7191SOL     OW33034   4.479   0.019   7.866 -0.0531  0.1719  0.3554
 7191SOL    HW133035   4.565   0.042   7.829 -0.3326 -0.6829 -0.8269
 7191SOL    HW233036   4.479   4.649   7.871  1.0785  0.1250 -0.5040
 7192SOL     OW33037   0.372   2.339   7.383  0.2021 -0.0777 -0.1470
 7192SOL    HW133038   0.331   2.374   7.462  4.7311  2.4095  1.1095
 7192SOL    HW233039   0.397   2.420   7.339  0.3681  0.0584  0.1960
 7193SOL     OW33040   1.850   2.981   8.996 -0.4817  0.2865  0.2188
 7193SOL    HW133041   1.873   2.962   8.905 -0.3556 -0.7823  0.4739
 7193SOL    HW233042   1.827   2.898   9.037 -1.8781  0.5888  0.0215
 7194SOL     OW33043   0.076   0.919  14.040 -0.0146 -0.2303 -0.2576
 7194SOL    HW133044   0.114   0.858  14.103  0.3065 -0.6528 -0.8623
 7194SOL    HW233045   0.145   0.933  13.975  1.7800  1.3110  1.9598
 7195SOL     OW33046   2.590   2.206   7.293 -0.1345  0.2138  0.1954
 7195SOL    HW133047   2.589   2.227   7.387  0.8025  1.7444 -0.1264
 7195SOL    HW233048   2.680   2.173   7.295 -0.3544 -0.3739  0.5974
 7196SOL     OW33049   1.652   3.624   4.768 -0.2361  0.2109 -0.3439
 7196SOL    HW133050   1.676   3.534   4.789 -1.6665  0.1253  0.9003
 7196SOL    HW233051   1.648   3.675   4.849 -0.7557  0.2934 -0.4169
 7197SOL     OW33052   1.986   3.194  13.965 -0.3209  0.4911  0.1140
 7197SOL    HW133053   1.985   3.286  13.940 -0.1409  0.2439 -0.8096
 7197SOL    HW233054   2.043   3.151  13.901  0.4831 -1.5476  2.2160
 7198SOL     OW33055   4.725   2.759   5.783  0.1268 -0.0163  0.1122
 7198SOL    HW133056   0.088   2.724   5.787  1.3100  2.6323 -3.0444
 7198SOL    HW233057   0.004   2.819   5.708  1.2649 -0.3722 -0.0992
 7199SOL     OW33058   3.694   3.599  12.264 -0.2724 -0.4601  0.4485
 7199SOL    HW133059   3.717   3.656  12.190  0.4525 -0.0866  0.9619
 7199SOL    HW233060   3.682   3.669  12.329 -1.4139 -0.1581 -0.0837
 7200SOL     OW33061   3.526   0.805  10.426  0.1640 -0.0295  0.9410
 7200SOL    HW133062   3.520   0.824  10.333  0.4238  0.9997  1.1293
 7200SOL    HW233063   3.455   0.743  10.441 -0.1145 -0.7571 -3.3671
 7201SOL     OW33064   4.442   0.539   2.375 -0.2140 -0.2896 -0.4210
 7201SOL    HW133065   4.359   0.502   2.407 -0.4210 -0.2476 -0.9083
 7201SOL    HW233066   4.507   0.473   2.398  0.0212  0.1361  0.1420
 7202SOL     OW33067   2.747   1.526   5.271  0.2362  0.1922 -0.8567
 7202SOL    HW133068   2.720   1.608   5.231  1.8962  0.8340 -0.6315
 7202SOL    HW233069   2.793   1.470   5.208  1.2326 -1.2795  1.1693
 7203SOL     OW33070   3.811   2.206   7.296  0.2467  0.0616  0.3104
 7203SOL    HW133071   3.840   2.280   7.243  0.8248  0.6060  1.4095
 7203SOL    HW233072   3.825   2.237   7.385 -0.3185  1.2401 -0.0176
 7204SOL     OW33073   3.024   3.242   7.045 -0.2348  0.1104 -0.0195
 7204SOL    HW133074   3.061   3.330   7.031 -1.0029  0.5884  0.9736
 7204SOL    HW233075   3.000   3.242   7.138  0.8899 -1.2297  0.2653
 7205SOL     OW33076   1.631   4.400   8.979  0.0583 -0.0366 -0.3800
 7205SOL    HW133077   1.544   4.360   8.982 -1.2832  2.9304 -0.3502
 7205SOL    HW233078   1.620   4.456   8.902  0.7771 -0.6470 -0.9293
 7206SOL     OW33079   0.358   4.348   8.497  0.3626 -0.1689 -0.5771
 7206SOL    HW133080   0.328   4.414   8.560  2.8408  1.9416 -1.6115
 7206SOL    HW233081   0.296   4.366   8.426 -0.9501  1.2692  0.9310
 7207SOL     OW33082   2.684   1.393   7.387 -0.2341 -0.0777 -0.7191
 7207SOL    HW133083   2.711   1.377   7.478 -0.3987 -0.4547 -0.7367
 7207SOL    HW233084   2.608   1.446   7.408  0.2191  0.1911  0.2658
 7208SOL     OW33085   1.055   1.528   9.353  0.0252  0.8983 -0.5159
 7208SOL    HW133086   1.124   1.589   9.329  0.0242  1.0219 -0.2071
 7208SOL    HW233087   1.043   1.484   9.269 -0.5324 -0.7967  0.4562
 7209SOL     OW33088   0.294   4.664   3.200  0.2809 -0.7483  0.3796
 7209SOL    HW133089   0.266   4.663   3.292 -0.2416  0.9015  0.2291
 7209SOL    HW233090   0.337   0.024   3.205  0.0366 -0.6397  0.6289
 7210SOL     OW33091   2.983   0.242   4.530  0.3643  0.0031 -0.1359
 7210SOL    HW133092   2.954   0.272   4.616  0.9611  0.9025 -0.2492
 7210SOL    HW233093   3.044   0.315   4.521  1.4852 -0.5117  3.3624
 7211SOL     OW33094   1.181   4.695  10.900 -0.1624 -0.5931 -0.1680
 7211SOL    HW133095   1.163   0.038  10.836  3.8141  1.5597  1.0046
 7211SOL    HW233096   1.246   0.006  10.959  2.5828 -2.0808 -2.2224
 7212SOL     OW33097   0.045   1.156  14.911 -0.3905  0.8489 -0.2946
 7212SOL    HW133098   0.029   1.145  15.004  3.0763  0.8803  0.2969
 7212SOL    HW233099   0.061   1.068  14.877 -0.6464  0.7787 -0.2333
 7213SOL     OW33100   1.011   0.124  10.474 -0.3482  0.0167  0.4327
 7213SOL    HW133101   0.952   0.066  10.426 -1.8625  2.9563 -1.2124
 7213SOL    HW233102   0.941   0.182  10.502 -2.1635 -1.5759 -0.8606
 7214SOL     OW33103   0.526   1.609   8.976 -0.4564  0.3257 -1.0340
 7214SOL    HW133104   0.519   1.621   8.881 -1.2140 -0.7287 -1.1077
 7214SOL    HW233105   0.619   1.608   8.997 -0.6748 -0.5885 -0.1343
 7215SOL     OW33106   0.844   3.936   3.848  0.3705 -0.3744 -0.5275
 7215SOL    HW133107   0.840   4.025   3.883 -3.1302 -0.1068 -1.5967
 7215SOL    HW233108   0.886   3.891   3.921  0.2944 -0.9749 -0.8535
 7216SOL     OW33109   1.683   2.997   3.164  0.1824  0.2811 -0.8243
 7216SOL    HW133110   1.771   2.983   3.131  0.5574 -1.2024  0.7866
 7216SOL    HW233111   1.682   3.087   3.196 -2.2457  0.1462 -0.5355
 7217SOL     OW33112   1.884   3.198   9.231 -0.2797  0.0692  0.6824
 7217SOL    HW133113   1.902   3.254   9.155 -0.1818 -0.5785  0.2321
 7217SOL    HW233114   1.876   3.256   9.306 -1.1740 -0.8275  1.2664
 7218SOL     OW33115   0.725   2.977   1.602  0.1581 -0.3346 -0.3800
 7218SOL    HW133116   0.804   2.933   1.634 -0.1722 -0.7073 -0.0747
 7218SOL    HW233117   0.740   2.986   1.508 -0.1959  0.6646 -0.3392
 7219SOL     OW33118   0.286   2.738   7.195 -0.5550  0.6788  0.0567
 7219SOL    HW133119   0.311   2.822   7.231  0.7713  1.0608 -1.7584
 7219SOL    HW233120   0.192   2.748   7.175 -0.7158  0.4186  0.6804
 7220SOL     OW33121   0.883   0.563   6.217 -0.0375 -0.1294 -0.6850
 7220SOL    HW133122   0.918   0.589   6.132  0.4670  0.9499 -0.1467
 7220SOL    HW233123   0.827   0.485   6.208 -1.5929  0.8645  0.4432
 7221SOL     OW33124   2.658   1.065  12.574 -0.6451 -0.4083 -0.0878
 7221SOL    HW133125   2.596   0.994  12.588 -1.5528  0.1920 -1.0795
 7221SOL    HW233126   2.692   1.091  12.660 -0.6156  1.5574 -0.6939
 7222SOL     OW33127   2.226   4.374   2.153  0.2761  0.0288 -0.6542
 7222SOL    HW133128   2.151   4.315   2.145  0.4978 -0.0972 -1.8646
 7222SOL    HW233129   2.199   4.429   2.080 -4.7104 -0.6324  0.7318
 7223SOL     OW33130   2.705   1.895   8.559  0.0507 -0.4035  0.7531
 7223SOL    HW133131   2.679   1.985   8.581  2.2006  0.7027 -1.1829
 7223SOL    HW233132   2.638   1.865   8.496  1.3923 -1.0152 -0.3771
 7224SOL     OW33133   4.100   3.902   9.111  0.2411  0.0523  0.1659
 7224SOL    HW133134   4.043   3.979   9.114  1.8795  1.3067 -1.0449
 7224SOL    HW233135   4.087   3.882   9.018  0.8223  1.5986 -0.2501
 7225SOL     OW33136   0.562   4.530  10.234  0.3317  0.0906 -0.0316
 7225SOL    HW133137   0.610   4.458  10.193  1.2614  0.2661  0.7571
 7225SOL    HW233138   0.587   4.522  10.326 -3.0584  1.3075  0.9649
 7226SOL     OW33139   2.720   2.361   7.067  0.4286  0.1408 -0.1460
 7226SOL    HW133140   2.769   2.434   7.104 -1.4356  0.8175  0.9592
 7226SOL    HW233141   2.689   2.318   7.146 -1.1831  2.3914  0.4640
 7227SOL     OW33142   2.776   2.763  12.539  0.9454  0.4636  0.3128
 7227SOL    HW133143   2.713   2.836  12.542  1.9913  1.3890 -0.1285
 7227SOL    HW233144   2.727   2.696  12.586 -0.1795  0.0667 -1.4422
 7228SOL     OW33145   4.710   1.474   9.765  0.0780 -0.2880  0.1515
 7228SOL    HW133146   4.682   1.386   9.740 -0.8445 -0.1467  0.6878
 7228SOL    HW233147   4.622   1.509   9.780  0.5040  0.1125  1.6781
 7229SOL     OW33148   2.289   4.476   2.968 -0.0141  0.1284 -0.2600
 7229SOL    HW133149   2.271   4.557   2.920  3.5155  0.9221 -0.3121
 7229SOL    HW233150   2.209   4.476   3.019  0.1909 -2.0984  0.0719
 7230SOL     OW33151   1.113   0.009   7.482  0.7258 -0.1238  0.0315
 7230SOL    HW133152   1.031   4.696   7.511  1.3413 -1.8439 -0.4739
 7230SOL    HW233153   1.175   4.690   7.540  0.9054  0.8646  0.5795
 7231SOL     OW33154   1.222   1.053  15.433 -0.0044 -0.1865  0.3883
 7231SOL    HW133155   1.272   1.033  15.354  0.7051  0.1032  0.7611
 7231SOL    HW233156   1.137   1.069  15.392  0.0319 -0.0212  0.3772
 7232SOL     OW33157   0.306   4.459   6.658  0.1344  0.3458 -0.1789
 7232SOL    HW133158   0.318   4.522   6.587  0.5123 -0.6346 -0.9867
 7232SOL    HW233159   0.355   4.383   6.627  1.0552  0.2397  1.5429
 7233SOL     OW33160   2.191   2.658  10.617  0.1620  0.7302  0.1519
 7233SOL    HW133161   2.274   2.704  10.620  0.3893  0.4522 -2.1362
 7233SOL    HW233162   2.137   2.734  10.594 -2.2294 -0.7354  0.8142
 7234SOL     OW33163   0.094   3.480   7.643 -0.0805  0.5083 -0.0886
 7234SOL    HW133164   0.014   3.532   7.641 -0.7532 -0.4500  1.4409
 7234SOL    HW233165   0.138   3.529   7.714 -1.2029  0.2322  0.7961
 7235SOL     OW33166   2.541   0.216   3.199  0.5396  0.1541 -0.3278
 7235SOL    HW133167   2.610   0.163   3.238 -0.3335 -1.2359 -0.6915
 7235SOL    HW233168   2.526   0.273   3.274  2.8297  1.2007 -0.6655
 7236SOL     OW33169   0.818   4.118   3.359 -0.1954 -0.3517  0.0072
 7236SOL    HW133170   0.815   4.137   3.453 -0.8761 -4.7981  0.9087
 7236SOL    HW233171   0.802   4.202   3.316  1.7959  1.9214  3.7251
 7237SOL     OW33172   4.665   0.661  16.130  0.1084  0.3964  0.2795
 7237SOL    HW133173   4.589   0.704  16.170 -0.2467  0.8158 -0.8594
 7237SOL    HW233174   4.679   0.585  16.187  2.1571  0.9154  0.4670
 7238SOL     OW33175   1.032   4.428   8.573 -0.0239  0.7916  0.3385
 7238SOL    HW133176   1.016   4.510   8.621 -0.5708  1.0501 -0.2918
 7238SOL    HW233177   0.945   4.403   8.543 -1.2182  3.6973  1.2940
 7239SOL     OW33178   1.011   3.725  10.452 -0.8315  0.6146 -0.2257
 7239SOL    HW133179   0.919   3.739  10.471 -0.8668  1.1822 -0.8165
 7239SOL    HW233180   1.021   3.744  10.358  0.1183 -0.6032 -0.3822
 7240SOL     OW33181   0.418   0.684   3.517  0.5585 -0.6052 -0.0416
 7240SOL    HW133182   0.419   0.747   3.445 -1.2962 -0.3487  0.1780
 7240SOL    HW233183   0.431   0.605   3.465 -0.9254  0.1441 -1.5428
 7241SOL     OW33184   2.066   2.825   6.985 -0.2194 -0.0240  0.7358
 7241SOL    HW133185   2.132   2.884   7.020  1.0527  0.5000 -2.6261
 7241SOL    HW233186   2.109   2.782   6.911 -0.7827  1.5470 -0.4979
 7242SOL     OW33187   2.823   1.473   7.831 -0.4735  0.7936  0.3830
 7242SOL    HW133188   2.784   1.525   7.762 -0.3671  1.6028  0.9292
 7242SOL    HW233189   2.908   1.514   7.815  1.0658 -3.8004 -3.1568
 7243SOL     OW33190   3.486   0.665   2.503 -0.2423 -0.6871 -0.4555
 7243SOL    HW133191   3.503   0.758   2.516  0.1009 -1.2891  3.3047
 7243SOL    HW233192   3.391   0.654   2.509 -0.4259  1.0988 -0.2420
 7244SOL     OW33193   1.513   1.034   5.503 -1.1757 -0.4733 -0.7560
 7244SOL    HW133194   1.485   0.943   5.491  0.2046 -1.0515  0.4715
 7244SOL    HW233195   1.604   1.025   5.528 -0.5985  0.5604 -2.4945
 7245SOL     OW33196   2.943   0.153  16.572 -0.6118  0.1555 -0.6810
 7245SOL    HW133197   3.036   0.149  16.591 -1.0141 -0.0201  1.2438
 7245SOL    HW233198   2.943   0.231  16.516  0.2379 -0.2090 -1.1915
 7246SOL     OW33199   4.006   2.387  12.115 -0.4518  0.1260  0.1521
 7246SOL    HW133200   4.068   2.334  12.166 -0.2672 -0.2799 -0.4987
 7246SOL    HW233201   4.061   2.417  12.042  0.9121  0.3449  1.2577
 7247SOL     OW33202   0.900   4.133   9.094 -0.0273  0.1262 -0.1258
 7247SOL    HW133203   0.995   4.145   9.102  0.0553 -0.0418 -0.8598
 7247SOL    HW233204   0.888   4.182   9.012  0.5316  2.9458  1.4735
 7248SOL     OW33205   2.804   1.259   5.169  0.5067  0.2370 -0.2681
 7248SOL    HW133206   2.854   1.239   5.248  1.4530 -1.3967 -1.2859
 7248SOL    HW233207   2.813   1.174   5.126  0.8824  0.4797 -0.6653
 7249SOL     OW33208   4.042   2.769  12.467  0.2924  0.1017  0.5101
 7249SOL    HW133209   4.101   2.833  12.429 -2.6583  0.7558 -3.0165
 7249SOL    HW233210   4.093   2.730  12.538  1.0665 -0.1853 -0.2068
 7250SOL     OW33211   4.396   3.905   6.808  0.1515 -0.4735 -0.1466
 7250SOL    HW133212   4.371   3.963   6.880  1.2569 -0.5429  0.2876
 7250SOL    HW233213   4.461   3.958   6.762  0.1954  0.6802  1.2681
 7251SOL     OW33214   3.863   0.178  14.949 -0.0060 -0.5725 -0.2190
 7251SOL    HW133215   3.793   0.239  14.976  1.6411  1.5403 -0.7257
 7251SOL    HW233216   3.872   0.129  15.031  0.3428  1.0149  0.6883
 7252SOL     OW33217   0.636   4.530  17.054  0.3375  0.0003  0.1753
 7252SOL    HW133218   0.559   4.487  17.017 -1.2658  1.6766  1.5609
 7252SOL    HW233219   0.589   4.595  17.106  1.5400 -1.1842  2.7163
 7253SOL     OW33220   0.588   1.597   8.705  0.0736 -0.6128  0.8304
 7253SOL    HW133221   0.673   1.571   8.669 -0.3389 -0.7667 -0.0343
 7253SOL    HW233222   0.579   1.687   8.675  0.0002 -0.7934  0.3028
 7254SOL     OW33223   4.068   2.115   7.617  0.4258 -0.1394  0.3237
 7254SOL    HW133224   4.033   2.041   7.568  0.3510  1.2291 -1.6850
 7254SOL    HW233225   3.987   2.162   7.635  1.1407  1.1690  0.0892
 7255SOL     OW33226   2.113   3.634  12.511 -0.7947 -0.4345 -0.0548
 7255SOL    HW133227   2.144   3.573  12.579  0.9809 -2.2622 -2.5278
 7255SOL    HW233228   2.192   3.678  12.482 -1.6029  1.6386  0.8546
 7256SOL     OW33229   2.412   3.254  12.953  0.1639  0.3277 -0.1261
 7256SOL    HW133230   2.444   3.256  13.043 -1.1574 -0.1583  0.3598
 7256SOL    HW233231   2.492   3.292  12.916  0.6315 -0.4938  0.0372
 7257SOL     OW33232   3.655   3.706   5.952 -0.2623 -0.0857  0.3715
 7257SOL    HW133233   3.602   3.632   5.924  1.4178 -0.3886 -2.0176
 7257SOL    HW233234   3.704   3.674   6.027 -0.4238  1.4307  1.1400
 7258SOL     OW33235   1.423   2.242   2.367 -0.1206 -0.0434 -0.3839
 7258SOL    HW133236   1.376   2.277   2.291  1.8036  0.0817 -1.5299
 7258SOL    HW233237   1.510   2.281   2.360  1.1463 -2.7111  0.4238
 7259SOL     OW33238   1.485   4.008   6.390 -0.1132 -0.1180 -0.6589
 7259SOL    HW133239   1.538   3.963   6.456 -0.1787  0.0576 -0.4868
 7259SOL    HW233240   1.393   3.993   6.413  0.2191  0.7567  1.2671
 7260SOL     OW33241   1.687   4.028   2.126 -0.4699 -0.5338  0.4184
 7260SOL    HW133242   1.733   4.060   2.203 -0.4991  0.8809 -0.1625
 7260SOL    HW233243   1.645   3.953   2.169  2.8428 -2.6380  0.0050
 7261SOL     OW33244   2.212   4.693   6.368  0.0960  0.4567 -0.1132
 7261SOL    HW133245   2.200   4.624   6.433  1.5289 -0.5782 -0.9398
 7261SOL    HW233246   2.170   4.645   6.296  0.0091  1.1197 -0.4985
 7262SOL     OW33247   3.227   0.887   8.264 -0.2718 -0.0561  0.3867
 7262SOL    HW133248   3.278   0.813   8.230  1.1334  0.4760  1.3343
 7262SOL    HW233249   3.157   0.837   8.306 -1.1164  1.2330  0.4867
 7263SOL     OW33250   2.120   3.334   5.084 -0.1643 -0.1730  0.1207
 7263SOL    HW133251   2.164   3.270   5.029 -0.2626 -0.0629 -0.0857
 7263SOL    HW233252   2.028   3.312   5.095  0.2010 -1.0777  1.3676
 7264SOL     OW33253   3.659   2.528   4.216  0.4474 -0.4896  0.5731
 7264SOL    HW133254   3.663   2.584   4.139  1.2419  0.5735  1.3776
 7264SOL    HW233255   3.599   2.577   4.271  0.0037 -0.9240  0.4740
 7265SOL     OW33256   1.438   1.034   2.735  0.3598 -0.2921 -0.2302
 7265SOL    HW133257   1.373   0.978   2.778 -0.5933 -1.5433 -3.3110
 7265SOL    HW233258   1.404   1.041   2.646  0.2488  1.6862 -0.0333
 7266SOL     OW33259   4.081   2.841   8.664 -0.0205 -0.1165 -0.0826
 7266SOL    HW133260   4.129   2.918   8.633 -0.3885  0.8052  1.6440
 7266SOL    HW233261   4.130   2.825   8.745  0.3024 -0.6613 -0.3871
 7267SOL     OW33262   3.069   0.924   2.318  0.1997  0.1603  0.3307
 7267SOL    HW133263   3.096   0.934   2.409  4.3883 -0.3590 -0.8316
 7267SOL    HW233264   3.046   0.832   2.327 -0.4229  0.2309 -0.5040
 7268SOL     OW33265   4.433   3.920   5.635  0.5732 -0.2654 -0.0598
 7268SOL    HW133266   4.509   3.914   5.693  0.1728 -2.9530  0.1675
 7268SOL    HW233267   4.364   3.878   5.686  0.0598 -0.1795 -0.6772
 7269SOL     OW33268   1.747   3.266   2.415 -0.1787  0.6027  0.0538
 7269SOL    HW133269   1.705   3.190   2.456 -1.7648  2.6945  2.3244
 7269SOL    HW233270   1.678   3.277   2.349 -0.5849 -1.3124  0.1740
 7270SOL     OW33271   0.013   2.528  13.997 -0.6135 -0.0976 -0.5294
 7270SOL    HW133272   4.666   2.563  14.048 -0.2429  0.5067 -0.4212
 7270SOL    HW233273   0.078   2.596  14.014  0.4830 -1.2547 -0.0889
 7271SOL     OW33274   3.421   3.902   5.331  0.4821 -0.1704 -0.2774
 7271SOL    HW133275   3.409   3.830   5.270 -0.2004 -0.1884 -0.1182
 7271SOL    HW233276   3.466   3.854   5.400 -0.2896 -1.8220 -0.9406
 7272SOL     OW33277   3.399   1.860  16.671 -0.4302 -0.1801  0.2243
 7272SOL    HW133278   3.362   1.932  16.723  0.6891  0.9157 -0.4940
 7272SOL    HW233279   3.343   1.853  16.594  0.9336  0.6231 -0.8331
 7273SOL     OW33280   1.266   0.156  10.558  0.2131  0.5439 -0.7483
 7273SOL    HW133281   1.184   0.151  10.509  0.0931 -0.5938 -0.4519
 7273SOL    HW233282   1.236   0.163  10.649  1.8872 -0.2825 -0.1316
 7274SOL     OW33283   2.685   1.009   5.354 -0.2694  0.4902 -0.7149
 7274SOL    HW133284   2.590   1.019   5.354 -0.3753 -0.5721 -2.2461
 7274SOL    HW233285   2.716   1.049   5.435 -2.2443 -0.2071  0.3681
 7275SOL     OW33286   2.024   1.451   8.954 -0.2145 -0.0858 -0.1889
 7275SOL    HW133287   2.015   1.355   8.958  2.4236 -0.4462 -2.9961
 7275SOL    HW233288   2.114   1.478   8.966 -0.1783 -0.1345 -0.3489
 7276SOL     OW33289   4.184   3.706   6.215 -0.0224 -0.1076  0.2679
 7276SOL    HW133290   4.209   3.613   6.214  0.8263  0.1135  1.2944
 7276SOL    HW233291   4.130   3.715   6.294  0.9574 -0.6428  0.9979
 7277SOL     OW33292   3.963   2.564  15.616 -0.4814  0.2287 -0.1303
 7277SOL    HW133293   3.968   2.479  15.660 -0.4901 -0.0422 -0.6575
 7277SOL    HW233294   3.916   2.616  15.681 -0.8096  1.8193 -1.6268
 7278SOL     OW33295   3.092   0.454  11.799  0.2024 -0.2988  0.0015
 7278SOL    HW133296   3.097   0.400  11.720 -0.0838  0.1944 -0.3516
 7278SOL    HW233297   3.178   0.495  11.809  0.0706  0.2193 -1.1036
 7279SOL     OW33298   0.934   1.861   4.909 -0.0804 -0.0833 -0.3879
 7279SOL    HW133299   0.904   1.909   4.986  0.9422 -0.4762  0.2469
 7279SOL    HW233300   0.848   1.821   4.896 -0.4905  0.8781 -0.6084
 7280SOL     OW33301   1.921   3.098   2.769  0.2482 -0.0992  0.4245
 7280SOL    HW133302   1.955   3.022   2.723  3.2202  1.5475 -0.1280
 7280SOL    HW233303   1.904   3.165   2.703 -2.0247  1.8681  2.9655
 7281SOL     OW33304   3.616   3.175   9.558 -0.0998 -0.2700 -0.2559
 7281SOL    HW133305   3.539   3.156   9.504 -0.3966  0.3593 -0.0510
 7281SOL    HW233306   3.686   3.185   9.494 -0.8363 -0.2132 -1.0564
 7282SOL     OW33307   3.537   3.066   3.198  0.3277  0.4578  0.2763
 7282SOL    HW133308   3.629   3.073   3.224  0.2563 -0.4325  0.7760
 7282SOL    HW233309   3.536   3.120   3.119  1.6591 -0.8688 -0.6651
 7283SOL     OW33310   3.627   0.762   7.310 -0.0082 -0.5537 -0.0998
 7283SOL    HW133311   3.703   0.793   7.261 -0.5982 -0.2882 -0.8507
 7283SOL    HW233312   3.656   0.738   7.398 -2.5874  2.6488  1.6061
 7284SOL     OW33313   3.454   0.885   7.106  0.0309  0.5638  0.6854
 7284SOL    HW133314   3.542   0.855   7.131  0.2030  0.6888  0.2312
 7284SOL    HW233315   3.478   0.925   7.022 -2.9315 -1.6955 -1.2552
 7285SOL     OW33316   2.163   3.486  16.507  0.0986 -0.0859 -0.2437
 7285SOL    HW133317   2.124   3.404  16.475  1.6487 -0.6624 -0.6406
 7285SOL    HW233318   2.156   3.480  16.603  2.1481 -1.7928 -0.1948
 7286SOL     OW33319   3.033   3.436   5.328  0.2975 -0.2037  0.1848
 7286SOL    HW133320   3.126   3.460   5.329  0.4596 -0.9058  1.3795
 7286SOL    HW233321   3.026   3.416   5.421  0.0055  1.6938  0.5662
 7287SOL     OW33322   2.559   3.733   7.964 -0.0487 -0.1880 -0.1400
 7287SOL    HW133323   2.580   3.708   8.054  0.1739 -1.6523 -0.6079
 7287SOL    HW233324   2.464   3.723   7.971 -0.1192  1.2213  0.9840
 7288SOL     OW33325   1.636   4.320   6.243 -0.1100  0.3087  0.1647
 7288SOL    HW133326   1.552   4.276   6.259  1.8017 -3.8698 -1.4037
 7288SOL    HW233327   1.634   4.397   6.300 -0.0747 -0.7617  1.6321
 7289SOL     OW33328   2.888   2.365  16.538  0.5476 -0.0538 -0.4212
 7289SOL    HW133329   2.812   2.339  16.486 -0.3955  0.9926  0.4457
 7289SOL    HW233330   2.941   2.287  16.522  1.4127  0.5191 -0.3343
 7290SOL     OW33331   0.029   0.147   6.870  0.4077 -0.0478 -0.1238
 7290SOL    HW133332   0.109   0.199   6.868  1.9373 -2.4171  0.0993
 7290SOL    HW233333   4.700   0.199   6.810 -0.5530  1.1537  1.7832
 7291SOL     OW33334   3.572   4.085   8.117 -0.3326  0.8718  0.7028
 7291SOL    HW133335   3.491   4.111   8.073 -0.3112  0.2133  0.2529
 7291SOL    HW233336   3.550   3.994   8.138  1.9259  0.0874 -0.3579
 7292SOL     OW33337   4.442   3.760   2.469  0.3434 -0.4538  0.4214
 7292SOL    HW133338   4.399   3.791   2.548  3.4020  0.4727  1.7238
 7292SOL    HW233339   4.368   3.703   2.447  0.0676  0.7870 -1.7996
 7293SOL     OW33340   0.840   0.915   2.327 -0.2107 -0.0784 -0.2231
 7293SOL    HW133341   0.842   0.828   2.288 -0.3526 -0.5320  0.7832
 7293SOL    HW233342   0.884   0.898   2.410  1.2707  0.0324 -0.9835
 7294SOL     OW33343   4.233   0.369   4.729 -0.4689 -0.2127 -0.3617
 7294SOL    HW133344   4.327   0.378   4.709 -0.6968  0.6614 -1.0141
 7294SOL    HW233345   4.227   0.360   4.824 -2.0925 -0.7778 -0.5296
 7295SOL     OW33346   4.014   3.098   6.117  0.9601 -0.6783  0.0753
 7295SOL    HW133347   3.977   3.094   6.206 -1.4206  2.0444 -0.7987
 7295SOL    HW233348   3.998   3.191   6.099 -1.0435 -1.3427 -1.4944
 7296SOL     OW33349   0.836   2.727   6.549  0.1810 -0.1661  0.2785
 7296SOL    HW133350   0.911   2.707   6.493 -0.2161 -0.9844  0.0299
 7296SOL    HW233351   0.852   2.818   6.573  2.0929 -0.6693  0.9138
 7297SOL     OW33352   1.244   1.667   3.154 -0.2057  0.3079 -0.4005
 7297SOL    HW133353   1.149   1.657   3.141 -0.4739 -2.3017  3.3379
 7297SOL    HW233354   1.275   1.578   3.138  0.5482  0.4309  0.3839
 7298SOL     OW33355   0.879   1.049   5.193 -0.7179  0.4161 -0.1177
 7298SOL    HW133356   0.879   1.042   5.288 -1.7109 -0.2825 -0.1733
 7298SOL    HW233357   0.828   0.969   5.177 -1.0817  0.1647  2.2630
 7299SOL     OW33358   1.061   0.734   4.976 -0.1554  0.1444  0.0159
 7299SOL    HW133359   1.032   0.682   4.901  2.8596 -0.0385 -1.0080
 7299SOL    HW233360   0.978   0.770   5.009  0.3637  1.1249  0.2586
 7300SOL     OW33361   0.840   1.520   8.536  0.8197  0.3194 -0.0970
 7300SOL    HW133362   0.859   1.435   8.576  1.1477  0.3395 -0.2094
 7300SOL    HW233363   0.902   1.576   8.583  0.8087  0.6826 -0.5153
 7301SOL     OW33364   2.220   4.463   5.681 -0.3784 -0.1937 -0.2901
 7301SOL    HW133365   2.308   4.429   5.668 -0.1472  0.4886 -0.5203
 7301SOL    HW233366   2.210   4.516   5.601  1.4003 -1.9219 -1.6555
 7302SOL     OW33367   4.534   2.569   7.782 -0.1845 -0.1097  0.0358
 7302SOL    HW133368   4.522   2.661   7.755  0.0878 -0.6037 -1.7864
 7302SOL    HW233369   4.528   2.519   7.701 -4.6903  1.0087 -0.3319
 7303SOL     OW33370   0.989   2.516   2.406 -0.1469  0.9699 -0.6296
 7303SOL    HW133371   0.956   2.551   2.323 -0.2032 -0.2007 -1.1058
 7303SOL    HW233372   1.084   2.512   2.396  0.0960  2.1107  1.2471
 7304SOL     OW33373   4.312   0.323   1.844 -0.0034 -0.0493 -0.1630
 7304SOL    HW133374   4.345   0.238   1.817 -1.1600 -1.1113  1.8120
 7304SOL    HW233375   4.391   0.370   1.870  1.5968 -2.3644 -0.9428
 7305SOL     OW33376   3.704   3.361   1.692 -1.1032  0.2669  0.4690
 7305SOL    HW133377   3.719   3.270   1.716  0.1801  0.3726  0.0409
 7305SOL    HW233378   3.617   3.377   1.728 -1.4382 -1.5451  0.4451
 7306SOL     OW33379   2.507   3.837   1.395  0.0545  0.3770  0.9319
 7306SOL    HW133380   2.504   3.831   1.491  0.5148  1.2165  1.0016
 7306SOL    HW233381   2.415   3.823   1.375  0.9097  0.3551 -2.9844
 7307SOL     OW33382   0.936   4.039   6.070 -0.0523  0.6993  0.2118
 7307SOL    HW133383   0.881   4.110   6.036 -1.0045 -1.6055 -3.0964
 7307SOL    HW233384   0.881   3.963   6.051 -0.4086  1.6326 -2.4930
 7308SOL     OW33385   0.871   2.637   2.203  0.7343  0.3940  0.1540
 7308SOL    HW133386   0.801   2.674   2.257  1.2124 -1.2419  1.9047
 7308SOL    HW233387   0.825   2.625   2.120  1.1916 -0.2962  0.0046
 7309SOL     OW33388   1.868   2.889  13.818 -0.0495 -0.3487 -0.5979
 7309SOL    HW133389   1.945   2.832  13.823  0.3034  0.1416 -0.4365
 7309SOL    HW233390   1.912   2.964  13.777 -2.8005  2.0975  0.9953
 7310SOL     OW33391   3.121   0.182   2.826 -0.4603  0.6013  0.8331
 7310SOL    HW133392   3.105   0.089   2.842  0.8072  0.5845  1.9556
 7310SOL    HW233393   3.043   0.200   2.774  0.2132 -0.2896 -0.4717
 7311SOL     OW33394   3.838   3.578   5.371  0.0814 -0.5579  0.2569
 7311SOL    HW133395   3.875   3.576   5.460  0.6422 -0.1974  0.0329
 7311SOL    HW233396   3.892   3.510   5.330  2.2585  0.2084  1.8486
 7312SOL     OW33397   3.698   1.815  13.726  0.7351 -0.0467  0.8217
 7312SOL    HW133398   3.625   1.833  13.785 -0.1409 -1.7204  0.2557
 7312SOL    HW233399   3.768   1.851  13.780  1.7418 -0.3177 -0.3109
 7313SOL     OW33400   0.086   1.313   3.103  0.1271  0.0515  0.0711
 7313SOL    HW133401   0.094   1.351   3.190  3.1544 -0.6191  0.0935
 7313SOL    HW233402   0.037   1.234   3.126  1.7585 -0.7196  0.8787
 7314SOL     OW33403   3.442   0.378   2.512  0.3367 -0.0456 -0.4324
 7314SOL    HW133404   3.432   0.347   2.422 -2.5233 -1.2503  0.3039
 7314SOL    HW233405   3.437   0.471   2.494 -1.3317 -0.3336 -1.4579
 7315SOL     OW33406   0.046   0.419   3.920 -0.0746 -0.3728 -0.6249
 7315SOL    HW133407   0.076   0.467   3.843  0.6448  1.7601  1.0042
 7315SOL    HW233408   0.021   0.338   3.875 -1.9972 -1.0230  1.6664
 7316SOL     OW33409   1.652   2.113   3.243  0.1419 -0.3553 -0.0120
 7316SOL    HW133410   1.635   2.038   3.185 -0.8774 -0.3771  0.3047
 7316SOL    HW233411   1.719   2.166   3.201  0.2824 -1.7344 -1.5513
 7317SOL     OW33412   2.038   3.925   3.302  0.4328  0.4597  0.2568
 7317SOL    HW133413   1.952   3.919   3.261  0.8815 -1.6969 -0.3803
 7317SOL    HW233414   2.018   3.982   3.376 -1.8592  2.3251 -1.7920
 7318SOL     OW33415   3.932   1.717   2.072 -0.0294  0.5518  0.6788
 7318SOL    HW133416   4.020   1.752   2.083  0.7167 -0.6544 -1.5592
 7318SOL    HW233417   3.915   1.743   1.981  0.5251 -0.0490  0.4015
 7319SOL     OW33418   1.232   0.868   7.410  0.4307  0.5650 -1.0850
 7319SOL    HW133419   1.178   0.848   7.334 -1.5189 -1.5323  0.8986
 7319SOL    HW233420   1.323   0.859   7.381  0.9575 -1.6095  1.2506
 7320SOL     OW33421   2.778   4.228   0.513 -0.2781 -0.5547 -0.1828
 7320SOL    HW133422   2.690   4.221   0.476 -0.7830 -1.3313  1.1653
 7320SOL    HW233423   2.798   4.322   0.506  0.1200 -0.6319 -0.1068
 7321SOL     OW33424   1.050   0.908   6.636 -0.0475  0.4466  0.6010
 7321SOL    HW133425   1.040   0.864   6.721 -0.5947 -0.3873  0.0982
 7321SOL    HW233426   0.965   0.945   6.613 -0.2537  0.0893  0.8045
 7322SOL     OW33427   0.933   3.760   2.377  0.4001  0.0311 -0.7925
 7322SOL    HW133428   0.952   3.697   2.447 -0.5346  1.2619  0.5795
 7322SOL    HW233429   0.892   3.708   2.308  0.3438 -1.9659  0.7537
 7323SOL     OW33430   1.843   0.617   8.555  0.3651  0.3953  0.1299
 7323SOL    HW133431   1.891   0.652   8.630  1.3624 -0.1734 -0.2557
 7323SOL    HW233432   1.754   0.651   8.567  0.9377  1.6802  0.6634
 7324SOL     OW33433   3.378   1.999   4.673 -0.6157  0.0745 -0.1804
 7324SOL    HW133434   3.434   1.937   4.719  0.0362  0.7886 -0.0208
 7324SOL    HW233435   3.331   1.938   4.616 -2.7344 -1.4331  3.1719
 7325SOL     OW33436   3.108   1.652  16.604 -0.7440 -0.1160  0.0650
 7325SOL    HW133437   3.108   1.641  16.699  2.1849  1.1655  0.2263
 7325SOL    HW233438   3.050   1.582  16.576  0.7801 -1.0737 -0.6878
 7326SOL     OW33439   2.183   0.136   8.961 -0.3334 -0.0818  0.3618
 7326SOL    HW133440   2.148   0.223   8.943  0.4646  0.4217  1.2478
 7326SOL    HW233441   2.134   0.103   9.036 -2.0841 -0.2020 -0.8640
 7327SOL     OW33442   0.770   4.229  11.299 -0.5218  0.0301 -0.0685
 7327SOL    HW133443   0.821   4.158  11.258 -0.2974  0.6091 -0.7858
 7327SOL    HW233444   0.779   4.296  11.232 -1.5387 -0.2481 -0.4818
 7328SOL     OW33445   1.207   2.725  16.331 -0.0047 -0.0398  0.2006
 7328SOL    HW133446   1.301   2.738  16.313 -0.0330  0.7072  0.5809
 7328SOL    HW233447   1.201   2.630  16.339  1.5362 -0.2552 -0.9294
 7329SOL     OW33448   0.119   0.446   1.811  0.8991 -0.2234 -0.6180
 7329SOL    HW133449   0.094   0.412   1.725 -2.7470  1.9833 -0.4390
 7329SOL    HW233450   0.205   0.481   1.790  0.0929  0.8430 -2.1443
 7330SOL     OW33451   1.962   3.910  10.576 -0.3233  0.1254 -0.2191
 7330SOL    HW133452   1.912   3.955  10.644 -0.0300  1.4174 -0.8565
 7330SOL    HW233453   1.966   3.983  10.514  1.5144 -0.2180 -0.5059
 7331SOL     OW33454   0.875   4.061   7.953  0.1863  0.2181 -0.3538
 7331SOL    HW133455   0.812   4.051   8.024 -0.6859  4.6176 -0.5456
 7331SOL    HW233456   0.876   3.973   7.915  0.5952 -0.3615  0.9896
 7332SOL     OW33457   0.253   0.520   7.635  0.4401 -0.2545  0.1023
 7332SOL    HW133458   0.331   0.511   7.582  1.9447 -1.5823  2.5429
 7332SOL    HW233459   0.300   0.557   7.710  0.2549 -1.4356  0.7984
 7333SOL     OW33460   2.214   4.229   4.196  0.3667 -0.4153 -0.6787
 7333SOL    HW133461   2.120   4.222   4.211 -0.1073  0.9144 -3.1370
 7333SOL    HW233462   2.241   4.237   4.288  0.5156 -2.7242 -0.5189
 7334SOL     OW33463   3.603   3.562   4.827 -1.1719  0.1444  0.7946
 7334SOL    HW133464   3.545   3.485   4.825 -0.4985 -0.2998 -0.9473
 7334SOL    HW233465   3.537   3.621   4.864 -3.1821 -0.7341 -1.4056
 7335SOL     OW33466   4.429   1.761   1.702  0.6127  0.3305  0.2623
 7335SOL    HW133467   4.452   1.695   1.768 -2.4818 -0.7626  0.2507
 7335SOL    HW233468   4.340   1.784   1.727 -0.0776 -1.8479 -0.2208
 7336SOL     OW33469   1.178   0.123   7.141  0.3638  0.2403 -0.2010
 7336SOL    HW133470   1.142   0.142   7.228 -0.9097 -1.2500 -0.4016
 7336SOL    HW233471   1.145   0.034   7.127  0.4864  0.4155 -1.6237
 7337SOL     OW33472   1.596   4.263   8.605 -0.0779  0.6820  0.1038
 7337SOL    HW133473   1.592   4.341   8.660 -0.3813  0.4731  0.3726
 7337SOL    HW233474   1.540   4.287   8.530 -0.3218 -1.5270 -0.4277
 7338SOL     OW33475   3.547   2.629  13.372  0.1009  0.3952 -0.0607
 7338SOL    HW133476   3.597   2.683  13.311  0.4765 -0.0451 -0.1332
 7338SOL    HW233477   3.508   2.564  13.314  0.8635 -0.3249  0.2334
 7339SOL     OW33478   2.002   2.607   9.208  0.5867  0.0268  0.1707
 7339SOL    HW133479   2.053   2.681   9.240  1.3807  0.1863 -1.4509
 7339SOL    HW233480   1.969   2.571   9.290  1.0945 -1.3756 -0.2343
 7340SOL     OW33481   0.777   0.068   5.380 -0.0703 -0.5919  0.3425
 7340SOL    HW133482   0.719   0.041   5.451  1.3138  1.5254  2.2895
 7340SOL    HW233483   0.736   0.033   5.301  0.3025 -1.7628  0.6741
 7341SOL     OW33484   4.144   3.920   3.632  0.1595 -0.3225 -0.1916
 7341SOL    HW133485   4.227   3.936   3.677 -1.3462  1.3059  2.0009
 7341SOL    HW233486   4.157   3.832   3.596  3.7114  0.2700 -0.3945
 7342SOL     OW33487   0.357   1.551   3.298  0.4439  0.4072  0.2876
 7342SOL    HW133488   0.452   1.545   3.295  0.3375 -1.5242  1.0327
 7342SOL    HW233489   0.352   1.624   3.236 -0.3875  1.0172  1.0657
 7343SOL     OW33490   4.242   2.406   8.921  0.5026  0.2484  0.6793
 7343SOL    HW133491   4.243   2.311   8.929  0.2252  0.4625  3.1895
 7343SOL    HW233492   4.273   2.420   8.831 -2.2259  0.6133 -0.2162
 7344SOL     OW33493   1.211   4.347   3.670  0.3751  0.1131 -0.1086
 7344SOL    HW133494   1.197   4.257   3.641  0.7713 -0.1956  0.6979
 7344SOL    HW233495   1.241   4.339   3.760  4.3595  0.1022 -1.4697
 7345SOL     OW33496   0.010   4.467   6.219 -0.1457  0.2726 -0.5864
 7345SOL    HW133497   0.012   4.529   6.292  1.6092 -1.4133  0.8111
 7345SOL    HW233498   0.052   4.391   6.259 -2.4465 -0.8257 -0.2596
 7346SOL     OW33499   2.598   0.767  16.365 -0.4227  0.0391 -0.1959
 7346SOL    HW133500   2.520   0.710  16.359  0.7296 -1.5271 -0.2815
 7346SOL    HW233501   2.575   0.830  16.433 -0.4738  1.5433 -1.6030
 7347SOL     OW33502   4.349   1.372   7.905 -0.3208 -0.7050  0.2324
 7347SOL    HW133503   4.361   1.424   7.826  3.7105 -2.1562 -0.1202
 7347SOL    HW233504   4.267   1.407   7.939 -0.1382 -0.8190  0.7903
 7348SOL     OW33505   1.335   0.674  16.627 -0.8052  0.2912  0.5738
 7348SOL    HW133506   1.269   0.743  16.630 -0.2204  0.9046 -0.5644
 7348SOL    HW233507   1.371   0.662  16.714 -1.9581 -0.0717  1.0030
 7349SOL     OW33508   0.927   4.356   1.924 -0.2031  0.6285  0.1375
 7349SOL    HW133509   0.948   4.286   1.986  1.8290  0.8158 -0.3463
 7349SOL    HW233510   0.961   4.331   1.838 -2.7124  0.9077 -0.9335
 7350SOL     OW33511   2.877   3.978   0.964  0.3062  0.1002 -0.0234
 7350SOL    HW133512   2.855   4.026   1.043  1.3422  1.3323 -0.4730
 7350SOL    HW233513   2.825   4.025   0.899 -1.3843 -0.8198  0.6911
 7351SOL     OW33514   1.522   3.404   5.740  0.2005  0.2685  0.2689
 7351SOL    HW133515   1.516   3.319   5.783  0.4683 -0.0107 -0.2525
 7351SOL    HW233516   1.460   3.457   5.792  1.1029  1.4105  0.1872
 7352SOL     OW33517   2.210   2.877  10.872 -0.2455  0.2872  0.1672
 7352SOL    HW133518   2.209   2.937  10.797  0.7945  0.3457  0.1965
 7352SOL    HW233519   2.296   2.835  10.861 -0.6329 -0.5339  0.3208
 7353SOL     OW33520   2.638   1.848  11.442  0.3353  0.5046 -0.0220
 7353SOL    HW133521   2.574   1.826  11.374 -0.9062  0.5138  1.1347
 7353SOL    HW233522   2.677   1.761  11.449  1.1337  0.9057  0.4670
 7354SOL     OW33523   1.963   2.716   6.673 -0.3968 -0.7199 -0.2937
 7354SOL    HW133524   1.905   2.775   6.722 -0.8088 -1.3092 -0.0775
 7354SOL    HW233525   1.933   2.632   6.707  0.0060 -0.4934  0.6134
 7355SOL     OW33526   4.475   1.168   2.288 -0.8165 -0.6325 -0.1337
 7355SOL    HW133527   4.418   1.201   2.219  0.1414 -3.4865 -2.3131
 7355SOL    HW233528   4.498   1.250   2.330  2.2565 -0.6150 -1.8360
 7356SOL     OW33529   2.425   1.160   8.556 -0.5686 -0.1779 -0.0204
 7356SOL    HW133530   2.384   1.140   8.640  0.2869 -0.1164  0.4154
 7356SOL    HW233531   2.501   1.211   8.585 -1.2673 -0.0013  1.4815
 7357SOL     OW33532   1.826   4.392   2.933  0.0817  0.5591  0.4857
 7357SOL    HW133533   1.896   4.328   2.946  0.0207  0.5698  0.8648
 7357SOL    HW233534   1.752   4.331   2.932  1.1150 -0.6802 -0.0520
 7358SOL     OW33535   2.112   1.878  10.093  0.4234  0.4938  0.2245
 7358SOL    HW133536   2.140   1.928  10.016  2.0041 -1.5027 -0.4933
 7358SOL    HW233537   2.079   1.945  10.153 -0.5263  0.2510 -0.0306
 7359SOL     OW33538   4.325   0.554   5.346 -0.3483  0.2423 -0.0495
 7359SOL    HW133539   4.301   0.492   5.415  0.0166  0.2212  0.0586
 7359SOL    HW233540   4.287   0.639   5.369  0.0532 -0.1070  1.9118
 7360SOL     OW33541   0.749   2.980   4.658 -0.3815 -0.7061  0.4705
 7360SOL    HW133542   0.774   2.997   4.749 -1.7314  2.0908  0.3025
 7360SOL    HW233543   0.831   2.964   4.611  1.4060 -0.3144  3.4509
 7361SOL     OW33544   4.493   4.061  12.438  0.6495  0.1183  0.1624
 7361SOL    HW133545   4.565   4.035  12.495 -0.8357 -2.2388  0.9680
 7361SOL    HW233546   4.468   3.975  12.403 -0.2674  0.1675  0.7004
 7362SOL     OW33547   0.833   0.528   4.580  0.3477 -0.0358 -0.0841
 7362SOL    HW133548   0.864   0.443   4.612  0.6677  0.8298  1.9070
 7362SOL    HW233549   0.803   0.571   4.660  1.7130 -3.0356  2.0334
 7363SOL     OW33550   1.382   3.609   4.802  0.2550  0.1935  0.5140
 7363SOL    HW133551   1.355   3.682   4.746  0.5571  1.1876  1.6519
 7363SOL    HW233552   1.476   3.627   4.799  0.3571 -0.1480  1.7336
 7364SOL     OW33553   2.816   1.437   6.618  0.1244 -0.5832  0.3379
 7364SOL    HW133554   2.791   1.512   6.672  4.1863  1.9959 -1.3188
 7364SOL    HW233555   2.904   1.474   6.604  0.4717 -0.8193  1.8808
 7365SOL     OW33556   0.021   3.027   6.295 -0.4889  0.3002 -0.7157
 7365SOL    HW133557   0.061   3.046   6.380  0.8598 -2.0412 -0.8224
 7365SOL    HW233558   4.712   2.941   6.319  0.6527 -0.3518 -1.4431
 7366SOL     OW33559   0.703   0.653   4.792  0.6763  0.2599  0.2101
 7366SOL    HW133560   0.612   0.644   4.817  0.4095  3.3996  0.3881
 7366SOL    HW233561   0.697   0.738   4.747 -1.9007  1.4586  2.8455
 7367SOL     OW33562   2.994   0.199   5.018 -0.0073  0.1401  0.4674
 7367SOL    HW133563   3.044   0.146   5.080  0.7751  0.7198  0.3397
 7367SOL    HW233564   2.970   0.133   4.953  0.3931  1.5443 -1.0995
 7368SOL     OW33565   4.214   0.404  10.615 -0.0600 -0.7146  0.6664
 7368SOL    HW133566   4.204   0.331  10.676 -1.8808 -0.6201  0.4999
 7368SOL    HW233567   4.139   0.386  10.558  1.0322 -0.4357 -0.8521
 7369SOL     OW33568   4.491   3.044   3.552 -0.1886 -0.1318  0.1142
 7369SOL    HW133569   4.503   3.133   3.586  1.6278 -1.0499  1.8441
 7369SOL    HW233570   4.547   3.027   3.476 -0.6255  1.1960 -0.5065
 7370SOL     OW33571   0.557   0.637   5.944 -0.9860  0.4283  0.6509
 7370SOL    HW133572   0.568   0.686   6.025  0.4283 -0.5499  1.0440
 7370SOL    HW233573   0.619   0.682   5.887  0.5771 -2.1334  0.3174
 7371SOL     OW33574   1.018   3.003   4.506 -0.4526  0.2534  0.5409
 7371SOL    HW133575   0.990   3.083   4.462 -1.0667 -0.1062  0.2802
 7371SOL    HW233576   1.112   2.999   4.491 -0.0036  1.9151  2.8985
 7372SOL     OW33577   1.492   0.936  12.640 -0.0531 -0.0874 -0.2104
 7372SOL    HW133578   1.582   0.904  12.652 -0.1551 -1.2936 -2.5720
 7372SOL    HW233579   1.450   0.918  12.724  2.2993  0.6609  1.1243
 7373SOL     OW33580   3.595   2.570   8.089 -0.0595  0.4024 -0.2779
 7373SOL    HW133581   3.549   2.613   8.160 -1.2425  1.2242 -1.5592
 7373SOL    HW233582   3.641   2.648   8.059 -1.4170  1.3583  0.1456
 7374SOL     OW33583   2.350   2.708   5.943 -0.3152  0.5478 -0.1030
 7374SOL    HW133584   2.311   2.706   6.030 -0.8325 -2.8711 -0.4415
 7374SOL    HW233585   2.279   2.748   5.893 -0.0288  1.6596  0.3733
 7375SOL     OW33586   1.002   0.478   1.225 -0.1339  0.2002 -0.1841
 7375SOL    HW133587   1.048   0.548   1.180  0.6892  0.3420  0.8935
 7375SOL    HW233588   1.042   0.488   1.310  0.9883 -1.7791 -0.4707
 7376SOL     OW33589   3.579   2.102   0.348  0.1459  0.9696  0.6617
 7376SOL    HW133590   3.628   2.051   0.413 -0.0034  0.1688  0.1381
 7376SOL    HW233591   3.519   2.151   0.405 -0.7965  2.4533 -1.6272
 7377SOL     OW33592   0.132   3.484   6.322 -0.4077 -0.5887 -0.6604
 7377SOL    HW133593   0.093   3.435   6.250  0.8982 -0.7692 -1.2474
 7377SOL    HW233594   0.211   3.438   6.350 -0.0400  2.1180  2.7500
 7378SOL     OW33595   1.001   0.392   2.449  0.6675 -0.1975 -0.6063
 7378SOL    HW133596   1.033   0.473   2.488 -1.0132 -0.4703  1.3854
 7378SOL    HW233597   0.918   0.374   2.495  1.0038 -1.2018 -0.3772
 7379SOL     OW33598   4.007   1.894  16.109  0.4600 -0.5256 -0.3421
 7379SOL    HW133599   4.053   1.972  16.080  1.0308 -1.2986 -1.5301
 7379SOL    HW233600   3.976   1.851  16.029  0.7609 -0.5600 -0.4386
 7380SOL     OW33601   1.766   2.786   1.675  0.1430 -0.4664  0.2092
 7380SOL    HW133602   1.706   2.757   1.743 -0.7374 -0.1021 -0.4086
 7380SOL    HW233603   1.848   2.751   1.709  0.5559  0.9913  0.7294
 7381SOL     OW33604   2.583   2.986  13.118  0.0994  0.9555  0.4953
 7381SOL    HW133605   2.594   3.007  13.026 -1.0333 -1.7304 -0.2474
 7381SOL    HW233606   2.532   3.058  13.155  0.1520  0.6902  1.0956
 7382SOL     OW33607   0.367   0.713   3.779  0.4993 -0.3588 -0.3319
 7382SOL    HW133608   0.393   0.729   3.688  0.9362 -1.7550 -0.4420
 7382SOL    HW233609   0.440   0.656   3.804 -0.5704 -0.2684  2.9998
 7383SOL     OW33610   0.145   0.238   2.559  0.5277 -0.1194 -0.3294
 7383SOL    HW133611   0.199   0.160   2.551 -0.5969 -0.7928 -1.3361
 7383SOL    HW233612   0.212   0.303   2.534  1.6640 -0.2284  2.4026
 7384SOL     OW33613   0.832   1.243   6.245  0.0125  0.1875  0.2104
 7384SOL    HW133614   0.774   1.173   6.216  0.9236  0.4996 -2.3545
 7384SOL    HW233615   0.787   1.254   6.329  0.1139 -2.1495  0.5704
 7385SOL     OW33616   2.528   4.613   3.483 -0.2216  0.5485 -0.3024
 7385SOL    HW133617   2.500   4.530   3.522  1.1390 -1.1210 -2.8444
 7385SOL    HW233618   2.572   4.567   3.411  0.1785  2.3146 -1.1808
 7386SOL     OW33619   2.974   3.542   1.485  0.5913  0.6340  0.3884
 7386SOL    HW133620   3.016   3.520   1.401 -0.0581  1.1598 -0.0743
 7386SOL    HW233621   2.902   3.598   1.456 -0.6153  0.4540  3.0694
 7387SOL     OW33622   0.734   3.837   5.048  0.6106  0.1813  0.2129
 7387SOL    HW133623   0.639   3.844   5.061  0.5558  1.3826 -0.7962
 7387SOL    HW233624   0.743   3.747   5.016  1.0651  0.4261 -0.3374
 7388SOL     OW33625   2.380   4.653   3.863  0.5216 -0.0998  0.0234
 7388SOL    HW133626   2.440   4.603   3.919  0.2234 -1.1071 -0.5571
 7388SOL    HW233627   2.438   0.001   3.840  0.4594  0.4087  1.4460
 7389SOL     OW33628   3.389   3.176  11.792  0.2360  0.0362  0.0755
 7389SOL    HW133629   3.375   3.133  11.876  1.9741 -1.9665 -0.6464
 7389SOL    HW233630   3.417   3.111  11.728 -1.2045 -0.3128 -0.1852
 7390SOL     OW33631   3.789   0.936   0.155 -0.1213  0.2009 -0.4379
 7390SOL    HW133632   3.866   0.958   0.207 -0.4904  0.9090 -0.2053
 7390SOL    HW233633   3.721   0.948   0.220  1.4931 -0.3529  1.3534
 7391SOL     OW33634   4.016   1.340   7.263  0.2539  0.5102 -0.3310
 7391SOL    HW133635   4.042   1.430   7.282  1.2702  0.3250 -0.8364
 7391SOL    HW233636   4.057   1.297   7.338  0.5703  0.6461 -0.4274
 7392SOL     OW33637   3.949   2.976   8.348  0.4764 -0.0135 -0.6860
 7392SOL    HW133638   3.949   2.984   8.252 -0.7521 -0.6682 -0.7454
 7392SOL    HW233639   3.994   2.893   8.366  2.1520  1.1045  0.2671
 7393SOL     OW33640   1.040   1.459  12.453  0.5539 -0.4172  0.1262
 7393SOL    HW133641   1.115   1.471  12.512 -0.0835 -0.5147  0.9607
 7393SOL    HW233642   0.982   1.401  12.502  0.0805 -0.6557 -0.7235
 7394SOL     OW33643   1.997   0.080  11.479 -0.3411  0.6574 -0.8138
 7394SOL    HW133644   1.907   0.058  11.500 -0.0475 -1.8669 -2.2085
 7394SOL    HW233645   2.046   0.002  11.506  0.1484  0.5046 -2.1213
 7395SOL     OW33646   4.632   0.913   6.081  0.5429  0.0279  0.2604
 7395SOL    HW133647   4.708   0.971   6.091  1.5313 -1.4991  1.6104
 7395SOL    HW233648   4.574   0.937   6.154 -0.3419 -0.0783 -0.4100
 7396SOL     OW33649   0.910   0.865   3.688 -0.1637  0.3100  0.3075
 7396SOL    HW133650   0.935   0.790   3.742 -0.1869 -1.4784 -2.1897
 7396SOL    HW233651   0.825   0.844   3.650  0.0742  0.3431 -0.2440
 7397SOL     OW33652   3.513   1.369  10.214 -0.6367 -0.1973 -0.2469
 7397SOL    HW133653   3.595   1.382  10.167 -0.9251 -2.3646 -1.3573
 7397SOL    HW233654   3.500   1.460  10.240 -0.6658  0.1584 -1.5358
 7398SOL     OW33655   2.201   1.772   8.146  0.4068  0.3293  0.6367
 7398SOL    HW133656   2.226   1.823   8.069  0.1342  1.5327  1.3363
 7398SOL    HW233657   2.259   1.816   8.207  0.5206 -1.2588  1.6764
 7399SOL     OW33658   4.004   1.524   3.501 -1.0542  0.6656  0.4712
 7399SOL    HW133659   4.048   1.549   3.420 -1.3261 -0.2163  0.0498
 7399SOL    HW233660   4.057   1.447   3.524 -0.4798  0.6392 -0.9429
 7400SOL     OW33661   4.680   2.049   2.548 -0.2663  0.3344 -0.2958
 7400SOL    HW133662   4.668   1.955   2.540  0.7947  0.0563  1.3987
 7400SOL    HW233663   0.008   2.072   2.471  0.3572 -1.8270 -0.4905
 7401SOL     OW33664   1.415   0.529   6.253 -0.9351  0.6081  0.0889
 7401SOL    HW133665   1.478   0.513   6.183 -0.9046  3.0489 -0.4534
 7401SOL    HW233666   1.431   0.623   6.267  0.1125  0.5445 -0.6340
 7402SOL     OW33667   0.631   3.976   5.897 -0.0870  0.1712 -0.0208
 7402SOL    HW133668   0.634   3.882   5.882  0.5196  0.1225  0.4114
 7402SOL    HW233669   0.610   3.983   5.990  0.2145  2.6021 -0.1419
 7403SOL     OW33670   1.206   1.947   5.261 -0.0340 -0.0226  0.1829
 7403SOL    HW133671   1.145   1.884   5.300  2.5150 -1.6003  1.6380
 7403SOL    HW233672   1.218   1.901   5.178  1.3719 -1.5398  1.2312
 7404SOL     OW33673   3.196   4.151   6.944 -0.0052 -0.0522 -0.0115
 7404SOL    HW133674   3.154   4.078   6.989 -2.1190 -0.7085 -3.0563
 7404SOL    HW233675   3.138   4.157   6.868  1.1384  0.6747 -0.8325
 7405SOL     OW33676   2.024   0.802   7.229 -0.2529 -0.1032  0.2625
 7405SOL    HW133677   2.062   0.841   7.150 -4.4541 -0.7062 -2.0432
 7405SOL    HW233678   2.102   0.759   7.264  0.1113 -0.5515 -1.0951
 7406SOL     OW33679   4.620   4.057   9.088 -0.0984  0.4103  0.0887
 7406SOL    HW133680   4.527   4.076   9.077 -0.2719 -0.6737 -0.3367
 7406SOL    HW233681   4.638   3.964   9.074  0.8906  0.6200 -0.0296
 7407SOL     OW33682   2.200   4.436  12.218  0.3834 -0.1421 -0.2324
 7407SOL    HW133683   2.288   4.464  12.191 -0.8805  0.9839 -3.1062
 7407SOL    HW233684   2.195   4.352  12.171  0.9686  0.8846 -2.1407
 7408SOL     OW33685   4.586   3.192   7.798 -0.0645  0.2573 -0.4072
 7408SOL    HW133686   4.584   3.197   7.703  0.0385  0.0393 -0.4208
 7408SOL    HW233687   4.576   3.097   7.812 -1.1220  0.5758  1.0864
 7409SOL     OW33688   0.117   1.096  11.641  0.1621  0.6332  0.3788
 7409SOL    HW133689   0.091   1.181  11.678 -0.0864 -0.2369  2.1629
 7409SOL    HW233690   0.079   1.117  11.555 -0.4279 -0.5290  0.3600
 7410SOL     OW33691   2.339   3.013  10.081 -0.1911 -0.2704  0.1816
 7410SOL    HW133692   2.326   2.918  10.086  0.4200 -0.3306  0.6793
 7410SOL    HW233693   2.252   3.045  10.102  0.2141  2.4239 -2.2070
 7411SOL     OW33694   0.341   0.544   4.512 -0.3248  0.3125 -0.9781
 7411SOL    HW133695   0.342   0.635   4.541 -0.2550 -0.5469  1.6912
 7411SOL    HW233696   0.429   0.526   4.480 -0.1610  2.7676 -1.9854
 7412SOL     OW33697   1.143   0.394   0.977 -0.3219 -0.3206  0.1081
 7412SOL    HW133698   1.124   0.325   0.913 -3.8402 -0.3068  1.1488
 7412SOL    HW233699   1.175   0.330   1.040  1.0401 -0.5241 -0.7831
 7413SOL     OW33700   3.857   3.684   6.168 -0.2790 -0.0528 -0.0922
 7413SOL    HW133701   3.869   3.727   6.253 -1.2717  0.4694 -0.2166
 7413SOL    HW233702   3.815   3.602   6.193 -1.9348  0.7401 -0.2442
 7414SOL     OW33703   4.010   4.078  16.798 -0.0118 -0.0510 -0.3972
 7414SOL    HW133704   3.989   4.011  16.863 -1.1416 -0.4456 -1.1714
 7414SOL    HW233705   3.998   4.022  16.721  2.6793 -1.2093  0.0337
 7415SOL     OW33706   4.688   0.461   1.484 -0.3574 -0.6827  0.1549
 7415SOL    HW133707   4.640   0.491   1.561  0.0986  0.3649  0.0270
 7415SOL    HW233708   0.016   0.390   1.521  1.2949 -0.5845 -2.0798
 7416SOL     OW33709   2.269   4.138   5.936 -0.4586 -0.0353 -0.1750
 7416SOL    HW133710   2.226   4.175   5.859 -1.5979  0.3242  0.6246
 7416SOL    HW233711   2.299   4.218   5.979 -0.2300 -0.8718  1.2308
 7417SOL     OW33712   0.924   3.971   4.917  0.0354  0.5955 -0.1003
 7417SOL    HW133713   0.903   4.064   4.926  4.1764  1.5129  0.0902
 7417SOL    HW233714   0.854   3.924   4.962  1.4663  0.4786  1.9666
 7418SOL     OW33715   2.491   3.964   7.053  0.1038  0.1690  0.0588
 7418SOL    HW133716   2.501   4.013   7.134  1.1725  1.7207 -1.0009
 7418SOL    HW233717   2.570   3.910   7.054  0.9937  1.3910 -1.8524
 7419SOL     OW33718   1.830   3.609  15.610 -0.4791 -0.2217 -0.0417
 7419SOL    HW133719   1.825   3.676  15.543  0.1115 -2.5894 -2.4483
 7419SOL    HW233720   1.770   3.642  15.678 -0.0685  0.1033  0.1639
 7420SOL     OW33721   2.959   2.753   6.616 -0.3560 -0.6277  0.3946
 7420SOL    HW133722   3.000   2.707   6.690  0.4981 -1.7002 -0.7502
 7420SOL    HW233723   3.011   2.833   6.608  0.7635 -1.6956 -3.1620
 7421SOL     OW33724   1.924   2.225   8.099  0.6208 -0.1378  0.0011
 7421SOL    HW133725   1.949   2.308   8.057  1.9901 -0.6069 -0.1209
 7421SOL    HW233726   1.843   2.205   8.053  1.0383 -0.5571 -0.5502
 7422SOL     OW33727   2.227   0.963  12.702 -0.1004 -0.5511 -0.2923
 7422SOL    HW133728   2.312   0.926  12.724  0.3857  1.4023  1.1288
 7422SOL    HW233729   2.192   0.995  12.785 -1.4742  1.4486 -1.6286
 7423SOL     OW33730   2.975   4.598   6.506  0.4675 -0.0218  0.0045
 7423SOL    HW133731   3.015   4.536   6.567  1.6186  0.5230 -0.1939
 7423SOL    HW233732   2.946   4.665   6.568 -0.9159  0.3377 -1.0253
 7424SOL     OW33733   0.978   0.989  17.061  0.0057 -0.3968 -0.0757
 7424SOL    HW133734   1.058   1.010  17.109  0.5055 -1.0172 -0.6221
 7424SOL    HW233735   1.011   0.907  17.023  2.0111 -0.0361  0.8756
 7425SOL     OW33736   1.436   1.610   7.082 -0.3870 -0.0938 -0.3067
 7425SOL    HW133737   1.465   1.671   7.014  1.4550 -0.0193  0.5702
 7425SOL    HW233738   1.412   1.527   7.039  1.2949 -0.0475 -1.3352
 7426SOL     OW33739   3.181   4.007   7.609  0.2733  0.0461 -0.1139
 7426SOL    HW133740   3.180   4.033   7.517 -0.4030  2.2587  0.5233
 7426SOL    HW233741   3.160   3.915   7.590  0.9292  0.1653 -1.3828
 7427SOL     OW33742   3.090   2.675   2.166  0.0566 -0.3695 -0.0679
 7427SOL    HW133743   3.019   2.724   2.208 -1.1863 -1.2972 -1.0912
 7427SOL    HW233744   3.071   2.686   2.073  1.4254 -0.6745 -0.3798
 7428SOL     OW33745   0.663   0.286   5.691 -0.0496  0.2743  0.3625
 7428SOL    HW133746   0.665   0.324   5.779 -2.3937  0.3019  0.4198
 7428SOL    HW233747   0.576   0.246   5.695  0.6570 -1.1179  1.5698
 7429SOL     OW33748   0.939   0.306   6.001 -0.1877 -0.3899 -0.7110
 7429SOL    HW133749   0.962   0.387   5.957 -2.0008  0.1341 -0.6534
 7429SOL    HW233750   0.938   0.246   5.927  1.1582 -2.2383  0.7382
 7430SOL     OW33751   0.071   1.961  16.274  0.6976 -0.5184  0.2481
 7430SOL    HW133752   4.719   1.979  16.327  1.1366  0.8461  0.4330
 7430SOL    HW233753   0.144   1.987  16.330 -0.2211 -0.7681  1.5673
 7431SOL     OW33754   1.972   4.562   4.378 -0.0412  0.1767 -0.0944
 7431SOL    HW133755   1.946   4.652   4.357  1.2567 -0.0426 -2.6702
 7431SOL    HW233756   1.960   4.574   4.472 -1.1713 -0.5554 -0.1502
 7432SOL     OW33757   1.379   3.478   3.809  0.0236 -0.5724 -0.1534
 7432SOL    HW133758   1.440   3.497   3.738 -0.1729 -1.1122 -0.4662
 7432SOL    HW233759   1.403   3.555   3.861 -0.5046 -1.7447  1.8318
 7433SOL     OW33760   0.067   4.573   2.235 -0.4118 -0.0575 -0.1122
 7433SOL    HW133761   0.072   4.534   2.322 -2.3176  2.0377  0.9285
 7433SOL    HW233762   4.699   4.556   2.220 -1.1218  2.6034  1.2825
 7434SOL     OW33763   3.199   3.701   5.313  0.1821  0.4822 -0.0918
 7434SOL    HW133764   3.278   3.673   5.266  0.0152  2.6220 -1.6255
 7434SOL    HW233765   3.238   3.727   5.396 -1.0557  1.7985  0.0686
 7435SOL     OW33766   1.288   4.648   5.617 -0.4931  0.2402 -0.5333
 7435SOL    HW133767   1.318   4.694   5.695  0.6975 -0.3095 -0.6701
 7435SOL    HW233768   1.198   4.676   5.599  0.3433  3.4125  0.2926
 7436SOL     OW33769   0.805   2.125  10.744  0.2266 -0.3509 -0.3449
 7436SOL    HW133770   0.760   2.135  10.828  0.3576  0.2330 -0.3454
 7436SOL    HW233771   0.773   2.041  10.711  0.5077 -0.2677 -0.8350
 7437SOL     OW33772   2.711   1.965  13.774  0.4106 -0.7595 -0.1494
 7437SOL    HW133773   2.638   1.915  13.739 -1.1467  0.5481  1.2322
 7437SOL    HW233774   2.738   2.019  13.700  0.5863  3.0088  2.6964
 7438SOL     OW33775   0.995   2.891   2.304  0.7123  0.2611 -0.0521
 7438SOL    HW133776   1.083   2.854   2.312  0.3211  0.2002  3.7296
 7438SOL    HW233777   0.942   2.812   2.309 -0.3214  0.9064 -0.7537
 7439SOL     OW33778   4.492   3.373   7.207  0.5626 -0.4274 -0.0983
 7439SOL    HW133779   4.524   3.290   7.171 -1.1646 -1.4820  0.7982
 7439SOL    HW233780   4.416   3.344   7.257 -1.5378  0.8116 -2.5468
 7440SOL     OW33781   4.254   1.694  17.120 -0.0292 -0.0637  0.1140
 7440SOL    HW133782   4.344   1.684  17.150 -0.2317  1.2500  1.1594
 7440SOL    HW233783   4.284   1.740  17.041  0.4058  2.0008  1.4888
 7441SOL     OW33784   2.952   3.179   9.674 -0.1873 -0.0025 -0.1565
 7441SOL    HW133785   2.892   3.171   9.748 -1.7697  2.1545 -1.2141
 7441SOL    HW233786   2.894   3.230   9.618  1.0564  1.4960 -0.0806
 7442SOL     OW33787   3.800   2.494   8.952 -0.1168 -0.5065 -0.5219
 7442SOL    HW133788   3.753   2.543   8.885 -0.8407 -2.4126 -1.4227
 7442SOL    HW233789   3.731   2.453   9.005  0.1674 -1.5974 -0.9906
 7443SOL     OW33790   3.473   4.501   3.631  0.4241  0.0805  0.1649
 7443SOL    HW133791   3.387   4.527   3.665 -0.2068  0.1940 -1.4970
 7443SOL    HW233792   3.443   4.427   3.577  1.0078 -0.4063  0.5175
 7444SOL     OW33793   0.050   2.476  16.270  0.2783  0.2167  0.0228
 7444SOL    HW133794   0.056   2.399  16.326  1.1188  0.5247  0.3509
 7444SOL    HW233795   4.718   2.441  16.201  0.7390  0.8610 -0.6815
 7445SOL     OW33796   3.640   3.487   8.297 -0.0447  0.2745 -0.1367
 7445SOL    HW133797   3.692   3.515   8.222 -1.1365  1.1279 -0.5692
 7445SOL    HW233798   3.670   3.548   8.364  0.4482 -0.3953  0.2516
 7446SOL     OW33799   3.879   2.001   8.156 -0.3509  0.1812  0.3242
 7446SOL    HW133800   3.801   1.948   8.141 -0.2072 -0.0685  0.4585
 7446SOL    HW233801   3.843   2.081   8.194  0.3660  0.5742  0.1948
 7447SOL     OW33802   2.292   1.559   8.292 -0.3527  0.2562 -0.2182
 7447SOL    HW133803   2.239   1.598   8.223  1.6399  0.3767 -1.7021
 7447SOL    HW233804   2.231   1.513   8.348 -1.6056 -0.2026 -1.9495
 7448SOL     OW33805   3.345   0.422  13.261  0.0548 -0.5259 -0.2491
 7448SOL    HW133806   3.422   0.449  13.312  0.5562  1.9657 -2.3086
 7448SOL    HW233807   3.271   0.453  13.314 -0.0258  3.5740 -2.7359
 7449SOL     OW33808   3.412   1.537   6.997 -0.0053 -0.1437  0.6748
 7449SOL    HW133809   3.478   1.537   7.067  1.1370  0.4268 -0.4060
 7449SOL    HW233810   3.454   1.585   6.925  0.1952 -3.7415 -1.5958
 7450SOL     OW33811   3.674   0.329   7.095 -0.3719  0.0930 -0.2600
 7450SOL    HW133812   3.652   0.335   7.002  0.8956  1.1714 -0.4952
 7450SOL    HW233813   3.623   0.406   7.120  1.0485  0.7267  0.7008
 7451SOL     OW33814   2.277   4.090   6.709 -0.2002  0.6905  0.1461
 7451SOL    HW133815   2.196   4.109   6.756  1.1136  0.0112  2.6998
 7451SOL    HW233816   2.313   4.179   6.708  2.3999 -0.3523  1.4905
 7452SOL     OW33817   3.214   2.921   6.857  0.0309 -0.2738 -0.1850
 7452SOL    HW133818   3.276   2.992   6.873 -1.1063  0.9294 -1.0441
 7452SOL    HW233819   3.168   2.906   6.940 -0.1360 -0.2511 -0.2739
 7453SOL     OW33820   0.714   1.794  13.036  0.6035  0.1745 -0.1772
 7453SOL    HW133821   0.638   1.818  13.090 -0.3856 -2.0104 -0.5963
 7453SOL    HW233822   0.740   1.718  13.088 -0.9394  0.3174  0.8141
 7454SOL     OW33823   1.353   0.168   7.453  0.3038 -0.2055 -0.3414
 7454SOL    HW133824   1.260   0.147   7.453  0.3001 -0.1819  0.5691
 7454SOL    HW233825   1.374   0.139   7.542 -0.6704  0.4370  0.1004
 7455SOL     OW33826   4.455   4.211   4.102 -0.2679  0.2061 -0.1594
 7455SOL    HW133827   4.521   4.161   4.151  1.0672  0.8604 -1.2907
 7455SOL    HW233828   4.467   4.172   4.015 -0.9075  1.2172 -0.6980
 7456SOL     OW33829   0.318   0.433   8.701  0.6004  0.1501  0.2309
 7456SOL    HW133830   0.393   0.458   8.755 -0.1325 -0.7981  1.6875
 7456SOL    HW233831   0.297   0.525   8.684 -2.4353 -0.6934 -0.4715
 7457SOL     OW33832   1.336   4.083   5.438  0.0330  0.3429  0.1357
 7457SOL    HW133833   1.305   4.154   5.494 -0.6678  1.6614 -1.9073
 7457SOL    HW233834   1.431   4.095   5.443 -0.1106  1.5476 -0.0370
 7458SOL     OW33835   1.133   4.164  13.446 -0.3841 -0.3335  0.5519
 7458SOL    HW133836   1.165   4.134  13.361 -1.6824 -0.6970  0.1926
 7458SOL    HW233837   1.052   4.115  13.458 -0.0836 -1.1460 -0.7386
 7459SOL     OW33838   1.547   1.718   7.655 -0.2993 -0.2495  0.0358
 7459SOL    HW133839   1.600   1.639   7.660 -0.3918 -0.3731 -0.9522
 7459SOL    HW233840   1.474   1.700   7.596  0.2852 -1.4176 -0.3128
 7460SOL     OW33841   1.217   0.730   6.154  0.0513 -0.1026  0.6255
 7460SOL    HW133842   1.255   0.643   6.161 -3.9958 -1.7834  1.6559
 7460SOL    HW233843   1.210   0.761   6.244 -1.3412 -0.3431  0.5987
 7461SOL     OW33844   2.407   4.189   0.082 -0.4018 -0.2655 -0.6115
 7461SOL    HW133845   2.483   4.180   0.140 -1.6924  3.7612  1.7303
 7461SOL    HW233846   2.332   4.150   0.126 -0.8545  1.8505  0.4944
 7462SOL     OW33847   0.991   3.414   1.099 -0.0850 -0.0191  0.3903
 7462SOL    HW133848   1.064   3.443   1.045  0.2155  1.5023  1.6314
 7462SOL    HW233849   0.967   3.485   1.159 -0.3404 -2.0353  2.6990
 7463SOL     OW33850   3.411   0.439   6.306  0.2744  0.3931 -0.1189
 7463SOL    HW133851   3.319   0.433   6.281  0.2226 -0.0758  0.1992
 7463SOL    HW233852   3.406   0.372   6.374 -1.5091 -0.9060 -1.5235
 7464SOL     OW33853   4.697   4.712  16.504  0.7031 -0.0781 -0.8642
 7464SOL    HW133854   4.690   4.667  16.420  1.1484 -1.9419  0.0885
 7464SOL    HW233855   4.620   4.675  16.548  0.8219  1.2615  0.4893
 7465SOL     OW33856   1.188   2.570   6.159  0.0847 -0.0504  0.5829
 7465SOL    HW133857   1.280   2.549   6.144 -0.3516 -0.0772 -2.0727
 7465SOL    HW233858   1.172   2.637   6.093 -0.5414 -3.1357 -2.3776
 7466SOL     OW33859   1.034   0.085   8.169  0.0025  0.0718  0.3882
 7466SOL    HW133860   1.083   0.082   8.251 -0.7131  2.7659  0.9046
 7466SOL    HW233861   1.039   0.181   8.165 -0.4543  0.0589 -0.5508
 7467SOL     OW33862   1.464   2.807   8.133 -0.5125 -0.2865 -0.0653
 7467SOL    HW133863   1.397   2.873   8.117 -0.3107 -0.3082 -0.9990
 7467SOL    HW233864   1.478   2.828   8.225  0.4632  0.7973 -0.4685
 7468SOL     OW33865   2.964   2.976   7.022 -0.0291  0.0436  0.0152
 7468SOL    HW133866   2.876   2.982   6.986  0.0098  0.1704 -0.0559
 7468SOL    HW233867   3.005   3.060   7.001 -2.8937  0.8001 -2.3886
 7469SOL     OW33868   0.085   0.655   3.292 -0.0874 -0.1441 -0.1929
 7469SOL    HW133869   0.108   0.580   3.346  2.3430  2.2449  2.1397
 7469SOL    HW233870   0.084   0.619   3.204 -0.5975 -0.8453  0.1013
 7470SOL     OW33871   1.682   4.722   4.811  0.4087  0.0989 -0.0590
 7470SOL    HW133872   1.751   0.015   4.874  2.4526 -0.9531 -1.9768
 7470SOL    HW233873   1.605   0.004   4.867 -2.0413 -0.2542 -3.3335
 7471SOL     OW33874   1.379   1.217  12.727  0.1148  0.1158 -0.3202
 7471SOL    HW133875   1.388   1.123  12.708  1.6724 -0.5037  3.4557
 7471SOL    HW233876   1.430   1.234  12.807 -1.4533  0.5427  0.6043
 7472SOL     OW33877   4.594   2.413   2.315 -0.1623 -0.2826  0.2440
 7472SOL    HW133878   4.537   2.368   2.253 -0.0546  0.3357 -0.3130
 7472SOL    HW233879   4.654   2.457   2.254 -0.5951 -4.0698 -2.9476
 7473SOL     OW33880   3.455   3.044   7.051  0.5273  0.0744  0.6130
 7473SOL    HW133881   3.364   3.021   7.065  0.6286 -0.4767  0.3658
 7473SOL    HW233882   3.446   3.101   6.974  0.5289 -1.0516 -0.2191
 7474SOL     OW33883   0.203   1.701  11.045 -0.3008 -0.5566 -0.1987
 7474SOL    HW133884   0.245   1.696  10.959  2.1411  2.3565  0.8349
 7474SOL    HW233885   0.196   1.611  11.078 -2.4078 -0.9607 -1.7604
 7475SOL     OW33886   2.217   1.203   2.230 -0.6797  0.6043  0.4577
 7475SOL    HW133887   2.234   1.284   2.182  2.3293 -0.2318  0.1126
 7475SOL    HW233888   2.191   1.240   2.314 -0.7263  2.8689 -0.5504
 7476SOL     OW33889   3.935   2.454   2.650  0.2425  0.2628 -0.1676
 7476SOL    HW133890   3.986   2.374   2.649  3.2285  2.1271  2.0086
 7476SOL    HW233891   3.888   2.435   2.731  0.6614  0.5709  0.1452
 7477SOL     OW33892   0.743   3.038   3.923 -0.2668 -0.1616  0.5726
 7477SOL    HW133893   0.714   3.051   3.833 -1.3906 -0.3242  0.9111
 7477SOL    HW233894   0.663   3.068   3.965 -0.6588  0.3353 -0.5354
 7478SOL     OW33895   3.270   3.148   1.413 -0.3566 -0.3244 -0.1398
 7478SOL    HW133896   3.253   3.219   1.476 -2.4734 -0.0898 -0.9728
 7478SOL    HW233897   3.199   3.166   1.352  1.2146 -4.1281 -3.0704
 7479SOL     OW33898   3.977   2.803  13.181 -0.3297 -0.0697 -0.2061
 7479SOL    HW133899   4.018   2.841  13.104 -2.0138 -1.6772 -1.8896
 7479SOL    HW233900   4.020   2.718  13.182 -0.0117  0.1014  0.4405
 7480SOL     OW33901   3.743   4.344  14.048 -0.3827 -0.1458 -0.4361
 7480SOL    HW133902   3.836   4.326  14.061  0.0128  1.0330 -1.6602
 7480SOL    HW233903   3.742   4.364  13.955 -0.4762  0.5782 -0.2750
 7481SOL     OW33904   2.566   2.635   5.657  1.0165 -0.0549 -0.3534
 7481SOL    HW133905   2.550   2.646   5.751  0.0936 -1.3510 -0.3608
 7481SOL    HW233906   2.487   2.586   5.636  0.7774  1.5372 -3.1387
 7482SOL     OW33907   1.391   3.904   1.540 -0.2068 -0.4354  0.1513
 7482SOL    HW133908   1.392   3.922   1.446  0.2140 -1.8114 -0.1024
 7482SOL    HW233909   1.371   3.811   1.530 -1.4026 -0.2135  0.3970
 7483SOL     OW33910   0.797   3.948  16.108  0.1875 -0.0260 -0.1248
 7483SOL    HW133911   0.788   3.972  16.201 -1.1941  0.6347 -0.4331
 7483SOL    HW233912   0.716   3.988  16.078  0.5232  2.4762  2.2189
 7484SOL     OW33913   0.170   2.403   4.185  0.0201  0.3902  0.2568
 7484SOL    HW133914   0.182   2.482   4.133  0.0428  0.5173  0.4560
 7484SOL    HW233915   0.075   2.399   4.176  0.1771 -0.9424 -0.8559
 7485SOL     OW33916   3.966   2.542   4.545 -0.2929 -0.1689  0.5005
 7485SOL    HW133917   3.896   2.478   4.533 -0.4494  0.0326  0.3474
 7485SOL    HW233918   3.934   2.621   4.501  0.7072 -0.1848 -0.2640
 7486SOL     OW33919   1.811   0.714   1.626  0.6615 -0.0188 -0.1880
 7486SOL    HW133920   1.740   0.692   1.686  1.2915  0.1967  0.6224
 7486SOL    HW233921   1.887   0.686   1.677 -0.2345  0.0921  1.2036
 7487SOL     OW33922   1.777   3.804   7.156  0.7201  0.7241 -0.4531
 7487SOL    HW133923   1.689   3.805   7.118  1.1608 -3.2157 -1.6452
 7487SOL    HW233924   1.792   3.710   7.162 -1.9729  0.2511 -0.8987
 7488SOL     OW33925   4.304   4.151  14.816  0.0753  0.0541 -0.0297
 7488SOL    HW133926   4.347   4.192  14.740  2.2075 -1.2834  0.4756
 7488SOL    HW233927   4.284   4.231  14.866  1.5473  0.0627  0.5403
 7489SOL     OW33928   3.798   2.802  16.807  0.2908  0.2850  0.1774
 7489SOL    HW133929   3.816   2.799  16.901  2.6436  1.3478 -0.2407
 7489SOL    HW233930   3.806   2.896  16.790  0.7516 -0.0166 -1.2786
 7490SOL     OW33931   3.906   3.546   1.687 -0.0840  0.0252  0.2423
 7490SOL    HW133932   3.837   3.480   1.689 -0.3810  0.2635 -2.0542
 7490SOL    HW233933   3.875   3.605   1.617  0.5924  1.2604  0.9805
 7491SOL     OW33934   0.255   2.996  13.088 -0.2438 -0.7431 -0.9051
 7491SOL    HW133935   0.255   2.953  13.002 -0.2322  0.9847 -1.7668
 7491SOL    HW233936   0.278   2.921  13.143  2.1441  2.1923  2.0794
 7492SOL     OW33937   3.211   1.165   7.477  0.7778  0.4840 -0.0456
 7492SOL    HW133938   3.295   1.158   7.432  0.2687 -0.7451 -0.7933
 7492SOL    HW233939   3.146   1.150   7.408 -0.7609  3.7222  0.7001
 7493SOL     OW33940   0.209   2.599   3.978  0.1498  0.2477  0.3269
 7493SOL    HW133941   0.152   2.653   3.924  0.7378 -1.0808 -1.6021
 7493SOL    HW233942   0.246   2.675   4.023 -0.9392  0.8234  0.2396
 7494SOL     OW33943   0.798   0.197  16.941 -0.8152 -0.3307 -0.4713
 7494SOL    HW133944   0.834   0.216  17.027  0.0090 -0.2350 -0.8405
 7494SOL    HW233945   0.836   0.109  16.937  2.4893  1.1952 -2.7267
 7495SOL     OW33946   4.484   0.507   7.765  0.4962  0.0910  0.5922
 7495SOL    HW133947   4.536   0.534   7.689 -2.4610  0.5628 -1.3066
 7495SOL    HW233948   4.550   0.484   7.830 -0.1105  2.0412  1.9028
 7496SOL     OW33949   4.659   1.244   7.624 -0.0266 -0.1959  0.5140
 7496SOL    HW133950   0.023   1.251   7.592 -1.2264  1.0551 -2.5664
 7496SOL    HW233951   4.668   1.188   7.701  1.3094 -2.7366 -1.5140
 7497SOL     OW33952   4.560   1.585   5.992  0.0105  0.4126 -0.3922
 7497SOL    HW133953   4.542   1.578   5.898 -1.1401  0.9180 -0.2216
 7497SOL    HW233954   4.634   1.645   5.993  0.1221  0.2265  1.8071
 7498SOL     OW33955   2.809   3.349  10.884  0.1677 -0.0166 -0.2354
 7498SOL    HW133956   2.749   3.422  10.900  1.0139  0.7711 -0.6946
 7498SOL    HW233957   2.826   3.312  10.970  1.5448  0.6706 -0.2202
 7499SOL     OW33958   3.032   3.726   8.510  0.7574  0.2619  0.0502
 7499SOL    HW133959   3.093   3.653   8.501 -0.7754 -0.9893 -0.2133
 7499SOL    HW233960   3.088   3.803   8.496 -2.0596  2.2713 -0.3131
 7500SOL     OW33961   1.541   4.150  10.354  0.3477 -0.1017 -0.3465
 7500SOL    HW133962   1.553   4.066  10.400  0.9947  1.0978  1.6975
 7500SOL    HW233963   1.565   4.211  10.424 -0.8526 -0.7383  0.6228
 7501SOL     OW33964   2.296   0.210   1.649 -0.8192  0.5683  0.0884
 7501SOL    HW133965   2.356   0.135   1.645 -0.2231  1.1137 -1.1360
 7501SOL    HW233966   2.360   0.267   1.608 -0.0729 -0.2777  0.0706
 7502SOL     OW33967   2.535   3.624   2.137  0.5462 -0.5021  0.4696
 7502SOL    HW133968   2.536   3.684   2.211 -1.4025  0.5823 -0.3792
 7502SOL    HW233969   2.573   3.545   2.176  1.6829 -0.3772 -0.3865
 7503SOL     OW33970   2.732   3.594   1.332 -0.6888 -0.0451 -0.6080
 7503SOL    HW133971   2.679   3.552   1.264  1.9449 -1.2365 -1.9316
 7503SOL    HW233972   2.718   3.687   1.310  1.4363 -0.2661 -2.9098
 7504SOL     OW33973   2.036   1.095   9.890 -0.3893  0.2952 -0.2611
 7504SOL    HW133974   1.974   1.026   9.911 -1.6533  1.3943 -0.3536
 7504SOL    HW233975   1.985   1.168   9.925 -0.6884 -0.1513  0.2314
 7505SOL     OW33976   2.266   3.401  15.225 -0.0458 -0.2403  0.2831
 7505SOL    HW133977   2.266   3.308  15.203 -0.7821 -0.4287  1.0781
 7505SOL    HW233978   2.331   3.434  15.163  1.7521  0.2932  2.4491
 7506SOL     OW33979   3.271   2.181   6.614  0.2945  0.0985  0.4933
 7506SOL    HW133980   3.194   2.135   6.645  1.0172 -1.3148  0.2081
 7506SOL    HW233981   3.274   2.169   6.519 -1.1549  1.9293  0.2099
 7507SOL     OW33982   3.999   2.793   1.193 -0.1091  0.7695  0.6087
 7507SOL    HW133983   4.034   2.882   1.187  2.7137 -0.4031 -0.4093
 7507SOL    HW233984   3.909   2.823   1.178  0.1969  1.5219  0.2287
 7508SOL     OW33985   0.553   0.806  16.045 -0.3982  0.0928  0.8905
 7508SOL    HW133986   0.528   0.897  16.030 -0.0438 -0.0209 -0.3268
 7508SOL    HW233987   0.539   0.802  16.140 -0.5505 -1.4971  0.8006
 7509SOL     OW33988   2.459   1.603   7.530 -0.4890 -0.3504  0.5581
 7509SOL    HW133989   2.379   1.657   7.533  0.3368  0.8444  0.9165
 7509SOL    HW233990   2.421   1.519   7.505 -2.4514  0.2866  1.3634
 7510SOL     OW33991   2.743   4.386   4.505  0.2901  0.2357  0.0672
 7510SOL    HW133992   2.808   4.318   4.523 -1.5306 -2.3912 -3.2074
 7510SOL    HW233993   2.796   4.465   4.503  1.3365 -0.4234  1.0854
 7511SOL     OW33994   1.166   2.504   3.598 -0.0115  0.1757 -0.3653
 7511SOL    HW133995   1.256   2.483   3.574  0.7827  1.2312  1.6799
 7511SOL    HW233996   1.173   2.562   3.673  0.5888 -0.5802  0.1627
 7512SOL     OW33997   0.795   3.870  14.541  0.2095  0.4394 -0.0335
 7512SOL    HW133998   0.786   3.940  14.476  1.6901  0.2456 -0.4546
 7512SOL    HW233999   0.770   3.796  14.485 -0.4718 -0.4229  1.4280
 7513SOL     OW34000   0.222   4.326   3.452 -0.0949 -0.3295  0.0072
 7513SOL    HW134001   0.130   4.304   3.458  0.1365 -0.4935  3.0357
 7513SOL    HW234002   0.239   4.409   3.496 -2.2696 -0.3489  0.8423
 7514SOL     OW34003   1.559   4.222   1.448 -0.1676 -0.0190  0.2589
 7514SOL    HW134004   1.583   4.190   1.361 -2.5364  2.1568 -1.1933
 7514SOL    HW234005   1.610   4.302   1.456  1.9076 -1.1394 -1.6646
 7515SOL     OW34006   2.588   0.956  13.239  0.1147  0.2775  0.3681
 7515SOL    HW134007   2.596   0.903  13.318 -2.2427 -1.9248 -0.8690
 7515SOL    HW234008   2.589   1.045  13.275 -1.2427  1.0972 -1.6152
 7516SOL     OW34009   0.288   1.840   4.646  0.2029 -1.0063  0.0139
 7516SOL    HW134010   0.351   1.903   4.683 -0.2282 -0.5587 -0.0142
 7516SOL    HW234011   0.309   1.849   4.553 -0.0837 -1.1595 -0.0628
 7517SOL     OW34012   2.775   1.766   4.017 -0.3433  0.4573  0.1492
 7517SOL    HW134013   2.862   1.794   4.045  1.0142 -1.9822 -1.4960
 7517SOL    HW234014   2.742   1.712   4.088  0.2296 -2.0046 -1.4411
 7518SOL     OW34015   2.801   1.852   8.830 -0.0255 -0.2437 -0.6424
 7518SOL    HW134016   2.779   1.775   8.882 -2.6319  0.9733  0.0823
 7518SOL    HW234017   2.712   1.866   8.796  0.7488 -0.8062 -2.9250
 7519SOL     OW34018   3.848   3.118   8.753 -0.6480 -0.4721  0.1504
 7519SOL    HW134019   3.888   3.034   8.731 -1.8557 -1.2608  0.9972
 7519SOL    HW234020   3.760   3.099   8.785 -0.4414 -2.7140 -0.6269
 7520SOL     OW34021   0.749   4.007  15.182 -0.0599 -0.0096 -0.1969
 7520SOL    HW134022   0.828   4.003  15.129 -0.5588  0.1385 -0.9560
 7520SOL    HW234023   0.717   4.097  15.177 -2.2738 -0.7664  0.4709
 7521SOL     OW34024   4.252   2.936   2.210 -0.1780 -0.2595  0.1246
 7521SOL    HW134025   4.235   2.883   2.132  0.4033  0.2036 -0.3240
 7521SOL    HW234026   4.347   2.944   2.214 -0.3617  0.2247  3.7380
 7522SOL     OW34027   4.247   0.628   6.915  0.0372 -0.3133  0.0328
 7522SOL    HW134028   4.155   0.615   6.937 -0.1518 -1.0954 -1.2089
 7522SOL    HW234029   4.245   0.640   6.820  0.4936 -2.3337 -0.2274
 7523SOL     OW34030   4.622   0.394  16.244 -0.7211  0.0692  0.3486
 7523SOL    HW134031   4.570   0.321  16.279 -1.1778 -0.6461 -1.8726
 7523SOL    HW234032   4.710   0.360  16.260 -2.4150 -3.8706  1.2187
 7524SOL     OW34033   4.647   0.635   5.405  0.4704  0.1523 -0.1284
 7524SOL    HW134034   4.621   0.593   5.323  0.9132 -0.6128  0.1258
 7524SOL    HW234035   4.569   0.614   5.457  2.4354 -1.5857  2.1160
 7525SOL     OW34036   1.513   2.276   9.529 -0.1898 -0.2065 -0.0614
 7525SOL    HW134037   1.463   2.209   9.575 -0.6784  0.1761 -0.0372
 7525SOL    HW234038   1.541   2.335   9.599 -2.3485 -0.6039  1.1133
 7526SOL     OW34039   2.851   1.073  14.754 -0.5010  0.6469 -1.0397
 7526SOL    HW134040   2.926   1.086  14.696  1.1433 -1.0089  0.6902
 7526SOL    HW234041   2.777   1.094  14.697 -1.2408 -0.8806 -0.6685
 7527SOL     OW34042   2.030   0.361   8.856  0.1044  0.0284  0.4329
 7527SOL    HW134043   1.950   0.338   8.904  2.3165 -1.3179  3.4133
 7527SOL    HW234044   2.065   0.442   8.895  1.2114 -0.1672 -0.1735
 7528SOL     OW34045   2.626   1.461   5.951  0.1866 -0.0555 -0.0466
 7528SOL    HW134046   2.625   1.366   5.943  0.5699 -0.0971  0.3653
 7528SOL    HW234047   2.616   1.491   5.861 -0.1693 -0.2434 -0.0684
 7529SOL     OW34048   4.472   3.801  16.300  0.0826  0.0830  1.0561
 7529SOL    HW134049   4.541   3.865  16.318 -0.5932  1.2161 -0.3824
 7529SOL    HW234050   4.392   3.854  16.302 -0.4850 -0.6706 -1.5350
 7530SOL     OW34051   2.815   1.585  11.784  0.8654  0.1025  1.0326
 7530SOL    HW134052   2.863   1.657  11.824  1.1993 -1.0001  2.5817
 7530SOL    HW234053   2.858   1.508  11.821  2.3713 -0.6415 -2.3000
 7531SOL     OW34054   3.469   2.344   6.767 -0.0672  0.5722 -0.1596
 7531SOL    HW134055   3.404   2.284   6.730  0.0953 -0.2408  0.8677
 7531SOL    HW234056   3.469   2.411   6.699  0.1313  1.9097  1.1532
 7532SOL     OW34057   1.254   0.057   0.481  0.0561 -0.4828 -0.0857
 7532SOL    HW134058   1.289   4.713   0.537 -2.7113 -0.6424  1.4097
 7532SOL    HW234059   1.236   0.128   0.542 -0.7660 -1.4903  0.8534
 7533SOL     OW34060   3.135   4.355   5.283  0.3481 -0.0117  0.2095
 7533SOL    HW134061   3.198   4.302   5.333 -0.9400  1.2420  3.1997
 7533SOL    HW234062   3.154   4.341   5.191  1.0231 -0.5492  0.4330
 7534SOL     OW34063   1.413   4.627   7.200  0.1945  0.2049 -1.0525
 7534SOL    HW134064   1.370   4.711   7.185  0.2845  0.4823  0.2716
 7534SOL    HW234065   1.428   4.594   7.112 -2.8691  1.1975 -1.9378
 7535SOL     OW34066   2.041   1.748   7.162  0.0637 -0.8025  0.0437
 7535SOL    HW134067   2.029   1.654   7.146 -0.1124 -0.4440 -1.9718
 7535SOL    HW234068   2.126   1.739   7.205  0.6422  2.6618 -0.3972
 7536SOL     OW34069   3.662   3.710   7.426  0.1409 -0.4552  0.3072
 7536SOL    HW134070   3.588   3.689   7.484  0.1703 -2.3928 -0.3477
 7536SOL    HW234071   3.661   3.804   7.443  1.2901 -0.3244 -0.3947
 7537SOL     OW34072   1.884   0.837  10.630 -0.4395 -0.9584 -0.1221
 7537SOL    HW134073   1.967   0.811  10.669 -1.2217 -0.2400  1.9822
 7537SOL    HW234074   1.823   0.816  10.700 -0.1746 -0.0973  0.3639
 7538SOL     OW34075   3.049   1.223  13.541  0.0056  0.0337  0.0641
 7538SOL    HW134076   2.962   1.201  13.575  0.4331 -1.3259  0.2888
 7538SOL    HW234077   3.082   1.294  13.595 -1.1893 -0.8660  1.9633
 7539SOL     OW34078   0.910   2.971   6.640  0.0132 -0.2654  0.6564
 7539SOL    HW134079   0.902   2.951   6.733 -1.7038 -0.4623  0.4629
 7539SOL    HW234080   1.006   2.965   6.639 -0.2092 -2.9890 -2.5657
 7540SOL     OW34081   0.728   2.337   5.258 -0.2372 -0.3327  0.1868
 7540SOL    HW134082   0.777   2.289   5.191  1.5371 -0.0280  1.2775
 7540SOL    HW234083   0.790   2.406   5.282  1.0025 -1.4348  0.1524
 7541SOL     OW34084   4.309   3.987   6.311  0.2411  0.1513  0.1354
 7541SOL    HW134085   4.216   4.008   6.301  0.5567  1.1334 -0.7720
 7541SOL    HW234086   4.315   3.932   6.233  0.4985 -2.1957  1.8097
 7542SOL     OW34087   2.499   2.381   8.197 -0.1140 -0.4154  0.4215
 7542SOL    HW134088   2.456   2.399   8.281  1.0847 -2.0310  1.3782
 7542SOL    HW234089   2.453   2.302   8.168 -0.7310 -0.1002  0.5357
 7543SOL     OW34090   1.073   2.130  10.475  0.1377  0.8614 -0.1236
 7543SOL    HW134091   1.109   2.168  10.555 -0.1628  0.7292  0.0746
 7543SOL    HW234092   1.139   2.147  10.407  2.3326 -2.2159  1.2038
 7544SOL     OW34093   1.387   3.566   8.135  0.0289 -0.1309 -0.2795
 7544SOL    HW134094   1.452   3.633   8.153 -1.1321  1.0590 -0.4803
 7544SOL    HW234095   1.446   3.496   8.108  2.6431  1.3783  1.5282
 7545SOL     OW34096   1.692   3.145  12.707 -0.3824 -0.0952  0.3548
 7545SOL    HW134097   1.787   3.156  12.708 -0.5901  1.7320 -0.1145
 7545SOL    HW234098   1.677   3.172  12.798 -2.0992  0.0439  0.0281
 7546SOL     OW34099   3.902   4.371   2.593 -0.1003 -0.1483  0.3572
 7546SOL    HW134100   3.817   4.345   2.557  0.9645 -4.6893  1.0575
 7546SOL    HW234101   3.872   4.387   2.682  1.4512 -1.0748  1.0485
 7547SOL     OW34102   4.451   0.280   2.792  0.5842 -0.0614  0.3022
 7547SOL    HW134103   4.508   0.224   2.739 -1.4815 -1.2351 -0.6733
 7547SOL    HW234104   4.402   0.329   2.726 -0.5653 -1.4664  0.1112
 7548SOL     OW34105   4.515   3.014   2.555  0.3834 -0.5538 -0.3038
 7548SOL    HW134106   4.497   3.062   2.475 -0.3903  2.4438  1.6680
 7548SOL    HW234107   4.429   2.980   2.578 -0.2424  0.6804 -0.8587
 7549SOL     OW34108   1.354   2.707   3.382 -0.0739  0.1744 -0.5516
 7549SOL    HW134109   1.432   2.729   3.332  1.1702 -1.3409  0.7239
 7549SOL    HW234110   1.290   2.697   3.312 -0.9036  0.8830  0.1032
 7550SOL     OW34111   0.709   3.479   5.198 -0.2282  0.4099 -0.1669
 7550SOL    HW134112   0.669   3.507   5.280 -0.4008  0.9643 -0.4456
 7550SOL    HW234113   0.655   3.518   5.129  1.3829  1.3933 -0.8831
 7551SOL     OW34114   1.417   0.454   5.603 -0.1801  0.3945  0.0530
 7551SOL    HW134115   1.419   0.397   5.525 -2.4408 -1.1136  1.1053
 7551SOL    HW234116   1.495   0.509   5.595  1.2098 -1.5447  0.1425
 7552SOL     OW34117   1.300   3.153  14.842  0.0134  0.2504  0.5788
 7552SOL    HW134118   1.230   3.095  14.814  1.6914 -1.3872 -0.1801
 7552SOL    HW234119   1.338   3.099  14.912  0.4312 -0.0017  0.1599
 7553SOL     OW34120   2.977   4.638   1.911  0.4771  0.4593  0.2611
 7553SOL    HW134121   3.000   4.622   1.820 -1.3820  0.9385 -0.2890
 7553SOL    HW234122   2.899   4.694   1.908  0.8090  0.8823 -0.3424
 7554SOL     OW34123   3.798   3.985   8.858  0.1738  0.6467  0.0948
 7554SOL    HW134124   3.820   4.048   8.789  1.2178  1.5949  1.3088
 7554SOL    HW234125   3.877   3.930   8.863 -1.6409 -1.9622  0.0190
 7555SOL     OW34126   0.999   2.125   8.359  0.1409  0.6194 -0.3253
 7555SOL    HW134127   0.918   2.174   8.346 -0.4543 -0.8645 -2.3299
 7555SOL    HW234128   1.021   2.121   8.452 -2.6811  0.7850  0.3356
 7556SOL     OW34129   1.485   0.277   8.587 -0.1707  0.8908  0.2633
 7556SOL    HW134130   1.462   0.261   8.678  0.3682 -0.6744  0.1382
 7556SOL    HW234131   1.566   0.225   8.588 -0.5057  0.3972  1.2314
 7557SOL     OW34132   0.293   1.335   1.088 -0.3026  0.5001  0.2446
 7557SOL    HW134133   0.219   1.395   1.079 -1.3932 -0.6056  1.8975
 7557SOL    HW234134   0.316   1.329   0.996  2.9575  2.4611  0.9162
 7558SOL     OW34135   0.593   3.927   6.605  0.5320  0.7406  0.4467
 7558SOL    HW134136   0.541   3.932   6.524  1.8742 -0.0012 -0.4629
 7558SOL    HW234137   0.520   3.894   6.658 -0.1183  0.1616 -0.8027
 7559SOL     OW34138   0.445   0.600   0.783  0.2758  0.3598 -0.4029
 7559SOL    HW134139   0.530   0.576   0.820  0.5594  0.8623 -0.7205
 7559SOL    HW234140   0.417   0.521   0.737  2.2440 -0.7865  0.3790
 7560SOL     OW34141   1.585   4.077   1.882 -0.0380  0.0203  0.5481
 7560SOL    HW134142   1.498   4.040   1.897  0.6123 -2.1550 -0.9054
 7560SOL    HW234143   1.621   4.061   1.969 -0.1312 -0.0525  0.5726
 7561SOL     OW34144   0.686   4.126   5.188 -0.3205 -0.3764  0.0430
 7561SOL    HW134145   0.637   4.208   5.175 -1.3574 -1.1927 -1.1924
 7561SOL    HW234146   0.626   4.074   5.242 -0.0505 -1.0817 -0.3420
 7562SOL     OW34147   1.626   3.113   2.880 -0.5127 -0.7304  0.1509
 7562SOL    HW134148   1.659   3.050   2.943 -2.1337 -1.4701  0.2501
 7562SOL    HW234149   1.620   3.201   2.918 -1.4779  0.2595 -2.2584
 7563SOL     OW34150   3.388   4.286  15.403  0.4123  0.1880 -0.3157
 7563SOL    HW134151   3.447   4.211  15.414 -2.4119 -2.3406 -2.4331
 7563SOL    HW234152   3.404   4.335  15.483  0.2702  1.1867 -0.8920
 7564SOL     OW34153   2.192   3.298  11.819  0.2767 -0.2548  0.2704
 7564SOL    HW134154   2.122   3.234  11.835  1.9315 -2.1655 -0.0887
 7564SOL    HW234155   2.243   3.283  11.899 -0.5292 -4.9006 -0.0455
 7565SOL     OW34156   1.838   3.112   8.039  0.1653 -0.4054  0.3567
 7565SOL    HW134157   1.829   3.052   8.113  3.3387  0.4321  1.4231
 7565SOL    HW234158   1.884   3.184   8.082  0.1753 -0.8666  1.1229
 7566SOL     OW34159   3.005   2.912   3.486  0.3385  0.2759 -0.1319
 7566SOL    HW134160   2.998   3.000   3.524  1.1102 -0.4649  1.7300
 7566SOL    HW234161   3.098   2.897   3.473  0.1073 -0.9039 -0.4096
 7567SOL     OW34162   4.534   0.721   3.298 -0.3027  0.6876 -0.1989
 7567SOL    HW134163   4.533   0.627   3.317 -0.1676  0.3192 -2.0593
 7567SOL    HW234164   4.608   0.733   3.239  0.3184 -0.1642  0.3959
 7568SOL     OW34165   3.884   4.336  12.116  0.2969 -0.3537 -0.3535
 7568SOL    HW134166   3.978   4.319  12.117  0.2795 -0.3844  1.2078
 7568SOL    HW234167   3.884   4.431  12.110 -1.1935 -0.2962  0.4781
 7569SOL     OW34168   3.134   0.404   9.348  0.0912  0.3806  0.5705
 7569SOL    HW134169   3.190   0.480   9.365  1.9017 -0.8091 -0.0747
 7569SOL    HW234170   3.179   0.366   9.273 -1.0943 -2.2074  1.1767
 7570SOL     OW34171   0.619   3.305  10.581  0.2419 -0.5723 -0.1975
 7570SOL    HW134172   0.640   3.353  10.501 -1.1029  0.6103  0.1700
 7570SOL    HW234173   0.702   3.305  10.628 -0.6256  2.3476  1.3260
 7571SOL     OW34174   3.813   2.592   3.127 -0.0983 -0.0076 -0.2720
 7571SOL    HW134175   3.725   2.620   3.151 -0.3617 -1.8679  0.9139
 7571SOL    HW234176   3.839   2.672   3.082 -1.3766  0.9759  0.7515
 7572SOL     OW34177   3.311   0.353  16.734  0.6411 -0.0650 -0.2948
 7572SOL    HW134178   3.402   0.379  16.745  0.4670 -0.9433  3.2456
 7572SOL    HW234179   3.268   0.434  16.763  0.4839 -0.6933  1.2332
 7573SOL     OW34180   1.672   3.373   0.536  0.6181 -0.1465 -0.1493
 7573SOL    HW134181   1.686   3.458   0.579 -1.2494 -0.9641  2.0714
 7573SOL    HW234182   1.625   3.406   0.460  0.1332  0.9506  0.6312
 7574SOL     OW34183   1.099   3.952   9.862 -0.2614 -0.2401  0.0955
 7574SOL    HW134184   1.048   3.880   9.899  0.5889 -1.5329 -1.2479
 7574SOL    HW234185   1.170   3.909   9.814  0.0216 -0.3171  0.5768
 7575SOL     OW34186   2.289   3.093   6.228  0.6149 -0.2150 -0.0561
 7575SOL    HW134187   2.224   3.024   6.240 -0.0449  0.2516 -0.9641
 7575SOL    HW234188   2.243   3.160   6.178  2.6810  1.5771  0.4757
 7576SOL     OW34189   3.903   2.812   2.963 -0.5858  0.2842 -0.2395
 7576SOL    HW134190   3.866   2.829   2.876 -0.3074  0.5130 -0.3149
 7576SOL    HW234191   3.947   2.894   2.984  0.0879  0.3128 -1.7130
 7577SOL     OW34192   2.043   4.169  16.138 -0.5630 -0.1329 -0.2533
 7577SOL    HW134193   2.096   4.225  16.080  0.5959  0.2468  1.1892
 7577SOL    HW234194   2.009   4.097  16.085  0.1449 -0.1773 -0.6543
 7578SOL     OW34195   4.526   4.278  12.282 -0.2256 -0.2672  0.3319
 7578SOL    HW134196   4.582   4.330  12.339 -1.5072  0.1725  1.2075
 7578SOL    HW234197   4.503   4.201  12.334  0.4793 -0.3529  0.5074
 7579SOL     OW34198   2.736   1.605   2.397  0.2293  0.0634  0.0823
 7579SOL    HW134199   2.656   1.589   2.447 -0.4120  0.5095 -0.8074
 7579SOL    HW234200   2.700   1.598   2.309  3.8108 -1.3370 -1.2539
 7580SOL     OW34201   0.242   3.168   5.086  0.1957 -0.5940 -0.1035
 7580SOL    HW134202   0.244   3.089   5.140 -1.3489  0.1741  1.0714
 7580SOL    HW234203   0.167   3.219   5.116  1.7817  0.7991  1.5333
 7581SOL     OW34204   1.154   1.985   5.844 -0.4161 -0.0143  0.9206
 7581SOL    HW134205   1.135   2.006   5.753  0.8903 -0.2234  0.5965
 7581SOL    HW234206   1.246   1.961   5.857  0.3217  2.6805  0.7373
 7582SOL     OW34207   4.424   4.093  16.206 -0.0761 -0.9612 -0.2140
 7582SOL    HW134208   4.417   4.139  16.122  0.1156  0.1834  0.3891
 7582SOL    HW234209   4.380   4.157  16.262  2.2340  1.1344 -0.7643
 7583SOL     OW34210   0.321   4.143   3.850 -0.2293 -0.4599  0.0311
 7583SOL    HW134211   0.337   4.141   3.944  0.4155  0.1074 -0.0721
 7583SOL    HW234212   0.390   4.200   3.817  2.5196 -3.6824  0.1879
 7584SOL     OW34213   4.255   0.522  17.465 -0.1193 -0.6220  0.0252
 7584SOL    HW134214   4.251   0.524  17.561  1.7242 -0.3289  0.0888
 7584SOL    HW234215   4.172   0.564  17.444  1.4305  1.9667 -0.8675
 7585SOL     OW34216   0.089   3.017   0.761 -0.9618  0.0865 -0.3264
 7585SOL    HW134217   0.054   3.094   0.718 -2.3368 -0.5286 -0.3221
 7585SOL    HW234218   0.182   3.022   0.740 -0.4484 -3.1675  1.0293
 7586SOL     OW34219   0.693   0.065  16.277  0.1042  0.7519 -0.0449
 7586SOL    HW134220   0.719   0.066  16.369  0.5641  0.7371 -0.1714
 7586SOL    HW234221   0.598   0.068  16.288  0.0281 -0.5188 -0.3546
 7587SOL     OW34222   4.505   4.196   4.730 -0.1343 -0.2452 -0.3108
 7587SOL    HW134223   4.474   4.153   4.810 -1.6212 -1.2309 -1.4155
 7587SOL    HW234224   4.422   4.224   4.692  1.4545  3.7981 -0.8314
 7588SOL     OW34225   2.594   3.178   7.456 -0.6974  0.2546 -0.2397
 7588SOL    HW134226   2.599   3.241   7.528 -1.5025  0.3933 -0.3044
 7588SOL    HW234227   2.666   3.120   7.479  1.4971  1.2328 -4.5882
 7589SOL     OW34228   1.011   1.231  11.727  0.1483  0.0005  0.0212
 7589SOL    HW134229   1.022   1.278  11.810 -1.2318 -2.1364  1.4273
 7589SOL    HW234230   0.947   1.290  11.687  0.2882  1.9844  2.6853
 7590SOL     OW34231   3.428   4.278   1.665  0.2933  0.0231  0.0916
 7590SOL    HW134232   3.401   4.351   1.609 -1.6428  0.6588  1.8200
 7590SOL    HW234233   3.513   4.246   1.636  0.4804  1.1059 -0.5650
 7591SOL     OW34234   0.165   3.874   5.787  0.1545 -0.1446  0.0576
 7591SOL    HW134235   0.190   3.933   5.858 -0.6347  1.0303 -0.6513
 7591SOL    HW234236   0.206   3.793   5.819  1.5579 -0.5194 -2.6910
 7592SOL     OW34237   4.366   0.092   0.750  0.4690  0.1469 -0.2825
 7592SOL    HW134238   4.397   0.024   0.810 -2.4508 -0.7009  0.2919
 7592SOL    HW234239   4.427   0.091   0.677  1.1234  3.7174  0.2277
 7593SOL     OW34240   4.433   1.728   4.931 -0.4314  0.6226  0.3650
 7593SOL    HW134241   4.461   1.677   5.006  0.6396  0.0927 -0.4113
 7593SOL    HW234242   4.341   1.739   4.958 -1.2392  0.9356 -2.4356
 7594SOL     OW34243   1.303   3.802   3.165 -0.2560 -0.4111  0.1075
 7594SOL    HW134244   1.215   3.771   3.190 -0.4711 -1.1366 -1.5243
 7594SOL    HW234245   1.354   3.751   3.227  0.5563 -2.2192 -2.0431
 7595SOL     OW34246   0.973   4.022  13.733  0.4627  0.2245 -0.0599
 7595SOL    HW134247   1.001   3.931  13.728  2.8878  0.9654  0.4024
 7595SOL    HW234248   0.923   4.008  13.814  0.5130 -2.6997 -0.5490
 7596SOL     OW34249   2.171   3.700   3.313  0.3982 -0.3017 -0.3880
 7596SOL    HW134250   2.255   3.731   3.281  0.5189  1.0551  1.2585
 7596SOL    HW234251   2.122   3.781   3.308 -1.0720 -1.0350  2.2447
 7597SOL     OW34252   3.604   2.573   1.109 -0.4700 -0.0074 -0.0947
 7597SOL    HW134253   3.548   2.640   1.070  2.9675  2.3044 -1.1045
 7597SOL    HW234254   3.643   2.543   1.027 -1.0224  0.9693 -0.7206
 7598SOL     OW34255   0.499   4.295   6.018  0.4127 -0.5490  0.3056
 7598SOL    HW134256   0.413   4.334   6.007 -0.0013 -1.5759 -0.0901
 7598SOL    HW234257   0.486   4.242   6.096  0.8124 -1.7011 -0.3894
 7599SOL     OW34258   4.518   2.313   2.888  0.1729 -0.6410 -0.0620
 7599SOL    HW134259   4.490   2.385   2.832  1.5571 -0.7010 -0.8341
 7599SOL    HW234260   4.611   2.324   2.908  0.1236 -0.3537  0.0091
 7600SOL     OW34261   3.921   2.379   6.460  0.2498  0.6158 -0.2548
 7600SOL    HW134262   4.001   2.329   6.478 -0.6848 -0.2964  1.4548
 7600SOL    HW234263   3.903   2.412   6.548  0.2181 -0.1242  0.0190
 7601SOL     OW34264   1.100   4.665  12.527  0.4832 -0.1315 -0.1648
 7601SOL    HW134265   1.180   4.713  12.551 -0.0354 -0.1951  1.6460
 7601SOL    HW234266   1.085   4.696  12.438  1.4327 -1.6046 -0.8504
 7602SOL     OW34267   3.842   0.452   5.824  0.4723  0.1942  0.2322
 7602SOL    HW134268   3.832   0.393   5.900 -3.0677  0.6731  0.1580
 7602SOL    HW234269   3.842   0.388   5.753 -0.4596  1.7405 -1.1485
 7603SOL     OW34270   0.092   1.254   4.009 -0.5015 -0.2184 -0.0747
 7603SOL    HW134271   0.092   1.179   4.069  1.1337 -0.5590 -0.5042
 7603SOL    HW234272   4.724   1.275   4.019 -0.5205  0.8252 -2.6981
 7604SOL     OW34273   2.452   1.048   3.992  0.2982 -0.0589 -0.0265
 7604SOL    HW134274   2.492   0.994   3.924  0.3108  1.5916 -1.3411
 7604SOL    HW234275   2.375   0.994   4.006  1.3480 -0.8013  2.9194
 7605SOL     OW34276   0.350   3.734   3.917 -0.5548 -0.5924  0.0525
 7605SOL    HW134277   0.278   3.796   3.931  0.1076  0.0240  0.7317
 7605SOL    HW234278   0.422   3.792   3.895  2.4085 -3.1106  3.0167
 7606SOL     OW34279   2.331   2.821   5.149 -0.4817 -0.0729 -0.0096
 7606SOL    HW134280   2.327   2.804   5.243  1.4936 -1.4368 -0.1792
 7606SOL    HW234281   2.413   2.871   5.138 -2.4744  2.9385 -1.3435
 7607SOL     OW34282   0.018   3.477   8.745 -0.3650  0.3974  0.1224
 7607SOL    HW134283   4.702   3.563   8.752  1.0614  0.8374  3.0231
 7607SOL    HW234284   0.013   3.460   8.651  3.0938  0.3849 -0.0544
 7608SOL     OW34285   3.967   2.823  12.164 -0.2671  0.3510  0.2114
 7608SOL    HW134286   3.961   2.742  12.214 -2.4100  0.0094 -0.6370
 7608SOL    HW234287   4.016   2.881  12.223  0.1131  0.7424 -0.4963
 7609SOL     OW34288   4.607   4.454   4.859  0.4937  0.2330 -0.4278
 7609SOL    HW134289   4.545   4.494   4.921  0.4139  0.2555 -0.5211
 7609SOL    HW234290   4.562   4.375   4.830 -0.5132  1.5290 -2.4131
 7610SOL     OW34291   2.192   0.959   5.935  0.2401 -0.2241  0.4477
 7610SOL    HW134292   2.226   1.002   5.856 -1.4008 -1.1837 -0.7841
 7610SOL    HW234293   2.217   0.869   5.912  0.5676  0.1798 -0.7579
 7611SOL     OW34294   0.782   2.375  16.821 -0.6658  0.2817 -0.0808
 7611SOL    HW134295   0.821   2.462  16.820  0.1739 -0.0786  0.7817
 7611SOL    HW234296   0.765   2.357  16.729 -1.3070  0.9729 -0.0969
 7612SOL     OW34297   1.404   2.232   2.688 -0.0083 -0.7377 -0.0124
 7612SOL    HW134298   1.478   2.254   2.745 -0.7876  2.1317 -0.0744
 7612SOL    HW234299   1.434   2.154   2.641  0.5265 -0.4778 -0.1046
 7613SOL     OW34300   2.825   3.288  17.498 -0.3994 -0.4046  0.1215
 7613SOL    HW134301   2.889   3.288  17.427 -0.7426 -2.0832 -0.1762
 7613SOL    HW234302   2.826   3.382  17.513 -2.1229 -0.2545 -0.7868
 7614SOL     OW34303   4.007   2.561  11.690 -0.0108  0.2553  0.2703
 7614SOL    HW134304   3.932   2.580  11.747  0.9947  0.4816  1.5181
 7614SOL    HW234305   4.064   2.628  11.729  0.0839  0.0318  0.5140
 7615SOL     OW34306   0.789   4.369  14.423 -0.2007  0.1379 -0.1652
 7615SOL    HW134307   0.704   4.399  14.390 -0.5651  0.7994  1.3714
 7615SOL    HW234308   0.761   4.278  14.425  2.1339 -0.4867  3.5786
 7616SOL     OW34309   1.752   1.551   8.200 -0.3211 -0.0967 -0.7074
 7616SOL    HW134310   1.809   1.626   8.217  0.6435 -0.7341 -1.1865
 7616SOL    HW234311   1.682   1.592   8.149 -0.4713  0.9667  0.3500
 7617SOL     OW34312   4.500   1.837   6.251  0.4164 -0.1688  0.2313
 7617SOL    HW134313   4.418   1.790   6.266 -0.1924  1.8274  3.1177
 7617SOL    HW234314   4.489   1.862   6.159  0.3059  0.7702  0.5001
 7618SOL     OW34315   3.061   4.575  17.660 -0.4122  0.2843 -0.3399
 7618SOL    HW134316   3.028   4.548  17.575 -1.6240  0.7700 -0.0395
 7618SOL    HW234317   3.085   4.667  17.648 -0.5187  0.2705 -0.6458
 7619SOL     OW34318   3.787   2.059  15.272 -0.6651  0.9573 -0.1148
 7619SOL    HW134319   3.867   2.089  15.229 -0.5760  0.5247 -0.2411
 7619SOL    HW234320   3.780   2.092  15.361 -0.6155  0.0867  0.2041
 7620SOL     OW34321   2.242   2.738   2.758 -0.0313  0.3601  0.8204
 7620SOL    HW134322   2.229   2.701   2.845 -0.0853 -1.2086  0.1376
 7620SOL    HW234323   2.338   2.733   2.761 -0.0120  0.5062  0.3772
 7621SOL     OW34324   1.668   3.442   3.938  0.1915  0.2115  0.0755
 7621SOL    HW134325   1.717   3.510   3.892 -1.0967 -0.4604 -2.2376
 7621SOL    HW234326   1.738   3.378   3.951 -0.3287 -0.3091  0.3243
 7622SOL     OW34327   2.674   4.092  16.732 -0.3218  0.4634  0.1392
 7622SOL    HW134328   2.592   4.045  16.715 -0.8761  1.0344  1.2595
 7622SOL    HW234329   2.744   4.036  16.699  0.0140  1.0883 -0.2112
 7623SOL     OW34330   4.019   4.518   1.022  0.3237 -0.3550  0.1385
 7623SOL    HW134331   4.047   4.456   1.089 -0.9854 -0.2964  0.7310
 7623SOL    HW234332   3.975   4.582   1.078 -2.9144 -1.4015 -1.2487
 7624SOL     OW34333   3.822   4.020   2.726 -0.3015  0.7214 -0.0895
 7624SOL    HW134334   3.762   3.978   2.664 -0.0913  2.1321 -1.2406
 7624SOL    HW234335   3.752   4.060   2.778 -1.7610 -3.0242  0.8250
 7625SOL     OW34336   4.547   3.688   6.449  0.5688  0.5186  0.4646
 7625SOL    HW134337   4.506   3.753   6.505  1.4194  2.4808 -1.2086
 7625SOL    HW234338   4.608   3.649   6.511  1.7150  1.6614  0.0506
 7626SOL     OW34339   2.258   4.072  12.533 -0.3667  0.0017 -0.1385
 7626SOL    HW134340   2.188   4.133  12.512 -0.2840  0.4368  0.8342
 7626SOL    HW234341   2.316   4.074  12.457 -0.4491  1.1334 -0.1717
 7627SOL     OW34342   3.903   4.538   2.385  0.0083 -0.0330  0.5929
 7627SOL    HW134343   3.834   4.494   2.335  1.0124 -0.0804 -0.7183
 7627SOL    HW234344   3.888   4.498   2.471  3.1909 -0.0187  1.1377
 7628SOL     OW34345   3.760   2.596   4.738  0.1315 -0.3115  0.2853
 7628SOL    HW134346   3.755   2.685   4.706  2.6905 -0.3993 -0.3908
 7628SOL    HW234347   3.678   2.598   4.786 -0.6563 -0.0119 -1.0901
 7629SOL     OW34348   3.589   3.756   2.339  0.2724  0.2430  0.1253
 7629SOL    HW134349   3.632   3.672   2.324 -0.9575 -0.4378  0.4227
 7629SOL    HW234350   3.640   3.808   2.277  0.1178  0.4661  0.1861
 7630SOL     OW34351   4.189   1.685  14.355 -0.3596 -0.3902 -0.3211
 7630SOL    HW134352   4.262   1.747  14.348 -1.5745  0.8077 -2.4169
 7630SOL    HW234353   4.139   1.711  14.433  0.0143  2.3727 -0.9800
 7631SOL     OW34354   3.386   2.316   8.182 -0.2941 -0.2083  0.1327
 7631SOL    HW134355   3.399   2.238   8.236  0.0539 -0.9547 -1.0302
 7631SOL    HW234356   3.474   2.311   8.145 -0.6913 -0.4218 -0.7651
 7632SOL     OW34357   1.538   2.639   4.816  0.0734 -0.6041 -0.2001
 7632SOL    HW134358   1.451   2.662   4.849 -0.2983 -2.0979 -0.1709
 7632SOL    HW234359   1.523   2.615   4.725  1.1098 -0.6492 -0.3630
 7633SOL     OW34360   0.074   0.179  10.531 -0.1320  0.2156  0.0750
 7633SOL    HW134361   0.142   0.112  10.535  1.3741  1.6844 -0.5672
 7633SOL    HW234362   0.089   0.210  10.442  0.5896  0.2583  0.2107
 7634SOL     OW34363   2.250   0.895   8.080 -0.4407 -0.0693 -0.0320
 7634SOL    HW134364   2.260   0.974   8.027  2.0032  1.2736  2.3910
 7634SOL    HW234365   2.335   0.888   8.124 -0.8596 -0.7948  0.6582
 7635SOL     OW34366   4.495   4.078   0.950  0.2799  0.0690  0.4048
 7635SOL    HW134367   4.428   4.141   0.975 -0.3744 -0.6034  0.3478
 7635SOL    HW234368   4.494   4.085   0.854 -1.2058  1.8908  0.5757
 7636SOL     OW34369   3.898   2.389   7.768  0.5245  0.1850  0.3043
 7636SOL    HW134370   3.981   2.422   7.803  1.3179  1.3271 -2.6537
 7636SOL    HW234371   3.835   2.432   7.826  0.2869  2.5372 -1.7216
 7637SOL     OW34372   2.312   2.546   5.135  0.0020 -0.3789 -0.3617
 7637SOL    HW134373   2.330   2.640   5.125 -0.6343 -0.3416 -1.1974
 7637SOL    HW234374   2.218   2.543   5.116  0.3272 -0.4029 -2.0150
 7638SOL     OW34375   3.833   2.304   4.186 -0.4966  0.2456  0.4487
 7638SOL    HW134376   3.787   2.381   4.219 -2.2723 -0.7303  0.2795
 7638SOL    HW234377   3.907   2.340   4.136 -1.6016  2.1288  0.1534
 7639SOL     OW34378   0.756   1.288   4.633 -0.6587 -0.4396 -0.5882
 7639SOL    HW134379   0.723   1.250   4.714 -2.1498  1.4117 -0.3399
 7639SOL    HW234380   0.693   1.260   4.566  0.5870 -2.5156 -0.8978
 7640SOL     OW34381   1.795   0.042   1.269  0.5385  0.0163  0.6107
 7640SOL    HW134382   1.708   0.003   1.281  0.5160  0.3613  1.5655
 7640SOL    HW234383   1.787   0.130   1.306  0.8323  1.7978 -3.5564
 7641SOL     OW34384   2.248   1.498   4.153  0.4894  0.2936 -0.1358
 7641SOL    HW134385   2.262   1.549   4.232  0.5992  2.1013 -1.3413
 7641SOL    HW234386   2.157   1.519   4.131 -0.3081 -1.1350  1.7748
 7642SOL     OW34387   2.286   4.071   1.258 -0.1787  0.6106  0.2356
 7642SOL    HW134388   2.225   4.073   1.184  0.3206 -0.4312 -0.2096
 7642SOL    HW234389   2.290   3.975   1.262 -0.2519  0.5054 -2.1597
 7643SOL     OW34390   1.586   0.653   1.780 -0.4244 -0.4758  0.5186
 7643SOL    HW134391   1.609   0.620   1.867  2.0084 -2.3482 -0.8415
 7643SOL    HW234392   1.496   0.684   1.795  0.2327  0.6532  2.1364
 7644SOL     OW34393   1.922   3.063   3.529 -0.0607  0.1463 -0.1686
 7644SOL    HW134394   1.953   3.103   3.449  1.6742  3.3506  2.1176
 7644SOL    HW234395   1.889   3.141   3.574  0.2794  0.0880  0.1859
 7645SOL     OW34396   0.238   1.489  13.312 -0.1397  0.0194  1.0108
 7645SOL    HW134397   0.205   1.566  13.265  1.1558  0.4562  0.8337
 7645SOL    HW234398   0.288   1.445  13.243  2.7855  4.6243  0.1824
 7646SOL     OW34399   0.497   1.851   4.989 -0.0779 -0.5507 -0.2112
 7646SOL    HW134400   0.508   1.946   4.998 -2.4890 -0.3629  0.7803
 7646SOL    HW234401   0.403   1.843   5.005 -0.2547  2.8674  0.4616
 7647SOL     OW34402   3.308   1.774   7.394  0.0215 -0.0812 -0.0230
 7647SOL    HW134403   3.311   1.692   7.344  3.2379  1.5237 -2.4580
 7647SOL    HW234404   3.319   1.735   7.481  1.4037  1.1919  0.3768
 7648SOL     OW34405   0.335   3.659   4.587 -0.4867 -0.6753 -0.3205
 7648SOL    HW134406   0.254   3.634   4.543  0.5227 -0.9612 -1.9985
 7648SOL    HW234407   0.348   3.744   4.545  0.8016 -1.8236 -2.2227
 7649SOL     OW34408   2.086   3.399   5.679 -0.1825  0.8642  0.0906
 7649SOL    HW134409   2.000   3.363   5.658 -0.5043  1.2314  0.8140
 7649SOL    HW234410   2.129   3.371   5.598  0.3303 -0.6861  0.9116
 7650SOL     OW34411   4.580   4.557   5.436  0.1005 -0.4964  0.6398
 7650SOL    HW134412   4.594   4.463   5.450 -2.9508 -0.7380  2.0070
 7650SOL    HW234413   4.615   4.575   5.349 -2.2567  1.3823  0.0787
 7651SOL     OW34414   3.252   3.161   8.496  0.2342 -0.1259  0.3042
 7651SOL    HW134415   3.257   3.171   8.591  0.1034  2.2567  0.0735
 7651SOL    HW234416   3.181   3.098   8.487 -0.3475  0.5122  0.3533
 7652SOL     OW34417   2.602   4.271   9.674 -0.5839 -0.3825 -0.0346
 7652SOL    HW134418   2.545   4.252   9.749 -0.9313 -2.8360 -0.9294
 7652SOL    HW234419   2.662   4.197   9.684 -1.9716 -1.6025 -0.7844
 7653SOL     OW34420   2.429   3.763   8.976 -0.1422  0.5973  0.1064
 7653SOL    HW134421   2.511   3.811   8.961  1.1325 -1.2508  1.1365
 7653SOL    HW234422   2.466   3.691   9.028 -1.1842 -0.2040 -0.2648
 7654SOL     OW34423   3.357   3.708  13.860  0.6138 -0.1265  0.1466
 7654SOL    HW134424   3.436   3.683  13.813  1.7979  1.4352  1.2790
 7654SOL    HW234425   3.322   3.772  13.798  1.6598  0.8409  0.5636
 7655SOL     OW34426   3.933   2.435   0.713 -0.2209 -0.1400 -0.0279
 7655SOL    HW134427   3.939   2.352   0.760 -1.9071 -0.5514 -0.5672
 7655SOL    HW234428   3.993   2.490   0.764  0.7215 -0.9833 -0.2246
 7656SOL     OW34429   0.967   0.348   3.667 -0.0630  0.3266 -0.5553
 7656SOL    HW134430   1.055   0.311   3.654 -0.7469  0.3875 -5.3521
 7656SOL    HW234431   0.937   0.276   3.722  2.2241 -1.3395 -1.4917
 7657SOL     OW34432   1.415   2.888   9.523  0.3612  0.1943 -0.1558
 7657SOL    HW134433   1.426   2.980   9.548  0.0077 -0.6824  3.1499
 7657SOL    HW234434   1.451   2.847   9.601 -0.4676 -1.4551 -0.6464
 7658SOL     OW34435   1.078   0.739  16.592  0.2702  0.2647 -0.4782
 7658SOL    HW134436   1.038   0.702  16.513 -1.4813 -1.1380  1.0534
 7658SOL    HW234437   1.012   0.699  16.649  1.7445 -0.3038  0.8178
 7659SOL     OW34438   4.281   3.838   1.193  0.0415  0.3063  0.4843
 7659SOL    HW134439   4.198   3.829   1.240 -0.6359 -0.1680 -0.7889
 7659SOL    HW234440   4.334   3.772   1.238  0.9817  0.9223  0.2716
 7660SOL     OW34441   0.013   1.940   8.982 -0.0921  0.1269 -0.3984
 7660SOL    HW134442   0.089   1.910   9.032  1.0572  2.4507 -0.7524
 7660SOL    HW234443   0.050   1.946   8.894 -1.3652  1.3056 -0.8591
 7661SOL     OW34444   0.922   0.945  13.087  0.1937  0.2130  0.3687
 7661SOL    HW134445   0.909   0.867  13.034 -1.3297 -0.3524  1.5620
 7661SOL    HW234446   0.933   0.905  13.174  0.7016 -1.1055 -0.3031
 7662SOL     OW34447   4.343   0.774   6.351 -0.2234 -0.5632  0.4114
 7662SOL    HW134448   4.289   0.745   6.277 -1.8087 -2.6083  2.3875
 7662SOL    HW234449   4.270   0.774   6.412 -0.3838  3.4143  0.2599
 7663SOL     OW34450   3.974   4.270   1.561  0.2321 -0.2490  0.4423
 7663SOL    HW134451   3.894   4.261   1.510  0.1679  2.1069  0.1467
 7663SOL    HW234452   4.007   4.356   1.536 -0.9804 -0.1257 -0.7280
 7664SOL     OW34453   3.117   2.499  12.426 -0.2013  0.0787 -0.1744
 7664SOL    HW134454   3.041   2.539  12.384  0.7975  0.6791 -1.4163
 7664SOL    HW234455   3.132   2.557  12.500  1.9711  1.1746 -1.4707
 7665SOL     OW34456   3.288   3.631   0.620 -0.0078 -0.0418  0.3564
 7665SOL    HW134457   3.217   3.607   0.680  0.0740  1.3051  0.9857
 7665SOL    HW234458   3.348   3.670   0.683  2.2549  0.1248 -1.9067
 7666SOL     OW34459   1.627   1.074  10.815 -0.1646 -0.6291 -0.1162
 7666SOL    HW134460   1.582   1.130  10.879 -0.2256 -1.5139  0.6231
 7666SOL    HW234461   1.576   0.994  10.806  0.3617 -1.1300  1.2712
 7667SOL     OW34462   3.225   3.847   2.586  0.1033 -0.5559 -0.2624
 7667SOL    HW134463   3.189   3.929   2.621 -0.7292 -1.2137  0.3884
 7667SOL    HW234464   3.189   3.829   2.499  0.4702  1.1653 -0.7740
 7668SOL     OW34465   2.422   1.409   3.940  0.3641  0.1786  0.4341
 7668SOL    HW134466   2.469   1.485   3.907  0.2107  0.0902  0.0086
 7668SOL    HW234467   2.372   1.440   4.016 -0.5264  1.7439 -0.7864
 7669SOL     OW34468   2.867   1.534   6.196 -0.0984 -0.3879 -0.1888
 7669SOL    HW134469   2.885   1.606   6.257  2.5922 -0.7067 -0.6086
 7669SOL    HW234470   2.786   1.495   6.228  0.7552 -1.9080  0.1153
 7670SOL     OW34471   1.557   2.007   6.677 -0.4657 -0.5055 -0.2406
 7670SOL    HW134472   1.649   2.021   6.656 -0.3638  0.6453  0.9722
 7670SOL    HW234473   1.525   2.012   6.587  1.6196 -3.6985 -1.1458
 7671SOL     OW34474   2.292   0.572   9.879  0.1697  0.2274 -1.0206
 7671SOL    HW134475   2.306   0.517   9.802  0.9099 -0.1494 -0.6291
 7671SOL    HW234476   2.381   0.562   9.915  0.0981  0.6568 -0.7287
 7672SOL     OW34477   0.252   0.303   4.614 -0.3381  0.1555 -0.0589
 7672SOL    HW134478   0.344   0.276   4.612 -0.7758 -1.2686 -1.5079
 7672SOL    HW234479   0.261   0.396   4.594  1.4283 -0.1044 -0.4643
 7673SOL     OW34480   1.156   0.220   5.187 -0.3768 -0.2255 -0.0478
 7673SOL    HW134481   1.141   0.303   5.231  2.6477 -1.5187  3.4787
 7673SOL    HW234482   1.156   0.247   5.095 -0.2065 -2.7459 -0.7928
 7674SOL     OW34483   3.138   2.275   2.329  1.1265 -0.0333 -0.9872
 7674SOL    HW134484   3.195   2.220   2.275  0.9008  0.8140 -2.0821
 7674SOL    HW234485   3.204   2.307   2.390 -1.3045  1.5832  0.7728
 7675SOL     OW34486   3.696   0.613   8.110  0.4239  0.7377  0.4135
 7675SOL    HW134487   3.660   0.613   8.021  0.4693 -0.8218  0.3918
 7675SOL    HW234488   3.786   0.644   8.100  0.8016 -1.0538 -1.7799
 7676SOL     OW34489   1.621   2.397   5.334  0.3368 -0.3719 -0.1973
 7676SOL    HW134490   1.555   2.347   5.286  0.9978  1.3813 -2.9185
 7676SOL    HW234491   1.577   2.480   5.349 -0.2265 -1.0258  1.7177
 7677SOL     OW34492   3.569   2.382   0.618  0.4642  0.1171 -0.8230
 7677SOL    HW134493   3.516   2.364   0.541  0.2013  2.8689 -1.2584
 7677SOL    HW234494   3.530   2.316   0.676 -0.5939  0.8203 -0.7475
 7678SOL     OW34495   2.687   3.404   1.572 -0.8477  0.0082  0.3670
 7678SOL    HW134496   2.728   3.472   1.518  0.4175 -1.4893 -0.5631
 7678SOL    HW234497   2.619   3.360   1.521 -1.7961  1.0459  0.7191
 7679SOL     OW34498   0.620   2.619   4.199 -0.2319  0.3069 -0.3511
 7679SOL    HW134499   0.668   2.596   4.120  0.0682 -1.8926  0.4535
 7679SOL    HW234500   0.705   2.640   4.239 -1.8552 -2.2320  4.4437
 7680SOL     OW34501   4.580   0.758   4.259  0.5705 -0.1946 -0.2986
 7680SOL    HW134502   4.650   0.700   4.230 -1.0535 -2.6889  0.7305
 7680SOL    HW234503   4.523   0.769   4.183  0.1796  0.2840  0.0631
 7681SOL     OW34504   3.197   0.449  11.371  0.6031  0.7912 -0.5028
 7681SOL    HW134505   3.172   0.375  11.427 -3.4885  1.7863 -1.0586
 7681SOL    HW234506   3.292   0.453  11.380  0.1456  1.6522  4.0050
 7682SOL     OW34507   1.402   1.442   0.223 -0.1508  0.6801 -0.3539
 7682SOL    HW134508   1.379   1.479   0.308 -2.0149 -1.4997  0.1000
 7682SOL    HW234509   1.471   1.498   0.188  2.0869  0.4736  3.8121
 7683SOL     OW34510   0.464   3.628   3.211  0.3149  0.0966  0.6243
 7683SOL    HW134511   0.502   3.556   3.260  0.4221  0.1578  0.6315
 7683SOL    HW234512   0.393   3.643   3.274 -0.5629 -0.2202 -0.2861
 7684SOL     OW34513   0.223   1.243  11.315 -0.2095  0.2175  0.5981
 7684SOL    HW134514   0.300   1.218  11.366  0.3292  1.0790  0.1898
 7684SOL    HW234515   0.202   1.330  11.349 -0.0658  0.8644 -0.9856
 7685SOL     OW34516   3.436   4.252   6.891  0.5424 -0.2730  0.3628
 7685SOL    HW134517   3.404   4.310   6.822  1.3154  0.4062  0.5857
 7685SOL    HW234518   3.355   4.234   6.940  0.2995 -0.5255 -0.1266
 7686SOL     OW34519   3.671   2.936   7.791  0.1086 -0.4213  0.1521
 7686SOL    HW134520   3.764   2.961   7.790  0.0002  0.1528  2.7766
 7686SOL    HW234521   3.678   2.846   7.759  2.1763  0.4230 -1.7101
 7687SOL     OW34522   3.845   2.733   1.689  0.6012 -0.2683 -0.1579
 7687SOL    HW134523   3.818   2.727   1.597 -1.5155  2.4373  0.2713
 7687SOL    HW234524   3.877   2.823   1.698 -1.0330  0.2401  0.5930
 7688SOL     OW34525   2.631   4.343  16.845  0.1999 -0.5807 -0.2621
 7688SOL    HW134526   2.630   4.253  16.812 -0.2179 -0.7480  0.1939
 7688SOL    HW234527   2.707   4.333  16.903  0.0659 -2.2101 -0.3803
 7689SOL     OW34528   3.206   4.312   8.764 -0.1490 -0.3430 -0.3344
 7689SOL    HW134529   3.239   4.224   8.780  5.7582  1.3630 -3.3149
 7689SOL    HW234530   3.151   4.301   8.686  0.9735 -1.6999 -0.9223
 7690SOL     OW34531   2.861   2.933   1.928  0.5275  0.2395 -0.6450
 7690SOL    HW134532   2.931   2.868   1.932  0.6176  0.3713 -0.1314
 7690SOL    HW234533   2.893   2.995   1.862  0.7800 -2.3348 -2.9618
 7691SOL     OW34534   2.223   2.570   0.667 -0.5580 -0.3901  0.0556
 7691SOL    HW134535   2.268   2.555   0.584  1.8489 -0.7884  1.4363
 7691SOL    HW234536   2.284   2.529   0.728  0.8271  2.3052  0.4918
 7692SOL     OW34537   2.379   2.013   2.030 -0.2722  0.7849  0.4968
 7692SOL    HW134538   2.465   1.980   2.005 -0.5919 -1.0393  1.8080
 7692SOL    HW234539   2.360   2.076   1.960  0.4522  1.0895  0.5670
 7693SOL     OW34540   0.562   2.357   8.948 -0.2952  0.2403  0.2700
 7693SOL    HW134541   0.557   2.444   8.989  1.4396  0.2341  0.4919
 7693SOL    HW234542   0.624   2.318   9.010 -0.2333  2.5596  1.6877
 7694SOL     OW34543   3.251   4.688   4.184 -0.5508 -0.0905 -0.3744
 7694SOL    HW134544   3.294   0.047   4.168 -0.1974 -0.5964 -2.0561
 7694SOL    HW234545   3.166   4.720   4.155  0.3233  1.7249 -0.9525
 7695SOL     OW34546   0.329   1.195  14.047  0.4008  0.0411  0.0250
 7695SOL    HW134547   0.272   1.247  13.992 -2.0181 -0.0959  2.4233
 7695SOL    HW234548   0.315   1.229  14.136  0.0111  1.4109 -0.5648
 7696SOL     OW34549   3.375   3.931   9.421 -0.1744  0.1585 -0.5806
 7696SOL    HW134550   3.375   4.027   9.429  0.0789  0.2827 -2.0845
 7696SOL    HW234551   3.432   3.922   9.345 -0.3860 -0.6214 -0.6473
 7697SOL     OW34552   1.141   3.945   8.311  0.0588 -0.7117 -0.0418
 7697SOL    HW134553   1.210   3.879   8.321  1.2068  0.5217  0.1219
 7697SOL    HW234554   1.159   3.997   8.233 -1.0723 -0.3973 -0.0930
 7698SOL     OW34555   1.450   4.420   5.415 -0.1907 -0.1782 -0.7501
 7698SOL    HW134556   1.378   4.420   5.478  0.1972 -2.9908 -0.3244
 7698SOL    HW234557   1.406   4.457   5.339  3.2676 -1.9490 -3.5914
 7699SOL     OW34558   1.070   2.240   1.040  0.0743  0.1474 -0.8381
 7699SOL    HW134559   1.096   2.264   1.129 -2.4419  0.8120 -0.2877
 7699SOL    HW234560   1.123   2.298   0.985 -1.4744  1.4186 -0.9897
 7700SOL     OW34561   0.718   4.499   2.329 -0.5937 -0.1396  0.4124
 7700SOL    HW134562   0.800   4.451   2.319 -0.7586 -0.8378  2.3491
 7700SOL    HW234563   0.675   4.475   2.247  0.6958 -0.6179 -0.1240
 7701SOL     OW34564   2.526   1.759  14.556  0.6323  0.0180 -0.6947
 7701SOL    HW134565   2.592   1.763  14.487 -0.3846  1.0174 -1.6116
 7701SOL    HW234566   2.540   1.666  14.573  1.4810  0.4954  1.3102
 7702SOL     OW34567   2.537   0.948   4.993 -0.2019 -0.1800  0.4601
 7702SOL    HW134568   2.508   0.945   4.902 -0.5667  4.4171  0.4137
 7702SOL    HW234569   2.631   0.953   4.976 -0.5880 -3.4787 -2.7116
 7703SOL     OW34570   3.741   3.693   2.763 -0.3149 -0.1605  0.4370
 7703SOL    HW134571   3.778   3.777   2.737 -1.8104  0.5140  0.4762
 7703SOL    HW234572   3.673   3.691   2.695  0.7740 -0.2197 -0.6420
 7704SOL     OW34573   0.505   0.558  14.264 -0.5923 -0.1808 -0.0907
 7704SOL    HW134574   0.572   0.529  14.327 -1.4542 -0.2974  0.7674
 7704SOL    HW234575   0.458   0.477  14.248  0.6327 -0.7244 -0.9193
 7705SOL     OW34576   1.208   3.763   7.770  0.0706  0.0880 -0.7838
 7705SOL    HW134577   1.199   3.682   7.820  0.0081  0.8993  0.5034
 7705SOL    HW234578   1.284   3.741   7.716 -0.1725 -1.6671 -0.4131
 7706SOL     OW34579   4.408   3.200   2.369 -0.2484 -0.1926 -0.0321
 7706SOL    HW134580   4.313   3.199   2.381 -0.2127 -3.0024  0.0230
 7706SOL    HW234581   4.437   3.276   2.420 -0.1292 -1.5335  1.8926
 7707SOL     OW34582   2.999   4.618   6.003  0.1190 -0.2158 -0.0148
 7707SOL    HW134583   2.927   4.630   6.066  1.2558  1.2582  0.9954
 7707SOL    HW234584   3.064   4.673   6.047 -0.1052  0.3980 -0.4509
 7708SOL     OW34585   2.995   0.106   6.986  0.4151 -0.3365  0.2299
 7708SOL    HW134586   2.971   0.021   6.949 -0.1698  0.6154 -1.5567
 7708SOL    HW234587   3.055   0.079   7.055  1.0096  0.7042  0.1160
 7709SOL     OW34588   3.433   1.190   4.723 -0.1811 -0.2789  0.0192
 7709SOL    HW134589   3.380   1.269   4.729  1.3138  0.7848 -0.7377
 7709SOL    HW234590   3.438   1.181   4.628  2.2635 -2.1568  0.3217
 7710SOL     OW34591   4.558   1.254  15.408  0.1942 -0.2892 -0.6462
 7710SOL    HW134592   4.550   1.313  15.483 -1.4397  0.0540 -1.0698
 7710SOL    HW234593   4.467   1.259  15.377  0.0796 -0.9717 -0.4042
 7711SOL     OW34594   0.623   3.641   8.512  0.8887  0.3476 -0.4941
 7711SOL    HW134595   0.528   3.642   8.508  0.8598  1.9776  0.6227
 7711SOL    HW234596   0.637   3.630   8.606  0.4154  0.3149 -0.4283
 7712SOL     OW34597   0.646   4.204   2.503 -0.0911  0.4652 -0.3665
 7712SOL    HW134598   0.631   4.290   2.543 -0.7086 -0.1677  0.7820
 7712SOL    HW234599   0.627   4.224   2.412 -2.1831  1.3745  0.2716
 7713SOL     OW34600   3.099   0.385   5.974  0.5111  0.0888 -0.3992
 7713SOL    HW134601   3.005   0.378   5.958  0.3443  1.7285 -0.1190
 7713SOL    HW234602   3.138   0.356   5.892  0.4848  0.0677 -0.4041
 7714SOL     OW34603   4.183   1.905   0.912  0.5167  0.0169  0.2676
 7714SOL    HW134604   4.205   1.970   0.845 -1.5278  1.3601  0.8828
 7714SOL    HW234605   4.215   1.936   0.996 -1.7566  0.3314  1.0336
 7715SOL     OW34606   1.746   1.041   5.920 -0.2873 -0.0486  0.0814
 7715SOL    HW134607   1.772   1.119   5.968 -2.9163  1.6281 -1.2249
 7715SOL    HW234608   1.671   1.068   5.867  0.4254  1.3003 -0.2260
 7716SOL     OW34609   2.681   0.843   6.550  0.2620  0.1620  0.2474
 7716SOL    HW134610   2.622   0.918   6.559 -0.3268  0.0152 -2.4791
 7716SOL    HW234611   2.724   0.850   6.635 -1.1325  1.1880  0.8634
 7717SOL     OW34612   1.999   1.581   4.962 -0.5293  0.0807  0.7551
 7717SOL    HW134613   2.067   1.575   4.896 -1.2612  0.1262 -0.0065
 7717SOL    HW234614   2.054   1.568   5.040 -0.9233  2.0895  1.3696
 7718SOL     OW34615   2.823   4.719  14.107  0.3549 -0.0510 -0.1366
 7718SOL    HW134616   2.836   0.081  14.143  1.1447 -0.3971  0.4291
 7718SOL    HW234617   2.846   0.016  14.017  2.1539  2.8756  1.0459
 7719SOL     OW34618   1.911   0.917  17.469 -0.1766 -0.0196  1.0146
 7719SOL    HW134619   1.897   0.965  17.387 -1.7605  0.4167  1.5431
 7719SOL    HW234620   2.005   0.902  17.459 -0.2489 -0.8759  1.6186
 7720SOL     OW34621   2.864   1.084   7.923  0.0090 -0.7322 -0.4289
 7720SOL    HW134622   2.926   1.070   7.851  0.6674  1.3676 -0.2908
 7720SOL    HW234623   2.929   1.097   7.991  0.1400  0.7345 -0.8147
 7721SOL     OW34624   0.467   2.225   5.867 -0.0045 -0.2126 -0.2306
 7721SOL    HW134625   0.466   2.297   5.804 -1.9187  1.1030  1.3192
 7721SOL    HW234626   0.550   2.226   5.915 -0.3080  2.3246  0.2015
 7722SOL     OW34627   2.128   2.600   8.943  0.1378 -0.3106  0.9312
 7722SOL    HW134628   2.100   2.588   9.034 -2.0807  1.3935  0.4776
 7722SOL    HW234629   2.218   2.632   8.951  0.8984 -1.7123 -1.8941
 7723SOL     OW34630   0.813   2.628   6.081 -0.0944 -0.0548 -0.1898
 7723SOL    HW134631   0.765   2.594   6.006  0.3836  0.9999 -0.9867
 7723SOL    HW234632   0.840   2.551   6.131  1.6092  0.1483 -0.8090
 7724SOL     OW34633   2.223   0.919  13.955  0.8482  0.3932 -0.1174
 7724SOL    HW134634   2.212   1.013  13.940  0.8123 -0.0349 -2.8501
 7724SOL    HW234635   2.199   0.874  13.873 -0.0924 -1.7690  1.3332
 7725SOL     OW34636   0.209   1.891  11.416  0.1286  0.2162  0.1011
 7725SOL    HW134637   0.211   1.951  11.491 -0.8928  1.0345 -0.5180
 7725SOL    HW234638   0.164   1.817  11.456  1.0938 -1.4360 -1.8945
 7726SOL     OW34639   2.327   3.699   4.231 -0.1218 -0.5653 -0.1408
 7726SOL    HW134640   2.295   3.694   4.141  0.2272  0.3472 -0.3086
 7726SOL    HW234641   2.245   3.725   4.273 -0.7488  2.1428 -3.0756
 7727SOL     OW34642   2.060   2.986   4.803 -0.2953 -0.3100  0.2770
 7727SOL    HW134643   2.142   3.002   4.850 -0.0614  2.6198 -1.1905
 7727SOL    HW234644   2.043   3.077   4.780 -1.4108 -1.1012 -1.9755
 7728SOL     OW34645   0.597   1.626  10.560  0.1232 -0.3469  0.0624
 7728SOL    HW134646   0.518   1.634  10.506  0.3115 -1.4760 -0.3854
 7728SOL    HW234647   0.592   1.530  10.561  1.1175 -0.4008  0.3482
 7729SOL     OW34648   2.470   0.336   1.505 -0.5458  0.3620  0.4900
 7729SOL    HW134649   2.474   0.371   1.416  2.4272 -1.9047 -0.2639
 7729SOL    HW234650   2.433   0.417   1.540  1.7195  1.8436 -0.5869
 7730SOL     OW34651   4.168   4.689  15.848 -0.2583  0.3446 -0.4938
 7730SOL    HW134652   4.175   0.045  15.798 -1.3127  0.5434 -0.3268
 7730SOL    HW234653   4.111   4.637  15.791 -0.8625  0.0295  0.3982
 7731SOL     OW34654   1.805   2.503   4.579 -0.4163  0.5663  0.0820
 7731SOL    HW134655   1.803   2.552   4.662  1.9461  1.2638 -0.2791
 7731SOL    HW234656   1.789   2.562   4.505 -0.5690  0.4534  0.0249
 7732SOL     OW34657   4.243   4.652   3.080  0.5524  0.0301  0.2518
 7732SOL    HW134658   4.219   0.017   3.099  1.3461  0.2312  0.2633
 7732SOL    HW234659   4.182   4.630   3.010 -0.0207 -0.9493  1.0467
 7733SOL     OW34660   3.234   0.081   3.243 -0.5228 -0.4347 -0.4308
 7733SOL    HW134661   3.231   0.130   3.161  0.6927  2.8884  1.5368
 7733SOL    HW234662   3.283   0.001   3.225 -0.1374 -0.1075 -0.8467
 7734SOL     OW34663   0.960   0.632   7.202  0.0777  0.0712 -0.4920
 7734SOL    HW134664   0.895   0.563   7.208 -1.4475  1.4482 -1.2199
 7734SOL    HW234665   0.996   0.622   7.290 -0.4769  1.9017 -0.0652
 7735SOL     OW34666   1.630   0.387   4.351  0.4486  0.4464  0.5552
 7735SOL    HW134667   1.663   0.399   4.439  1.8215  0.5148  0.0334
 7735SOL    HW234668   1.709   0.407   4.302 -0.4272 -0.0754 -1.0897
 7736SOL     OW34669   2.816   4.690  12.131 -0.1150  0.2469 -0.1775
 7736SOL    HW134670   2.858   4.621  12.182 -3.3655 -2.1589 -0.8022
 7736SOL    HW234671   2.788   4.631  12.061 -0.1442  0.0862 -0.0306
 7737SOL     OW34672   0.230   4.694   2.552  0.2243  0.3951 -0.1349
 7737SOL    HW134673   0.285   4.680   2.475  0.4656 -0.6775  0.2274
 7737SOL    HW234674   0.200   4.604   2.568  2.9092 -1.3106 -4.6713
 7738SOL     OW34675   3.165   3.336   2.599  0.5755 -0.0998  0.2638
 7738SOL    HW134676   3.074   3.305   2.602 -0.1010  1.8902  0.5661
 7738SOL    HW234677   3.146   3.429   2.587  1.1761 -0.1987 -1.4385
 7739SOL     OW34678   1.955   3.759   6.781 -0.7826 -0.6019 -0.6181
 7739SOL    HW134679   2.030   3.731   6.833 -0.6029 -1.2166 -1.2230
 7739SOL    HW234680   1.894   3.693   6.814 -1.3672 -0.3847 -1.2613
 7740SOL     OW34681   3.869   3.380  12.464  0.2385 -0.4920  0.5622
 7740SOL    HW134682   3.847   3.448  12.527  2.3977  2.3136 -1.7188
 7740SOL    HW234683   3.954   3.418  12.441 -0.1963  0.2170  0.1341
 7741SOL     OW34684   3.912   1.127  11.354 -0.2000 -0.0064  0.0092
 7741SOL    HW134685   3.961   1.048  11.376  0.1962  0.6529  1.5038
 7741SOL    HW234686   3.871   1.142  11.440 -0.4061 -1.6666  0.2025
 7742SOL     OW34687   3.090   0.726   5.745  0.1254 -0.4748  0.2419
 7742SOL    HW134688   3.148   0.651   5.730  0.2241 -0.1776 -0.8891
 7742SOL    HW234689   3.064   0.701   5.833  0.8043 -0.6052  0.4014
 7743SOL     OW34690   1.347   3.535   5.051 -0.6244  0.1437  0.6445
 7743SOL    HW134691   1.337   3.612   5.107  0.4988  0.0206  1.0090
 7743SOL    HW234692   1.349   3.579   4.966  0.7474  0.2740  0.7476
 7744SOL     OW34693   0.241   0.016  10.049 -0.2114 -0.1991  0.2198
 7744SOL    HW134694   0.211   0.087   9.992  0.1738 -0.2176 -0.0084
 7744SOL    HW234695   0.212   4.657  10.014 -0.9915 -0.3292  1.1794
 7745SOL     OW34696   4.382   2.204   0.415  0.3910 -0.3650  0.0392
 7745SOL    HW134697   4.339   2.168   0.493 -1.4896  0.2368 -0.7084
 7745SOL    HW234698   4.394   2.293   0.448  3.3605 -0.0813 -1.8003
 7746SOL     OW34699   1.342   0.607   1.907  0.2072  0.3883  0.2200
 7746SOL    HW134700   1.295   0.688   1.887  0.4897  0.9004  1.6151
 7746SOL    HW234701   1.299   0.574   1.986 -1.2402 -0.4109 -0.9000
 7747SOL     OW34702   4.201   3.353   3.535 -0.0316  0.5388  0.1446
 7747SOL    HW134703   4.247   3.316   3.611 -2.2076 -0.1209  1.1574
 7747SOL    HW234704   4.205   3.286   3.467 -0.6517  0.7882 -0.1335
 7748SOL     OW34705   2.221   1.865  15.602 -0.4284 -0.3766 -0.1469
 7748SOL    HW134706   2.207   1.922  15.526 -1.9511 -0.2486  0.2184
 7748SOL    HW234707   2.232   1.782  15.557 -1.8399 -0.7309  0.1611
 7749SOL     OW34708   1.234   1.541   1.572  0.2008 -0.1078 -0.6077
 7749SOL    HW134709   1.292   1.477   1.612  0.6453  0.4035 -0.4261
 7749SOL    HW234710   1.159   1.486   1.549 -0.5382  0.0007  1.6004
 7750SOL     OW34711   1.723   1.518   7.554 -0.0669  0.1033  0.0815
 7750SOL    HW134712   1.795   1.572   7.521  1.0051 -1.3052  0.0923
 7750SOL    HW234713   1.682   1.500   7.469  1.1656 -0.7879 -0.3339
 7751SOL     OW34714   0.482   1.284   6.414 -0.0360 -1.1015  0.1519
 7751SOL    HW134715   0.454   1.295   6.505 -0.9749  1.3773 -0.4538
 7751SOL    HW234716   0.568   1.246   6.433 -0.5724 -2.2025  0.3950
 7752SOL     OW34717   0.069   2.762  14.295 -0.2755  0.0047  0.6172
 7752SOL    HW134718   0.057   2.814  14.374 -0.4095  0.9179 -0.0053
 7752SOL    HW234719   0.027   2.677  14.313  0.2524 -1.2218 -3.9449
 7753SOL     OW34720   2.246   3.470   0.383 -0.0104  0.5489  0.2060
 7753SOL    HW134721   2.217   3.484   0.473 -1.3463 -1.7307  0.1188
 7753SOL    HW234722   2.284   3.382   0.385 -1.2750  0.0120 -0.0878
 7754SOL     OW34723   4.321   2.291   1.730 -0.2366  0.0984  0.2072
 7754SOL    HW134724   4.234   2.331   1.729  0.2024  0.9629 -3.6729
 7754SOL    HW234725   4.297   2.199   1.727 -0.2416  0.1221 -0.5682
 7755SOL     OW34726   1.171   3.164   8.413  0.6909  0.3550  0.9120
 7755SOL    HW134727   1.183   3.156   8.319 -1.8783 -0.0189  0.5974
 7755SOL    HW234728   1.100   3.228   8.422  0.5252  0.0674  1.7030
 7756SOL     OW34729   0.784   4.515  15.128  0.3104  0.0617 -0.3378
 7756SOL    HW134730   0.738   4.547  15.206 -0.8845  0.6015 -1.2726
 7756SOL    HW234731   0.784   4.596  15.077 -0.2907  0.5874  0.4976
 7757SOL     OW34732   1.940   0.326   8.012  0.1325  0.6108  0.1406
 7757SOL    HW134733   1.991   0.405   8.030  0.6454 -0.2541  2.4172
 7757SOL    HW234734   1.894   0.303   8.092  0.0348 -0.1718 -0.1355
 7758SOL     OW34735   3.019   2.604  13.565  0.5742 -0.4346 -0.0433
 7758SOL    HW134736   3.029   2.685  13.615 -2.4400  0.8131 -1.4524
 7758SOL    HW234737   3.100   2.613  13.515  0.6123 -1.6506 -0.2044
 7759SOL     OW34738   4.379   2.535   2.752  0.5292 -0.0616 -0.1995
 7759SOL    HW134739   4.393   2.618   2.798 -2.8230  0.3373  0.1169
 7759SOL    HW234740   4.283   2.535   2.755  0.5479 -2.2421 -0.0873
 7760SOL     OW34741   4.031   2.240   0.961  0.2421  0.2142 -0.2341
 7760SOL    HW134742   4.061   2.179   1.029 -0.4295  1.0506  0.8161
 7760SOL    HW234743   3.999   2.303   1.026  0.3849  0.5727 -0.5130
 7761SOL     OW34744   4.413   0.414  11.462 -0.0279  0.0962  1.1505
 7761SOL    HW134745   4.495   0.412  11.413  1.0033  0.5187  2.8491
 7761SOL    HW234746   4.361   0.345  11.420  3.0938  0.1313 -2.6703
 7762SOL     OW34747   2.383   1.336   7.468  0.2892 -0.2580  0.1471
 7762SOL    HW134748   2.392   1.277   7.543  2.9663  2.3139  1.8403
 7762SOL    HW234749   2.305   1.299   7.425  1.4504  0.1655 -2.3192
 7763SOL     OW34750   3.969   1.754   1.053 -0.3052 -0.4304 -0.5462
 7763SOL    HW134751   3.996   1.722   1.139 -1.1499 -1.9053 -0.8252
 7763SOL    HW234752   4.052   1.782   1.014  0.5676 -0.0403  1.5918
 7764SOL     OW34753   2.322   0.853  17.045 -0.1254  0.0718 -0.0947
 7764SOL    HW134754   2.408   0.865  17.084 -0.8235 -0.4998  1.6267
 7764SOL    HW234755   2.335   0.809  16.961  0.6189  0.0430  0.0419
 7765SOL     OW34756   2.208   4.491   3.631 -0.0547  0.1744 -0.4035
 7765SOL    HW134757   2.296   4.458   3.611  0.4041  1.4163 -0.3808
 7765SOL    HW234758   2.232   4.563   3.689 -2.5684  0.2139  0.6045
 7766SOL     OW34759   3.091   2.647  11.190 -0.1986 -0.6828  0.2391
 7766SOL    HW134760   3.116   2.735  11.164 -2.0404 -0.5344 -1.0379
 7766SOL    HW234761   3.180   2.616  11.206  0.0844  0.2568  0.4689
 7767SOL     OW34762   4.006   4.653   5.561 -0.6368 -0.5753 -0.2598
 7767SOL    HW134763   4.047   4.568   5.579  0.4005 -0.0424 -0.0933
 7767SOL    HW234764   3.936   4.634   5.499 -0.2013 -0.8652 -0.6729
 7768SOL     OW34765   0.623   3.365   6.210  0.0706  0.1708  0.1591
 7768SOL    HW134766   0.655   3.325   6.129 -3.0003  1.1558 -1.5414
 7768SOL    HW234767   0.590   3.448   6.176  0.5702  0.4278  0.2943
 7769SOL     OW34768   3.330   0.675  10.598 -0.0627  0.3155 -0.0299
 7769SOL    HW134769   3.386   0.687  10.675  0.0123 -0.5696  0.0540
 7769SOL    HW234770   3.247   0.641  10.632 -0.7078 -0.1088 -2.0352
 7770SOL     OW34771   0.149   0.852   1.869 -0.1425  0.5940 -0.7589
 7770SOL    HW134772   0.124   0.769   1.909  0.9485  0.4577 -0.3775
 7770SOL    HW234773   0.123   0.911   1.940  2.2180  0.2351  0.3976
 7771SOL     OW34774   2.203   1.094  17.002 -0.9138 -0.3723 -0.2405
 7771SOL    HW134775   2.227   1.002  17.013 -0.8634 -0.3533 -0.1885
 7771SOL    HW234776   2.127   1.089  16.945 -2.5126 -0.6028  1.9428
 7772SOL     OW34777   1.018   1.540   0.939  0.1162  0.3077  0.2989
 7772SOL    HW134778   1.013   1.632   0.915 -0.5083  0.5825  1.5248
 7772SOL    HW234779   1.106   1.544   0.977  0.4960 -0.3251 -0.5047
 7773SOL     OW34780   0.896   0.839   6.261  0.0499  0.0257 -0.3990
 7773SOL    HW134781   0.882   0.744   6.254 -2.2638  0.3139  0.4896
 7773SOL    HW234782   0.851   0.866   6.181 -0.2983  0.1737 -0.1486
 7774SOL     OW34783   3.289   1.285   4.143 -0.0313  0.0436  0.5440
 7774SOL    HW134784   3.352   1.335   4.091 -1.2048 -0.3758 -1.2817
 7774SOL    HW234785   3.222   1.347   4.171  1.1918  0.9680  1.4318
 7775SOL     OW34786   0.964   4.482   3.973  0.0111  0.7885  0.0563
 7775SOL    HW134787   0.897   4.498   4.039  1.2416  3.1804  0.7469
 7775SOL    HW234788   1.036   4.475   4.036 -0.3497  0.2327  0.4100
 7776SOL     OW34789   3.524   1.736   6.138  0.4947 -0.2112  0.4003
 7776SOL    HW134790   3.610   1.777   6.134 -0.4333  1.8012  1.1162
 7776SOL    HW234791   3.497   1.749   6.047 -0.2129 -0.5749  0.5579
 7777SOL     OW34792   2.634   2.780   1.575  0.2272 -0.3577  0.5281
 7777SOL    HW134793   2.650   2.719   1.648 -1.9659  0.8097  1.9832
 7777SOL    HW234794   2.710   2.757   1.521 -0.9019  0.5479 -1.4239
 7778SOL     OW34795   0.819   2.075   2.670  0.2967  0.4405 -0.5649
 7778SOL    HW134796   0.909   2.041   2.678  0.5906  1.9340  2.6264
 7778SOL    HW234797   0.780   2.019   2.603  0.1216  1.2931 -1.1698
 7779SOL     OW34798   0.209   2.880   1.011 -0.2373  0.5596  0.0092
 7779SOL    HW134799   0.279   2.842   0.958  0.9836  0.6552  1.5554
 7779SOL    HW234800   0.165   2.932   0.943 -1.4135  0.8544  0.9984
 7780SOL     OW34801   3.096   0.828   6.658 -0.3213  0.0777  0.1531
 7780SOL    HW134802   3.074   0.751   6.605  1.1436 -0.7167  0.6801
 7780SOL    HW234803   3.158   0.784   6.716 -1.8278  1.1326  2.5674
 7781SOL     OW34804   1.248   1.377  12.139  0.4176  0.0037  0.0469
 7781SOL    HW134805   1.285   1.295  12.103  1.1320 -0.2740  1.3965
 7781SOL    HW234806   1.242   1.361  12.233 -1.6324  0.1317 -0.0694
 7782SOL     OW34807   3.985   2.276   6.940 -0.0744 -0.3841  0.1619
 7782SOL    HW134808   4.074   2.250   6.918  1.0303  2.1533  1.5315
 7782SOL    HW234809   3.951   2.318   6.861 -1.1643 -0.0896  0.7884
 7783SOL     OW34810   0.935   0.195   0.186 -0.2488  0.0900 -0.2822
 7783SOL    HW134811   0.939   0.172   0.094  2.5374 -1.1135  0.1314
 7783SOL    HW234812   0.880   0.122   0.212 -1.8262  0.4504 -2.6275
 7784SOL     OW34813   0.773   0.528   2.844  0.0828  0.1020 -0.2424
 7784SOL    HW134814   0.732   0.575   2.772 -0.8178  1.6298  1.2672
 7784SOL    HW234815   0.830   0.467   2.797 -1.3242 -0.8143 -0.7573
 7785SOL     OW34816   1.041   0.931   8.460 -0.0255  0.0754  0.9236
 7785SOL    HW134817   0.987   0.868   8.508 -1.4976  1.4339  1.0575
 7785SOL    HW234818   1.126   0.887   8.457 -0.1509 -0.0565 -0.5616
 7786SOL     OW34819   0.442   3.853  13.593 -0.0103  0.1718  0.2624
 7786SOL    HW134820   0.470   3.942  13.573  1.1053 -0.5502 -1.3331
 7786SOL    HW234821   0.499   3.795  13.544 -0.6943 -0.4976  0.2527
 7787SOL     OW34822   1.320   2.098   4.987 -0.6101 -0.1608  0.1112
 7787SOL    HW134823   1.389   2.077   5.051 -0.4479 -1.2446 -0.4153
 7787SOL    HW234824   1.330   2.021   4.931  1.4333  0.1856 -0.0225
 7788SOL     OW34825   0.017   1.345  11.645 -0.4250 -0.6494 -0.1527
 7788SOL    HW134826   0.046   1.418  11.591  0.3169 -1.2751 -0.6119
 7788SOL    HW234827   4.648   1.357  11.638 -0.7578 -3.3144 -0.4818
 7789SOL     OW34828   4.629   1.067   4.739  0.4154 -0.0194  0.3581
 7789SOL    HW134829   4.722   1.070   4.716  0.5639 -2.3402  0.6137
 7789SOL    HW234830   4.628   0.971   4.745  1.7918  0.0637  1.8778
 7790SOL     OW34831   1.690   2.722  16.167  0.1634  0.3800  0.1270
 7790SOL    HW134832   1.707   2.797  16.109  0.1692 -0.0061 -0.3729
 7790SOL    HW234833   1.749   2.656  16.132 -2.9154 -0.6053 -3.2725
 7791SOL     OW34834   3.936   0.994   3.441 -0.1336 -0.2576  0.2667
 7791SOL    HW134835   3.856   0.944   3.460 -2.3840  3.5296  0.8052
 7791SOL    HW234836   3.928   1.004   3.346 -1.3810  5.4988  1.0078
 7792SOL     OW34837   3.925   3.260   9.496  0.3619 -0.4923  0.0701
 7792SOL    HW134838   3.909   3.169   9.473 -1.5469  0.6980 -3.2825
 7792SOL    HW234839   3.985   3.250   9.570  1.7419 -0.2273 -1.0298
 7793SOL     OW34840   4.136   0.595   6.228  0.0241 -0.0749  0.2893
 7793SOL    HW134841   4.049   0.575   6.195 -0.7331  2.1514  0.9187
 7793SOL    HW234842   4.106   0.638   6.308 -0.2119 -0.8133  0.5956
 7794SOL     OW34843   4.636   3.896   2.839  0.0003 -0.0442 -0.3668
 7794SOL    HW134844   4.725   3.861   2.852 -0.4987 -1.0924  0.1839
 7794SOL    HW234845   4.651   3.990   2.827  2.1181 -0.1244  1.6148
 7795SOL     OW34846   1.338   3.112   4.130  0.1501 -0.4944 -0.6617
 7795SOL    HW134847   1.332   3.207   4.143 -0.7352 -0.5547 -0.6212
 7795SOL    HW234848   1.394   3.097   4.054  0.6456 -0.9919 -0.2007
 7796SOL     OW34849   1.342   4.264  14.979  0.0252 -0.3328 -0.3306
 7796SOL    HW134850   1.423   4.250  14.931  0.3237  0.1140  0.0409
 7796SOL    HW234851   1.273   4.240  14.917  0.4378 -0.9288 -0.5496
 7797SOL     OW34852   0.191   4.700   3.943  0.4635 -0.4608  0.3374
 7797SOL    HW134853   0.241   4.640   3.998 -1.8655 -0.3874  2.5062
 7797SOL    HW234854   0.174   0.042   4.009 -0.0863  0.1380 -0.4244
 7798SOL     OW34855   1.157   2.678   1.547  0.4555  0.1302 -0.8152
 7798SOL    HW134856   1.103   2.748   1.511 -0.1882  0.3390  0.5410
 7798SOL    HW234857   1.130   2.617   1.478  3.7535 -3.3375  0.9935
 7799SOL     OW34858   4.078   2.904   4.642  0.1625 -0.1898  0.1337
 7799SOL    HW134859   4.081   2.889   4.736  0.9966  2.6999  0.5491
 7799SOL    HW234860   4.005   2.848   4.617 -0.4940  0.3175  0.9382
 7800SOL     OW34861   2.465   3.050  11.417  0.4014  0.1208 -0.2396
 7800SOL    HW134862   2.433   3.006  11.338 -0.1354  0.0444  0.0220
 7800SOL    HW234863   2.558   3.056  11.394  0.4164 -0.2578 -0.2880
 7801SOL     OW34864   4.650   3.611   7.239 -0.0199 -0.0691 -0.1432
 7801SOL    HW134865   4.576   3.565   7.200  0.6141 -1.4371  0.2396
 7801SOL    HW234866   4.692   3.548   7.298  0.9332  1.3921  0.7435
 7802SOL     OW34867   1.806   1.027   5.553 -0.3203  0.8708  0.0015
 7802SOL    HW134868   1.826   1.057   5.465  0.3042  1.0081  0.1947
 7802SOL    HW234869   1.891   1.039   5.594  0.3323 -1.0802 -0.7827
 7803SOL     OW34870   0.552   1.269   5.983  0.4061  0.4972  0.3056
 7803SOL    HW134871   0.582   1.223   6.062  0.2665  0.1869  0.1743
 7803SOL    HW234872   0.494   1.202   5.948  0.0848 -0.1375  2.0124
 7804SOL     OW34873   1.395   0.920   3.254  0.6157 -0.5827  0.3899
 7804SOL    HW134874   1.439   0.959   3.180  0.3016 -1.5789 -0.3243
 7804SOL    HW234875   1.343   0.997   3.273  0.4991 -0.3297 -0.9738
 7805SOL     OW34876   3.034   3.107   8.014  0.1870  0.1727  0.5851
 7805SOL    HW134877   2.963   3.044   8.022 -0.1515  0.5365  0.4443
 7805SOL    HW234878   3.008   3.147   7.931  1.7118  1.2886  0.6471
 7806SOL     OW34879   3.310   0.041  13.408  0.4938 -1.0438 -0.2392
 7806SOL    HW134880   3.313   0.042  13.504  0.5904  2.9544 -0.2543
 7806SOL    HW234881   3.365   4.692  13.383 -0.9403 -1.9210 -0.7315
 7807SOL     OW34882   3.904   4.090   5.712  0.0246  0.3499  0.1807
 7807SOL    HW134883   3.879   4.122   5.626  2.6290  0.0532 -0.6900
 7807SOL    HW234884   3.999   4.080   5.719  0.0836 -0.7300 -2.3559
 7808SOL     OW34885   3.208   2.476   1.302 -0.0669 -0.3468 -0.2449
 7808SOL    HW134886   3.142   2.505   1.366 -0.6540  0.2399 -1.1209
 7808SOL    HW234887   3.256   2.557   1.284 -0.1308 -0.2834 -0.1303
 7809SOL     OW34888   0.947   3.196   1.231  0.5008  0.0849 -0.0655
 7809SOL    HW134889   0.855   3.224   1.234  0.8156  0.9439  1.3568
 7809SOL    HW234890   0.987   3.261   1.174  0.1598 -0.8313 -1.3606
 7810SOL     OW34891   2.956   1.424   2.450 -0.4955  0.1487  0.1724
 7810SOL    HW134892   2.885   1.485   2.429  0.8408  1.3171 -0.9700
 7810SOL    HW234893   2.953   1.366   2.374  1.0251 -0.3116  0.4782
 7811SOL     OW34894   0.559   2.996  15.664  0.0056 -0.2168 -0.5993
 7811SOL    HW134895   0.633   2.960  15.616  0.8772  1.2999 -0.3864
 7811SOL    HW234896   0.590   2.978  15.752  0.6507 -1.5549 -1.0950
 7812SOL     OW34897   3.185   1.872  16.912  0.0021  0.0528 -0.1116
 7812SOL    HW134898   3.095   1.896  16.889  0.1685  0.3132 -0.4989
 7812SOL    HW234899   3.227   1.956  16.893  2.9605 -1.0972  1.3632
 7813SOL     OW34900   0.040   3.515   0.084 -0.7983 -0.3556  0.3452
 7813SOL    HW134901   0.018   3.481   0.171 -0.7099  2.0960  1.3297
 7813SOL    HW234902   0.135   3.506   0.081 -0.9272 -2.0320  0.7771
 7814SOL     OW34903   0.070   4.592   6.457 -0.3839  0.0757  0.5009
 7814SOL    HW134904   0.054   4.676   6.414 -0.3436 -0.1398  0.0706
 7814SOL    HW234905   0.108   4.615   6.542  0.5157  0.8689 -0.1155
 7815SOL     OW34906   1.910   1.203  14.608 -0.8658 -0.2358 -0.6619
 7815SOL    HW134907   1.868   1.146  14.543 -1.6996 -0.0069 -0.3331
 7815SOL    HW234908   1.909   1.292  14.573  1.3596  0.5539  1.3192
 7816SOL     OW34909   0.795   1.183  17.536 -0.1344 -0.1667 -0.3464
 7816SOL    HW134910   0.804   1.241  17.612 -3.5841 -2.0255  1.4895
 7816SOL    HW234911   0.703   1.178  17.511  0.0201  1.2881 -1.2312
 7817SOL     OW34912   3.189   4.128   6.140  0.0937 -0.9081  0.5104
 7817SOL    HW134913   3.212   4.152   6.050  2.6281  0.0182  1.3935
 7817SOL    HW234914   3.153   4.040   6.134  1.6502 -1.6686  2.1574
 7818SOL     OW34915   3.155   2.372   5.818  0.6161 -0.0017  0.2916
 7818SOL    HW134916   3.214   2.427   5.766 -0.5692  0.8828 -0.1092
 7818SOL    HW234917   3.147   2.297   5.758  0.3051  0.4486 -0.2301
 7819SOL     OW34918   4.456   2.574   6.342 -0.0635 -0.0643 -0.2560
 7819SOL    HW134919   4.369   2.537   6.332 -1.5029  3.1035  0.5572
 7819SOL    HW234920   4.461   2.633   6.266 -2.1707 -2.1815 -2.0370
 7820SOL     OW34921   3.157   4.532   4.805 -0.8534  0.0305  0.1233
 7820SOL    HW134922   3.152   4.448   4.759  0.3543  0.4846 -0.8407
 7820SOL    HW234923   3.143   4.593   4.733 -3.1215  0.9200  1.3236
 7821SOL     OW34924   3.251   2.254   7.953 -0.3678 -0.3755  0.2498
 7821SOL    HW134925   3.313   2.268   7.882  0.4828 -1.1162  0.8621
 7821SOL    HW234926   3.295   2.282   8.033  1.4989 -0.4455 -0.7616
 7822SOL     OW34927   0.601   2.090   3.043 -0.3929  0.7617  0.1533
 7822SOL    HW134928   0.571   2.080   2.953 -2.5939 -0.1723  0.9873
 7822SOL    HW234929   0.541   2.037   3.095  1.5490 -0.6712  0.9058
 7823SOL     OW34930   0.984   4.578   0.386  0.0095 -0.1612  0.0992
 7823SOL    HW134931   0.922   4.622   0.328  1.3006 -0.3387 -1.4295
 7823SOL    HW234932   1.067   4.624   0.372 -0.8615  2.0863  2.5292
 7824SOL     OW34933   2.271   1.742   8.702  0.0044 -0.1570  0.0065
 7824SOL    HW134934   2.177   1.734   8.686 -0.0477 -2.1593  1.3743
 7824SOL    HW234935   2.270   1.815   8.764  0.2778  0.2482 -0.4559
 7825SOL     OW34936   1.996   1.921   6.527 -0.0722  0.1285 -0.0722
 7825SOL    HW134937   2.069   1.903   6.586  1.1132  0.6720 -1.3785
 7825SOL    HW234938   1.929   1.910   6.595  0.2633 -2.0144 -0.0631
 7826SOL     OW34939   2.302   2.335   5.436  0.3615 -0.1762 -0.4052
 7826SOL    HW134940   2.219   2.288   5.425  1.3391 -1.5133 -1.9761
 7826SOL    HW234941   2.251   2.407   5.399 -0.9288 -0.1385  1.4399
 7827SOL     OW34942   2.859   3.782   2.168  0.1060 -0.2324  0.4006
 7827SOL    HW134943   2.853   3.743   2.081  1.8517 -2.2174  1.1585
 7827SOL    HW234944   2.778   3.750   2.208  1.6899 -0.0419  3.7550
 7828SOL     OW34945   2.866   4.107   6.658 -0.3830 -0.0137  0.3509
 7828SOL    HW134946   2.946   4.076   6.615 -0.8711  0.0550 -0.6093
 7828SOL    HW234947   2.800   4.060   6.607 -1.0775  0.9648  0.3473
 7829SOL     OW34948   3.066   4.029   5.239 -0.3417 -0.1374 -0.1606
 7829SOL    HW134949   3.009   3.953   5.252  0.0060 -0.4293 -0.3480
 7829SOL    HW234950   3.022   4.062   5.161 -2.0606  2.3563  1.8913
 7830SOL     OW34951   2.189   4.086   0.304 -0.8653 -0.2364 -0.0938
 7830SOL    HW134952   2.207   4.105   0.396  2.4641 -0.1003 -0.7624
 7830SOL    HW234953   2.103   4.126   0.292 -1.3582 -1.2261  0.1771
 7831SOL     OW34954   1.399   0.373   7.043  0.7684 -0.3287  0.0227
 7831SOL    HW134955   1.324   0.425   7.073  1.2399  0.2760  0.1550
 7831SOL    HW234956   1.442   0.336   7.120 -2.2192 -2.0765  0.8759
 7832SOL     OW34957   1.895   3.514   7.073  0.0806  0.5466 -0.1077
 7832SOL    HW134958   1.906   3.433   7.121 -1.0105  0.5869  0.2027
 7832SOL    HW234959   1.985   3.547   7.063  0.4117 -0.3479 -0.0903
 7833SOL     OW34960   4.513   2.579   3.589 -0.8368 -0.3413  0.5041
 7833SOL    HW134961   4.496   2.663   3.633 -0.1206 -0.5915  1.2526
 7833SOL    HW234962   4.501   2.597   3.496  0.7621 -1.1128  0.1588
 7834SOL     OW34963   0.859   3.784  10.718 -0.1001  0.2255  0.5856
 7834SOL    HW134964   0.839   3.747  10.632 -0.9803  2.1542 -0.0227
 7834SOL    HW234965   0.952   3.772  10.735 -0.1594 -1.3091 -0.1327
 7835SOL     OW34966   1.385   0.420  15.641 -0.1198 -0.4586  0.2102
 7835SOL    HW134967   1.379   0.397  15.549 -1.2046  0.4327  0.0533
 7835SOL    HW234968   1.407   0.333  15.674  2.1137 -0.8078 -2.1867
 7836SOL     OW34969   4.163   1.074   3.221 -0.1260 -0.1522 -0.1457
 7836SOL    HW134970   4.105   1.018   3.169 -0.2281 -2.3400  2.3359
 7836SOL    HW234971   4.237   1.017   3.239  1.0179  1.6031  0.6709
 7837SOL     OW34972   1.598   2.699   1.872 -0.0100 -0.2120  0.3299
 7837SOL    HW134973   1.584   2.614   1.915  0.4587 -0.7196 -0.5134
 7837SOL    HW234974   1.514   2.712   1.827  0.4944 -1.4587 -0.9961
 7838SOL     OW34975   1.986   1.953  13.910 -0.2355  0.8456  0.2406
 7838SOL    HW134976   1.973   1.863  13.939  0.1797  0.8811  0.5322
 7838SOL    HW234977   1.903   1.975  13.867 -0.4312 -0.6833 -0.1551
 7839SOL     OW34978   4.548   1.326   5.067 -0.2327 -0.3593  0.3449
 7839SOL    HW134979   4.533   1.416   5.096 -1.5701 -0.1487 -0.9718
 7839SOL    HW234980   4.637   1.342   5.036  0.0707  0.7118  1.7861
 7840SOL     OW34981   3.529   3.041   2.697 -0.1761  0.0719 -0.6454
 7840SOL    HW134982   3.505   2.949   2.688 -1.5478  0.3481  0.2452
 7840SOL    HW234983   3.441   3.078   2.685 -0.1235 -0.7259 -3.4449
 7841SOL     OW34984   1.932   3.155  12.803 -0.3128 -0.1514 -0.0105
 7841SOL    HW134985   2.007   3.215  12.813 -2.0071  2.0980 -0.6931
 7841SOL    HW234986   1.963   3.081  12.854 -0.3718 -0.9452 -1.1287
 7842SOL     OW34987   3.893   4.687   5.819  0.1714  0.0110  0.2121
 7842SOL    HW134988   3.905   4.675   5.725 -2.0791 -0.8942  0.0372
 7842SOL    HW234989   3.837   0.039   5.813  1.7262  1.0223 -1.1352
 7843SOL     OW34990   4.621   0.882  15.102 -0.3328  0.3867 -0.1359
 7843SOL    HW134991   4.659   0.863  15.016  1.4761 -0.0274  0.7432
 7843SOL    HW234992   4.562   0.810  15.121  0.6247 -0.3973 -0.1219
 7844SOL     OW34993   0.540   2.551   3.654  0.0892  0.0384  0.3854
 7844SOL    HW134994   0.504   2.511   3.575 -0.7951 -1.2176  1.4111
 7844SOL    HW234995   0.497   2.495   3.720  1.9429  0.3559  1.8574
 7845SOL     OW34996   1.899   4.268  16.658 -0.3013 -0.5130 -0.0424
 7845SOL    HW134997   1.957   4.341  16.680 -0.5936 -0.1937 -0.3326
 7845SOL    HW234998   1.929   4.256  16.568 -4.8216 -2.6547 -1.2489
 7846SOL     OW34999   2.690   3.789   4.814  0.2309  0.0924 -0.1889
 7846SOL    HW135000   2.670   3.696   4.805  0.5758  0.0634 -0.6549
 7846SOL    HW235001   2.775   3.783   4.857  1.0447 -0.1616 -1.7992
 7847SOL     OW35002   0.041   3.833   8.772 -0.3867 -0.2626  0.3007
 7847SOL    HW135003   0.014   3.906   8.716  1.9544  1.9206  2.0502
 7847SOL    HW235004   0.135   3.839   8.759 -0.4537  2.4042  0.8983
 7848SOL     OW35005   2.492   0.834   5.706 -0.0200 -0.4489 -0.6530
 7848SOL    HW135006   2.423   0.772   5.729  0.9569 -1.0477  0.6931
 7848SOL    HW235007   2.564   0.792   5.754 -0.1686  0.9004  0.7519
 7849SOL     OW35008   4.641   1.099   4.199 -0.8124 -0.1101  0.1269
 7849SOL    HW135009   4.670   1.018   4.157 -0.1060  0.2743 -0.1359
 7849SOL    HW235010   4.564   1.128   4.151  1.3284  1.9087 -2.0970
 7850SOL     OW35011   3.134   3.456   3.825  0.1463 -0.3734  0.3116
 7850SOL    HW135012   3.193   3.531   3.834  0.0983 -0.3129  0.1024
 7850SOL    HW235013   3.194   3.385   3.802  0.1207  0.0048 -0.9208
 7851SOL     OW35014   3.412   2.299  14.746 -0.0389 -0.1146  0.0042
 7851SOL    HW135015   3.359   2.256  14.814 -0.8574 -0.9655 -1.1649
 7851SOL    HW235016   3.444   2.222  14.700 -0.5966  1.3873 -2.9075
 7852SOL     OW35017   2.518   2.968   8.129 -0.3320 -0.2421 -0.1062
 7852SOL    HW135018   2.497   3.046   8.077  0.9332 -1.4211 -2.4078
 7852SOL    HW235019   2.429   2.938   8.144 -0.4793 -0.4997 -1.4883
 7853SOL     OW35020   3.077   4.213   2.917 -0.1166 -0.6001  0.0657
 7853SOL    HW135021   2.991   4.253   2.930  0.2569 -0.6521  2.6045
 7853SOL    HW235022   3.134   4.288   2.933 -2.0587  0.5487  1.6113
 7854SOL     OW35023   0.964   1.880  12.716  0.5432  0.3649  0.3911
 7854SOL    HW135024   1.012   1.828  12.651  0.6677  0.7026  0.2156
 7854SOL    HW235025   0.958   1.961  12.665  1.9452 -0.4443 -1.0750
 7855SOL     OW35026   0.832   3.645  13.130 -0.0291  0.1236  0.4093
 7855SOL    HW135027   0.822   3.553  13.106 -0.6627  0.0402  0.9799
 7855SOL    HW235028   0.892   3.676  13.062  0.9684  1.8135  2.0562
 7856SOL     OW35029   0.246   0.911  11.960 -0.4901  0.6747  0.0506
 7856SOL    HW135030   0.308   0.972  12.000  0.6404 -0.5048  0.1058
 7856SOL    HW235031   0.200   0.888  12.041  2.3721  0.6035  1.6709
 7857SOL     OW35032   3.973   0.062   3.843 -0.0239  0.1952 -0.2016
 7857SOL    HW135033   4.045   0.020   3.796 -0.2341  0.6246 -0.9128
 7857SOL    HW235034   3.929   4.705   3.864 -0.4259  0.5961  0.4916
 7858SOL     OW35035   2.936   0.491   7.830 -0.1455 -0.1385  0.0903
 7858SOL    HW135036   3.025   0.479   7.797 -1.0937  0.0378 -2.5412
 7858SOL    HW235037   2.887   0.433   7.772 -0.5680  0.0105  0.2950
 7859SOL     OW35038   2.786   2.677   8.906  0.0958  0.3805 -0.0847
 7859SOL    HW135039   2.856   2.652   8.846 -1.2623  1.9702 -2.3619
 7859SOL    HW235040   2.784   2.772   8.891 -1.5292  0.4495  0.4973
 7860SOL     OW35041   1.540   3.280   2.234 -0.6022  0.1348  0.5951
 7860SOL    HW135042   1.481   3.352   2.259 -0.5401  1.0814 -1.9565
 7860SOL    HW235043   1.477   3.210   2.251  0.5645 -0.9405  0.4238
 7861SOL     OW35044   0.492   2.397   4.726 -0.0383 -0.1182 -0.0029
 7861SOL    HW135045   0.551   2.369   4.656 -2.1488  0.7314 -2.1208
 7861SOL    HW235046   0.413   2.345   4.712  0.5396 -1.0244  0.1241
 7862SOL     OW35047   1.378   4.160   9.911  0.0892  0.3433 -0.1785
 7862SOL    HW135048   1.382   4.078   9.960  0.1034  0.0961 -0.6019
 7862SOL    HW235049   1.472   4.176   9.901  0.2243 -1.1564 -1.2696
 7863SOL     OW35050   1.257   2.532   3.051 -0.4348 -0.1385  0.4818
 7863SOL    HW135051   1.171   2.528   3.010 -0.0483 -2.0360 -0.1320
 7863SOL    HW235052   1.239   2.613   3.098 -1.0063  1.2774 -2.1642
 7864SOL     OW35053   0.212   1.990   3.644  0.6179 -0.3634 -0.0547
 7864SOL    HW135054   0.202   2.037   3.727  0.3353 -3.1095  1.4937
 7864SOL    HW235055   0.239   2.062   3.587  2.8175 -0.8159  0.4364
 7865SOL     OW35056   3.157   2.919  10.562  0.3407 -0.7016  0.4903
 7865SOL    HW135057   3.241   2.876  10.577  1.6342  1.3343 -0.8487
 7865SOL    HW235058   3.193   3.006  10.584  0.2311 -0.5637  0.1275
 7866SOL     OW35059   1.900   3.066   6.929 -0.7942 -0.0650 -0.6081
 7866SOL    HW135060   1.885   3.121   7.005  1.1278  0.3260 -0.5218
 7866SOL    HW235061   1.964   2.999   6.953 -1.0451 -0.2165 -0.3670
 7867SOL     OW35062   4.233   2.949   3.756 -0.0749 -0.4896  0.0435
 7867SOL    HW135063   4.270   3.034   3.779 -0.0249 -1.0860  2.1629
 7867SOL    HW235064   4.201   2.924   3.842  0.1969 -0.8365  0.0408
 7868SOL     OW35065   0.451   4.586  15.163 -0.8759 -0.3200 -0.0554
 7868SOL    HW135066   0.489   4.500  15.177  0.2802  0.2486  0.3212
 7868SOL    HW235067   0.378   4.584  15.225 -0.4360 -1.9295  0.4106
 7869SOL     OW35068   4.225   2.860   7.334  0.2081 -0.1371  0.1135
 7869SOL    HW135069   4.182   2.945   7.339 -0.4472 -0.4241 -0.7300
 7869SOL    HW235070   4.256   2.854   7.425 -0.3123 -0.6154  0.2627
 7870SOL     OW35071   2.884   4.502   9.200 -0.0973  0.3108 -0.5171
 7870SOL    HW135072   2.832   4.498   9.119  0.6972 -0.6743 -0.9811
 7870SOL    HW235073   2.976   4.511   9.173 -0.4315  0.6685 -1.5383
 7871SOL     OW35074   1.436   0.065   3.592 -0.3285  0.2264 -0.0297
 7871SOL    HW135075   1.442   4.695   3.585 -0.7786  0.2414 -0.5794
 7871SOL    HW235076   1.382   0.068   3.671  1.4648  0.8426  1.1800
 7872SOL     OW35077   1.202   4.202   4.096 -0.0191 -0.5222 -0.0313
 7872SOL    HW135078   1.206   4.295   4.120 -0.4125 -0.5683  0.2037
 7872SOL    HW235079   1.121   4.184   4.144  0.0843 -2.7337 -0.6874
 7873SOL     OW35080   4.441   4.394   0.055 -0.1151 -0.0711  0.1587
 7873SOL    HW135081   4.369   4.444   0.016  1.1893  2.3338  0.8588
 7873SOL    HW235082   4.390   4.352   0.124 -2.2945  0.3227 -1.2026
 7874SOL     OW35083   1.418   0.550   0.767 -0.0436 -0.0295 -0.0787
 7874SOL    HW135084   1.445   0.638   0.740 -1.0717 -0.2650 -1.8815
 7874SOL    HW235085   1.458   0.514   0.688  1.8954  0.8361  0.5156
 7875SOL     OW35086   0.257   1.168  10.560 -0.2113 -0.7413 -0.1012
 7875SOL    HW135087   0.185   1.115  10.596 -2.6379  1.8780 -1.0889
 7875SOL    HW235088   0.269   1.116  10.480  0.5335 -0.4648 -0.1674
 7876SOL     OW35089   3.401   4.508  10.973 -0.0230  0.6481 -0.8724
 7876SOL    HW135090   3.416   4.534  10.883  2.8286 -0.0119 -0.5930
 7876SOL    HW235091   3.487   4.529  11.010 -0.1660  0.2995 -0.3309
 7877SOL     OW35092   2.822   3.393   1.889  0.1139  0.1603  0.1059
 7877SOL    HW135093   2.748   3.339   1.917 -1.7435  1.7567 -1.8145
 7877SOL    HW235094   2.893   3.329   1.895  0.2764  0.0649 -3.3081
 7878SOL     OW35095   0.051   2.168   6.544  0.2151 -0.0241 -0.0426
 7878SOL    HW135096   0.139   2.152   6.509 -0.0120  0.3042 -0.7709
 7878SOL    HW235097   0.016   2.092   6.498 -1.8567  1.4035 -0.8016
 7879SOL     OW35098   4.607   2.119   7.814 -0.0485 -0.2201  0.0502
 7879SOL    HW135099   4.529   2.154   7.856  0.1800  0.2219  0.1065
 7879SOL    HW235100   4.592   2.026   7.828  1.3222 -0.7079 -1.7030
 7880SOL     OW35101   1.628   1.098   6.782  0.2381  0.3292  0.3008
 7880SOL    HW135102   1.675   1.015   6.792 -0.1711 -0.0260 -0.7808
 7880SOL    HW235103   1.595   1.124   6.868 -0.7505 -2.4662  0.7567
 7881SOL     OW35104   0.464   1.298   5.550  0.3783  0.3598  0.1526
 7881SOL    HW135105   0.432   1.355   5.619 -2.1940  0.9190 -1.4715
 7881SOL    HW235106   0.408   1.334   5.480 -0.5961 -0.3360  0.5727
 7882SOL     OW35107   4.268   0.551  13.654 -0.1813 -0.5174 -0.0745
 7882SOL    HW135108   4.311   0.465  13.654  2.1604  0.6553 -1.2330
 7882SOL    HW235109   4.185   0.533  13.610  0.3044 -0.4359 -1.0214
 7883SOL     OW35110   2.642   1.256   4.020 -0.0586  0.1847  0.6193
 7883SOL    HW135111   2.583   1.321   3.982 -0.1784 -0.2389  0.0821
 7883SOL    HW235112   2.585   1.182   3.999 -0.9919  1.4192 -1.2146
 7884SOL     OW35113   0.089   3.149   3.700  0.5686 -0.2909 -0.2467
 7884SOL    HW135114   0.090   3.099   3.619 -1.6093 -0.7021 -0.0132
 7884SOL    HW235115   0.036   3.090   3.754  0.7428 -0.7480 -0.5745
 7885SOL     OW35116   0.108   4.058   3.572  0.0222 -0.3308  0.1628
 7885SOL    HW135117   0.197   4.067   3.608  0.3582  2.5881 -1.3748
 7885SOL    HW235118   0.091   3.964   3.578 -0.5292 -0.3131 -1.1238
 7886SOL     OW35119   0.023   2.706   3.745 -0.3815 -0.3042 -0.3523
 7886SOL    HW135120   0.107   2.746   3.725 -1.5153  1.2179 -2.0407
 7886SOL    HW235121   4.698   2.782   3.776 -2.4640 -2.1518  0.8208
 7887SOL     OW35122   1.223   0.794  12.556  0.0041  0.1318 -0.5812
 7887SOL    HW135123   1.234   0.718  12.613 -0.0642  0.0662 -0.6535
 7887SOL    HW235124   1.258   0.861  12.615  2.3398 -0.2807 -1.4885
 7888SOL     OW35125   4.165   3.986   2.864 -0.8303  0.7058 -0.1136
 7888SOL    HW135126   4.164   4.016   2.773  1.2759  0.1325 -0.3307
 7888SOL    HW235127   4.259   3.977   2.884 -1.4860 -1.2029  2.0890
 7889SOL     OW35128   3.198   3.205   3.606 -0.8342 -0.1341  0.3108
 7889SOL    HW135129   3.251   3.162   3.538 -2.5670 -0.1209 -1.0428
 7889SOL    HW235130   3.179   3.289   3.563 -0.3884 -0.6015 -0.7988
 7890SOL     OW35131   3.623   1.110  15.064 -0.7416 -0.0880  0.0247
 7890SOL    HW135132   3.630   1.041  15.130 -0.5069 -1.2384 -1.1984
 7890SOL    HW235133   3.706   1.101  15.015 -0.6423 -1.6310  0.4912
 7891SOL     OW35134   1.138   1.502  16.953 -0.2786  0.4294 -0.0685
 7891SOL    HW135135   1.148   1.587  16.995 -0.2360  0.3949 -0.0087
 7891SOL    HW235136   1.050   1.480  16.984 -1.0585  0.7433 -2.0647
 7892SOL     OW35137   0.494   0.190  10.443  0.2169 -0.0440  0.1478
 7892SOL    HW135138   0.425   0.139  10.486  1.7725 -1.3449  1.1139
 7892SOL    HW235139   0.503   0.151  10.356 -0.5347 -1.5240  0.7271
 7893SOL     OW35140   2.707   3.678   4.117 -0.3369 -0.2120  0.4266
 7893SOL    HW135141   2.753   3.751   4.074 -1.3589  2.0124  3.0979
 7893SOL    HW235142   2.675   3.622   4.046 -1.2512  2.1039 -1.0284
 7894SOL     OW35143   3.317   1.351  12.893 -0.2140 -0.1601 -0.0529
 7894SOL    HW135144   3.394   1.404  12.911 -2.0359  1.6626  2.4784
 7894SOL    HW235145   3.270   1.362  12.976  1.4080  0.1302  0.8125
 7895SOL     OW35146   0.885   3.805   5.436 -0.0369 -0.2757  0.0785
 7895SOL    HW135147   0.814   3.845   5.486  1.6280  2.3449  0.3496
 7895SOL    HW235148   0.854   3.805   5.346 -1.1346  3.0896  0.4743
 7896SOL     OW35149   0.030   2.888  10.755 -0.1615  0.4086  0.4646
 7896SOL    HW135150   0.073   2.820  10.704 -4.1238 -1.5303 -0.2938
 7896SOL    HW235151   0.053   2.965  10.704 -0.5645 -0.6048 -1.2446
 7897SOL     OW35152   0.685   1.879   8.179  0.6190 -0.3109  0.1193
 7897SOL    HW135153   0.777   1.856   8.170  0.3262 -0.8827 -1.3288
 7897SOL    HW235154   0.676   1.855   8.271 -2.0916  1.6675  0.3740
 7898SOL     OW35155   3.469   1.207   2.298  0.1814 -0.0730 -0.2816
 7898SOL    HW135156   3.561   1.181   2.310 -0.3345 -1.5968  0.3275
 7898SOL    HW235157   3.420   1.129   2.274  0.3749 -0.5582  0.8873
 7899SOL     OW35158   3.032   2.204  12.534 -0.2431  0.0701 -0.5598
 7899SOL    HW135159   3.008   2.239  12.619  1.0991  1.5500 -0.7800
 7899SOL    HW235160   3.088   2.278  12.508  0.2098 -0.0972 -0.0426
 7900SOL     OW35161   0.723   1.822   0.935  0.3804 -0.0355  0.3933
 7900SOL    HW135162   0.733   1.877   0.857  0.4015  0.0125  0.4291
 7900SOL    HW235163   0.813   1.794   0.951  1.2988  0.8884 -3.1778
 7901SOL     OW35164   3.087   0.083  17.222 -0.1025 -0.3900  0.2256
 7901SOL    HW135165   3.138   0.015  17.265 -1.0575 -0.2460  1.5869
 7901SOL    HW235166   3.013   0.029  17.194 -1.4431  2.9961 -2.7428
 7902SOL     OW35167   3.087   0.749  15.758  0.2518 -0.2551 -0.6438
 7902SOL    HW135168   3.091   0.839  15.724  1.3347  0.2769  0.9120
 7902SOL    HW235169   3.180   0.728  15.761  0.1591 -0.9638 -2.4957
 7903SOL     OW35170   0.756   2.266   4.261  0.0675 -0.1010  0.1893
 7903SOL    HW135171   0.760   2.347   4.311  2.7798  0.2610 -0.6473
 7903SOL    HW235172   0.811   2.209   4.314 -1.0725 -0.3918  1.0517
 7904SOL     OW35173   0.560   0.931   4.625 -0.0708  0.2149  0.6138
 7904SOL    HW135174   0.644   0.926   4.672  0.8947 -1.2256 -1.2751
 7904SOL    HW235175   0.518   1.007   4.666  0.5393  0.1176  1.4368
 7905SOL     OW35176   2.364   1.603  10.264 -0.1685 -0.1138  0.0631
 7905SOL    HW135177   2.441   1.657  10.243 -0.4130  0.2010 -0.0104
 7905SOL    HW235178   2.347   1.638  10.351  1.2847 -2.5115  1.3082
 7906SOL     OW35179   1.272   1.588  11.513 -0.1057  0.3327  0.0171
 7906SOL    HW135180   1.298   1.513  11.459  0.6579 -1.3536  2.7462
 7906SOL    HW235181   1.333   1.584  11.586  1.0810 -0.7006 -1.0274
 7907SOL     OW35182   2.593   4.052  17.469 -0.7912 -0.2736  0.2922
 7907SOL    HW135183   2.562   4.024  17.554 -1.1932  1.7193  0.8165
 7907SOL    HW235184   2.574   4.146  17.468  2.4078  0.3878  1.2209
 7908SOL     OW35185   1.031   2.635   6.386  0.4933  0.1039 -0.5163
 7908SOL    HW135186   1.094   2.663   6.452 -0.1811 -4.3421  2.0443
 7908SOL    HW235187   1.083   2.610   6.309 -1.2375  1.7133 -2.1936
 7909SOL     OW35188   3.801   3.594   2.228 -0.4603  0.0849  0.7072
 7909SOL    HW135189   3.799   3.690   2.225  0.9400  0.1568  1.7907
 7909SOL    HW235190   3.760   3.569   2.146  0.7020 -1.3473  0.5721
 7910SOL     OW35191   4.510   4.004   1.213  0.4493 -0.4177 -0.4545
 7910SOL    HW135192   4.428   3.964   1.243 -0.3753  2.4281  1.0187
 7910SOL    HW235193   4.502   4.016   1.118  0.8837 -0.7086 -0.5318
 7911SOL     OW35194   3.905   2.045  15.780 -0.2248  0.7447 -0.4421
 7911SOL    HW135195   3.944   1.971  15.826 -0.7650  0.6531 -0.1374
 7911SOL    HW235196   3.935   2.026  15.691  0.4621 -1.0134  0.1800
 7912SOL     OW35197   4.664   0.484   4.472 -0.0092  0.2188 -0.1187
 7912SOL    HW135198   0.020   0.460   4.427  0.4390  0.1646  0.7187
 7912SOL    HW235199   4.698   0.561   4.517 -2.0057  1.6286 -1.0315
 7913SOL     OW35200   2.584   4.460  11.322  0.0749  0.4616  0.0792
 7913SOL    HW135201   2.614   4.373  11.297  0.3669  0.2140  1.2745
 7913SOL    HW235202   2.558   4.487  11.234 -1.4343  0.7959  0.6228
 7914SOL     OW35203   0.618   4.284  10.721 -0.5238  0.5172  0.6103
 7914SOL    HW135204   0.696   4.321  10.679 -1.5119  1.8985 -0.0022
 7914SOL    HW235205   0.666   4.281  10.804 -0.1828 -0.5446  0.3660
 7915SOL     OW35206   0.829   2.967   2.857  0.0919  0.8042  0.2904
 7915SOL    HW135207   0.779   3.038   2.899  2.0757  1.3255  1.7782
 7915SOL    HW235208   0.763   2.936   2.794  0.2221 -0.3820  0.7376
 7916SOL     OW35209   0.613   3.095   6.937  0.2630  0.1070  0.2676
 7916SOL    HW135210   0.688   3.132   6.984 -0.9030  0.2968  1.9708
 7916SOL    HW235211   0.618   3.132   6.849 -1.8740  0.2763  0.2326
 7917SOL     OW35212   1.767   4.188   8.220  0.6256  0.2531  0.0008
 7917SOL    HW135213   1.818   4.261   8.187 -0.3919  1.7954  1.8144
 7917SOL    HW235214   1.716   4.155   8.146 -2.5054  2.4179  1.1604
 7918SOL     OW35215   3.855   3.824  14.479  0.3102 -0.5706  0.3169
 7918SOL    HW135216   3.840   3.777  14.397  0.1592  0.5542 -0.3028
 7918SOL    HW235217   3.949   3.838  14.475  0.6292 -2.4796  1.1600
 7919SOL     OW35218   0.766   2.292   3.877 -0.2760  0.6674  0.1884
 7919SOL    HW135219   0.736   2.226   3.816  0.1705  0.9036 -0.2861
 7919SOL    HW235220   0.855   2.265   3.898  0.5241  3.5685  0.5173
 7920SOL     OW35221   0.306   3.310   5.849 -0.5852  0.1976 -0.0571
 7920SOL    HW135222   0.371   3.260   5.799  0.7018  0.8301  0.9959
 7920SOL    HW235223   0.227   3.264   5.819 -0.7172  0.6280 -0.3678
 7921SOL     OW35224   3.246   4.411   2.953 -0.3650 -0.4479 -0.2001
 7921SOL    HW135225   3.316   4.425   2.889 -0.6721 -2.6225 -1.0014
 7921SOL    HW235226   3.300   4.401   3.031  1.1451  1.0778 -1.0411
 7922SOL     OW35227   4.644   2.476   9.160 -0.3100 -0.3515 -0.5704
 7922SOL    HW135228   4.679   2.389   9.177 -2.6636 -0.5812  3.1684
 7922SOL    HW235229   4.707   2.529   9.208 -0.4819  0.0781 -0.8217
 7923SOL     OW35230   2.683   3.431   4.294  0.2002  0.0722 -0.8625
 7923SOL    HW135231   2.612   3.448   4.356 -0.2243  0.0678 -1.3403
 7923SOL    HW235232   2.620   3.402   4.228 -1.5102  0.2462  0.6790
 7924SOL     OW35233   2.174   3.634   2.716 -0.4136  0.0883  0.5872
 7924SOL    HW135234   2.230   3.655   2.641  0.9791 -2.4471  0.9291
 7924SOL    HW235235   2.186   3.540   2.722  3.1502  0.5549  0.7182
 7925SOL     OW35236   0.182   0.548  16.033 -0.1272  0.0350  0.0449
 7925SOL    HW135237   0.087   0.534  16.033 -0.1613  0.2201 -0.8860
 7925SOL    HW235238   0.203   0.484  16.100  0.0992  0.9452  0.8288
 7926SOL     OW35239   2.617   2.661   6.001 -0.0361 -0.3937 -1.2622
 7926SOL    HW135240   2.635   2.567   5.993  0.3134 -0.2030 -2.7088
 7926SOL    HW235241   2.522   2.666   5.989 -0.2897 -2.4086 -0.1402
 7927SOL     OW35242   1.321   4.690   7.679  0.3098  0.2953 -0.2184
 7927SOL    HW135243   1.249   4.655   7.732  0.0425 -0.7900 -1.2955
 7927SOL    HW235244   1.378   4.702   7.755  1.3605  0.0206 -0.9642
 7928SOL     OW35245   3.479   3.831   1.666 -0.2541 -0.5864 -0.2599
 7928SOL    HW135246   3.536   3.903   1.642  1.4152 -2.0859 -0.7417
 7928SOL    HW235247   3.522   3.767   1.610  0.3254 -0.0965 -0.3673
 7929SOL     OW35248   4.220   2.944   3.081 -0.2350  0.2473  0.1169
 7929SOL    HW135249   4.257   3.032   3.075  0.0462  0.1908  1.1521
 7929SOL    HW235250   4.133   2.962   3.045  0.6325 -0.5521 -2.4004
 7930SOL     OW35251   0.379   0.127   4.895 -0.1971 -0.3087 -0.3334
 7930SOL    HW135252   0.347   0.076   4.970 -1.6903 -1.2613 -1.6213
 7930SOL    HW235253   0.360   0.216   4.926  0.9029  0.7239 -2.6335
 7931SOL     OW35254   1.207   1.855  12.318 -0.3014  0.0010 -0.2471
 7931SOL    HW135255   1.291   1.812  12.306 -0.4864 -0.4512  0.0604
 7931SOL    HW235256   1.179   1.806  12.396  3.1316 -2.6883 -0.7302
 7932SOL     OW35257   3.460   3.030   2.100 -0.1784 -0.4038  0.4205
 7932SOL    HW135258   3.441   2.987   2.184 -0.9498  0.1680  0.5436
 7932SOL    HW235259   3.545   3.070   2.120  0.7093 -2.7111  1.2406
 7933SOL     OW35260   4.145   4.158   8.612 -0.3155  0.1004  0.0805
 7933SOL    HW135261   4.126   4.249   8.589 -0.9876 -0.0346  0.1062
 7933SOL    HW235262   4.202   4.157   8.689  0.4303 -0.8167 -0.4825
 7934SOL     OW35263   4.130   3.530   2.150 -0.4123 -0.2848  0.2100
 7934SOL    HW135264   4.136   3.446   2.105 -1.3828  0.1832 -0.7869
 7934SOL    HW235265   4.076   3.510   2.226  3.1726 -2.4645  2.2273
 7935SOL     OW35266   2.382   0.478   4.493 -0.5017 -0.1529  0.1650
 7935SOL    HW135267   2.299   0.430   4.503 -1.9202  1.5710 -3.2243
 7935SOL    HW235268   2.416   0.440   4.412  1.1100  0.5040  0.5489
 7936SOL     OW35269   2.436   0.642   4.846 -0.0107 -0.0062 -0.1533
 7936SOL    HW135270   2.449   0.558   4.890 -0.2029 -0.0004 -0.0847
 7936SOL    HW235271   2.340   0.642   4.840  0.0788  2.0121 -1.8014
 7937SOL     OW35272   1.327   4.117   2.280  0.3820  0.0763 -0.4186
 7937SOL    HW135273   1.386   4.065   2.227  1.6051  1.0196  0.0220
 7937SOL    HW235274   1.248   4.072   2.249  1.4684 -1.6115 -0.7223
 7938SOL     OW35275   3.585   0.579  12.184  0.3201  0.3576  0.0248
 7938SOL    HW135276   3.657   0.592  12.246  0.6147 -2.6439  0.3178
 7938SOL    HW235277   3.638   0.558  12.107  1.7241  0.5495  0.9286
 7939SOL     OW35278   4.221   1.177   4.235  0.0554 -0.1944  0.6830
 7939SOL    HW135279   4.207   1.245   4.301  0.8281  1.3898 -0.7990
 7939SOL    HW235280   4.242   1.103   4.293 -0.7833 -1.6610 -0.8563
 7940SOL     OW35281   0.369   2.790   8.621  0.0395  0.0736 -0.4170
 7940SOL    HW135282   0.407   2.732   8.687  0.7651  1.2689  0.2023
 7940SOL    HW235283   0.392   2.751   8.537 -0.6623  0.4027 -0.7662
 7941SOL     OW35284   4.553   3.601   4.084 -0.2582 -0.3071 -0.1813
 7941SOL    HW135285   4.521   3.550   4.159 -2.4726 -0.8265 -1.4973
 7941SOL    HW235286   4.641   3.619   4.117  0.7166 -3.0029 -1.2356
 7942SOL     OW35287   0.773   1.437  17.090  0.1511 -0.0673  0.0910
 7942SOL    HW135288   0.697   1.446  17.033  0.8793  2.5977 -0.4422
 7942SOL    HW235289   0.824   1.513  17.062 -0.5796  0.4142  0.0666
 7943SOL     OW35290   1.513   0.916  12.328 -0.0607 -0.1866  0.0028
 7943SOL    HW135291   1.583   0.979  12.311  0.2057  0.0323  1.9458
 7943SOL    HW235292   1.524   0.902  12.422 -0.7634 -1.3648 -0.0919
 7944SOL     OW35293   1.590   4.022   5.183 -0.1302  0.5488  0.0778
 7944SOL    HW135294   1.565   4.069   5.263 -0.1304 -1.2154  1.1009
 7944SOL    HW235295   1.547   3.937   5.188 -0.5785  0.7513 -0.3390
 7945SOL     OW35296   1.002   4.619   3.087 -0.1316  0.1431  0.3824
 7945SOL    HW135297   0.965   4.606   3.000  0.5361  0.9771 -0.0246
 7945SOL    HW235298   0.923   4.664   3.116  0.3067  1.4591 -0.4689
 7946SOL     OW35299   1.258   4.251  10.356 -0.4906 -0.1805 -0.0892
 7946SOL    HW135300   1.286   4.314  10.423 -0.8384  0.5518 -0.6311
 7946SOL    HW235301   1.318   4.178  10.374 -0.1293  0.1864  0.2011
 7947SOL     OW35302   1.185   0.643   2.523 -0.2997 -0.2478  0.0662
 7947SOL    HW135303   1.227   0.726   2.503  0.1589 -0.5803 -0.3685
 7947SOL    HW235304   1.268   0.599   2.545 -0.1153  0.4261  0.7207
 7948SOL     OW35305   3.466   1.263   7.288 -0.0351 -0.6086 -0.2799
 7948SOL    HW135306   3.497   1.183   7.332 -3.5381 -1.4082  0.6811
 7948SOL    HW235307   3.544   1.289   7.238 -0.5721 -0.3575 -0.9798
 7949SOL     OW35308   0.143   1.121   6.178  0.0361 -0.1942 -0.2478
 7949SOL    HW135309   0.139   1.215   6.163 -0.6872  0.0936  1.8474
 7949SOL    HW235310   0.197   1.105   6.100  1.2115  1.5229  0.2191
 7950SOL     OW35311   3.850   0.444  11.045  0.5979 -0.0946  0.9776
 7950SOL    HW135312   3.891   0.366  11.007 -0.4447 -1.5610  2.8667
 7950SOL    HW235313   3.924   0.468  11.101  1.0723  1.0559 -0.1368
 7951SOL     OW35314   3.995   0.012   8.011  0.5068  0.1476 -0.2653
 7951SOL    HW135315   3.970   0.102   8.029 -0.0846  0.2656 -1.7484
 7951SOL    HW235316   3.958   4.711   7.927  0.4785 -2.4687  0.5545
 7952SOL     OW35317   1.055   2.071   5.618  0.7454 -0.0384 -0.1754
 7952SOL    HW135318   1.010   2.122   5.552 -2.7831 -0.0567  2.2322
 7952SOL    HW235319   0.991   2.001   5.627  0.5333  0.0008 -1.4978
 7953SOL     OW35320   1.351   3.663   6.377 -0.0078  0.2950  0.7333
 7953SOL    HW135321   1.390   3.687   6.293  0.9384  1.3569  1.4822
 7953SOL    HW235322   1.423   3.662   6.440 -0.4725 -2.6989  1.2338
 7954SOL     OW35323   2.097   1.084   6.165 -0.7658 -0.0218 -0.6562
 7954SOL    HW135324   2.019   1.126   6.128  1.7348  3.0616 -2.3470
 7954SOL    HW235325   2.124   1.042   6.084 -0.2258  0.8829 -0.9326
 7955SOL     OW35326   0.082   3.204   8.001  0.2246  0.4825  0.2243
 7955SOL    HW135327   0.028   3.283   7.994  1.1145  0.7658 -3.1171
 7955SOL    HW235328   0.126   3.214   7.918 -2.7306 -2.5963 -1.7376
 7956SOL     OW35329   3.045   0.561   6.611  0.4460  0.1037 -0.0049
 7956SOL    HW135330   3.090   0.485   6.573  1.4897  0.4986  0.4448
 7956SOL    HW235331   2.958   0.524   6.623  0.8636  0.4223  3.8141
 7957SOL     OW35332   3.752   2.659  17.069 -0.0133  0.2566  0.3089
 7957SOL    HW135333   3.787   2.708  17.143  0.7942 -1.1152  0.8448
 7957SOL    HW235334   3.695   2.595  17.113 -1.0715  0.8080 -0.2621
 7958SOL     OW35335   0.286   1.225   3.613 -0.3765  0.1546  0.3354
 7958SOL    HW135336   0.207   1.217   3.666  0.2010 -1.0634  1.0196
 7958SOL    HW235337   0.290   1.320   3.612  1.3035  0.0696 -1.0103
 7959SOL     OW35338   0.124   2.793   4.779  0.2286 -0.2824  0.3176
 7959SOL    HW135339   0.071   2.714   4.770  1.6611 -1.1852 -0.1682
 7959SOL    HW235340   0.075   2.851   4.838 -0.2229 -0.0464 -0.2978
 7960SOL     OW35341   4.220   2.377   9.824 -0.1271  0.1940  0.4998
 7960SOL    HW135342   4.303   2.424   9.811 -0.2661  0.2802 -0.0748
 7960SOL    HW235343   4.194   2.414   9.908 -0.6072 -0.0965  0.4780
 7961SOL     OW35344   2.276   2.401   7.847  0.3679 -0.6209  0.3377
 7961SOL    HW135345   2.186   2.369   7.854  0.2127 -0.0313  0.9537
 7961SOL    HW235346   2.268   2.488   7.885 -1.9323 -0.8287  0.3614
 7962SOL     OW35347   4.719   4.222   3.367  0.1856 -0.0065  0.0018
 7962SOL    HW135348   0.024   4.152   3.425  0.1282 -1.5114 -1.7840
 7962SOL    HW235349   4.638   4.246   3.411  0.6523  2.0339 -0.2639
 7963SOL     OW35350   0.073   0.870   2.404 -0.0679  0.2054 -0.1090
 7963SOL    HW135351   0.047   0.951   2.358 -1.5848  0.7120  1.6503
 7963SOL    HW235352   4.717   0.835   2.441  0.5900 -1.7389 -0.5181
 7964SOL     OW35353   4.561   2.113   4.529  0.0810  0.2529  0.3123
 7964SOL    HW135354   4.620   2.067   4.470 -1.1119 -1.2489  0.2809
 7964SOL    HW235355   4.532   2.051   4.597 -0.2775 -0.1103 -0.1702
 7965SOL     OW35356   2.332   0.893   9.179  0.1509  0.0045 -0.5453
 7965SOL    HW135357   2.406   0.864   9.233 -1.3478 -0.1562  1.4233
 7965SOL    HW235358   2.287   0.809   9.180 -0.5506  0.3865  0.1292
 7966SOL     OW35359   3.029   3.512   8.085 -0.3175 -0.3088 -0.9784
 7966SOL    HW135360   3.053   3.449   8.152  2.8672  1.9439 -0.0180
 7966SOL    HW235361   2.975   3.565   8.144  2.2541  2.9178 -1.5130
 7967SOL     OW35362   1.807   0.549   7.799 -0.1896 -0.3153 -0.4437
 7967SOL    HW135363   1.723   0.569   7.758 -0.2626  3.5091  1.5391
 7967SOL    HW235364   1.788   0.540   7.893 -0.6099  1.0426 -0.3835
 7968SOL     OW35365   4.271   0.891  15.408  0.6242  0.0726  0.3986
 7968SOL    HW135366   4.321   0.833  15.351  0.7060 -0.4137  0.9726
 7968SOL    HW235367   4.325   0.892  15.487 -0.0476 -0.5706  0.8726
 7969SOL     OW35368   2.672   3.009   4.387  0.1245  0.2525  0.3801
 7969SOL    HW135369   2.754   3.055   4.406  0.0267 -0.0793  1.6015
 7969SOL    HW235370   2.621   3.070   4.441  0.0275  1.2269 -0.8099
 7970SOL     OW35371   1.030   0.702   6.917  0.4860 -0.7797  0.3337
 7970SOL    HW135372   1.112   0.672   6.877  2.3106  3.1955  1.0707
 7970SOL    HW235373   0.967   0.634   6.892  1.7299 -0.8138 -2.7083
 7971SOL     OW35374   1.115   1.665   6.712  0.0907  0.1371 -0.0129
 7971SOL    HW135375   1.169   1.735   6.747  0.0183 -0.1257  0.6176
 7971SOL    HW235376   1.031   1.679   6.755  0.2966  0.4013  0.3030
 7972SOL     OW35377   1.695   3.905   4.022  0.8102  0.0691 -0.3245
 7972SOL    HW135378   1.723   3.960   4.095 -1.5836  0.2803  0.4175
 7972SOL    HW235379   1.684   3.967   3.949  0.1535  0.2780 -0.0493
 7973SOL     OW35380   2.669   2.595   0.127 -0.6672 -0.1715 -0.1618
 7973SOL    HW135381   2.602   2.582   0.194 -1.2594 -1.2628 -0.9482
 7973SOL    HW235382   2.719   2.671   0.155 -0.8913  0.7723 -2.3069
 7974SOL     OW35383   3.600   4.362   3.858 -0.2461 -0.2088  0.3803
 7974SOL    HW135384   3.532   4.301   3.885  0.3383 -0.5615  1.0641
 7974SOL    HW235385   3.571   4.407   3.779 -0.0597 -0.0773  0.3861
 7975SOL     OW35386   0.935   4.716   6.870 -0.1094 -0.3764 -0.0036
 7975SOL    HW135387   0.992   0.032   6.805 -0.8367 -0.3134 -0.6095
 7975SOL    HW235388   0.874   4.664   6.817  0.8663  1.2227 -2.6780
 7976SOL     OW35389   2.556   3.554   2.990  0.1538  1.4747 -0.1041
 7976SOL    HW135390   2.521   3.616   2.927  1.4411  0.8788 -1.4014
 7976SOL    HW235391   2.642   3.596   2.997  0.5995  0.6336 -0.5656
 7977SOL     OW35392   1.104   1.488   7.320  0.3451  0.1105  0.6357
 7977SOL    HW135393   1.166   1.425   7.358 -0.6005 -0.7114  0.8015
 7977SOL    HW235394   1.035   1.480   7.385 -0.5707 -2.7105 -0.7008
 7978SOL     OW35395   3.994   2.580  15.277  0.1512  0.0189  0.2763
 7978SOL    HW135396   4.011   2.490  15.250  2.6751  0.1203  1.4880
 7978SOL    HW235397   4.042   2.625  15.207 -2.0356  0.8789 -0.6781
 7979SOL     OW35398   3.724   2.213   8.253 -0.1309 -0.1224 -0.0653
 7979SOL    HW135399   3.721   2.281   8.321 -1.6375 -0.6006  0.3423
 7979SOL    HW235400   3.638   2.172   8.261  0.0426 -0.6657 -0.9163
 7980SOL     OW35401   2.978   3.961   1.786 -0.4880 -0.0146  0.8859
 7980SOL    HW135402   3.045   3.952   1.718 -1.1954 -1.9296  0.4383
 7980SOL    HW235403   3.029   3.993   1.860  1.5538 -0.9857 -0.0978
 7981SOL     OW35404   0.413   2.888   7.549 -0.2183 -0.4836 -0.3149
 7981SOL    HW135405   0.348   2.914   7.614  1.0667  0.6909  0.5162
 7981SOL    HW235406   0.460   2.832   7.611 -2.2287 -1.1412  0.6132
 7982SOL     OW35407   1.471   1.725   4.902 -0.0086  0.0373  0.3139
 7982SOL    HW135408   1.477   1.760   4.991 -1.2590  0.7466  0.1294
 7982SOL    HW235409   1.547   1.667   4.898 -0.5018 -0.4640 -1.6937
 7983SOL     OW35410   4.202   0.410   5.846 -0.1886 -0.1480 -0.2593
 7983SOL    HW135411   4.219   0.496   5.885 -0.7745 -0.8103  1.4390
 7983SOL    HW235412   4.121   0.380   5.887  0.0983 -0.6102 -0.0414
 7984SOL     OW35413   1.095   4.263  11.131  0.1320  0.0030  0.0457
 7984SOL    HW135414   1.027   4.197  11.147  0.8625 -0.6571  0.4652
 7984SOL    HW235415   1.166   4.208  11.099 -0.7637 -2.9468  3.0585
 7985SOL     OW35416   0.858   1.314   3.798  0.4144  0.2027 -0.1020
 7985SOL    HW135417   0.906   1.356   3.869 -1.8540 -0.0931  1.6184
 7985SOL    HW235418   0.899   1.228   3.808 -1.3419 -0.9447 -2.8544
 7986SOL     OW35419   0.361   1.789   4.395  0.1215  0.1594 -0.8763
 7986SOL    HW135420   0.367   1.696   4.376  1.9176 -0.1315  1.1527
 7986SOL    HW235421   0.452   1.819   4.400  0.1238  0.6648 -3.9194
 7987SOL     OW35422   3.497   3.707   0.425 -0.0601 -0.4937  0.3528
 7987SOL    HW135423   3.459   3.659   0.499  2.5259 -1.1128  1.2865
 7987SOL    HW235424   3.420   3.747   0.386  0.1142 -0.5560 -0.0639
 7988SOL     OW35425   2.975   2.076   3.193 -0.2330  0.7352 -0.1714
 7988SOL    HW135426   3.070   2.068   3.187 -0.5560 -0.9512 -3.1069
 7988SOL    HW235427   2.957   1.986   3.167  1.7942 -0.0482  1.0994
 7989SOL     OW35428   2.938   4.242   7.195  0.6832  0.3372 -0.0292
 7989SOL    HW135429   2.926   4.213   7.105  0.9988 -1.4017  0.4956
 7989SOL    HW235430   2.849   4.274   7.208  1.1509  2.7199 -2.6509
 7990SOL     OW35431   0.799   3.242   5.263 -0.2438 -0.0575 -0.2374
 7990SOL    HW135432   0.770   3.330   5.236  1.8880  0.5315 -0.5686
 7990SOL    HW235433   0.816   3.206   5.177 -0.4248  1.2089 -0.8041
 7991SOL     OW35434   3.793   3.180   9.153  0.1324 -0.2579 -0.4260
 7991SOL    HW135435   3.813   3.153   9.242  0.2210 -0.3195 -0.4644
 7991SOL    HW235436   3.862   3.137   9.102  0.1085  0.6338 -1.2075
 7992SOL     OW35437   2.531   3.580   0.835  0.5500 -0.5317 -0.3276
 7992SOL    HW135438   2.490   3.665   0.818  0.9069 -0.1271  0.8458
 7992SOL    HW235439   2.518   3.534   0.752 -1.0602 -1.5980  0.4995
 7993SOL     OW35440   3.724   2.381   2.417  0.2760  0.0478  0.1634
 7993SOL    HW135441   3.664   2.409   2.487  1.6528 -1.2420  1.8633
 7993SOL    HW235442   3.754   2.291   2.430 -1.9394 -0.2721  3.0734
 7994SOL     OW35443   1.411   4.068  11.443 -0.2350 -0.1900  0.0089
 7994SOL    HW135444   1.468   4.047  11.516 -0.7760  0.8381  0.7224
 7994SOL    HW235445   1.330   4.023  11.467  0.7294  0.1387  3.7768
 7995SOL     OW35446   4.637   0.522   8.970 -0.1726 -0.1705  0.3797
 7995SOL    HW135447   4.579   0.595   8.948  0.7453 -0.3224 -2.5375
 7995SOL    HW235448   4.603   0.509   9.059 -1.7797  1.3622 -0.0040
 7996SOL     OW35449   2.762   3.270   6.900  0.7021 -0.0402  0.0731
 7996SOL    HW135450   2.765   3.331   6.825 -1.3527 -0.5349 -0.4116
 7996SOL    HW235451   2.845   3.285   6.946  1.3228 -0.9158 -0.7677
 7997SOL     OW35452   2.938   0.010  11.860 -0.2332 -0.3199  0.7573
 7997SOL    HW135453   2.858   0.031  11.813  0.8957  0.3554 -0.8783
 7997SOL    HW235454   2.910   4.648  11.888  3.1890 -1.2838  1.1981
 7998SOL     OW35455   4.611   0.773   6.378 -0.4143  0.1171  0.2264
 7998SOL    HW135456   4.519   0.801   6.381 -0.2331  1.1572 -3.7455
 7998SOL    HW235457   4.615   0.692   6.428 -0.3388 -1.1317 -1.7728
 7999SOL     OW35458   1.757   3.082   1.971  0.0887 -0.1351 -0.1805
 7999SOL    HW135459   1.797   3.116   2.051  1.1604  3.8469 -2.3823
 7999SOL    HW235460   1.801   3.124   1.897 -1.3110  1.1939 -0.2695
 8000SOL     OW35461   3.962   1.805   7.960  0.0387  0.1074  0.2326
 8000SOL    HW135462   3.959   1.901   7.965  1.6365  0.2777 -1.9638
 8000SOL    HW235463   3.932   1.790   8.050 -0.8777  1.0073  0.0848
 8001SOL     OW35464   0.908   1.220   2.794  0.2973 -0.1017 -0.2244
 8001SOL    HW135465   0.971   1.270   2.846 -1.1736  0.5702  0.9107
 8001SOL    HW235466   0.826   1.209   2.843  0.3145  0.9623  0.0397
 8002SOL     OW35467   1.761   0.772   5.857  0.1987 -0.2532 -0.5350
 8002SOL    HW135468   1.765   0.868   5.859 -3.0860 -0.1228  0.1759
 8002SOL    HW235469   1.666   0.768   5.864  0.1594 -1.1041 -1.7033
 8003SOL     OW35470   2.493   3.846   3.922 -0.1095  0.4834  0.0044
 8003SOL    HW135471   2.470   3.915   3.983  1.0527 -0.3372  1.3724
 8003SOL    HW235472   2.588   3.848   3.930 -0.0910 -0.4903  0.0736
 8004SOL     OW35473   2.349   1.502  17.310  0.4332 -0.0287 -0.3380
 8004SOL    HW135474   2.277   1.555  17.343  1.3163 -0.1516  1.8055
 8004SOL    HW235475   2.373   1.452  17.388 -0.7008 -0.1179 -0.0516
 8005SOL     OW35476   4.071   1.095  10.111 -0.0163  0.1399  0.2471
 8005SOL    HW135477   4.013   1.058  10.177 -1.7865  0.6555 -1.0164
 8005SOL    HW235478   4.153   1.050  10.131  0.6824  1.6565  0.8179
 8006SOL     OW35479   2.593   0.848   7.049 -0.4505 -0.9258  0.2418
 8006SOL    HW135480   2.658   0.838   7.118 -0.1428 -0.3021  0.0399
 8006SOL    HW235481   2.635   0.922   7.006  0.4213 -0.6690  1.5305
 8007SOL     OW35482   1.860   3.966   0.517  0.7681  0.4833 -0.1567
 8007SOL    HW135483   1.890   3.991   0.429 -0.5749 -2.7398 -1.4969
 8007SOL    HW235484   1.770   3.943   0.497  1.1559 -0.4918 -0.7654
 8008SOL     OW35485   1.947   4.198   7.545 -0.0103 -0.3188 -0.0046
 8008SOL    HW135486   1.956   4.179   7.639  0.4556  0.1230  0.0418
 8008SOL    HW235487   2.001   4.275   7.527 -0.5834 -0.0181 -0.4252
 8009SOL     OW35488   0.679   0.698  17.503  0.2512 -1.0213 -0.2526
 8009SOL    HW135489   0.641   0.643  17.571  1.4358 -0.3318  0.9529
 8009SOL    HW235490   0.766   0.720  17.534  0.4455 -1.7336 -0.3064
 8010SOL     OW35491   0.831   2.930  16.321  0.6782 -0.1494 -0.4393
 8010SOL    HW135492   0.865   2.871  16.388  0.8415 -0.6599 -0.9754
 8010SOL    HW235493   0.911   2.966  16.282 -0.5164  1.6071 -1.2965
 8011SOL     OW35494   3.890   3.727   6.866  0.2940  0.2050  0.0671
 8011SOL    HW135495   3.923   3.735   6.777  1.9422 -0.0911  0.6568
 8011SOL    HW235496   3.911   3.638   6.895  1.4716  0.0287 -1.3111
 8012SOL     OW35497   3.702   3.704   4.511  0.7170 -0.2893  0.9494
 8012SOL    HW135498   3.617   3.659   4.503  0.0332  0.5073  3.7125
 8012SOL    HW235499   3.702   3.724   4.605 -0.0380 -0.4622  0.9934
 8013SOL     OW35500   4.288   0.344   4.019 -0.5258 -0.1311 -0.7397
 8013SOL    HW135501   4.368   0.387   3.990  0.5076 -2.4430 -1.3152
 8013SOL    HW235502   4.235   0.331   3.941 -0.8763 -1.6344 -0.2521
 8014SOL     OW35503   2.538   2.777   4.522 -0.0249 -0.2310 -0.1815
 8014SOL    HW135504   2.555   2.863   4.561  1.4882 -0.0814 -1.1372
 8014SOL    HW235505   2.618   2.731   4.550  0.1140  0.0366 -0.1401
 8015SOL     OW35506   0.821   1.773   5.594  0.0054  0.0404 -0.4538
 8015SOL    HW135507   0.762   1.847   5.610  3.1514  2.4792 -0.0160
 8015SOL    HW235508   0.779   1.706   5.648 -1.6561  2.0904  0.8089
 8016SOL     OW35509   3.612   4.064   3.238 -0.0950  0.2969  0.1230
 8016SOL    HW135510   3.640   4.155   3.250  1.5037 -0.3862  1.6575
 8016SOL    HW235511   3.528   4.080   3.197  0.8173  0.3312 -1.7328
 8017SOL     OW35512   2.763   1.613  11.501 -0.0913 -0.3989  0.3133
 8017SOL    HW135513   2.759   1.519  11.519  2.7770 -0.5082  0.3068
 8017SOL    HW235514   2.776   1.640  11.592  2.5478 -1.4209  0.2542
 8018SOL     OW35515   2.477   0.905  10.495  0.6808  0.1618  0.1889
 8018SOL    HW135516   2.387   0.909  10.465  0.6855 -0.3111  0.1185
 8018SOL    HW235517   2.527   0.927  10.416  0.3376 -2.9764 -0.8919
 8019SOL     OW35518   0.109   0.207   7.974  0.3570  0.3077 -0.3759
 8019SOL    HW135519   0.076   0.137   8.031  0.6198 -0.6395 -1.3800
 8019SOL    HW235520   0.080   0.284   8.023  3.6480  0.1662  1.7584
 8020SOL     OW35521   4.527   3.428   7.893  0.0595 -0.1472  0.1179
 8020SOL    HW135522   4.558   3.419   7.984  2.5414 -1.0362 -0.8177
 8020SOL    HW235523   4.545   3.344   7.850 -1.8685  0.0016 -0.9703
 8021SOL     OW35524   1.353   2.747  14.535  0.0808 -0.4688  0.4070
 8021SOL    HW135525   1.331   2.756  14.628  0.0736 -0.6414  0.4225
 8021SOL    HW235526   1.265   2.730  14.502  0.1388  0.6256 -0.3243
 8022SOL     OW35527   4.080   2.654  16.922 -0.0167  0.5607 -0.2241
 8022SOL    HW135528   4.028   2.605  16.858  1.2392 -0.1000 -0.7207
 8022SOL    HW235529   4.166   2.640  16.883 -0.2622  1.6130 -1.1703
 8023SOL     OW35530   1.378   0.523   8.823 -0.0601 -0.2171 -0.1020
 8023SOL    HW135531   1.287   0.521   8.791 -0.2788 -1.1705  0.5723
 8023SOL    HW235532   1.402   0.432   8.807 -0.5859 -0.1017 -1.5684
 8024SOL     OW35533   3.981   3.442   8.270  0.0705  0.2453 -0.3580
 8024SOL    HW135534   4.072   3.412   8.274 -0.4597 -1.0985  1.8098
 8024SOL    HW235535   4.004   3.535   8.276 -1.4569  0.6203 -0.3687
 8025SOL     OW35536   2.546   3.359   6.174  0.6702  0.1246 -0.4926
 8025SOL    HW135537   2.621   3.416   6.195 -0.4348  1.5335 -0.3638
 8025SOL    HW235538   2.504   3.353   6.259 -0.2317 -0.8433 -1.0133
 8026SOL     OW35539   3.691   0.633   2.682  0.2683  0.6656  0.2398
 8026SOL    HW135540   3.621   0.641   2.617  0.0133 -0.1515  0.4058
 8026SOL    HW235541   3.656   0.686   2.753  1.6511  0.4709  1.0684
 8027SOL     OW35542   3.463   2.331   7.334  0.0074 -0.1433  0.6745
 8027SOL    HW135543   3.474   2.239   7.357 -1.4323 -0.7817 -1.1775
 8027SOL    HW235544   3.388   2.350   7.389 -0.6389 -0.7166 -0.0137
 8028SOL     OW35545   3.276   2.387   6.964 -0.0965  0.2718 -0.2416
 8028SOL    HW135546   3.319   2.459   7.011  1.6907 -1.8787  1.3976
 8028SOL    HW235547   3.346   2.352   6.909  2.0871  1.9019  1.5452
 8029SOL     OW35548   1.520   0.049  10.632 -0.3785  0.3669  0.3571
 8029SOL    HW135549   1.430   0.054  10.599 -0.4509  0.6114  0.5924
 8029SOL    HW235550   1.508   4.713  10.705 -0.5943 -2.8515 -2.3843
 8030SOL     OW35551   3.782   2.785   2.029 -0.4433 -1.1259  0.2807
 8030SOL    HW135552   3.789   2.690   2.025 -1.6654 -1.3409  3.3107
 8030SOL    HW235553   3.725   2.789   1.952 -0.4547  0.3768  0.3608
 8031SOL     OW35554   4.012   0.037   3.427  0.4817 -0.6814 -0.3528
 8031SOL    HW135555   3.977   4.673   3.430  0.1211 -0.4626  1.7118
 8031SOL    HW235556   4.096   0.023   3.470 -0.4165  0.3911  1.7725
 8032SOL     OW35557   4.384   0.585   2.095  0.2973  0.0419  0.0958
 8032SOL    HW135558   4.317   0.531   2.137  0.1414  0.0416 -0.1478
 8032SOL    HW235559   4.439   0.601   2.171 -1.9749  0.9637  1.5499
 8033SOL     OW35560   0.824   2.530   8.178 -0.3973  0.1252  0.1764
 8033SOL    HW135561   0.877   2.542   8.257  2.2163 -3.6007 -1.0002
 8033SOL    HW235562   0.885   2.558   8.109 -0.5345 -0.5294 -0.2045
 8034SOL     OW35563   4.644   0.104   2.663  0.7308  0.5684  0.3679
 8034SOL    HW135564   4.636   0.009   2.679 -1.3810  0.8652  1.0644
 8034SOL    HW235565   0.002   0.117   2.618  0.9898  0.5325  0.8304
 8035SOL     OW35566   2.902   0.198   3.643  0.1581 -0.1375 -0.0728
 8035SOL    HW135567   2.965   0.269   3.659  0.5780 -1.0423  2.4039
 8035SOL    HW235568   2.947   0.133   3.588 -0.5837 -2.2093  1.7335
 8036SOL     OW35569   1.095   0.266   6.226  0.2800  0.3855  0.2343
 8036SOL    HW135570   1.040   0.288   6.151 -0.0913  2.4480  1.1206
 8036SOL    HW235571   1.163   0.207   6.193 -1.8955 -0.2635 -3.1135
 8037SOL     OW35572   0.720   0.183   7.098  0.6210  0.2793 -0.8529
 8037SOL    HW135573   0.799   0.210   7.052  1.3899  0.6558  0.7125
 8037SOL    HW235574   0.688   0.115   7.038 -0.8551 -1.0950  1.5088
 8038SOL     OW35575   1.701   1.740   8.002  0.6865 -0.2494  0.2905
 8038SOL    HW135576   1.635   1.809   8.006  1.1904  0.2030  0.6648
 8038SOL    HW235577   1.771   1.793   8.040  0.9076 -2.1081  2.5039
 8039SOL     OW35578   0.865   4.437   6.128 -0.1222 -0.2959  0.7239
 8039SOL    HW135579   0.876   4.502   6.059  0.2988 -1.3389 -0.1973
 8039SOL    HW235580   0.856   4.355   6.079  2.2892  1.3955 -2.5422
 8040SOL     OW35581   0.086   2.520  15.488 -0.1243  0.1105 -0.2068
 8040SOL    HW135582   0.025   2.486  15.554 -0.6892  0.1595 -0.7001
 8040SOL    HW235583   0.130   2.580  15.549 -1.5606  2.1613 -1.2134
 8041SOL     OW35584   0.415   0.981   3.686  0.4865  0.0154  0.0780
 8041SOL    HW135585   0.348   0.918   3.714  1.6208 -0.1907  2.3132
 8041SOL    HW235586   0.361   1.050   3.647  2.1144  0.5423 -1.2616
 8042SOL     OW35587   2.977   4.083   5.967  0.3710 -0.2324 -0.1398
 8042SOL    HW135588   3.055   4.115   5.921  0.7472 -0.1228  0.5787
 8042SOL    HW235589   2.932   4.162   6.000  0.8203  0.5679 -1.4280
 8043SOL     OW35590   0.677   0.142   2.016  0.6554  0.0810 -0.1305
 8043SOL    HW135591   0.614   0.213   2.003  0.8865  0.2069 -0.5378
 8043SOL    HW235592   0.665   0.123   2.109  1.9028 -0.8040 -0.1628
 8044SOL     OW35593   0.897   3.668  16.496 -0.4494  0.6307 -0.3091
 8044SOL    HW135594   0.826   3.610  16.523  0.1601 -0.7999 -1.7482
 8044SOL    HW235595   0.871   3.748  16.541 -1.5409 -0.5596  1.1846
 8045SOL     OW35596   1.143   2.233   2.758 -0.3364 -0.5678 -0.4648
 8045SOL    HW135597   1.227   2.250   2.714 -0.3669 -1.3327 -0.8021
 8045SOL    HW235598   1.125   2.147   2.723 -1.6948 -0.1649 -0.7412
 8046SOL     OW35599   2.442   4.487   4.083  0.1049  0.1791 -0.3933
 8046SOL    HW135600   2.370   4.521   4.135 -0.4821 -2.7935  0.7217
 8046SOL    HW235601   2.493   4.446   4.153  0.6798 -0.7461 -1.3393
 8047SOL     OW35602   4.725   4.273   3.764 -0.1351  0.3740  0.3722
 8047SOL    HW135603   0.035   4.223   3.690 -2.8595  1.8467 -1.9141
 8047SOL    HW235604   4.638   4.234   3.753  0.6773 -2.1897  3.1210
 8048SOL     OW35605   0.017   2.019   7.490  0.0110  0.5801  0.6505
 8048SOL    HW135606   0.111   2.006   7.502  0.0861  0.4975  0.0099
 8048SOL    HW235607   4.705   1.931   7.497  0.4814  0.0277 -3.4282
 8049SOL     OW35608   0.420   3.199   2.909  0.2065  0.7285  0.5073
 8049SOL    HW135609   0.375   3.117   2.932 -1.3089  1.8271  1.4562
 8049SOL    HW235610   0.509   3.164   2.905 -0.2446 -0.7253  3.1423
 8050SOL     OW35611   1.598   1.990   8.069 -0.3393 -0.0831 -0.1328
 8050SOL    HW135612   1.515   2.031   8.044  0.5770  1.7668 -0.1475
 8050SOL    HW235613   1.643   2.037   7.999  0.7801  0.1187  0.7294
 8051SOL     OW35614   1.750   4.544   1.636 -0.3160  0.5179 -0.4882
 8051SOL    HW135615   1.746   4.513   1.546 -0.1536 -2.7885  0.6270
 8051SOL    HW235616   1.705   4.628   1.628  0.8482  1.1859  0.1046
 8052SOL     OW35617   1.083   0.050  15.075  0.5793  0.2473 -0.5888
 8052SOL    HW135618   1.140   0.089  15.010 -1.0277  1.7563 -1.0935
 8052SOL    HW235619   1.075   4.684  15.045 -1.3884  0.0100  0.6353
 8053SOL     OW35620   3.377   2.904   7.546 -0.0609 -0.5596 -0.0518
 8053SOL    HW135621   3.437   2.875   7.477  1.6887  2.1502  0.2791
 8053SOL    HW235622   3.363   2.993   7.514  2.2908  0.2393  1.0944
 8054SOL     OW35623   1.877   1.289   7.685  0.3185  0.1460 -0.3789
 8054SOL    HW135624   1.972   1.286   7.673  0.3250  2.5443 -0.9820
 8054SOL    HW235625   1.874   1.385   7.693  3.6368  0.2207 -0.0578
 8055SOL     OW35626   1.883   4.042   0.250  0.2957 -0.5553  0.0762
 8055SOL    HW135627   1.815   4.034   0.182 -0.2873 -1.4287  0.7452
 8055SOL    HW235628   1.907   4.133   0.234 -1.0961 -0.1341  0.3149
 8056SOL     OW35629   3.554   0.933   2.478 -0.5578  0.0209  0.9646
 8056SOL    HW135630   3.479   0.962   2.426  1.9326  0.8857 -2.1372
 8056SOL    HW235631   3.596   1.012   2.513 -0.7834  0.5895 -0.0464
 8057SOL     OW35632   2.271   0.519  16.110  0.2766  0.0188 -0.0774
 8057SOL    HW135633   2.319   0.442  16.141  2.8711  1.3693 -0.6598
 8057SOL    HW235634   2.221   0.475  16.041  1.5256 -0.8859 -0.4195
 8058SOL     OW35635   3.442   0.780   4.903  0.3359  0.3370 -0.2308
 8058SOL    HW135636   3.414   0.803   4.815 -1.8807 -0.2056  0.3331
 8058SOL    HW235637   3.384   0.709   4.929 -1.4024  1.3424 -1.3174
 8059SOL     OW35638   0.143   3.891   3.955 -0.6074 -0.2539 -0.2460
 8059SOL    HW135639   0.133   3.986   3.947 -1.5048 -0.2651  0.9278
 8059SOL    HW235640   0.053   3.866   3.933 -1.1841  2.0220 -0.4618
 8060SOL     OW35641   2.119   3.867   0.572  0.4287 -0.1460 -0.0659
 8060SOL    HW135642   2.026   3.888   0.579  0.0774 -1.0459 -1.8931
 8060SOL    HW235643   2.158   3.954   0.572  0.6767 -0.2610  0.1309
 8061SOL     OW35644   0.266   1.904   9.105  0.2420  0.3735  0.1361
 8061SOL    HW135645   0.329   1.953   9.051 -1.8829  0.0550 -2.6453
 8061SOL    HW235646   0.261   1.969   9.175  0.6687  0.9881 -0.3969
 8062SOL     OW35647   4.176   3.583   2.484  0.5314 -0.3982  0.0097
 8062SOL    HW135648   4.128   3.659   2.517  0.4543 -0.1986 -0.5540
 8062SOL    HW235649   4.105   3.533   2.444  0.9159  1.0063 -2.4259
 8063SOL     OW35650   0.945   4.644   5.980 -0.3698 -0.4847 -0.4455
 8063SOL    HW135651   1.024   4.591   5.976  0.8350  1.3395 -0.6175
 8063SOL    HW235652   0.959   4.706   5.909 -1.4737  0.5188  0.2047
 8064SOL     OW35653   0.063   2.463   1.215 -0.3164  0.6143  0.8655
 8064SOL    HW135654   4.719   2.496   1.157  0.6095 -1.4832 -1.4433
 8064SOL    HW235655   0.093   2.390   1.161  1.9488  1.7842  0.5152
 8065SOL     OW35656   1.596   0.669  10.283  0.0379  0.3708  0.1434
 8065SOL    HW135657   1.664   0.606  10.259 -1.0034 -1.3726  1.7129
 8065SOL    HW235658   1.530   0.650  10.216 -1.0173 -0.1209  1.3222
 8066SOL     OW35659   2.172   3.333   4.374 -0.3269 -0.4206 -0.6153
 8066SOL    HW135660   2.122   3.335   4.456 -1.0543  0.2876 -1.0815
 8066SOL    HW235661   2.094   3.311   4.323 -2.0089  0.3882  1.5874
 8067SOL     OW35662   1.476   2.714  16.328 -0.3862  0.2635  0.0840
 8067SOL    HW135663   1.553   2.720  16.271  0.8297 -1.4610  1.5547
 8067SOL    HW235664   1.494   2.629  16.368  0.4032 -0.2729 -1.4004
 8068SOL     OW35665   0.586   0.523   8.789 -0.2020  0.4021 -0.8376
 8068SOL    HW135666   0.576   0.615   8.762  0.8988  0.9997  0.8234
 8068SOL    HW235667   0.597   0.534   8.883  0.3816 -1.9883 -0.6411
 8069SOL     OW35668   2.577   4.455   8.712 -0.2793 -0.4221  0.2087
 8069SOL    HW135669   2.591   4.549   8.710  0.4779 -0.5349  0.4901
 8069SOL    HW235670   2.653   4.422   8.664 -0.4451  1.4657 -1.3232
 8070SOL     OW35671   2.762   0.743  14.278 -0.1490  0.0214 -0.2315
 8070SOL    HW135672   2.686   0.740  14.336 -0.5878 -0.6737 -0.8331
 8070SOL    HW235673   2.725   0.770  14.194 -0.8954 -0.9658 -0.2249
 8071SOL     OW35674   2.323   0.287   7.068  0.0639 -0.2469 -0.5439
 8071SOL    HW135675   2.409   0.308   7.033 -0.6524  0.5100 -1.8253
 8071SOL    HW235676   2.274   0.367   7.051  0.4595 -0.5341 -2.9787
 8072SOL     OW35677   1.599   3.862   3.652 -0.0647  0.7109 -0.4904
 8072SOL    HW135678   1.657   3.926   3.611  0.0586 -0.1733 -1.6991
 8072SOL    HW235679   1.519   3.855   3.599  0.4100 -1.0433 -0.9700
 8073SOL     OW35680   2.326   2.490   7.391  0.2399 -0.3472 -0.0959
 8073SOL    HW135681   2.386   2.467   7.462  0.2955  1.4588  0.4325
 8073SOL    HW235682   2.397   2.519   7.333  0.5234  0.8708  0.8598
 8074SOL     OW35683   4.350   2.438  13.828  0.3485  0.0031  0.1022
 8074SOL    HW135684   4.308   2.520  13.853  1.0930  0.3059  0.3899
 8074SOL    HW235685   4.281   2.385  13.790 -1.3963  1.6102  1.0557
 8075SOL     OW35686   0.875   4.458  17.151 -0.0696 -0.1887 -0.2505
 8075SOL    HW135687   0.924   4.540  17.139  1.3097 -1.0621 -0.5350
 8075SOL    HW235688   0.795   4.493  17.110  0.7341  1.2934 -0.5720
 8076SOL     OW35689   1.822   2.037   5.969 -0.0909 -0.1211 -0.5268
 8076SOL    HW135690   1.826   2.061   5.877 -1.4231  0.7150 -0.3628
 8076SOL    HW235691   1.788   1.948   5.965 -1.3222  0.3579 -0.8811
 8077SOL     OW35692   4.153   3.623  13.597  0.5105 -0.2384 -0.1602
 8077SOL    HW135693   4.090   3.646  13.665 -1.2853 -1.5815 -1.3798
 8077SOL    HW235694   4.121   3.537  13.569 -1.0771  0.2186  0.2552
 8078SOL     OW35695   2.708   2.133   2.005  0.1874  0.0417  0.0112
 8078SOL    HW135696   2.768   2.163   1.936  1.9937 -0.9335  1.1680
 8078SOL    HW235697   2.683   2.046   1.975 -1.4434  0.7031 -0.6081
 8079SOL     OW35698   1.742   0.135  13.976 -0.0427  0.2193  0.3309
 8079SOL    HW135699   1.749   0.200  14.046  1.1727  2.3013 -1.7319
 8079SOL    HW235700   1.652   0.100  13.978 -0.1264  0.3909 -0.4683
 8080SOL     OW35701   2.693   1.641  15.691 -0.0223  0.4413  0.0182
 8080SOL    HW135702   2.740   1.678  15.616  0.3079  1.6741  0.8360
 8080SOL    HW235703   2.676   1.552  15.659  0.6497  0.7628 -1.2432
 8081SOL     OW35704   1.125   0.990  11.056  0.3162 -0.7790  0.0119
 8081SOL    HW135705   1.054   0.991  11.120 -0.4059 -3.1082 -0.7830
 8081SOL    HW235706   1.106   1.073  11.011 -1.6223 -1.3804 -0.2591
 8082SOL     OW35707   2.252   0.991  17.305  0.2751 -0.0382  0.0555
 8082SOL    HW135708   2.287   1.075  17.274  0.2449 -0.3327 -0.7618
 8082SOL    HW235709   2.227   0.953  17.221 -2.3877 -2.1109  1.7961
 8083SOL     OW35710   1.144   1.617   4.614  0.5472 -0.0507 -0.7049
 8083SOL    HW135711   1.050   1.619   4.593  0.8274  1.3326 -1.8022
 8083SOL    HW235712   1.185   1.690   4.568 -0.1671  0.5935 -0.3169
 8084SOL     OW35713   0.696   1.739   6.647  0.4610  0.2517 -0.0694
 8084SOL    HW135714   0.693   1.646   6.670 -0.6810  0.2943 -0.0326
 8084SOL    HW235715   0.773   1.736   6.589  1.2726 -1.5800  1.1164
 8085SOL     OW35716   2.513   3.118  11.939 -0.0904  0.5255  0.1450
 8085SOL    HW135717   2.460   3.182  11.986 -0.4270 -0.2553  0.8221
 8085SOL    HW235718   2.521   3.051  12.007  0.5703 -0.4297 -0.8613
 8086SOL     OW35719   2.331   0.369   2.197  0.0100 -0.1097 -0.1560
 8086SOL    HW135720   2.248   0.329   2.171 -0.5638  0.3402  1.0041
 8086SOL    HW235721   2.310   0.430   2.267 -0.1091 -2.3673  1.7594
 8087SOL     OW35722   0.522   2.452  10.847 -0.9335 -0.2132 -0.0417
 8087SOL    HW135723   0.580   2.501  10.789 -0.5756 -0.6353 -0.0371
 8087SOL    HW235724   0.562   2.468  10.932 -0.2720 -2.1149  0.0052
 8088SOL     OW35725   4.212   0.275  11.269  0.0899  0.1735  0.2845
 8088SOL    HW135726   4.268   0.268  11.191 -0.3897 -1.2321  0.0770
 8088SOL    HW235727   4.231   0.186  11.297  0.8396 -0.4175 -2.0598
 8089SOL     OW35728   3.672   3.291   3.517 -0.2657 -0.9880 -0.0262
 8089SOL    HW135729   3.765   3.313   3.525 -0.2980 -1.2358  0.9993
 8089SOL    HW235730   3.682   3.203   3.482 -0.3209 -1.7591  1.9239
 8090SOL     OW35731   3.174   0.428  15.697 -0.0184  0.4272  0.4558
 8090SOL    HW135732   3.111   0.389  15.637  1.0655 -0.3377 -0.1843
 8090SOL    HW235733   3.128   0.426  15.781  0.3819  1.0086  0.6841
 8091SOL     OW35734   3.647   1.325   3.640 -0.3388  0.3967  0.1141
 8091SOL    HW135735   3.677   1.293   3.555  1.7289  1.5573  0.4125
 8091SOL    HW235736   3.658   1.241   3.684  0.4753  0.6192  0.3397
 8092SOL     OW35737   0.726   1.052  13.875 -0.0457 -0.0941  0.1434
 8092SOL    HW135738   0.750   1.140  13.845  0.7213 -0.2842  0.2045
 8092SOL    HW235739   0.686   1.016  13.796  1.5715 -0.5526 -0.4803
 8093SOL     OW35740   1.573   2.456   4.340  0.1334 -0.1241 -0.0072
 8093SOL    HW135741   1.493   2.411   4.311 -0.5128  1.4847 -0.7263
 8093SOL    HW235742   1.598   2.511   4.266  3.5380  0.0388  1.2503
 8094SOL     OW35743   4.616   1.887  11.510  0.8535  0.1717 -0.2035
 8094SOL    HW135744   4.604   1.958  11.448 -0.0477  0.1310 -0.0687
 8094SOL    HW235745   4.672   1.929  11.575 -0.1134 -0.9277  1.3215
 8095SOL     OW35746   4.145   0.599   3.945 -0.2534  0.1803  0.3837
 8095SOL    HW135747   4.150   0.528   3.880  1.7412  2.1422 -1.6565
 8095SOL    HW235748   4.200   0.555   4.010  1.3302  1.2286 -0.2303
 8096SOL     OW35749   0.226   1.097   7.482 -0.7170  0.0790 -0.1495
 8096SOL    HW135750   0.230   1.007   7.516  0.9517  0.5108  0.7720
 8096SOL    HW235751   0.274   1.092   7.400 -0.0456 -0.3838  0.2731
 8097SOL     OW35752   4.707   2.524   3.160  0.1803 -0.2491 -0.1041
 8097SOL    HW135753   0.006   2.455   3.098  1.2028 -0.1670  0.2101
 8097SOL    HW235754   4.685   2.600   3.107  0.7292 -0.3022 -0.4033
 8098SOL     OW35755   1.978   2.316   5.122  0.1558 -0.2577  0.2078
 8098SOL    HW135756   2.049   2.283   5.177  2.1893  1.4545 -1.3817
 8098SOL    HW235757   2.013   2.401   5.096 -0.0505 -1.3029 -3.5777
 8099SOL     OW35758   3.304   1.691   2.005 -0.4435 -0.0174  0.0624
 8099SOL    HW135759   3.331   1.783   2.005 -3.0704  0.7515 -1.1368
 8099SOL    HW235760   3.380   1.640   1.977 -0.0862  0.1338  0.7537
 8100SOL     OW35761   0.429   0.174   4.201 -0.1685  0.1112  1.0681
 8100SOL    HW135762   0.502   0.231   4.225  1.1518 -1.2157  0.2298
 8100SOL    HW235763   0.359   0.238   4.208 -1.1635 -0.9769  1.0024
 8101SOL     OW35764   0.523   2.778   3.839  0.0703 -0.2587  0.3025
 8101SOL    HW135765   0.554   2.690   3.821  1.7727  0.5819 -0.8624
 8101SOL    HW235766   0.476   2.764   3.921 -1.8879  0.8738 -0.6252
 8102SOL     OW35767   0.777   0.625   5.692 -0.6461  0.2320  0.3317
 8102SOL    HW135768   0.752   0.697   5.749 -0.4969  1.9288 -1.7759
 8102SOL    HW235769   0.691   0.592   5.666  0.1600 -1.0323 -0.8106
 8103SOL     OW35770   2.299   0.591   2.786 -0.2919  0.1840  0.0210
 8103SOL    HW135771   2.371   0.565   2.728 -0.2892  0.3855 -0.0670
 8103SOL    HW235772   2.321   0.533   2.858 -0.9194 -1.2581 -0.9566
 8104SOL     OW35773   2.649   2.861   2.857 -0.1957 -0.3829  0.2710
 8104SOL    HW135774   2.603   2.791   2.809  1.0904 -1.9188  1.2844
 8104SOL    HW235775   2.709   2.803   2.904  1.2905  1.0011  0.0477
 8105SOL     OW35776   2.982   2.006  12.335  0.0271 -0.7508 -0.3982
 8105SOL    HW135777   3.005   2.055  12.256  0.0108 -0.6723 -0.3536
 8105SOL    HW235778   2.990   2.076  12.400  1.1136  1.1367 -2.5669
 8106SOL     OW35779   0.931   3.017   5.856 -0.0813  0.2445 -0.3607
 8106SOL    HW135780   0.937   2.948   5.923 -1.4939  1.3989  0.9520
 8106SOL    HW235781   0.837   3.019   5.837  0.0694  1.9598 -0.9486
 8107SOL     OW35782   4.137   4.508   6.719  0.1156 -0.1533  0.1904
 8107SOL    HW135783   4.111   4.521   6.810 -0.0509  3.6433 -0.4022
 8107SOL    HW235784   4.111   4.596   6.692  0.2791 -0.0056  0.5181
 8108SOL     OW35785   4.498   2.764   9.217  0.9579 -0.3691  0.1264
 8108SOL    HW135786   4.427   2.786   9.277  1.6010  0.5808  0.5357
 8108SOL    HW235787   4.460   2.688   9.172 -0.0299  0.6404 -0.7461
 8109SOL     OW35788   4.229   0.848  13.663  0.5965 -0.6630  0.0369
 8109SOL    HW135789   4.230   0.753  13.668 -1.9469 -0.6110  1.3576
 8109SOL    HW235790   4.277   0.870  13.583  1.2962  3.3247  1.5360
 8110SOL     OW35791   3.460   3.320   1.836 -0.0843 -0.2742  0.1956
 8110SOL    HW135792   3.431   3.250   1.895 -3.1261 -1.9192 -3.2316
 8110SOL    HW235793   3.380   3.364   1.809  0.2730  0.1229 -0.2163
 8111SOL     OW35794   2.424   0.150   6.674  0.2191  0.0812  0.3328
 8111SOL    HW135795   2.403   0.208   6.601  0.4179 -1.5426 -1.0304
 8111SOL    HW235796   2.495   0.187   6.725 -1.0655  1.4819  1.0993
 8112SOL     OW35797   1.453   4.704   9.010  0.4855  0.2142  0.0515
 8112SOL    HW135798   1.373   0.002   9.058  0.5863  2.1701 -0.7320
 8112SOL    HW235799   1.503   4.665   9.082  0.1957  0.9924  0.6799
 8113SOL     OW35800   0.778   3.155   2.114  0.6784 -0.2010  0.4584
 8113SOL    HW135801   0.774   3.063   2.087 -1.2821 -0.5980  2.1408
 8113SOL    HW235802   0.776   3.193   2.026  0.6052  0.0113  0.5521
 8114SOL     OW35803   2.600   1.914   0.444  0.3839  0.2875  0.2829
 8114SOL    HW135804   2.684   1.868   0.443  0.4982  0.4921  0.4747
 8114SOL    HW235805   2.618   1.963   0.524 -0.5595  1.0442  0.0186
 8115SOL     OW35806   3.231   2.546   8.153 -0.0225 -0.3846 -1.4536
 8115SOL    HW135807   3.142   2.515   8.170 -0.0085  1.2484  1.6655
 8115SOL    HW235808   3.282   2.466   8.166  0.0892 -0.0426  0.1537
 8116SOL     OW35809   4.332   1.942   8.271 -0.9821 -0.0635  0.1170
 8116SOL    HW135810   4.369   1.900   8.348  2.2219  0.9904 -0.8795
 8116SOL    HW235811   4.407   1.974   8.221 -0.3545  2.2821  2.5525
 8117SOL     OW35812   3.429   0.218  15.902 -0.0414  0.5214  0.3678
 8117SOL    HW135813   3.441   0.292  15.843 -1.2357 -0.6501 -1.3290
 8117SOL    HW235814   3.347   0.240  15.948  0.4522  1.0405  0.9926
 8118SOL     OW35815   3.748   1.137   7.014 -0.4518  0.0214  0.5745
 8118SOL    HW135816   3.825   1.191   6.997 -0.3483 -0.8046 -1.5265
 8118SOL    HW235817   3.676   1.183   6.972  0.5330 -0.2299 -1.3781
 8119SOL     OW35818   1.024   3.053   8.625  0.0214  0.4051 -0.7490
 8119SOL    HW135819   1.095   3.011   8.675  2.1968  2.6149 -1.9843
 8119SOL    HW235820   1.070   3.098   8.555  4.9676 -0.8247  1.6775
 8120SOL     OW35821   2.561   1.356   8.658  0.6278 -1.1031  0.5843
 8120SOL    HW135822   2.577   1.390   8.746 -0.1075 -1.1978  0.7516
 8120SOL    HW235823   2.528   1.441   8.628 -0.2410 -0.1223  4.3681
 8121SOL     OW35824   1.734   1.779   5.945 -0.9603  0.1229  0.3590
 8121SOL    HW135825   1.661   1.769   5.883  0.8627  1.8724 -2.0646
 8121SOL    HW235826   1.723   1.710   6.010  1.3748  0.6588  1.3323
 8122SOL     OW35827   2.956   2.205   2.786 -0.1884  0.1556 -0.0965
 8122SOL    HW135828   2.922   2.294   2.777 -0.1209 -0.1372 -3.3979
 8122SOL    HW235829   2.950   2.184   2.693 -1.9517 -0.0681  0.0557
 8123SOL     OW35830   0.779   4.029   1.011  0.4087  0.1395  0.2226
 8123SOL    HW135831   0.701   4.070   0.976  0.0738 -1.6415 -1.1502
 8123SOL    HW235832   0.759   4.053   1.102  1.2651 -1.8829  0.9580
 8124SOL     OW35833   3.790   3.357  10.937  0.2178 -0.0529  0.0556
 8124SOL    HW135834   3.746   3.383  10.856  0.3203 -2.5494 -0.7947
 8124SOL    HW235835   3.838   3.281  10.903  0.4240 -0.6539  1.6870
 8125SOL     OW35836   2.200   1.937   3.439  0.1892  0.6949 -0.4050
 8125SOL    HW135837   2.281   1.986   3.453  0.5687 -0.3796  1.1883
 8125SOL    HW235838   2.128   1.999   3.449 -0.9023 -1.0126  2.4778
 8126SOL     OW35839   1.713   3.664   9.875 -0.1723  0.0613 -0.9677
 8126SOL    HW135840   1.721   3.725   9.949 -2.0830 -0.0994 -0.6414
 8126SOL    HW235841   1.649   3.603   9.912  1.6599 -0.3813  1.5056
 8127SOL     OW35842   2.755   3.172   6.500 -0.6946  0.7494  0.0687
 8127SOL    HW135843   2.679   3.121   6.472 -0.3020 -1.2025  2.6478
 8127SOL    HW235844   2.732   3.173   6.593 -1.1483 -2.6710  0.0084
 8128SOL     OW35845   2.220   3.017  12.843  0.0873 -0.4782 -0.1175
 8128SOL    HW135846   2.287   3.086  12.834  2.2496 -2.4455  0.7951
 8128SOL    HW235847   2.231   2.989  12.934 -0.1402 -0.0579  0.0418
 8129SOL     OW35848   4.722   4.296   9.193  0.0245 -0.3865 -0.0024
 8129SOL    HW135849   4.648   4.354   9.175 -0.8368 -1.6842 -0.6164
 8129SOL    HW235850   4.690   4.207   9.180  2.4446 -1.3053  0.2444
 8130SOL     OW35851   3.939   2.394   4.815  1.0337  0.2142 -0.0294
 8130SOL    HW135852   3.937   2.400   4.910  1.5910 -1.1630  0.0726
 8130SOL    HW235853   3.890   2.471   4.788  2.6328  1.5757  0.9744
 8131SOL     OW35854   3.283   1.198   5.113 -0.1193 -0.0879 -0.5579
 8131SOL    HW135855   3.318   1.111   5.092  3.9920  1.5068 -0.2899
 8131SOL    HW235856   3.223   1.178   5.185  1.8475 -0.2313  1.0730
 8132SOL     OW35857   3.817   0.110  12.545 -0.8276 -0.0180  0.3940
 8132SOL    HW135858   3.746   0.047  12.532 -1.7491  1.3343 -1.1556
 8132SOL    HW235859   3.878   0.073  12.481 -2.0148  2.0923 -1.9936
 8133SOL     OW35860   3.542   0.747  16.796  0.3970  0.3175  0.3101
 8133SOL    HW135861   3.482   0.720  16.865  0.5101 -1.7244 -0.4147
 8133SOL    HW235862   3.478   0.789  16.738 -0.7221 -0.7974  0.7535
 8134SOL     OW35863   1.520   0.817   6.404 -0.4115  0.0096  0.0300
 8134SOL    HW135864   1.536   0.825   6.310  0.1978 -0.6349  0.0757
 8134SOL    HW235865   1.598   0.854   6.446 -0.3779  1.5718 -1.4370
 8135SOL     OW35866   0.471   3.512  14.535  0.2196 -0.1498  0.5363
 8135SOL    HW135867   0.458   3.546  14.446  1.5399  0.8802  0.7329
 8135SOL    HW235868   0.394   3.457  14.544 -1.1474  1.3879 -1.8798
 8136SOL     OW35869   4.480   0.482   9.605 -0.0084  1.0724 -0.1560
 8136SOL    HW135870   4.404   0.537   9.620  0.2988  1.7565 -1.0855
 8136SOL    HW235871   4.462   0.459   9.514 -0.7339  0.2596  0.1881
 8137SOL     OW35872   0.151   0.101   6.015  0.0706 -0.3037 -0.7281
 8137SOL    HW135873   0.173   0.063   5.930 -0.1218  1.2107 -1.4576
 8137SOL    HW235874   0.225   0.161   6.026 -1.3565  1.3362 -0.1321
 8138SOL     OW35875   3.587   1.118  12.699 -0.1791 -0.3094 -0.5486
 8138SOL    HW135876   3.670   1.137  12.742 -0.8695 -0.7213  0.9808
 8138SOL    HW235877   3.544   1.192  12.742 -0.2237 -0.4114 -0.4152
 8139SOL     OW35878   0.988   4.584  14.441  0.2283  0.1174  0.1951
 8139SOL    HW135879   0.933   4.506  14.431 -0.9143  0.5628  3.0793
 8139SOL    HW235880   0.931   4.659  14.430 -0.4517 -0.6590 -1.4779
 8140SOL     OW35881   0.107   3.640   4.112  0.6396 -0.3364  0.1979
 8140SOL    HW135882   0.161   3.629   4.033  1.0390  2.7472  0.0160
 8140SOL    HW235883   0.125   3.732   4.133  1.5960 -0.4255 -0.2089
 8141SOL     OW35884   3.682   2.181  15.855 -0.1802  0.2867 -0.4703
 8141SOL    HW135885   3.759   2.127  15.835  0.3364  0.1544  1.8476
 8141SOL    HW235886   3.734   2.257  15.881  0.4245  0.5177 -2.3528
 8142SOL     OW35887   1.460   3.054   1.935 -0.5166 -0.3778  0.3904
 8142SOL    HW135888   1.548   3.073   1.968  0.4399  1.0091 -2.9644
 8142SOL    HW235889   1.420   3.141   1.938 -0.1799 -0.2137  0.0088
 8143SOL     OW35890   2.232   3.810  11.072 -0.1498  0.2024 -0.0588
 8143SOL    HW135891   2.227   3.823  11.167  1.3970 -0.9438  0.1767
 8143SOL    HW235892   2.300   3.744  11.060  0.8357  1.2339 -0.1470
 8144SOL     OW35893   1.288   0.786  10.611  0.4438  0.1135  0.6331
 8144SOL    HW135894   1.194   0.776  10.597  0.2752  0.0550  1.8614
 8144SOL    HW235895   1.292   0.822  10.699 -1.0153  0.9957  0.3300
 8145SOL     OW35896   2.209   4.223   8.433 -0.3425 -0.0904 -0.0901
 8145SOL    HW135897   2.303   4.216   8.448 -0.3039 -0.5385 -0.5465
 8145SOL    HW235898   2.171   4.194   8.517  1.8727 -1.5923  0.3984
 8146SOL     OW35899   1.367   1.297   2.579  0.3389 -0.4211 -0.6104
 8146SOL    HW135900   1.379   1.367   2.515  0.0433 -0.8784 -1.1611
 8146SOL    HW235901   1.438   1.313   2.641  0.0404 -1.1874 -0.0779
 8147SOL     OW35902   0.860   4.206   3.907  0.1069  0.7011 -0.1284
 8147SOL    HW135903   0.901   4.292   3.912 -0.5042  0.8542  2.1329
 8147SOL    HW235904   0.838   4.203   4.000  0.4611  1.3708 -0.0250
 8148SOL     OW35905   1.773   0.633   7.232  0.2764  0.2516  0.1263
 8148SOL    HW135906   1.798   0.578   7.158 -1.9554 -1.6602  0.8111
 8148SOL    HW235907   1.850   0.690   7.238  0.7442 -0.4892  1.3039
 8149SOL     OW35908   3.037   3.024   6.492  0.4068  0.5901  0.0473
 8149SOL    HW135909   2.967   3.088   6.503 -0.5801 -0.6593  1.1468
 8149SOL    HW235910   3.023   3.002   6.400  4.4909 -0.0055 -0.4643
 8150SOL     OW35911   1.342   2.831  15.534 -0.4264  0.2769 -0.5438
 8150SOL    HW135912   1.370   2.796  15.449  0.6527 -0.1315 -0.0094
 8150SOL    HW235913   1.351   2.924  15.511  0.6781  0.2868 -0.0350
 8151SOL     OW35914   4.040   3.399   5.037  0.2944  0.3239 -0.0982
 8151SOL    HW135915   3.970   3.359   4.986 -0.1355  1.9091 -0.7485
 8151SOL    HW235916   3.998   3.394   5.123 -1.3853  1.3870 -0.8461
 8152SOL     OW35917   0.304   1.463   9.296 -0.3203  0.9467 -0.0798
 8152SOL    HW135918   0.363   1.521   9.344  1.2507 -1.2355  0.5782
 8152SOL    HW235919   0.302   1.502   9.208 -0.3144 -1.3709 -1.0995
 8153SOL     OW35920   4.089   2.620   1.499 -0.2231  0.2081 -0.1655
 8153SOL    HW135921   4.115   2.700   1.545 -0.6098 -0.8055  1.8122
 8153SOL    HW235922   4.051   2.663   1.422  1.6327  0.5401 -0.8916
 8154SOL     OW35923   3.836   3.237   8.337 -0.2331  0.2777  0.2697
 8154SOL    HW135924   3.893   3.313   8.329 -1.4430  0.7465 -3.9065
 8154SOL    HW235925   3.901   3.167   8.342  0.4721  0.8612 -0.7075
 8155SOL     OW35926   2.737   2.896  15.638  0.0973  0.2554  0.5243
 8155SOL    HW135927   2.796   2.908  15.712  0.0613  2.1619  0.2428
 8155SOL    HW235928   2.652   2.918  15.677 -0.3490  0.7777 -0.7471
 8156SOL     OW35929   3.952   3.386   4.052 -0.2138  0.7399 -0.4392
 8156SOL    HW135930   3.978   3.429   3.971  0.4426  0.6782 -0.2619
 8156SOL    HW235931   3.866   3.360   4.018 -0.0560  2.2034 -1.9412
 8157SOL     OW35932   0.372   0.736  15.792  0.1815  0.4228  0.1469
 8157SOL    HW135933   0.384   0.827  15.768 -0.2554  0.1456 -1.1133
 8157SOL    HW235934   0.330   0.702  15.713 -1.3383 -0.6869  1.4400
 8158SOL     OW35935   4.652   1.667  11.341  0.2576 -0.5039 -0.2297
 8158SOL    HW135936   4.639   1.744  11.397 -0.0582  0.3539 -1.4725
 8158SOL    HW235937   4.632   1.701  11.254  0.4203  0.1421 -0.0177
 8159SOL     OW35938   2.046   3.410   2.149 -0.5359  0.6266 -0.9026
 8159SOL    HW135939   1.992   3.483   2.120 -1.0838  0.3100 -0.6748
 8159SOL    HW235940   2.068   3.362   2.069 -2.5027 -1.6750 -0.0774
 8160SOL     OW35941   4.143   1.083   2.471 -0.0782  0.5856  0.1869
 8160SOL    HW135942   4.168   1.010   2.528 -1.4318  0.2989  0.4348
 8160SOL    HW235943   4.206   1.148   2.501  0.1755 -0.5488  2.1419
 8161SOL     OW35944   2.251   0.435   7.691 -0.3436  0.5770  0.4841
 8161SOL    HW135945   2.174   0.387   7.659 -0.7846  1.0937  0.7629
 8161SOL    HW235946   2.194   0.503   7.728 -0.0225  1.5248 -0.7457
 8162SOL     OW35947   2.943   0.185  12.264  0.2340  0.2465  0.4946
 8162SOL    HW135948   2.885   0.127  12.215  0.9286 -0.6311  0.7069
 8162SOL    HW235949   2.998   0.219  12.193 -0.0211 -0.8621 -0.2282
 8163SOL     OW35950   1.632   3.939   2.885 -0.3864  0.3799  0.0571
 8163SOL    HW135951   1.554   3.899   2.847  0.0969  1.0523 -1.6308
 8163SOL    HW235952   1.683   3.869   2.924 -1.5576 -0.0196  0.8842
 8164SOL     OW35953   1.592   0.939   2.215 -0.2106 -0.0117  0.4280
 8164SOL    HW135954   1.627   1.002   2.151  0.5384 -0.5118  0.3503
 8164SOL    HW235955   1.516   0.911   2.164 -0.2768 -0.7841  0.9607
 8165SOL     OW35956   1.993   1.625   6.416 -0.4053  0.1727 -0.4626
 8165SOL    HW135957   1.944   1.639   6.497 -1.2977 -0.8431 -0.8351
 8165SOL    HW235958   1.959   1.691   6.356 -1.6970 -2.8763 -3.0871
 8166SOL     OW35959   3.267   2.540   4.316  0.1627 -0.2079 -0.6758
 8166SOL    HW135960   3.276   2.446   4.297 -0.8887 -1.7747  6.4643
 8166SOL    HW235961   3.224   2.575   4.238  0.4095  1.6325  0.0247
 8167SOL     OW35962   0.061   0.185   5.424 -0.2410 -0.3859  0.2437
 8167SOL    HW135963   0.114   0.151   5.496 -0.2166 -0.3193  0.2578
 8167SOL    HW235964   0.023   0.266   5.459  0.0091 -0.6463  1.1082
 8168SOL     OW35965   1.783   0.198   7.192 -0.0826  0.1699 -0.1710
 8168SOL    HW135966   1.801   0.292   7.194 -1.3739  0.4133 -0.0109
 8168SOL    HW235967   1.691   0.190   7.216 -0.4944  0.8384 -1.5281
 8169SOL     OW35968   2.214   2.825   8.742 -0.0022 -0.2648 -0.0193
 8169SOL    HW135969   2.266   2.784   8.811 -0.0402 -0.2951 -0.0083
 8169SOL    HW235970   2.275   2.867   8.682 -0.6102  0.7356  0.0645
 8170SOL     OW35971   4.600   3.443  12.772  0.4007  0.1405 -0.3122
 8170SOL    HW135972   4.562   3.381  12.834  1.0495  1.9922  1.9013
 8170SOL    HW235973   4.690   3.438  12.804 -0.1477  2.9895  1.6311
 8171SOL     OW35974   3.166   1.653   4.875  0.3321 -0.0970  0.7897
 8171SOL    HW135975   3.193   1.710   4.947  2.2921  2.3924 -1.9232
 8171SOL    HW235976   3.210   1.572   4.901  0.0939 -0.1688  0.9682
 8172SOL     OW35977   1.025   0.979  12.405 -0.4325 -0.4635 -0.8795
 8172SOL    HW135978   1.040   0.894  12.363 -0.9507 -1.9333  1.8843
 8172SOL    HW235979   1.115   0.992  12.435 -1.3441  0.2764  1.5117
 8173SOL     OW35980   2.158   0.262   8.352  0.3906  0.0505  0.4241
 8173SOL    HW135981   2.153   0.318   8.430 -0.6465  4.7176 -2.9669
 8173SOL    HW235982   2.251   0.243   8.343  0.5911  1.2537 -0.1230
 8174SOL     OW35983   4.465   2.474  14.098 -0.3843  0.3934  0.2718
 8174SOL    HW135984   4.480   2.408  14.030 -2.1975  0.1009  0.1427
 8174SOL    HW235985   4.430   2.425  14.172  0.3967 -1.8541 -0.8458
 8175SOL     OW35986   0.496   2.781   5.856 -0.1704  0.0264  0.2828
 8175SOL    HW135987   0.413   2.799   5.813  0.3020 -1.0901 -1.0846
 8175SOL    HW235988   0.548   2.726   5.798 -1.3837  0.0991 -0.8624
 8176SOL     OW35989   4.071   3.479   3.057 -0.2060  0.1023  0.1177
 8176SOL    HW135990   4.052   3.484   3.150  2.6423 -0.3224  0.7200
 8176SOL    HW235991   4.142   3.543   3.059  0.6088 -0.7867 -0.3657
 8177SOL     OW35992   1.483   2.628   5.383  0.3593 -0.4069  0.0535
 8177SOL    HW135993   1.466   2.711   5.426 -1.0129  0.6346 -2.4648
 8177SOL    HW235994   1.449   2.640   5.294  1.2932  0.5839 -0.1700
 8178SOL     OW35995   4.103   2.552   4.178 -0.4606 -0.3079  0.5618
 8178SOL    HW135996   4.034   2.535   4.115 -1.6723  0.5474  1.6460
 8178SOL    HW235997   4.175   2.530   4.119 -0.7427 -0.3752  0.2463
 8179SOL     OW35998   4.719   3.250   8.915 -0.5435 -0.3632 -0.0570
 8179SOL    HW135999   0.006   3.327   8.860 -0.2156 -2.7781 -3.4023
 8179SOL    HW236000   4.679   3.287   8.993  0.6752  1.1113 -0.1231
 8180SOL     OW36001   2.032   3.466  15.727 -0.6408 -0.5887 -0.1300
 8180SOL    HW136002   1.957   3.513  15.693 -0.8203 -0.9383 -0.2165
 8180SOL    HW236003   2.080   3.443  15.647 -0.0087 -0.7945  0.3109
 8181SOL     OW36004   3.391   1.810   3.076 -0.3742  0.1211  0.1618
 8181SOL    HW136005   3.374   1.766   2.992 -0.9217  2.5330 -0.9889
 8181SOL    HW236006   3.432   1.894   3.055  2.0570 -0.1125  3.9987
 8182SOL     OW36007   0.535   3.910  16.520 -0.1143  0.3858 -0.2181
 8182SOL    HW136008   0.459   3.895  16.576  0.1989 -1.7902 -0.3772
 8182SOL    HW236009   0.519   3.868  16.436  1.0248 -0.8982  0.2022
 8183SOL     OW36010   2.839   3.641   1.774 -0.1449  0.2875  0.1160
 8183SOL    HW136011   2.830   3.558   1.819 -2.3441  1.7118  2.2955
 8183SOL    HW236012   2.933   3.630   1.760 -0.0243 -0.0261  1.2081
 8184SOL     OW36013   3.473   0.756  13.744  0.0868  0.1977 -0.1221
 8184SOL    HW136014   3.505   0.845  13.761 -1.5232  0.4992  1.3058
 8184SOL    HW236015   3.429   0.770  13.660 -0.6757  2.8616  0.7082
 8185SOL     OW36016   3.410   2.185   2.373  0.2046 -0.2781  0.5127
 8185SOL    HW136017   3.486   2.128   2.379  0.6335  0.4065  1.6260
 8185SOL    HW236018   3.377   2.160   2.286  0.3315 -1.7363  0.8910
 8186SOL     OW36019   1.258   2.059   6.204  0.0054 -0.4900 -0.2160
 8186SOL    HW136020   1.211   2.140   6.185  1.1113  0.7974  2.4567
 8186SOL    HW236021   1.242   2.006   6.127 -0.6407 -0.2358 -0.2604
 8187SOL     OW36022   0.279   2.381   9.950  0.3858  0.1648 -0.1223
 8187SOL    HW136023   0.294   2.461  10.002  1.4494 -1.4143  2.0363
 8187SOL    HW236024   0.331   2.321  10.004 -2.1164  0.2028  2.3456
 8188SOL     OW36025   1.332   3.446   0.647 -0.4389 -0.0133  0.5777
 8188SOL    HW136026   1.308   3.508   0.578 -0.9521  1.0716  1.7167
 8188SOL    HW236027   1.417   3.477   0.679  0.6412 -1.0231 -1.3584
 8189SOL     OW36028   4.081   3.799   2.055  0.2666  0.5027  0.1759
 8189SOL    HW136029   4.168   3.821   2.089  0.9159  1.4032 -2.0209
 8189SOL    HW236030   4.074   3.712   2.095  3.2478 -0.9004 -2.3507
 8190SOL     OW36031   3.510   0.695   7.762  0.2165 -1.3610 -0.1144
 8190SOL    HW136032   3.601   0.667   7.775  1.0024  1.2650  0.0545
 8190SOL    HW236033   3.481   0.726   7.848 -1.7714  0.3570 -1.4027
 8191SOL     OW36034   4.725   2.440   6.379  0.5511  0.1773  0.2870
 8191SOL    HW136035   0.058   2.383   6.429 -1.5908 -0.7995  1.6521
 8191SOL    HW236036   4.670   2.476   6.448  1.7526 -1.0187  1.8853
 8192SOL     OW36037   3.736   1.917   2.809 -0.3050 -0.2895 -0.0826
 8192SOL    HW136038   3.763   1.904   2.718  2.1535  1.1270  0.4570
 8192SOL    HW236039   3.764   1.836   2.851 -0.4317 -0.3593 -0.1340
 8193SOL     OW36040   2.319   1.327   6.069  0.1926  0.3182  0.5611
 8193SOL    HW136041   2.338   1.389   5.998  1.6416 -4.1611 -2.9151
 8193SOL    HW236042   2.223   1.321   6.062  0.2260 -1.5449  1.6641
 8194SOL     OW36043   1.061   4.203   6.731  0.1609  0.4392 -0.3645
 8194SOL    HW136044   1.139   4.235   6.686  1.5295  1.1894  2.5654
 8194SOL    HW236045   1.095   4.130   6.782  0.0394  0.4061 -0.3312
 8195SOL     OW36046   2.667   4.621   2.905  0.0028  0.1754  0.8781
 8195SOL    HW136047   2.691   4.624   2.998  1.5523 -0.2124  0.4841
 8195SOL    HW236048   2.615   4.542   2.893 -1.4208  1.4210 -1.1851
 8196SOL     OW36049   4.103   1.782   8.227  0.2091  0.2569  0.1462
 8196SOL    HW136050   4.171   1.722   8.196  0.0766 -1.5074  3.3821
 8196SOL    HW236051   4.165   1.855   8.231 -0.3573  0.8184 -1.2666
 8197SOL     OW36052   0.021   3.789   8.007 -0.1056  0.0176  0.0383
 8197SOL    HW136053   0.024   3.742   8.091  0.3558  0.9460  0.5414
 8197SOL    HW236054   0.050   3.722   7.945  2.2110 -1.0405  2.2764
 8198SOL     OW36055   0.093   4.020   8.142  0.0217  0.4816 -0.0066
 8198SOL    HW136056   0.066   4.096   8.091 -1.3946  0.0704  0.1342
 8198SOL    HW236057   0.039   3.954   8.099 -0.6167  0.4542  0.8381
 8199SOL     OW36058   4.398   2.359   6.731 -0.3825 -0.0671 -0.0669
 8199SOL    HW136059   4.459   2.286   6.743 -1.1674 -0.5406  1.0686
 8199SOL    HW236060   4.452   2.427   6.692  0.4106 -0.5801  0.1367
 8200SOL     OW36061   3.625   0.560   8.377 -0.0802  0.6606  0.6168
 8200SOL    HW136062   3.643   0.574   8.284 -0.1933 -0.9941  0.3487
 8200SOL    HW236063   3.714   0.545   8.409  0.4283  1.5203 -0.4231
 8201SOL     OW36064   4.595   2.088   2.170  0.1175 -0.0408 -0.2581
 8201SOL    HW136065   4.678   2.058   2.206  0.0313 -0.5440 -0.4784
 8201SOL    HW236066   4.606   2.072   2.077  1.1235 -1.8440  0.1758
 8202SOL     OW36067   0.230   0.582   7.939 -0.0496 -0.4750 -0.4013
 8202SOL    HW136068   0.269   0.652   7.991 -1.5778  0.4311 -0.4616
 8202SOL    HW236069   0.292   0.509   7.940  0.0565 -0.3718  0.6559
 8203SOL     OW36070   3.563   2.247   1.287 -0.1329 -0.5679 -0.0526
 8203SOL    HW136071   3.534   2.158   1.310  0.1109 -0.9306 -1.1558
 8203SOL    HW236072   3.496   2.303   1.325  0.6233 -0.5041  1.2017
 8204SOL     OW36073   1.246   2.562   4.350  0.4784 -0.4055 -0.0855
 8204SOL    HW136074   1.174   2.504   4.325  0.2702 -1.2403  2.3922
 8204SOL    HW236075   1.216   2.639   4.302 -0.3244 -1.1008 -0.7110
 8205SOL     OW36076   1.012   1.079   3.825 -0.4595  0.3944 -0.2491
 8205SOL    HW136077   1.079   1.014   3.845 -0.0552  1.1779  0.8540
 8205SOL    HW236078   0.950   1.017   3.786  0.9170 -1.9058  1.2385
 8206SOL     OW36079   0.196   4.409   5.974 -0.3256 -0.5696  0.6507
 8206SOL    HW136080   0.135   4.456   6.031 -1.5816 -0.7411 -0.5445
 8206SOL    HW236081   0.136   4.344   5.937  1.9407 -2.0933 -0.3268
 8207SOL     OW36082   4.663   0.046  10.129  0.4737  0.1189  0.0044
 8207SOL    HW136083   4.671   4.695  10.187  0.3875 -1.7370 -2.4144
 8207SOL    HW236084   4.724   0.107  10.168 -1.3116  0.4368  2.2869
 8208SOL     OW36085   1.019   4.519  13.523 -0.6254  0.2255 -0.3329
 8208SOL    HW136086   0.937   4.472  13.508 -1.3638  0.8048  1.9242
 8208SOL    HW236087   1.037   4.541  13.431 -2.7813  1.6691 -0.4095
 8209SOL     OW36088   1.888   3.058   1.459 -0.0296  0.6538  0.2130
 8209SOL    HW136089   1.920   2.984   1.407  1.2537  1.8201 -0.6907
 8209SOL    HW236090   1.814   3.100   1.415  0.4433 -0.1152 -1.3135
 8210SOL     OW36091   2.154   1.742   0.450 -0.0582  0.4160  0.0949
 8210SOL    HW136092   2.238   1.716   0.413  0.0467  0.3123  0.4082
 8210SOL    HW236093   2.155   1.831   0.414 -0.0859 -0.7357 -2.7322
 8211SOL     OW36094   0.370   2.048   7.190  0.0878  0.4127 -0.1720
 8211SOL    HW136095   0.405   1.960   7.174 -2.1174 -0.6517  0.7818
 8211SOL    HW236096   0.415   2.112   7.135 -1.2969  0.2753 -1.4663
 8212SOL     OW36097   2.778   0.028  17.678 -0.4390 -0.0165  0.8525
 8212SOL    HW136098   2.781   0.011   0.070  1.6590 -1.0808  0.6058
 8212SOL    HW236099   2.712   0.096  17.686  1.3264  1.6496  1.2921
 8213SOL     OW36100   2.372   2.128   3.069  0.0213  0.4787  0.2885
 8213SOL    HW136101   2.440   2.119   3.136  0.4614 -0.5356 -0.2919
 8213SOL    HW236102   2.323   2.046   3.066  1.4559 -0.3939  0.5595
 8214SOL     OW36103   2.174   1.074  14.716 -0.3350  0.1497 -0.4891
 8214SOL    HW136104   2.116   1.137  14.673 -0.8898  0.7667  1.1428
 8214SOL    HW236105   2.116   0.998  14.711 -0.5824  0.1584  2.4536
 8215SOL     OW36106   2.560   4.298   1.526 -0.0801  0.4378 -0.5445
 8215SOL    HW136107   2.531   4.331   1.611 -1.4352 -0.4916 -0.6454
 8215SOL    HW236108   2.489   4.237   1.506  3.9569 -4.6441  0.6386
 8216SOL     OW36109   4.005   0.598   8.255 -0.5415 -0.1701  0.3509
 8216SOL    HW136110   3.929   0.616   8.310 -0.8091 -1.9672  0.5593
 8216SOL    HW236111   4.018   0.505   8.272 -0.7830 -0.5410 -1.5203
 8217SOL     OW36112   3.485   2.882   8.956 -0.2822  0.0415  0.3657
 8217SOL    HW136113   3.492   2.966   9.001  3.8216  0.4455 -0.9810
 8217SOL    HW236114   3.512   2.912   8.869  0.2206 -1.4250  0.0070
 8218SOL     OW36115   4.016   0.884   3.106  0.4649  0.1101  0.0976
 8218SOL    HW136116   4.095   0.832   3.122  1.9457  2.0700 -0.7830
 8218SOL    HW236117   3.954   0.822   3.145 -0.1116 -0.4580 -1.7609
 8219SOL     OW36118   0.694   0.526   0.846  1.0956  0.0006 -0.3479
 8219SOL    HW136119   0.759   0.585   0.884 -0.4271  1.3807  0.0650
 8219SOL    HW236120   0.706   0.542   0.752 -1.2980 -3.1861 -1.1969
 8220SOL     OW36121   2.353   4.349   1.160 -0.8303  0.0286  0.1602
 8220SOL    HW136122   2.441   4.341   1.121 -1.0687 -0.6130 -0.2593
 8220SOL    HW236123   2.332   4.263   1.195  2.3681 -1.2047 -0.9309
 8221SOL     OW36124   3.004   4.007  17.198 -0.3364  0.4080 -0.6747
 8221SOL    HW136125   2.924   4.053  17.221 -1.0256 -2.2488  2.2622
 8221SOL    HW236126   2.991   4.003  17.103  0.1787 -1.7269 -0.6590
 8222SOL     OW36127   2.262   2.253   3.637 -0.6147  0.0901 -0.5205
 8222SOL    HW136128   2.329   2.216   3.694  0.5975  1.1434 -1.2906
 8222SOL    HW236129   2.191   2.264   3.701 -1.9805  0.5501 -2.1347
 8223SOL     OW36130   0.920   2.895   6.907 -0.1184  0.1435 -0.2540
 8223SOL    HW136131   0.878   2.924   6.987 -0.4912  1.9612 -1.1093
 8223SOL    HW236132   0.999   2.851   6.939  0.3382  1.5325  0.4937
 8224SOL     OW36133   3.312   0.211  17.666 -0.7681 -0.3552 -0.4868
 8224SOL    HW136134   3.238   0.151  17.655  0.4878 -1.8993 -0.5968
 8224SOL    HW236135   3.384   0.154  17.639  0.5152  0.1593  1.8780
 8225SOL     OW36136   3.431   0.025  13.927 -0.1671 -0.0034 -0.3356
 8225SOL    HW136137   3.439   0.015  13.832 -3.8607  0.9503 -0.7280
 8225SOL    HW236138   3.453   0.118  13.932  1.2311 -0.4290  1.4413
 8226SOL     OW36139   3.884   0.259   3.993 -0.4932  0.0822  0.3350
 8226SOL    HW136140   3.858   0.336   3.943  0.0073 -1.0353 -1.6938
 8226SOL    HW236141   3.915   0.199   3.924  0.6409 -0.1309  1.0316
 8227SOL     OW36142   0.162   4.086   7.753  0.2600 -0.0389  0.2924
 8227SOL    HW136143   0.248   4.048   7.734  0.5077  0.6406  0.0668
 8227SOL    HW236144   0.107   4.012   7.725  2.5416 -1.9238  0.8238
 8228SOL     OW36145   3.402   4.676   9.047 -0.4194 -0.7153 -0.5961
 8228SOL    HW136146   3.494   4.660   9.069 -0.2497 -0.9043 -1.4351
 8228SOL    HW236147   3.401   4.630   8.963  3.1858 -0.8438 -0.5542
 8229SOL     OW36148   1.630   1.573   0.183 -0.3259 -0.6584 -0.4952
 8229SOL    HW136149   1.715   1.541   0.211 -1.2224 -1.8792  0.8461
 8229SOL    HW236150   1.635   1.574   0.088  1.1950 -0.7807 -0.4060
 8230SOL     OW36151   3.955   0.334  17.543 -0.2154  0.5093 -0.3525
 8230SOL    HW136152   3.994   0.283  17.471  0.4337 -0.2404  0.5326
 8230SOL    HW236153   3.996   0.421  17.534 -0.1571  0.8335  3.0599
 8231SOL     OW36154   1.985   2.017   3.073 -0.5871 -0.2480 -0.3389
 8231SOL    HW136155   1.926   1.944   3.092 -1.5884 -0.0590 -2.7202
 8231SOL    HW236156   2.025   1.984   2.992  0.1624  0.3119 -0.1934
 8232SOL     OW36157   4.405   3.566   7.024  0.1254 -0.1664  0.2751
 8232SOL    HW136158   4.465   3.573   6.949  1.0577  1.4058  1.1451
 8232SOL    HW236159   4.431   3.483   7.063  2.9732  0.6131  0.0515
 8233SOL     OW36160   1.464   0.024   5.022  0.0383 -0.1738 -0.6713
 8233SOL    HW136161   1.466   0.116   4.996  2.0940 -0.8113 -2.6815
 8233SOL    HW236162   1.538   0.023   5.083 -0.5992 -0.1417  0.1068
 8234SOL     OW36163   1.597   4.279   0.038 -0.3270 -0.1613  0.1285
 8234SOL    HW136164   1.558   4.313  17.660 -0.8732 -0.2626  0.3489
 8234SOL    HW236165   1.651   4.349   0.073 -1.2624  0.6622 -0.0822
 8235SOL     OW36166   2.840   1.092  16.478 -0.5147  0.0508 -0.4238
 8235SOL    HW136167   2.794   1.162  16.523 -0.0027 -0.4541  0.8781
 8235SOL    HW236168   2.764   1.033  16.475 -0.9890  0.6816 -0.9456
 8236SOL     OW36169   4.045   1.274   4.763 -0.2844 -0.5667  0.2409
 8236SOL    HW136170   4.108   1.307   4.827 -0.9579  0.3503  0.4390
 8236SOL    HW236171   3.968   1.316   4.802  0.5719  0.0785  1.2276
 8237SOL     OW36172   2.254   4.046   1.882  0.8557 -0.2945  0.9806
 8237SOL    HW136173   2.247   4.089   1.796 -1.3140 -1.8474  0.3886
 8237SOL    HW236174   2.167   4.021   1.912  1.2709 -1.0150  1.5543
 8238SOL     OW36175   0.110   3.947   2.547 -0.2323  0.7945  0.2014
 8238SOL    HW136176   0.063   3.956   2.630  0.7561 -2.4217  1.1057
 8238SOL    HW236177   0.195   3.976   2.578  0.2737 -0.9467  0.4538
 8239SOL     OW36178   1.166   0.125   8.594 -0.7685 -0.3720  0.4130
 8239SOL    HW136179   1.228   0.090   8.658  0.7015 -1.9494 -1.8698
 8239SOL    HW236180   1.222   0.132   8.517  0.2660 -1.3425  1.0802
 8240SOL     OW36181   0.079   3.569  10.980 -0.2920  0.4595  0.0414
 8240SOL    HW136182   0.144   3.543  11.045 -0.0968  1.4854  0.2435
 8240SOL    HW236183   0.047   3.652  11.016  1.4472  0.9489  0.4751
 8241SOL     OW36184   4.213   4.109   4.213 -0.3257 -0.0710 -0.2954
 8241SOL    HW136185   4.215   4.181   4.276  2.6927 -2.2602  2.0918
 8241SOL    HW236186   4.285   4.140   4.157  0.0139  1.1488  0.8162
 8242SOL     OW36187   0.723   0.747   6.686  0.4535  0.0938  0.4558
 8242SOL    HW136188   0.705   0.655   6.664  2.1250 -0.2853  0.6476
 8242SOL    HW236189   0.685   0.763   6.773  0.0316  1.9026 -0.0638
 8243SOL     OW36190   1.805   3.648   0.519 -0.1533 -0.4733 -0.0900
 8243SOL    HW136191   1.737   3.700   0.475  1.3782  1.1388 -0.5631
 8243SOL    HW236192   1.858   3.614   0.447  2.5586 -2.1145  2.6565
 8244SOL     OW36193   1.110   4.239   5.119 -0.1955  0.7266  0.2023
 8244SOL    HW136194   1.078   4.176   5.183  2.3435 -0.6541  0.1309
 8244SOL    HW236195   1.143   4.306   5.179 -0.7357 -0.4695  1.8319
 8245SOL     OW36196   4.542   3.924   5.375  0.2130 -0.2954 -0.1084
 8245SOL    HW136197   4.501   3.952   5.457 -1.8804 -1.6228 -0.7121
 8245SOL    HW236198   4.592   4.000   5.346  0.0251  0.8874  2.6505
 8246SOL     OW36199   0.771   3.352   7.312 -0.0182 -0.1237 -0.1473
 8246SOL    HW136200   0.714   3.394   7.376  0.8078  1.7037 -0.6180
 8246SOL    HW236201   0.803   3.277   7.363 -1.9948 -0.0139  1.2852
 8247SOL     OW36202   3.118   4.013   4.567  0.1650 -0.5608 -0.0966
 8247SOL    HW136203   3.205   4.033   4.533 -0.9344 -1.2570 -3.3310
 8247SOL    HW236204   3.138   3.943   4.629 -4.4320 -0.9654  0.9618
 8248SOL     OW36205   2.911   2.645  12.329 -0.2556 -0.0208  0.1087
 8248SOL    HW136206   2.894   2.718  12.269  1.9173 -0.4189 -0.9764
 8248SOL    HW236207   2.878   2.678  12.412 -0.6036  1.8710 -0.7915
 8249SOL     OW36208   2.967   1.491   7.351  0.4808  0.0875  0.2841
 8249SOL    HW136209   3.028   1.476   7.423  0.1443 -0.2321  0.5050
 8249SOL    HW236210   2.932   1.580   7.352  0.1980 -0.0242  0.3482
 8250SOL     OW36211   0.701   2.360   6.990  0.1270 -0.8477  0.0436
 8250SOL    HW136212   0.659   2.433   7.035 -1.2505 -1.8976  0.4501
 8250SOL    HW236213   0.725   2.401   6.907 -1.3842  0.9315  0.4812
 8251SOL     OW36214   3.301   3.536   6.439 -0.3586  0.3341  0.3216
 8251SOL    HW136215   3.293   3.441   6.434 -2.6030  0.5567 -0.2549
 8251SOL    HW236216   3.206   3.545   6.442 -0.3625 -0.3957  2.4180
 8252SOL     OW36217   4.157   4.086   1.491  0.0526  0.0491 -0.1718
 8252SOL    HW136218   4.112   4.024   1.434 -0.2506 -1.3427  1.5862
 8252SOL    HW236219   4.080   4.133   1.522  1.0183  0.8747  0.9919
 8253SOL     OW36220   1.749   1.149  14.839 -0.3284 -0.4927 -0.0241
 8253SOL    HW136221   1.820   1.147  14.775  0.0253  0.5491  0.3217
 8253SOL    HW236222   1.712   1.237  14.831  0.7359 -0.0889 -0.4880
 8254SOL     OW36223   4.501   1.806   3.202  0.7941  0.3285 -0.2344
 8254SOL    HW136224   4.476   1.898   3.206 -1.8415 -0.3491 -0.9002
 8254SOL    HW236225   4.597   1.807   3.199  0.8226  1.0075  0.6768
 8255SOL     OW36226   0.999   2.953   1.063 -0.6341 -0.0963  0.7869
 8255SOL    HW136227   1.086   2.933   1.098 -0.8859 -2.1974  0.2208
 8255SOL    HW236228   0.981   3.023   1.126 -2.0547 -0.2181  0.5211
 8256SOL     OW36229   0.265   4.145   8.750  0.3816  0.0049  0.3699
 8256SOL    HW136230   0.200   4.126   8.818  0.2691  1.6622  0.7327
 8256SOL    HW236231   0.331   4.202   8.790  0.3353  0.4536 -0.1870
 8257SOL     OW36232   1.154   0.627   3.120  0.4774  0.3157 -0.2268
 8257SOL    HW136233   1.138   0.721   3.133  1.9328  0.3492  1.4059
 8257SOL    HW236234   1.085   0.606   3.058 -0.2333 -0.1395  0.7124
 8258SOL     OW36235   3.492   0.503   5.387  0.3608 -0.5335  0.1718
 8258SOL    HW136236   3.492   0.438   5.317 -1.2893 -1.3071  0.8727
 8258SOL    HW236237   3.582   0.536   5.383  0.0046  0.4585  0.1649
 8259SOL     OW36238   1.784   0.514   4.560  0.0368  0.1824 -0.3016
 8259SOL    HW136239   1.868   0.519   4.605 -0.0348 -0.3967 -0.0986
 8259SOL    HW236240   1.722   0.517   4.633  0.3900 -1.0473  0.0476
 8260SOL     OW36241   3.725   2.917   0.911  0.1674 -0.3246 -0.3707
 8260SOL    HW136242   3.667   2.937   0.838  1.3426  1.9949 -0.6500
 8260SOL    HW236243   3.749   2.827   0.889 -0.6220 -1.0769  1.8457
 8261SOL     OW36244   2.506   2.011   7.098 -0.3811 -0.3099 -0.2941
 8261SOL    HW136245   2.529   1.957   7.173 -2.9367  0.2422  0.8908
 8261SOL    HW236246   2.534   2.100   7.118  0.3026 -0.9410  1.5242
 8262SOL     OW36247   2.432   2.133   3.844  0.0829 -0.1430 -0.4778
 8262SOL    HW136248   2.490   2.059   3.826  1.3916  0.9768 -0.8971
 8262SOL    HW236249   2.347   2.092   3.860  0.9465 -1.1120  1.5960
 8263SOL     OW36250   1.137   3.421   3.323  0.1713 -0.0579  0.3574
 8263SOL    HW136251   1.129   3.383   3.236  2.2262  0.2864  0.0223
 8263SOL    HW236252   1.130   3.514   3.304 -2.1571 -0.1781  0.5431
 8264SOL     OW36253   2.568   0.035   7.060  0.4576  0.0309  0.4924
 8264SOL    HW136254   2.512   4.690   7.028  1.1610  0.0382 -0.7575
 8264SOL    HW236255   2.533   0.116   7.023 -0.7699 -0.6467  0.1895
 8265SOL     OW36256   2.577   0.260   8.076  0.1679  0.4011 -0.3367
 8265SOL    HW136257   2.600   0.170   8.053  1.5924  0.0890  2.3445
 8265SOL    HW236258   2.658   0.279   8.124 -0.0898 -1.7976  0.9418
 8266SOL     OW36259   0.366   1.532   8.475 -0.2756 -0.6498  0.0697
 8266SOL    HW136260   0.443   1.557   8.425  0.5504  3.1566  3.2597
 8266SOL    HW236261   0.407   1.460   8.524  0.2058 -0.2574  0.2447
 8267SOL     OW36262   1.897   1.259   8.016  0.2058 -0.3437 -0.0774
 8267SOL    HW136263   1.972   1.314   8.039 -0.6129  1.2194 -1.1344
 8267SOL    HW236264   1.882   1.205   8.093 -0.2648  0.1642  0.1865
 8268SOL     OW36265   1.302   0.464   7.971  0.2057 -0.5010 -0.0391
 8268SOL    HW136266   1.268   0.516   8.044  0.8086  0.9286 -0.7742
 8268SOL    HW236267   1.385   0.503   7.946  0.8346 -0.3837  2.2380
 8269SOL     OW36268   1.457   2.242  10.504 -0.6288 -0.2570  0.4030
 8269SOL    HW136269   1.388   2.209  10.562 -1.7172  1.3823  0.0453
 8269SOL    HW236270   1.432   2.334  10.495 -1.6452 -0.7373 -1.5936
 8270SOL     OW36271   4.291   2.518   4.005 -0.2205 -0.0765 -0.8740
 8270SOL    HW136272   4.367   2.571   3.980  0.6379 -1.2945 -0.8603
 8270SOL    HW236273   4.332   2.432   3.994  0.5613  0.3255 -1.1134
 8271SOL     OW36274   3.539   4.197  15.801 -0.6072 -0.2810 -0.0682
 8271SOL    HW136275   3.523   4.199  15.896  2.4331 -0.8883  0.4533
 8271SOL    HW236276   3.494   4.267  15.754 -1.6134  0.8895  2.6288
 8272SOL     OW36277   2.008   1.151   9.309  0.0483 -0.1197  0.6349
 8272SOL    HW136278   2.090   1.198   9.326 -0.7925  1.9920 -1.1769
 8272SOL    HW236279   1.979   1.142   9.400 -4.4847  0.6445 -0.7611
 8273SOL     OW36280   0.309   3.446  15.518 -0.4325 -0.5882  0.2739
 8273SOL    HW136281   0.267   3.366  15.549 -1.6620  1.2371  3.2764
 8273SOL    HW236282   0.305   3.498  15.598  1.5650 -1.1823  0.7552
 8274SOL     OW36283   2.883   4.438  13.925  0.3562 -0.2173  0.2908
 8274SOL    HW136284   2.947   4.494  13.882 -0.8438  0.2570 -0.8649
 8274SOL    HW236285   2.936   4.382  13.983  0.2102 -0.6814 -0.0264
 8275SOL     OW36286   3.482   0.149   5.452  0.2734 -0.5807 -0.0126
 8275SOL    HW136287   3.557   0.138   5.394  0.8721 -0.0040  0.6501
 8275SOL    HW236288   3.483   0.066   5.499 -1.2450 -0.0763  0.9047
 8276SOL     OW36289   4.397   1.438   3.598  0.1802 -0.3447  0.0729
 8276SOL    HW136290   4.385   1.348   3.567 -2.8488  0.3874 -0.9013
 8276SOL    HW236291   4.401   1.492   3.519 -1.4709  0.9768  0.8734
 8277SOL     OW36292   3.018   3.936   6.517 -0.2619  0.3582  0.2970
 8277SOL    HW136293   2.952   3.868   6.504 -0.9505  0.9083  0.9062
 8277SOL    HW236294   3.092   3.893   6.560  0.9282  2.5100  0.4064
 8278SOL     OW36295   1.606   0.574   5.299  0.1655 -0.2964 -0.2640
 8278SOL    HW136296   1.632   0.662   5.328 -0.7393 -0.0783 -0.1037
 8278SOL    HW236297   1.690   0.530   5.311 -0.3604 -1.1917  0.1387
 8279SOL     OW36298   2.002   4.147  12.676  0.0923 -0.1598  0.1975
 8279SOL    HW136299   2.045   4.228  12.702  0.9537  0.3128 -2.6652
 8279SOL    HW236300   2.068   4.079  12.692 -0.3032 -0.8535 -1.1003
 8280SOL     OW36301   2.234   0.985   6.787  0.1338 -0.0472  0.3361
 8280SOL    HW136302   2.319   0.943   6.782 -0.3667 -1.1601  1.1590
 8280SOL    HW236303   2.184   0.971   6.707  0.4916 -0.1841  0.1356
 8281SOL     OW36304   3.465   0.111  13.100 -0.2030 -0.3492  0.0915
 8281SOL    HW136305   3.443   0.034  13.153  1.6389 -1.1735 -0.3425
 8281SOL    HW236306   3.508   0.067  13.026 -0.8631 -0.5566 -0.1752
 8282SOL     OW36307   4.552   3.974   7.944  0.1064 -0.0796 -0.3372
 8282SOL    HW136308   4.520   3.964   7.855  0.8030 -1.8649 -0.3860
 8282SOL    HW236309   4.631   3.920   7.940 -0.6324 -1.2711  1.0535
 8283SOL     OW36310   0.013   0.154   3.447 -0.0152  0.0809  0.1969
 8283SOL    HW136311   0.019   0.088   3.379  1.0263  0.1093  0.2693
 8283SOL    HW236312   0.064   0.115   3.518 -0.1498  0.6358  0.6056
 8284SOL     OW36313   2.956   2.443   2.212  0.0542 -0.5524  0.3223
 8284SOL    HW136314   3.020   2.511   2.191 -1.4149  0.5836 -0.4890
 8284SOL    HW236315   3.011   2.391   2.270  1.0856  0.9555  0.7004
 8285SOL     OW36316   4.356   1.363   6.753  0.0147 -0.3835  0.3107
 8285SOL    HW136317   4.409   1.343   6.676 -0.4027 -2.6954  0.6143
 8285SOL    HW236318   4.267   1.348   6.720  0.1852 -0.3602 -0.1551
 8286SOL     OW36319   0.172   0.649   9.260  0.0282  0.3426  0.4351
 8286SOL    HW136320   0.260   0.613   9.259 -0.7793 -1.6368  0.5218
 8286SOL    HW236321   0.161   0.627   9.352 -0.8927 -1.2538 -0.0416
 8287SOL     OW36322   0.477   0.152   7.394  0.3950 -0.1278 -0.5766
 8287SOL    HW136323   0.398   0.146   7.449  0.9946 -2.2136  0.0563
 8287SOL    HW236324   0.439   0.145   7.306  1.9357 -3.4828 -0.9943
 8288SOL     OW36325   3.557   2.801  12.073 -0.1692 -0.0103 -0.2128
 8288SOL    HW136326   3.624   2.829  12.010 -0.5659  0.6801 -0.3217
 8288SOL    HW236327   3.608   2.766  12.146  1.1676  1.2732 -0.5183
 8289SOL     OW36328   2.110   1.507   7.328 -0.1946  0.2248  0.2994
 8289SOL    HW136329   2.186   1.565   7.327 -0.3126  0.3463 -1.5832
 8289SOL    HW236330   2.145   1.433   7.278 -2.2567  0.1483 -0.9873
 8290SOL     OW36331   2.783   1.026   2.413 -0.3455 -0.0791  0.4177
 8290SOL    HW136332   2.794   0.965   2.487 -2.5150 -1.0339 -0.0544
 8290SOL    HW236333   2.804   1.110   2.454  0.0865 -0.0653  0.1715
 8291SOL     OW36334   3.292   1.600  14.962 -0.1418 -0.0800 -0.0086
 8291SOL    HW136335   3.378   1.641  14.970 -0.8898  1.3706  0.6094
 8291SOL    HW236336   3.283   1.591  14.867 -1.0522  2.2538 -0.1411
 8292SOL     OW36337   0.631   0.880   9.978 -0.8082  0.6308  0.0347
 8292SOL    HW136338   0.559   0.820   9.961 -0.0397 -0.5330  0.9083
 8292SOL    HW236339   0.626   0.932   9.898  0.0209  1.9424  0.8373
 8293SOL     OW36340   4.369   3.076   3.975 -0.6717 -0.3794 -0.5479
 8293SOL    HW136341   4.290   3.130   3.970  0.0000  0.5004 -1.8137
 8293SOL    HW236342   4.410   3.111   4.054 -0.5227  0.1461 -0.8572
 8294SOL     OW36343   4.385   0.015   7.449 -0.1598  0.0805  0.2478
 8294SOL    HW136344   4.473   4.715   7.479  0.1202 -1.2777 -1.6874
 8294SOL    HW236345   4.338   4.657   7.447  1.3522 -0.7510 -0.7971
 8295SOL     OW36346   1.219   2.367   8.748  0.3225 -0.1806  0.8562
 8295SOL    HW136347   1.237   2.453   8.712  0.2216 -1.0999 -1.3743
 8295SOL    HW236348   1.295   2.361   8.807 -0.0978  0.4912  1.4668
 8296SOL     OW36349   0.771   0.712   9.345 -0.0542  0.3795 -0.0190
 8296SOL    HW136350   0.824   0.675   9.274  1.7281  1.5885  0.6875
 8296SOL    HW236351   0.846   0.745   9.394 -0.3875  0.2495  0.5854
 8297SOL     OW36352   1.699   2.403  10.483 -0.5042  0.2905 -0.1875
 8297SOL    HW136353   1.677   2.495  10.468  0.6816  0.3734 -1.3971
 8297SOL    HW236354   1.633   2.384  10.550 -0.3167 -1.0638 -0.3792
 8298SOL     OW36355   2.078   3.484   5.942 -0.0230 -0.1743 -0.1806
 8298SOL    HW136356   2.096   3.477   5.849 -0.4205 -0.5133 -0.2290
 8298SOL    HW236357   1.983   3.482   5.949  0.2560 -1.4155  3.4885
 8299SOL     OW36358   0.126   3.414   6.038  0.0930 -0.1922  0.5183
 8299SOL    HW136359   0.197   3.369   5.992 -0.8260  0.4649 -1.5166
 8299SOL    HW236360   0.054   3.356   6.012  0.5188 -1.0505  1.2474
 8300SOL     OW36361   1.194   3.160   8.918  0.3377  0.3688  0.0363
 8300SOL    HW136362   1.230   3.109   8.990  0.1965 -0.5745 -0.5674
 8300SOL    HW236363   1.272   3.210   8.897 -0.5944  1.7162 -0.2464
 8301SOL     OW36364   0.979   2.770  16.483  0.1436 -0.0261  0.0247
 8301SOL    HW136365   1.007   2.680  16.503 -1.1480 -0.5501 -0.5605
 8301SOL    HW236366   1.061   2.797  16.442  0.2076 -2.6919 -1.6049
 8302SOL     OW36367   2.181   0.795   7.454 -0.2920 -0.2315 -0.2807
 8302SOL    HW136368   2.130   0.810   7.534 -2.0040 -0.2000 -1.3754
 8302SOL    HW236369   2.253   0.757   7.503 -0.0471  0.6853  0.0705
 8303SOL     OW36370   3.610   0.245   3.268  0.6647  0.0831  0.3701
 8303SOL    HW136371   3.689   0.213   3.312  0.4792 -0.5291  0.2524
 8303SOL    HW236372   3.538   0.203   3.315  0.3347 -0.8697 -0.9891
 8304SOL     OW36373   2.505   3.839  11.446 -0.2551 -0.7261 -1.1881
 8304SOL    HW136374   2.587   3.847  11.495 -0.7075  1.2123 -0.7166
 8304SOL    HW236375   2.516   3.875  11.358  2.8169 -1.3372 -1.0512
 8305SOL     OW36376   2.505   2.034  10.749 -0.4188  0.2977 -0.0932
 8305SOL    HW136377   2.436   2.009  10.687 -1.3661  1.1757  0.5998
 8305SOL    HW236378   2.467   2.117  10.777 -0.8957  0.3870 -0.9910
 8306SOL     OW36379   4.587   2.194   5.383  0.1409  0.0983  0.0808
 8306SOL    HW136380   4.514   2.235   5.336 -0.8042 -0.4439  1.0885
 8306SOL    HW236381   4.637   2.157   5.310 -2.0454 -0.5199 -1.1177
 8307SOL     OW36382   4.616   0.343   2.452  0.1112  0.4643  0.4101
 8307SOL    HW136383   4.548   0.275   2.460  0.5079  0.2499  1.9068
 8307SOL    HW236384   4.691   0.303   2.496  1.2694  1.3726 -0.7844
 8308SOL     OW36385   0.621   0.331  12.415 -1.0833 -0.5758 -0.0741
 8308SOL    HW136386   0.604   0.402  12.353  1.9613 -0.8648 -1.2252
 8308SOL    HW236387   0.560   0.343  12.487 -1.4044  2.1458 -0.8195
 8309SOL     OW36388   2.316   4.186   2.684  0.3937 -0.0522 -0.1104
 8309SOL    HW136389   2.341   4.101   2.721  1.1514  0.1745 -0.1252
 8309SOL    HW236390   2.222   4.176   2.702  0.0638  1.9738 -0.6869
 8310SOL     OW36391   3.058   2.644   4.843 -0.2780 -0.1639 -0.1681
 8310SOL    HW136392   2.982   2.699   4.822 -2.0511 -2.6076 -0.1793
 8310SOL    HW236393   3.066   2.590   4.765  0.7848 -0.6615  0.2847
 8311SOL     OW36394   4.091   0.823   3.621  0.0362  0.4169 -0.0066
 8311SOL    HW136395   4.062   0.888   3.557 -0.9798 -0.5226 -0.5039
 8311SOL    HW236396   4.139   0.765   3.562  0.0640 -0.6691  1.0880
 8312SOL     OW36397   0.962   2.182   5.391  0.1239 -0.0720 -0.0473
 8312SOL    HW136398   1.031   2.189   5.325 -0.7035 -1.3765 -1.0448
 8312SOL    HW236399   0.904   2.122   5.344 -0.0100  0.9766 -1.2271
 8313SOL     OW36400   3.933   2.757   6.660 -0.2826 -0.1592  0.5614
 8313SOL    HW136401   3.978   2.831   6.701  2.6043 -1.5570 -0.0252
 8313SOL    HW236402   3.996   2.722   6.596  0.1770 -1.3780  1.6913
 8314SOL     OW36403   1.815   1.537   5.253 -0.0234  0.4473 -0.5613
 8314SOL    HW136404   1.883   1.521   5.319 -1.3407 -1.0625  0.4310
 8314SOL    HW236405   1.741   1.570   5.305 -0.2924 -0.8506 -0.1347
 8315SOL     OW36406   1.256   3.389   4.721 -0.4779 -0.3085  0.1020
 8315SOL    HW136407   1.321   3.454   4.747  0.5607 -1.4805  0.4470
 8315SOL    HW236408   1.182   3.436   4.684  1.7013  2.4755 -0.7286
 8316SOL     OW36409   0.958   0.148   6.439 -0.5618 -0.0027 -0.0245
 8316SOL    HW136410   0.993   0.195   6.362  0.5114  0.2427  0.6070
 8316SOL    HW236411   0.995   0.191   6.516 -0.3626 -0.5554  0.1851
 8317SOL     OW36412   0.714   1.820  10.714 -1.2179  0.4472 -0.4158
 8317SOL    HW136413   0.696   1.742  10.662 -2.5490  1.5929 -1.6803
 8317SOL    HW236414   0.629   1.830  10.756 -2.0524 -1.0462 -1.7540
 8318SOL     OW36415   1.633   4.706  16.882  0.0030  0.5822 -0.1628
 8318SOL    HW136416   1.698   0.008  16.817 -0.8346  0.8481 -0.8829
 8318SOL    HW236417   1.691   4.707  16.959 -2.4213 -1.1298  1.6663
 8319SOL     OW36418   2.983   3.290   2.922 -0.2584 -0.1163  0.2366
 8319SOL    HW136419   3.024   3.372   2.895  0.5182 -0.3464  0.7231
 8319SOL    HW236420   2.931   3.265   2.846 -0.0567 -1.4306  0.5420
 8320SOL     OW36421   2.538   0.986   8.163 -0.2521  0.2666 -0.0191
 8320SOL    HW136422   2.570   0.911   8.212  1.7248  0.9927 -0.1663
 8320SOL    HW236423   2.544   1.065   8.216  1.1350  1.5430 -2.0525
 8321SOL     OW36424   0.001   2.206  16.630 -0.2482  0.0018 -0.0289
 8321SOL    HW136425   4.680   2.127  16.605 -2.5003  1.0998  0.7131
 8321SOL    HW236426   4.706   2.219  16.722  1.1375  0.5904  0.1980
 8322SOL     OW36427   0.244   1.954   5.217  0.0929 -0.0073 -0.0167
 8322SOL    HW136428   0.182   2.025   5.202  0.6757  0.9684  2.1192
 8322SOL    HW236429   0.236   1.902   5.137 -1.8698 -0.2334  0.3359
 8323SOL     OW36430   3.173   0.475   4.513  0.2913  0.0480 -0.2547
 8323SOL    HW136431   3.210   0.554   4.552  2.2136 -2.5808  3.2902
 8323SOL    HW236432   3.146   0.501   4.425 -0.3380 -2.1863 -0.7282
 8324SOL     OW36433   3.791   4.686  14.800 -0.1620  0.3037  0.0046
 8324SOL    HW136434   3.876   4.644  14.786 -0.8535 -0.9711 -0.3523
 8324SOL    HW236435   3.818   0.025  14.865 -2.1660 -0.7921  1.9118
 8325SOL     OW36436   1.001   2.369  17.534  1.1996  0.3984 -0.2416
 8325SOL    HW136437   0.962   2.366  17.621 -1.8063  0.1287 -1.5968
 8325SOL    HW236438   0.986   2.461  17.510 -2.6372 -0.7453 -2.1652
 8326SOL     OW36439   3.787   3.370  12.110 -0.7984  0.3609 -0.2914
 8326SOL    HW136440   3.777   3.458  12.146  0.7807  0.9156 -1.1895
 8326SOL    HW236441   3.702   3.330  12.128 -0.1470 -0.6097  0.6321
 8327SOL     OW36442   1.211   0.371   4.177  0.0411  0.0364  0.1023
 8327SOL    HW136443   1.206   0.292   4.124 -1.1438  1.8358 -2.4491
 8327SOL    HW236444   1.283   0.422   4.140 -0.6393 -0.9097 -2.4844
 8328SOL     OW36445   3.729   2.659   8.451  0.7132  0.4037  0.6612
 8328SOL    HW136446   3.733   2.698   8.538  0.8261  1.5990  0.1224
 8328SOL    HW236447   3.820   2.661   8.424  0.7691 -0.3472  0.7909
 8329SOL     OW36448   4.333   0.078  14.941 -0.3902  0.1417  0.7291
 8329SOL    HW136449   4.276   0.002  14.954  0.9009 -0.8469  0.6003
 8329SOL    HW236450   4.336   0.077  14.845  0.3279 -0.9139  0.7605
 8330SOL     OW36451   1.808   1.750  16.360 -0.1532 -0.0046  0.2213
 8330SOL    HW136452   1.881   1.720  16.306 -0.4411 -1.5394  0.6990
 8330SOL    HW236453   1.770   1.821  16.308  0.4135  1.6191  2.0274
 8331SOL     OW36454   3.068   1.504   4.119 -0.3842  0.4734  0.0987
 8331SOL    HW136455   3.123   1.521   4.042 -0.5423  2.4868  0.4148
 8331SOL    HW236456   3.048   1.595   4.141 -0.9702  0.6268 -1.0391
 8332SOL     OW36457   2.066   2.441   0.927 -0.1801 -0.5968  0.1329
 8332SOL    HW136458   2.158   2.438   0.900  0.0376  0.4512  0.7516
 8332SOL    HW236459   2.073   2.439   1.022 -1.1652  1.1104  0.2356
 8333SOL     OW36460   0.142   0.409   4.311  0.2531  0.0797 -0.2813
 8333SOL    HW136461   0.233   0.437   4.305  0.3337  0.5633  2.7221
 8333SOL    HW236462   0.105   0.470   4.247 -1.0392 -0.9434 -0.5030
 8334SOL     OW36463   1.421   0.957   8.097  0.0241  0.6309 -0.0075
 8334SOL    HW136464   1.367   0.938   8.020 -0.8069  0.0562  0.7215
 8334SOL    HW236465   1.408   1.052   8.102 -2.9552  0.3427 -2.2480
 8335SOL     OW36466   4.628   1.381   4.518 -0.9480  0.7103  0.0426
 8335SOL    HW136467   4.561   1.436   4.477 -0.4883  0.1162 -1.4909
 8335SOL    HW236468   4.566   1.311   4.539  1.4065 -0.9503  1.4274
 8336SOL     OW36469   1.729   0.602   9.013 -0.7934  0.3503  0.3221
 8336SOL    HW136470   1.658   0.577   9.072 -1.7868  1.2178 -0.4891
 8336SOL    HW236471   1.761   0.517   8.983 -1.5893  0.0242  0.4025
 8337SOL     OW36472   0.257   4.597  15.352 -0.2313  0.7803  0.0600
 8337SOL    HW136473   0.265   4.575  15.444 -2.1094 -1.5879 -0.3481
 8337SOL    HW236474   0.258   4.693  15.357 -1.8034  0.8885 -1.5965
 8338SOL     OW36475   1.545   2.414   8.271  0.3259  0.2366  0.5228
 8338SOL    HW136476   1.498   2.331   8.273  0.6340  0.0180 -1.1019
 8338SOL    HW236477   1.467   2.470   8.279 -0.0640 -0.6159  2.5682
 8339SOL     OW36478   3.984   1.501  10.008 -0.5582 -0.4999  0.2812
 8339SOL    HW136479   4.033   1.472  10.086 -1.8309 -2.0015  0.5154
 8339SOL    HW236480   4.036   1.452   9.944 -0.2633 -0.4427  0.4761
 8340SOL     OW36481   4.389   2.334   3.687 -0.1248 -0.1437  0.0301
 8340SOL    HW136482   4.428   2.416   3.658 -0.0330  0.1062  0.8663
 8340SOL    HW236483   4.361   2.304   3.600 -1.7306  3.2125 -0.5933
 8341SOL     OW36484   3.776   0.621   7.788  0.2063  0.5458 -0.5636
 8341SOL    HW136485   3.816   0.542   7.751 -0.3312 -0.3843  0.8705
 8341SOL    HW236486   3.816   0.617   7.874  0.7209 -0.5630 -0.8460
 8342SOL     OW36487   2.016   4.175   2.122  0.1042 -0.5165  0.1412
 8342SOL    HW136488   1.995   4.250   2.066  2.5297 -1.4751 -2.0237
 8342SOL    HW236489   1.973   4.104   2.075 -1.4712  0.2035  0.4811
 8343SOL     OW36490   2.443   4.373   3.602  0.0095 -0.0959  0.1104
 8343SOL    HW136491   2.485   4.388   3.687  2.4976  0.1546 -1.1694
 8343SOL    HW236492   2.452   4.278   3.602 -1.1006 -0.2097  2.6976
 8344SOL     OW36493   1.593   2.083   2.132 -0.0492 -0.1388 -0.1565
 8344SOL    HW136494   1.503   2.097   2.162  0.2289 -0.6291  0.9142
 8344SOL    HW236495   1.643   2.107   2.210  1.8056  1.6666 -1.9182
 8345SOL     OW36496   2.176   0.891  17.549  0.7718 -0.6850 -0.1774
 8345SOL    HW136497   2.171   0.795  17.543  1.4453 -0.8664  1.9405
 8345SOL    HW236498   2.211   0.909  17.462 -0.7200  1.5043 -0.3000
 8346SOL     OW36499   2.306   1.525   8.931  0.7263  0.6056 -0.5849
 8346SOL    HW136500   2.383   1.520   8.988 -0.5963 -1.2836  1.0607
 8346SOL    HW236501   2.317   1.609   8.887  1.1413  0.9517  0.1824
 8347SOL     OW36502   3.581   0.362   6.842  0.7833  0.0806 -0.4950
 8347SOL    HW136503   3.618   0.329   6.760 -0.0152 -0.6831 -0.5487
 8347SOL    HW236504   3.516   0.422   6.807  2.2883  2.6967  1.1883
 8348SOL     OW36505   3.777   0.582   1.813  0.1728  0.1805 -0.1525
 8348SOL    HW136506   3.784   0.674   1.836 -1.5616 -0.2584  2.2243
 8348SOL    HW236507   3.684   0.572   1.834  0.8328 -3.2326  1.2504
 8349SOL     OW36508   3.331   0.337   8.144 -0.4407  0.2965 -0.1998
 8349SOL    HW136509   3.364   0.247   8.142  0.7134  0.7127  0.2882
 8349SOL    HW236510   3.243   0.313   8.172 -0.0286 -0.2980  0.5763
 8350SOL     OW36511   1.940   2.911   2.267  0.0357 -0.4649  0.0819
 8350SOL    HW136512   1.916   3.004   2.275 -1.6960 -0.9681  0.7176
 8350SOL    HW236513   1.854   2.870   2.271 -0.0016 -0.3121  0.9204
 8351SOL     OW36514   0.917   4.482  15.584  0.1226 -0.6061 -0.3372
 8351SOL    HW136515   0.904   4.401  15.535  0.2654 -0.8759  0.0641
 8351SOL    HW236516   1.013   4.477  15.585  0.2269  1.2027 -1.8344
 8352SOL     OW36517   3.548   4.507   1.071 -0.9426 -0.7757  0.0283
 8352SOL    HW136518   3.521   4.521   1.162 -1.6462  0.7645 -0.4169
 8352SOL    HW236519   3.556   4.413   1.056  1.0623 -0.7438  0.9818
 8353SOL     OW36520   1.636   3.033   5.491 -0.1635 -0.0680  0.0005
 8353SOL    HW136521   1.602   3.011   5.404  1.5788  2.3112 -1.2556
 8353SOL    HW236522   1.574   3.100   5.519 -0.0775 -0.6921  1.6689
 8354SOL     OW36523   4.529   0.265   1.378  0.6424 -0.2707  0.0891
 8354SOL    HW136524   4.615   0.238   1.345  0.0722 -0.3021 -1.3560
 8354SOL    HW236525   4.547   0.351   1.416  0.1493 -0.2174  0.2008
 8355SOL     OW36526   2.176   2.308   6.578  0.1461  0.5650 -0.3890
 8355SOL    HW136527   2.226   2.320   6.659  1.6170 -0.4649 -1.1536
 8355SOL    HW236528   2.086   2.297   6.608  0.0883  0.4400 -0.6066
 8356SOL     OW36529   2.277   2.680   6.217 -0.0757 -0.7556  0.5579
 8356SOL    HW136530   2.370   2.686   6.238 -0.1675  3.2593 -0.2201
 8356SOL    HW236531   2.244   2.618   6.281  0.7846 -3.1382 -1.2967
 8357SOL     OW36532   0.531   3.151   6.645 -0.3422 -0.5217  0.4766
 8357SOL    HW136533   0.491   3.080   6.594  0.7935 -0.1913 -0.8733
 8357SOL    HW236534   0.450   3.200   6.655 -1.1552 -1.6240 -0.6217
 8358SOL     OW36535   1.760   0.161  10.596 -0.5451 -0.0153 -0.0009
 8358SOL    HW136536   1.673   0.120  10.592 -1.2871  1.4529  1.1190
 8358SOL    HW236537   1.739   0.210  10.676 -3.4943 -0.4636 -0.4946
 8359SOL     OW36538   0.999   2.977   9.408 -0.3233  0.1357  0.0613
 8359SOL    HW136539   1.027   2.918   9.479 -1.3005 -0.3669  0.0186
 8359SOL    HW236540   0.939   3.030   9.461 -0.5590  2.3212 -2.4123
 8360SOL     OW36541   1.318   1.239   8.710  0.4565  0.0915 -0.2808
 8360SOL    HW136542   1.344   1.196   8.629 -0.7189 -0.2388 -0.4853
 8360SOL    HW236543   1.361   1.181   8.772 -1.3857 -2.0322 -0.9629
 8361SOL     OW36544   0.562   3.028   3.690 -0.0035  0.1899 -0.4830
 8361SOL    HW136545   0.558   2.943   3.734  1.2716 -0.0152 -0.7669
 8361SOL    HW236546   0.604   2.994   3.611  0.3901 -1.7620  0.5517
 8362SOL     OW36547   2.125   0.920   8.323  0.4064  0.1009 -0.3657
 8362SOL    HW136548   2.176   0.993   8.358 -0.5629 -0.3026  1.9158
 8362SOL    HW236549   2.136   0.921   8.228  1.7923  0.5936 -0.1936
 8363SOL     OW36550   2.062   4.578  13.843  0.1573 -0.4063 -0.2451
 8363SOL    HW136551   2.126   4.647  13.861 -0.8090  0.9031 -1.8465
 8363SOL    HW236552   2.073   4.525  13.922  1.2739  1.3586  0.7916
 8364SOL     OW36553   2.633   4.309   7.733  0.0014 -0.5634  0.2229
 8364SOL    HW136554   2.539   4.316   7.744 -0.4155 -2.5720 -2.0495
 8364SOL    HW236555   2.664   4.306   7.823  0.4942 -1.0607  0.0373
 8365SOL     OW36556   1.998   2.983   9.363  0.5543  0.7025  0.2592
 8365SOL    HW136557   1.981   3.057   9.305 -0.2016  0.3855  0.0796
 8365SOL    HW236558   2.040   2.921   9.303  1.4439  2.2102 -0.7050
 8366SOL     OW36559   0.742   0.094   7.361  0.0573 -0.3937 -0.6342
 8366SOL    HW136560   0.653   0.117   7.386  0.3436  1.5734 -1.4453
 8366SOL    HW236561   0.744   0.128   7.272 -0.6948 -0.5746 -0.7147
 8367SOL     OW36562   3.009   1.639   9.769  0.2744  0.3887  0.3367
 8367SOL    HW136563   2.947   1.619   9.840  1.1388 -2.4092  0.3204
 8367SOL    HW236564   3.068   1.564   9.780 -1.0654 -0.6839  0.2737
 8368SOL     OW36565   1.237   1.287   4.698  0.5441 -0.1525  0.2585
 8368SOL    HW136566   1.279   1.357   4.748  2.4020 -0.9161 -0.2424
 8368SOL    HW236567   1.233   1.336   4.615 -1.4894  1.1110  1.1008
 8369SOL     OW36568   1.289   4.420  13.376 -0.3632  0.3431  0.0767
 8369SOL    HW136569   1.370   4.457  13.341  1.4004 -2.9397  0.7037
 8369SOL    HW236570   1.219   4.473  13.340 -0.9610  0.3159  1.1845
 8370SOL     OW36571   1.608   3.584   9.631 -0.0773  0.3548 -0.3935
 8370SOL    HW136572   1.687   3.567   9.683 -0.9431 -0.2966  0.7192
 8370SOL    HW236573   1.632   3.649   9.566  3.2049 -1.1041 -0.6363
 8371SOL     OW36574   4.530   1.818   7.285  0.1828  0.2508 -0.5740
 8371SOL    HW136575   4.593   1.848   7.220  0.4478 -0.9072 -0.8551
 8371SOL    HW236576   4.474   1.895   7.286  1.5464  1.2362  0.9212
 8372SOL     OW36577   3.447   4.210  13.754 -0.2217  0.4356 -0.0971
 8372SOL    HW136578   3.458   4.275  13.684 -0.8556 -1.1401 -1.6587
 8372SOL    HW236579   3.387   4.151  13.708  1.5499 -1.0997 -0.4618
 8373SOL     OW36580   4.017   3.514   8.905 -0.3001  0.3989  0.1392
 8373SOL    HW136581   4.030   3.426   8.869  1.5313 -0.1603  2.1337
 8373SOL    HW236582   3.997   3.497   8.997 -0.0601 -4.5150 -0.6976
 8374SOL     OW36583   0.707   3.271  16.766 -0.3696 -0.0901  0.3074
 8374SOL    HW136584   0.799   3.268  16.739 -0.4820 -2.2745  0.1592
 8374SOL    HW236585   0.693   3.178  16.785 -1.7653  0.4798  2.1203
 8375SOL     OW36586   3.033   2.538  10.447  0.7818 -0.8641  0.6255
 8375SOL    HW136587   3.010   2.610  10.389 -1.5308 -1.5408  0.7132
 8375SOL    HW236588   3.066   2.470  10.387  1.2802  0.3402 -0.4510
 8376SOL     OW36589   4.324   1.587   9.432  0.2955 -0.0754 -0.0146
 8376SOL    HW136590   4.322   1.494   9.455  1.0847  0.5192  2.4614
 8376SOL    HW236591   4.232   1.602   9.412  0.3268  0.1021 -0.0241
 8377SOL     OW36592   3.537   1.296   6.419  0.0166  0.1284  0.2227
 8377SOL    HW136593   3.586   1.292   6.336 -0.3860  1.7330 -0.0908
 8377SOL    HW236594   3.572   1.225   6.472  3.3104  0.9750 -0.7795
 8378SOL     OW36595   4.616   3.062   0.505  0.0421 -0.1934 -0.1283
 8378SOL    HW136596   4.644   3.118   0.577 -1.7802 -0.5182  0.8166
 8378SOL    HW236597   4.633   3.123   0.433  1.4808 -0.2399  0.1671
 8379SOL     OW36598   4.559   2.262   7.495 -0.2572 -0.3456 -0.0168
 8379SOL    HW136599   4.520   2.274   7.408  1.0434 -1.5705 -0.7549
 8379SOL    HW236600   4.588   2.171   7.486 -0.6115 -0.4693  0.0861
 8380SOL     OW36601   3.540   0.940   8.065  0.1010 -0.3118  0.2587
 8380SOL    HW136602   3.467   0.901   8.017  0.0258  0.7135 -0.4562
 8380SOL    HW236603   3.560   0.893   8.146  0.3614 -0.2443  0.2322
 8381SOL     OW36604   2.084   1.929   2.839  0.5456  0.4099  0.2214
 8381SOL    HW136605   2.111   1.997   2.778 -2.3848  0.3033 -1.1755
 8381SOL    HW236606   2.172   1.906   2.868  0.7732 -2.4925 -2.8238
 8382SOL     OW36607   2.865   4.112   4.242 -0.5175  0.3530 -0.3141
 8382SOL    HW136608   2.937   4.128   4.302 -0.7419 -0.7264  0.2468
 8382SOL    HW236609   2.846   4.018   4.252 -0.2230  0.2142 -1.0015
 8383SOL     OW36610   4.357   1.758  13.596  0.3309 -0.2432 -0.1811
 8383SOL    HW136611   4.266   1.766  13.625  0.9721  1.6816  1.3248
 8383SOL    HW236612   4.364   1.841  13.549 -1.8001 -0.3960 -0.7278
 8384SOL     OW36613   3.770   3.679   8.442 -0.0767  0.0382 -0.1911
 8384SOL    HW136614   3.828   3.748   8.409 -0.2440 -0.2699 -1.1141
 8384SOL    HW236615   3.837   3.635   8.495 -0.9629 -0.7218  0.2940
 8385SOL     OW36616   0.680   3.183   2.962  0.3174  0.0026 -0.0409
 8385SOL    HW136617   0.674   3.195   3.057  1.3201 -1.0921  0.1551
 8385SOL    HW236618   0.697   3.274   2.937  1.5813 -0.4601 -0.8608
 8386SOL     OW36619   0.420   3.919   6.398 -0.0034 -0.7570 -0.3237
 8386SOL    HW136620   0.357   3.989   6.413  0.6648 -0.5184  1.4037
 8386SOL    HW236621   0.366   3.856   6.350 -2.2313  0.0344  1.1585
 8387SOL     OW36622   1.175   1.776   9.558 -0.6092 -0.4259 -1.1127
 8387SOL    HW136623   1.263   1.739   9.560 -0.8977 -1.0753 -0.7622
 8387SOL    HW236624   1.168   1.806   9.649  2.6407  1.3234 -1.4217
 8388SOL     OW36625   3.128   1.096   3.028 -0.2714  0.0984 -0.1017
 8388SOL    HW136626   3.222   1.088   3.048  0.4633 -0.5497 -3.7771
 8388SOL    HW236627   3.118   1.191   3.033  0.1719  0.1081  0.6426
 8389SOL     OW36628   1.218   1.177   2.803 -0.3907  0.1083  0.1347
 8389SOL    HW136629   1.262   1.208   2.724  1.2438  1.0249  1.3993
 8389SOL    HW236630   1.190   1.264   2.831  0.3236  0.2461  0.4155
 8390SOL     OW36631   1.380   0.442  17.589  0.4118  0.4852 -0.2241
 8390SOL    HW136632   1.415   0.531  17.580  0.7564  0.3936  0.2305
 8390SOL    HW236633   1.343   0.438  17.677  1.4262  1.8235  0.2678
 8391SOL     OW36634   1.517   3.345   7.773  0.1040  0.1886  0.1272
 8391SOL    HW136635   1.539   3.252   7.777 -0.9058 -0.0704 -0.3428
 8391SOL    HW236636   1.423   3.345   7.793 -0.3580 -4.5389 -2.1252
 8392SOL     OW36637   1.286   0.010   2.492 -0.3153  0.1976 -0.2651
 8392SOL    HW136638   1.204   4.717   2.539 -1.7282 -0.6703 -3.0910
 8392SOL    HW236639   1.265   0.095   2.454 -2.7500 -0.3685 -0.1705
 8393SOL     OW36640   3.545   0.333   7.917 -0.4414 -0.6738  0.2157
 8393SOL    HW136641   3.582   0.317   8.003 -0.2803 -0.1729  0.2392
 8393SOL    HW236642   3.621   0.356   7.863  0.1473 -1.6485  0.6214
 8394SOL     OW36643   1.290   1.913   4.639  0.0586  0.3896  0.1628
 8394SOL    HW136644   1.258   1.855   4.569 -0.7231  0.0703  0.7825
 8394SOL    HW236645   1.369   1.865   4.663 -0.6136 -0.9918 -0.3395
 8395SOL     OW36646   0.695   3.444   8.316 -0.2775 -0.7153  0.0171
 8395SOL    HW136647   0.675   3.513   8.380  0.2816  1.7073 -2.4134
 8395SOL    HW236648   0.617   3.390   8.325 -0.9986 -0.0586 -2.3977
 8396SOL     OW36649   0.829   4.401  16.118  0.5269  0.1180  0.2603
 8396SOL    HW136650   0.832   4.338  16.047 -0.2745 -0.8019  1.0465
 8396SOL    HW236651   0.736   4.425  16.121 -0.4685 -3.8375  1.0798
 8397SOL     OW36652   1.539   0.665   9.808  0.1824 -0.4144 -0.2029
 8397SOL    HW136653   1.620   0.712   9.786  1.1560 -1.9851  0.0171
 8397SOL    HW236654   1.555   0.575   9.777  0.2670 -0.4863  0.0468
 8398SOL     OW36655   2.699   3.839   3.500  0.0993 -0.0318 -0.0054
 8398SOL    HW136656   2.741   3.757   3.524  1.4047  0.9917  1.2499
 8398SOL    HW236657   2.692   3.836   3.405  0.7642 -0.0887 -0.0562
 8399SOL     OW36658   2.580   3.236  15.416 -0.1094  0.1347  0.1554
 8399SOL    HW136659   2.656   3.275  15.373  0.5279  0.0218  1.1610
 8399SOL    HW236660   2.547   3.307  15.472  0.3832 -0.5238  1.2823
 8400SOL     OW36661   1.838   1.139   8.747  0.0688 -0.7971  0.0975
 8400SOL    HW136662   1.875   1.080   8.813 -0.3271  0.5669  1.5576
 8400SOL    HW236663   1.790   1.204   8.799  0.3155 -0.3683 -0.2158
 8401SOL     OW36664   3.673   0.714  10.015  0.1312 -0.4621 -0.1167
 8401SOL    HW136665   3.608   0.712   9.945  0.1250  0.9778 -0.1640
 8401SOL    HW236666   3.626   0.781  10.066  1.2946  0.2936 -0.0216
 8402SOL     OW36667   1.842   0.258   5.477 -0.1770 -0.2812 -0.8707
 8402SOL    HW136668   1.900   0.194   5.436  2.0669  1.6723 -0.7472
 8402SOL    HW236669   1.764   0.264   5.422  0.4581 -1.1146 -1.8617
 8403SOL     OW36670   3.729   4.575   3.252 -0.7241  0.3498  0.1627
 8403SOL    HW136671   3.800   4.631   3.284  0.8028 -2.2895  1.3161
 8403SOL    HW236672   3.763   4.558   3.164 -1.2820 -0.7280  0.1630
 8404SOL     OW36673   4.641   0.374   6.010 -0.2092 -0.0149 -0.6131
 8404SOL    HW136674   4.593   0.431   5.950 -3.4225 -1.7149  0.3800
 8404SOL    HW236675   4.608   0.293   5.971  0.1761  0.4117 -1.8411
 8405SOL     OW36676   1.778   2.744   5.277 -0.0213  0.5953 -0.4403
 8405SOL    HW136677   1.838   2.810   5.313  0.8317 -0.2019 -0.4062
 8405SOL    HW236678   1.704   2.798   5.247 -0.0117  2.0113  2.0941
 8406SOL     OW36679   3.125   3.468   7.586  0.4244  0.5484 -0.4044
 8406SOL    HW136680   3.155   3.501   7.671 -2.0251 -1.7978  1.3731
 8406SOL    HW236681   3.185   3.522   7.534  0.8589  0.7510  0.3017
 8407SOL     OW36682   2.777   3.041  13.327 -0.5312 -0.0576 -0.0116
 8407SOL    HW136683   2.714   3.105  13.359 -2.4018 -1.0533 -1.6544
 8407SOL    HW236684   2.739   3.030  13.239  2.3432  1.8021 -1.4847
 8408SOL     OW36685   3.908   0.084   6.505  0.0277 -0.0493  0.8295
 8408SOL    HW136686   3.877   0.020   6.569  0.4491 -2.9147 -1.8657
 8408SOL    HW236687   3.962   0.024   6.454 -0.4917  0.7829 -0.6790
 8409SOL     OW36688   3.084   0.612  10.691  0.3172 -0.4123 -0.1640
 8409SOL    HW136689   3.109   0.641  10.779 -0.8088  1.5891 -0.5064
 8409SOL    HW236690   3.004   0.563  10.709  0.0293  0.2671  0.3674
 8410SOL     OW36691   2.644   2.918   9.420  0.0974  0.5055 -0.0349
 8410SOL    HW136692   2.680   2.848   9.474  1.9509  1.2181 -0.3387
 8410SOL    HW236693   2.615   2.976   9.490  0.8737 -0.5884  1.1819
 8411SOL     OW36694   3.163   4.652  14.062  0.2492  0.6098 -0.4876
 8411SOL    HW136695   3.112   4.686  14.135  0.6012 -0.0409  0.0631
 8411SOL    HW236696   3.104   4.644  13.986  1.4116 -2.0325 -1.1268
 8412SOL     OW36697   1.121   3.482   0.430 -0.1179 -0.4143  0.3394
 8412SOL    HW136698   1.082   3.437   0.505  2.2855  1.2065  2.5260
 8412SOL    HW236699   1.053   3.447   0.372  1.0819  0.2073 -1.4274
 8413SOL     OW36700   2.379   3.255  16.703 -0.0593 -0.4884 -0.3979
 8413SOL    HW136701   2.315   3.326  16.717  0.4680  0.0047 -0.5060
 8413SOL    HW236702   2.310   3.205  16.659 -1.4943  1.4838 -0.4389
 8414SOL     OW36703   0.045   2.441   2.541  0.5313  0.0440  0.3410
 8414SOL    HW136704   0.119   2.458   2.482 -0.5614  1.6279 -0.5746
 8414SOL    HW236705   4.707   2.404   2.480  2.0496 -3.1785  0.6987
 8415SOL     OW36706   2.197   1.175  13.849  0.2678 -0.1461  0.7862
 8415SOL    HW136707   2.268   1.237  13.832  0.4876 -0.2306  1.3753
 8415SOL    HW236708   2.116   1.222  13.832  0.6867  0.0413 -0.6795
 8416SOL     OW36709   3.079   3.632  10.600  0.2706 -0.1487  0.3307
 8416SOL    HW136710   3.089   3.714  10.647 -2.0274  0.1266  0.3281
 8416SOL    HW236711   2.987   3.605  10.602 -0.5674  2.6212 -0.2370
 8417SOL     OW36712   1.769   0.599   3.725 -0.0043  0.1978  0.0092
 8417SOL    HW136713   1.789   0.553   3.643  1.4138 -2.1481  1.6589
 8417SOL    HW236714   1.804   0.684   3.701  1.4896 -0.3846  0.1475
 8418SOL     OW36715   0.616   1.417  13.056  0.4566  0.4124  0.1056
 8418SOL    HW136716   0.667   1.465  13.121 -1.4513 -3.2251  4.2479
 8418SOL    HW236717   0.667   1.336  13.049  1.5765  1.1523 -0.3110
 8419SOL     OW36718   3.405   0.124  12.412  0.3007 -0.2708  0.2914
 8419SOL    HW136719   3.407   0.203  12.358  3.9120 -0.2424  0.4225
 8419SOL    HW236720   3.311   0.111  12.408  0.4343 -1.3280  0.8087
 8420SOL     OW36721   1.602   4.649  13.014  0.3103  0.2548 -0.4268
 8420SOL    HW136722   1.564   4.644  12.927  0.2236  1.2517 -0.4426
 8420SOL    HW236723   1.671   4.584  13.001  0.0095 -0.2432  0.4437
 8421SOL     OW36724   4.009   1.057  11.094 -0.1869 -0.0738 -0.0562
 8421SOL    HW136725   4.052   0.973  11.112 -0.6665 -0.1801  0.5882
 8421SOL    HW236726   3.952   1.054  11.171 -0.6258  1.2949 -0.3408
 8422SOL     OW36727   3.723   3.284   6.483 -0.3386  0.2281  0.1595
 8422SOL    HW136728   3.734   3.369   6.526 -1.0864 -0.0627  0.9306
 8422SOL    HW236729   3.648   3.246   6.529 -1.2919 -0.0713 -1.6285
 8423SOL     OW36730   2.066   4.388   7.005 -0.1774  0.1509 -0.0633
 8423SOL    HW136731   2.133   4.434   7.055  2.0282 -0.6257 -2.3136
 8423SOL    HW236732   2.101   4.401   6.917 -1.1297  1.2902 -0.2725
 8424SOL     OW36733   3.743   3.203  17.016  0.7524  0.3574  0.1376
 8424SOL    HW136734   3.671   3.148  17.049  1.4423 -0.9101 -0.4502
 8424SOL    HW236735   3.724   3.285  17.061  0.0995  1.2144 -1.6627
 8425SOL     OW36736   3.865   0.328   3.676  0.1708  0.5743 -0.3035
 8425SOL    HW136737   3.829   0.366   3.595 -2.4173 -0.8582  0.1709
 8425SOL    HW236738   3.950   0.373   3.682  1.0081 -1.1501  0.6730
 8426SOL     OW36739   3.794   0.103  14.127 -0.1870 -0.6104 -0.3678
 8426SOL    HW136740   3.834   0.050  14.196 -0.5693 -2.0284 -1.2600
 8426SOL    HW236741   3.729   0.157  14.174  0.9818  0.1248  0.4074
 8427SOL     OW36742   2.562   4.359   3.836  0.3689  0.0485  0.0628
 8427SOL    HW136743   2.519   4.368   3.922 -0.7221 -2.0662 -0.2417
 8427SOL    HW236744   2.633   4.298   3.853 -0.0123  0.0199  1.5961
 8428SOL     OW36745   2.199   3.512   7.578  0.7170  0.1576  0.4790
 8428SOL    HW136746   2.130   3.449   7.557  0.0284  1.1430 -0.2401
 8428SOL    HW236747   2.272   3.451   7.574  1.2132  0.7855  0.0522
 8429SOL     OW36748   4.325   3.440   4.494  0.2318  0.0352 -0.3000
 8429SOL    HW136749   4.238   3.408   4.473  0.7361 -1.2837 -0.3734
 8429SOL    HW236750   4.367   3.355   4.504 -0.8940 -0.4235  0.5566
 8430SOL     OW36751   4.287   1.064   2.839 -0.0650 -0.5016  0.4071
 8430SOL    HW136752   4.306   0.971   2.827  0.2612 -0.5265  1.1081
 8430SOL    HW236753   4.193   1.064   2.857 -0.6340  1.8894 -2.5065
 8431SOL     OW36754   3.054   4.431   2.124 -0.8544  0.4734  0.3666
 8431SOL    HW136755   3.017   4.486   2.055  0.2950  0.5903 -0.1531
 8431SOL    HW236756   3.116   4.489   2.167  2.3098 -2.1911 -0.6381
 8432SOL     OW36757   4.032   0.417   4.534 -0.0637 -0.1520  0.3077
 8432SOL    HW136758   4.086   0.374   4.601  1.7658  0.6421 -0.6704
 8432SOL    HW236759   3.950   0.367   4.534  0.2224 -0.5979 -1.5894
 8433SOL     OW36760   4.217   4.644   8.936 -0.0402 -0.0489  0.1446
 8433SOL    HW136761   4.215   4.554   8.905  0.4456  0.2275 -0.6985
 8433SOL    HW236762   4.310   4.664   8.923 -0.3160 -0.1479 -2.1131
 8434SOL     OW36763   2.669   2.105   4.706 -0.6325 -0.0299 -0.6108
 8434SOL    HW136764   2.663   2.021   4.752 -1.6034  1.5431  2.0935
 8434SOL    HW236765   2.712   2.073   4.626  1.0638  0.3485  0.1596
 8435SOL     OW36766   0.957   1.728  15.829  0.2573  0.7713  0.1872
 8435SOL    HW136767   0.988   1.732  15.919  3.1475 -0.5615 -0.7142
 8435SOL    HW236768   0.918   1.815  15.818 -1.2438  0.2639  1.7073
 8436SOL     OW36769   3.213   1.529   2.477 -0.1910  0.0900 -0.2842
 8436SOL    HW136770   3.129   1.483   2.481  0.4192 -0.8875  1.3602
 8436SOL    HW236771   3.215   1.566   2.389  2.3324 -1.3036 -0.8178
 8437SOL     OW36772   1.231   0.865   3.853  0.2742 -0.8333 -0.4125
 8437SOL    HW136773   1.310   0.918   3.866  1.4237 -2.6209 -0.0675
 8437SOL    HW236774   1.258   0.793   3.795 -0.3670 -0.7339 -0.8340
 8438SOL     OW36775   3.759   0.169   5.710  0.8673  0.2488  0.1820
 8438SOL    HW136776   3.779   0.227   5.636 -0.7023  1.5340  0.7625
 8438SOL    HW236777   3.665   0.181   5.725  0.9891  1.8480 -0.2732
 8439SOL     OW36778   3.700   2.763  13.186  0.0780 -0.1315 -0.0345
 8439SOL    HW136779   3.794   2.762  13.200  0.3955 -0.5634 -2.1919
 8439SOL    HW236780   3.709   2.803  13.100  0.0005 -1.6262 -0.7357
 8440SOL     OW36781   2.727   4.292   6.358  0.2761  0.3314 -0.2537
 8440SOL    HW136782   2.706   4.201   6.381  0.8067  0.5966  1.2500
 8440SOL    HW236783   2.671   4.335   6.422  1.1539  0.6252  0.3107
 8441SOL     OW36784   3.355   4.121   3.190  0.5965  0.5547  0.0115
 8441SOL    HW136785   3.316   4.208   3.196  0.0283  0.2461  0.8879
 8441SOL    HW236786   3.316   4.074   3.265 -0.2634 -0.3858 -1.0295
 8442SOL     OW36787   3.257   0.373   7.048 -0.1517 -0.6135  0.1268
 8442SOL    HW136788   3.166   0.356   7.073  0.3370 -1.6734  1.1905
 8442SOL    HW236789   3.303   0.354   7.130 -2.2750 -0.3238  1.3762
 8443SOL     OW36790   0.777   1.761   3.090  0.1851 -0.0519  0.3664
 8443SOL    HW136791   0.856   1.774   3.143 -0.1148 -1.4724  1.1389
 8443SOL    HW236792   0.804   1.821   3.020  1.7658 -0.1370  0.9056
 8444SOL     OW36793   3.772   2.142   5.290  0.1637 -0.5320 -0.6638
 8444SOL    HW136794   3.750   2.067   5.345 -0.6215  0.9804  1.0754
 8444SOL    HW236795   3.702   2.132   5.225 -0.6444 -0.7020  0.2421
 8445SOL     OW36796   2.434   0.029   1.042 -0.5012  0.0087 -0.5227
 8445SOL    HW136797   2.416   0.004   0.952 -1.0706 -1.1888 -0.0847
 8445SOL    HW236798   2.366   0.095   1.061  0.9382  1.0083  1.1449
 8446SOL     OW36799   0.416   0.770   5.291 -0.2369 -0.1529 -0.1098
 8446SOL    HW136800   0.334   0.746   5.335 -0.8312 -1.3619 -1.8952
 8446SOL    HW236801   0.403   0.744   5.200  1.4241  1.4817 -0.8095
 8447SOL     OW36802   0.647   1.713   2.848  0.2583  0.1007 -0.3549
 8447SOL    HW136803   0.655   1.723   2.943  0.7314 -1.9010 -0.1649
 8447SOL    HW236804   0.584   1.641   2.852  1.2920 -0.7949 -0.1483
 8448SOL     OW36805   1.238   0.965  16.574  0.2519  0.7576 -0.4535
 8448SOL    HW136806   1.271   0.938  16.488 -1.2171 -0.3727 -0.6621
 8448SOL    HW236807   1.182   0.891  16.596  0.4235  0.6171 -0.4987
 8449SOL     OW36808   2.735   1.541   1.934 -0.5494 -0.0560  0.2314
 8449SOL    HW136809   2.695   1.496   1.859 -1.8398  0.7872  0.4167
 8449SOL    HW236810   2.765   1.466   1.986  0.6585  0.0156 -0.3638
 8450SOL     OW36811   0.548   1.049   1.251  0.8228  0.3626  0.4431
 8450SOL    HW136812   0.519   0.960   1.230  0.3796  0.8246 -0.9257
 8450SOL    HW236813   0.460   1.087   1.250  1.2733  1.4597  2.4366
 8451SOL     OW36814   0.520   2.117   4.923  0.0595  0.3362 -0.9283
 8451SOL    HW136815   0.475   2.079   4.848 -2.8869  2.0567 -0.0182
 8451SOL    HW236816   0.610   2.137   4.895 -0.5328  1.6384 -1.8968
 8452SOL     OW36817   4.178   2.135   5.867  0.3706 -0.2882  0.3592
 8452SOL    HW136818   4.150   2.215   5.822 -1.4950 -0.3387  1.4010
 8452SOL    HW236819   4.120   2.067   5.832 -0.3137  0.7521 -0.5388
 8453SOL     OW36820   1.970   3.942   1.962 -0.0772  0.0948 -0.4738
 8453SOL    HW136821   1.875   3.930   1.963  0.1011 -1.6268 -3.4899
 8453SOL    HW236822   2.001   3.854   1.938 -0.6726  0.0041 -0.9176
 8454SOL     OW36823   1.329   4.715   0.230 -0.1164 -0.0760 -0.0580
 8454SOL    HW136824   1.366   0.074   0.202  0.3536  0.4824  2.1661
 8454SOL    HW236825   1.309   0.014   0.321 -1.9042  2.3025 -1.0941
 8455SOL     OW36826   3.679   3.307   8.050 -0.8334 -0.2648 -0.3828
 8455SOL    HW136827   3.764   3.335   8.016  0.2213 -0.3805  2.1370
 8455SOL    HW236828   3.634   3.280   7.970  2.1660  4.8224 -3.7839
 8456SOL     OW36829   2.532   1.779  11.876  0.1929 -0.9398  0.5373
 8456SOL    HW136830   2.595   1.707  11.869 -0.5121 -1.3611 -1.3702
 8456SOL    HW236831   2.528   1.788  11.971  0.5485 -0.1951  0.4802
 8457SOL     OW36832   0.157   1.172  16.538  0.3615 -0.3657 -0.9496
 8457SOL    HW136833   0.092   1.220  16.486 -0.8655 -0.3146  0.6204
 8457SOL    HW236834   0.183   1.124  16.459  1.2852  1.3480 -1.6900
 8458SOL     OW36835   4.179   4.070   6.574 -0.1527 -0.2301  0.2714
 8458SOL    HW136836   4.150   4.155   6.540  2.1607  0.3314 -0.2427
 8458SOL    HW236837   4.250   4.057   6.511 -0.6095  1.4590 -0.5958
 8459SOL     OW36838   1.753   2.561   6.729 -0.2530  0.0077  0.3164
 8459SOL    HW136839   1.716   2.472   6.730 -0.7472  0.2270  1.1277
 8459SOL    HW236840   1.677   2.619   6.728  0.5428  1.0323  0.2908
 8460SOL     OW36841   3.467   3.605   7.617 -0.2609  0.2831  0.4986
 8460SOL    HW136842   3.549   3.563   7.643  0.2407  1.2209  0.4337
 8460SOL    HW236843   3.419   3.522   7.625 -2.2105  1.2738 -1.1117
 8461SOL     OW36844   3.208   2.163  15.774 -0.1022 -0.1147 -0.1549
 8461SOL    HW136845   3.167   2.225  15.834  0.3968  1.7315 -1.7377
 8461SOL    HW236846   3.279   2.129  15.828 -1.4417  1.8958  2.9115
 8462SOL     OW36847   0.013   4.699   5.234 -0.3576  0.1845  0.0993
 8462SOL    HW136848   4.706   0.026   5.161 -1.3583  2.2410  2.0288
 8462SOL    HW236849   0.016   0.045   5.297  0.6198  1.3364 -1.2604
 8463SOL     OW36850   1.325   0.895   1.794  0.1794 -0.2358  0.1999
 8463SOL    HW136851   1.353   0.932   1.710  0.5810  1.0852  0.9157
 8463SOL    HW236852   1.230   0.908   1.797  0.4272  1.7531 -0.3947
 8464SOL     OW36853   4.176   3.416   4.775 -0.1252  0.4357 -0.3632
 8464SOL    HW136854   4.150   3.404   4.867 -0.2418  1.6006 -0.2378
 8464SOL    HW236855   4.237   3.343   4.768 -0.0000  0.3444  1.6366
 8465SOL     OW36856   2.250   0.828   3.966  0.4670  0.1805  0.4198
 8465SOL    HW136857   2.333   0.790   3.937 -0.4726  0.7583 -2.9749
 8465SOL    HW236858   2.189   0.754   3.958  0.5913  0.0593  0.5842
 8466SOL     OW36859   2.397   0.350  12.688  0.2059  0.1776 -0.1887
 8466SOL    HW136860   2.408   0.321  12.779  1.9373  1.9296  0.1631
 8466SOL    HW236861   2.474   0.400  12.663  0.2546 -0.0673 -0.5195
 8467SOL     OW36862   3.637   4.112   6.797 -0.2222 -0.1040 -0.9712
 8467SOL    HW136863   3.567   4.159   6.843  0.7145 -0.8809  1.1914
 8467SOL    HW236864   3.705   4.112   6.864  0.2869 -2.6989 -1.4836
 8468SOL     OW36865   2.185   0.071  17.668 -0.0062 -0.0167  0.4034
 8468SOL    HW136866   2.109   0.081  17.609  1.1805  0.4382 -1.0602
 8468SOL    HW236867   2.136   0.009   0.018  1.5103 -0.5494  1.1832
 8469SOL     OW36868   0.705   4.402   9.175  0.9485 -0.2469 -0.2811
 8469SOL    HW136869   0.740   4.491   9.170 -1.9801  1.1462  3.3683
 8469SOL    HW236870   0.621   4.424   9.216  1.9299 -0.1640  1.6497
 8470SOL     OW36871   2.162   0.481   3.508 -0.2077  0.2463 -0.2855
 8470SOL    HW136872   2.069   0.503   3.501 -0.3164 -0.5708 -1.3521
 8470SOL    HW236873   2.154   0.390   3.536  2.5535  0.0128 -0.3317
 8471SOL     OW36874   2.566   1.632   3.871  0.0030  0.5114 -0.4537
 8471SOL    HW136875   2.659   1.657   3.874 -0.3139  1.6847 -0.0687
 8471SOL    HW236876   2.535   1.698   3.933 -1.0708 -0.6553  0.2453
 8472SOL     OW36877   3.711   0.411   7.409 -0.3126  0.5211 -0.0952
 8472SOL    HW136878   3.645   0.343   7.398 -0.9175  0.3546  4.4020
 8472SOL    HW236879   3.682   0.468   7.481 -0.1420  0.7951 -0.2434
 8473SOL     OW36880   0.661   2.214   9.707  0.1917  0.2149  0.4134
 8473SOL    HW136881   0.727   2.273   9.744 -1.4778  1.9075  0.6759
 8473SOL    HW236882   0.617   2.200   9.790 -0.9838  0.6155 -0.1337
 8474SOL     OW36883   2.887   0.207  16.219 -0.0860  0.6519  0.2009
 8474SOL    HW136884   2.832   0.280  16.191 -0.5796  0.0660 -0.3564
 8474SOL    HW236885   2.912   0.247  16.302 -0.6414 -0.5460  0.9438
 8475SOL     OW36886   4.178   4.663   5.892 -0.0275 -0.2029  0.0271
 8475SOL    HW136887   4.090   4.682   5.859 -0.2754 -0.5706  0.4723
 8475SOL    HW236888   4.176   4.719   5.970  2.3144 -1.8183  1.2466
 8476SOL     OW36889   1.860   4.078   6.738 -0.3762 -0.3025  0.0587
 8476SOL    HW136890   1.900   3.991   6.747  0.4352 -0.3985 -4.3632
 8476SOL    HW236891   1.937   4.135   6.737 -0.3689 -0.3257 -1.5092
 8477SOL     OW36892   2.955   3.769   5.360  0.5611 -0.3088  0.4784
 8477SOL    HW136893   2.963   3.823   5.439  1.9034 -1.0032  0.8044
 8477SOL    HW236894   3.044   3.736   5.352  0.6189  0.3305 -1.5714
 8478SOL     OW36895   2.889   3.284   3.846  0.2527  0.4777  0.1781
 8478SOL    HW136896   2.874   3.261   3.938 -2.7321  1.0858 -0.1718
 8478SOL    HW236897   2.933   3.370   3.847 -1.0664  1.1572 -2.5379
 8479SOL     OW36898   1.694   1.138   9.710 -0.0014 -0.9617  0.3117
 8479SOL    HW136899   1.672   1.228   9.735  2.1843 -0.2030 -0.5094
 8479SOL    HW236900   1.659   1.088   9.784  1.9721  0.2831  2.0781
 8480SOL     OW36901   3.486   1.704   3.732 -0.1240 -0.1581  0.1586
 8480SOL    HW136902   3.516   1.795   3.737 -1.2943  0.3940 -2.9682
 8480SOL    HW236903   3.419   1.699   3.801  0.1056  0.0944  0.4038
 8481SOL     OW36904   4.715   1.728   7.506  0.3861 -0.1846 -0.0663
 8481SOL    HW136905   4.649   1.729   7.437  0.6284  3.7802 -0.2940
 8481SOL    HW236906   0.022   1.640   7.490  1.1813 -0.0214  0.6517
 8482SOL     OW36907   2.400   2.977   3.271 -0.2950 -0.4874 -0.1495
 8482SOL    HW136908   2.489   2.967   3.236  0.6576  0.4342  1.9651
 8482SOL    HW236909   2.406   2.920   3.348  0.6009 -0.5181 -0.2375
 8483SOL     OW36910   1.459   2.247   5.186 -0.6642  0.0741 -0.3644
 8483SOL    HW136911   1.373   2.285   5.207 -0.7923  0.1608 -1.0614
 8483SOL    HW236912   1.459   2.187   5.261 -1.8413  0.2594 -0.2132
 8484SOL     OW36913   3.845   2.379   2.890 -0.8956  0.1388 -0.1294
 8484SOL    HW136914   3.867   2.447   2.955  2.3364 -0.2196 -0.8419
 8484SOL    HW236915   3.826   2.305   2.948 -2.9117  0.0653 -0.8827
 8485SOL     OW36916   2.124   3.599   0.625  0.4373 -0.0869  0.5514
 8485SOL    HW136917   2.123   3.672   0.563 -1.6805  1.1060  1.9969
 8485SOL    HW236918   2.040   3.594   0.670  0.7661 -0.6073  1.0985
 8486SOL     OW36919   4.115   4.321  10.554  0.1577 -0.3137 -0.1779
 8486SOL    HW136920   4.189   4.336  10.613  0.2787 -1.8237  0.0401
 8486SOL    HW236921   4.106   4.410  10.518  0.6190  0.7749  2.3492
 8487SOL     OW36922   3.153   3.247  10.549  0.0822 -0.2239  0.5321
 8487SOL    HW136923   3.094   3.272  10.620  0.9992 -0.2524  1.3040
 8487SOL    HW236924   3.224   3.204  10.597  1.7638  1.7332 -0.1776
 8488SOL     OW36925   2.907   3.554  14.864 -0.2091 -0.4327  0.2074
 8488SOL    HW136926   2.979   3.604  14.826  0.1806 -0.8996  0.3309
 8488SOL    HW236927   2.883   3.622  14.927  0.9821 -0.1025  0.3033
 8489SOL     OW36928   0.260   0.993   2.773 -0.1952 -0.6342  0.1163
 8489SOL    HW136929   0.301   0.925   2.719  0.8851 -0.0291  0.1785
 8489SOL    HW236930   0.300   0.971   2.856 -0.2610 -0.9561  0.0623
 8490SOL     OW36931   4.164   1.824   4.360 -0.1109 -0.1007 -0.6072
 8490SOL    HW136932   4.249   1.865   4.343  1.2220 -1.7282  2.0742
 8490SOL    HW236933   4.100   1.895   4.364  1.6264  1.3900  0.7156
 8491SOL     OW36934   4.211   0.097   6.106 -0.2522 -0.1068  0.3265
 8491SOL    HW136935   4.292   0.052   6.129  0.2076  0.6162  0.1339
 8491SOL    HW236936   4.234   0.180   6.149 -0.1223 -0.2053  0.4491
 8492SOL     OW36937   4.082   0.371   2.471 -0.2419 -0.5203  0.2258
 8492SOL    HW136938   4.001   0.420   2.471  1.3135  2.0258  2.6500
 8492SOL    HW236939   4.050   0.283   2.491 -1.3033 -0.2486 -0.3239
 8493SOL     OW36940   2.597   0.980   9.522 -0.3137 -0.6018 -0.5016
 8493SOL    HW136941   2.563   0.907   9.471 -2.6958  0.1710 -0.0422
 8493SOL    HW236942   2.636   1.037   9.455  0.8183 -3.2425 -2.0574
 8494SOL     OW36943   2.479   0.855   3.039  0.1897 -0.0464  0.5381
 8494SOL    HW136944   2.492   0.760   3.031 -1.4384 -0.2816  0.7540
 8494SOL    HW236945   2.406   0.854   2.977  0.4375 -0.7740  0.2563
 8495SOL     OW36946   3.368   1.340   8.402  0.1940  0.3820 -0.2570
 8495SOL    HW136947   3.311   1.344   8.478 -1.2043 -0.1898 -1.2786
 8495SOL    HW236948   3.335   1.271   8.344 -0.8639  1.4174 -0.8932
 8496SOL     OW36949   4.344   2.387   5.587  0.1140 -0.7342  0.6619
 8496SOL    HW136950   4.423   2.414   5.633  0.0283 -0.1633  0.4654
 8496SOL    HW236951   4.280   2.457   5.587  0.1126 -0.7145 -1.0038
 8497SOL     OW36952   4.558   3.170   1.418 -0.0996  0.4459  0.5301
 8497SOL    HW136953   4.595   3.174   1.330 -1.0683  0.9817  0.1449
 8497SOL    HW236954   4.638   3.180   1.470  0.9282 -1.6752 -0.6367
 8498SOL     OW36955   2.748   1.354  11.482 -0.5471  0.0437 -0.4004
 8498SOL    HW136956   2.693   1.334  11.557 -0.1069 -0.0071 -0.0887
 8498SOL    HW236957   2.829   1.311  11.511 -0.3999 -0.9328 -2.2407
 8499SOL     OW36958   0.250   0.317   6.882 -0.3110 -0.1512 -0.1622
 8499SOL    HW136959   0.264   0.392   6.824 -1.3499 -0.7444 -1.2015
 8499SOL    HW236960   0.294   0.347   6.961 -1.2757 -0.6096  0.5408
 8500SOL     OW36961   3.508   1.734   8.795 -0.8740 -0.0009 -0.2858
 8500SOL    HW136962   3.449   1.793   8.746 -1.4163 -0.5547 -0.2960
 8500SOL    HW236963   3.581   1.722   8.735 -0.1676  1.4415  0.2898
 8501SOL     OW36964   3.028   2.162   7.629  0.0697 -0.6573 -0.5014
 8501SOL    HW136965   3.032   2.258   7.628 -1.4001 -0.6249 -1.4639
 8501SOL    HW236966   2.955   2.158   7.691  0.8455  1.3339  0.5468
 8502SOL     OW36967   0.186   3.621   7.859 -0.6027 -0.0646  0.0702
 8502SOL    HW136968   0.246   3.688   7.893 -0.3016  0.5537 -1.6819
 8502SOL    HW236969   0.234   3.551   7.902  0.9390 -0.6644 -2.6300
 8503SOL     OW36970   4.699   2.153   3.242 -0.9157 -0.0480 -0.3872
 8503SOL    HW136971   4.723   2.063   3.220  2.4437  0.5660  0.8613
 8503SOL    HW236972   0.058   2.196   3.249 -0.3565 -1.5667  1.9185
 8504SOL     OW36973   2.103   3.801   7.232  0.2050  0.0090 -0.5720
 8504SOL    HW136974   2.056   3.793   7.315 -1.3381  0.2465 -1.4230
 8504SOL    HW236975   2.048   3.859   7.180  1.4326  0.7191 -1.0833
 8505SOL     OW36976   3.629   3.878   7.794  0.3526 -0.3027  0.5680
 8505SOL    HW136977   3.581   3.935   7.734  0.8431 -0.5689 -0.0819
 8505SOL    HW236978   3.554   3.835   7.834  0.6167  0.8292  2.2696
 8506SOL     OW36979   1.594   3.385   5.118 -0.3476  0.6719 -0.2218
 8506SOL    HW136980   1.502   3.411   5.109 -0.4977 -0.4481 -2.0140
 8506SOL    HW236981   1.622   3.448   5.184  0.4470  1.0761 -0.9327
 8507SOL     OW36982   1.010   0.141   1.801 -0.2581 -0.1840 -0.0126
 8507SOL    HW136983   1.079   0.126   1.736 -0.5430 -0.6022 -0.2143
 8507SOL    HW236984   1.027   0.235   1.803 -0.2036 -0.2497  2.8956
 8508SOL     OW36985   4.606   4.085   3.158 -0.6126 -0.0151 -0.6807
 8508SOL    HW136986   4.613   3.990   3.171 -2.5193 -0.3549 -2.1361
 8508SOL    HW236987   4.658   4.125   3.228  0.3023 -0.0958 -1.3049
 8509SOL     OW36988   0.521   2.893   2.138 -0.4627  0.1213 -0.4571
 8509SOL    HW136989   0.485   2.977   2.110 -1.1011 -1.1438 -3.5440
 8509SOL    HW236990   0.574   2.888   2.058  2.3292 -0.7872  1.4554
 8510SOL     OW36991   2.564   0.835   6.133 -0.3372 -0.3686 -0.4479
 8510SOL    HW136992   2.647   0.789   6.123 -0.3660  0.0397 -2.5536
 8510SOL    HW236993   2.587   0.916   6.179 -1.8236  0.0381 -0.4139
 8511SOL     OW36994   0.280   0.747   9.029 -0.3962 -0.7422 -0.3107
 8511SOL    HW136995   0.249   0.695   8.955 -2.8054  0.6873 -0.3189
 8511SOL    HW236996   0.228   0.710   9.101  0.4817  0.6259  1.0155
 8512SOL     OW36997   2.409   4.344  15.815  0.1045  0.1883  0.2069
 8512SOL    HW136998   2.448   4.334  15.902  0.9713  2.1527  0.0369
 8512SOL    HW236999   2.375   4.433  15.815  1.4078  0.6763  0.2985
 8513SOL     OW37000   0.246   1.261   9.756  0.4557 -0.9500 -0.0844
 8513SOL    HW137001   0.268   1.352   9.776 -1.8275 -0.5401  0.5436
 8513SOL    HW237002   0.218   1.271   9.665 -1.3461 -0.1992  0.5651
 8514SOL     OW37003   0.714   2.996  16.798 -0.0855 -0.3193  0.0021
 8514SOL    HW137004   0.638   2.945  16.827  0.8482 -1.9504 -0.3796
 8514SOL    HW237005   0.752   2.929  16.740  0.1857 -0.4169  0.2873
 8515SOL     OW37006   2.393   4.101   3.591 -0.3295  0.4376 -0.2633
 8515SOL    HW137007   2.301   4.107   3.616 -0.2780  1.3921 -0.3028
 8515SOL    HW237008   2.391   4.017   3.544 -0.0851 -1.0200  2.3456
 8516SOL     OW37009   0.554   3.430   3.450  0.0782  0.3794 -0.0479
 8516SOL    HW137010   0.514   3.424   3.536 -1.9600  1.5958 -0.8959
 8516SOL    HW237011   0.649   3.421   3.460 -0.0044 -1.3347 -0.8643
 8517SOL     OW37012   0.210   1.940  11.149 -0.4709  0.2725  0.3153
 8517SOL    HW137013   0.233   1.860  11.102  1.0573  1.3504 -0.7580
 8517SOL    HW237014   0.193   1.906  11.237  3.2805 -0.9831  0.5267
 8518SOL     OW37015   2.652   2.940  16.110  0.1318  0.4023 -0.4894
 8518SOL    HW137016   2.607   3.000  16.170  0.9941  1.4426 -0.9049
 8518SOL    HW237017   2.741   2.942  16.144 -0.2950 -0.6453  0.7068
 8519SOL     OW37018   0.170   0.731   5.430  0.2640  0.8524 -0.3462
 8519SOL    HW137019   0.079   0.707   5.418  0.2374  0.5253  0.5090
 8519SOL    HW237020   0.168   0.826   5.445 -0.9557  0.8986 -0.8235
 8520SOL     OW37021   0.362   3.422   6.429 -0.6405 -0.3901 -0.2876
 8520SOL    HW137022   0.446   3.375   6.431 -1.6777 -2.1948  1.0815
 8520SOL    HW237023   0.335   3.390   6.515  0.5004  0.5171  0.4067
 8521SOL     OW37024   2.240   1.885  11.250 -0.1013  0.2338 -0.2774
 8521SOL    HW137025   2.335   1.874  11.245 -0.3309 -3.6077  3.7309
 8521SOL    HW237026   2.203   1.815  11.197 -0.0869  0.7125 -0.9194
 8522SOL     OW37027   3.019   4.322   6.649 -0.7157 -0.6777  0.5307
 8522SOL    HW137028   2.958   4.253   6.624 -1.3310  1.7528 -4.6916
 8522SOL    HW237029   3.078   4.310   6.575  0.8849  1.2969  1.4612
 8523SOL     OW37030   1.718   0.536   1.993 -0.6985 -0.2033  0.6266
 8523SOL    HW137031   1.668   0.455   2.006  1.0477 -1.4800 -0.4874
 8523SOL    HW237032   1.806   0.503   1.973 -0.0995  0.7581  1.6098
 8524SOL     OW37033   3.717   0.154   1.942  0.3904  0.1247  0.1198
 8524SOL    HW137034   3.731   0.200   1.859  0.1945  1.5277  0.8556
 8524SOL    HW237035   3.780   0.202   1.996 -0.1847 -0.3992  1.2628
 8525SOL     OW37036   1.407   3.924  10.090 -0.3226  0.0070 -0.0038
 8525SOL    HW137037   1.342   3.957  10.151 -1.9551 -2.8338 -0.2225
 8525SOL    HW237038   1.351   3.862  10.044  0.9579  0.0749 -1.6482
 8526SOL     OW37039   1.513   0.427   0.260 -0.2268 -0.3500 -0.4459
 8526SOL    HW137040   1.439   0.441   0.318 -0.3489  0.3950 -0.7758
 8526SOL    HW237041   1.501   0.514   0.222 -1.0077 -0.1003  0.3917
 8527SOL     OW37042   0.795   0.056  15.021  0.0354 -0.0947 -0.0174
 8527SOL    HW137043   0.774   0.136  15.069  0.7819 -0.7943  1.5003
 8527SOL    HW237044   0.890   0.071  15.021  0.1144 -0.6498 -1.5792
 8528SOL     OW37045   2.708   3.563  17.527 -0.0533  0.0893 -0.3244
 8528SOL    HW137046   2.704   3.601  17.615  0.0522  1.1226 -0.7643
 8528SOL    HW237047   2.710   3.641  17.471 -0.8794 -1.7508 -2.9348
 8529SOL     OW37048   0.868   0.895  17.560 -0.0612  0.0083  0.1657
 8529SOL    HW137049   0.803   0.966  17.564  1.5851  1.5392 -0.5350
 8529SOL    HW237050   0.909   0.931  17.481 -0.7658 -2.2413 -1.2091
 8530SOL     OW37051   4.255   3.309   7.836  0.3345 -0.2683 -0.1995
 8530SOL    HW137052   4.191   3.373   7.804 -0.2086  0.9918  3.4056
 8530SOL    HW237053   4.339   3.354   7.843  0.0591  0.0677  0.8835
 8531SOL     OW37054   3.062   4.609   5.071 -0.5646 -0.1276 -0.0853
 8531SOL    HW137055   3.149   4.613   5.111 -1.4259 -1.8396  1.9832
 8531SOL    HW237056   3.086   4.607   4.979 -1.5949  2.2544 -0.4121
 8532SOL     OW37057   1.374   3.263   9.699 -0.4508  0.2646 -0.1683
 8532SOL    HW137058   1.339   3.351   9.714  0.7046  0.7759 -0.5547
 8532SOL    HW237059   1.407   3.236   9.785  1.0670 -0.1299 -0.8988
 8533SOL     OW37060   3.519   0.499   3.196 -0.0139  0.1829  0.0809
 8533SOL    HW137061   3.530   0.404   3.205  1.3427  0.3831  0.6526
 8533SOL    HW237062   3.490   0.514   3.286  0.7401  0.1929  0.3213
 8534SOL     OW37063   0.040   4.404   6.888 -0.5698  0.2682 -0.0086
 8534SOL    HW137064   4.693   4.410   6.950 -1.4033 -1.9479 -0.7977
 8534SOL    HW237065   0.040   4.485   6.836 -2.2039  0.8500  0.9151
 8535SOL     OW37066   0.925   0.231   8.786 -0.3275 -0.1269 -0.1677
 8535SOL    HW137067   0.854   0.171   8.807 -0.1181 -1.7006 -3.8837
 8535SOL    HW237068   0.979   0.176   8.729  1.9843 -0.5977  2.4899
 8536SOL     OW37069   2.873   2.643   2.525 -0.1803 -0.4063  0.0181
 8536SOL    HW137070   2.899   2.573   2.584  1.7840 -0.9094 -1.4558
 8536SOL    HW237071   2.932   2.713   2.553 -0.8011 -0.0793  0.4939
 8537SOL     OW37072   3.079   0.464   1.945 -0.2075  0.1743 -0.4825
 8537SOL    HW137073   3.054   0.374   1.924  2.1455 -0.5643 -0.1121
 8537SOL    HW237074   3.066   0.498   1.857 -0.6556 -1.3930 -1.0200
 8538SOL     OW37075   1.298   1.095   4.485 -0.5186 -0.4937  0.3143
 8538SOL    HW137076   1.245   1.108   4.563  1.0965  0.3202  1.2893
 8538SOL    HW237077   1.285   1.180   4.444  1.9375 -0.3042 -0.0986
 8539SOL     OW37078   2.925   3.804  10.221  0.1900 -0.3024  0.3081
 8539SOL    HW137079   3.003   3.777  10.173  0.2592  2.0359 -0.8807
 8539SOL    HW237080   2.887   3.721  10.249  2.2823 -0.3198  3.0484
 8540SOL     OW37081   2.706   1.633   0.254 -0.4892 -0.0680 -0.4756
 8540SOL    HW137082   2.795   1.668   0.255  0.3313 -2.1937  1.4821
 8540SOL    HW237083   2.705   1.572   0.328 -2.0781  0.3318 -0.1590
 8541SOL     OW37084   0.558   0.809   6.179  0.8153  0.3504  0.2178
 8541SOL    HW137085   0.573   0.721   6.214  0.8423  0.7044  1.0978
 8541SOL    HW237086   0.468   0.828   6.206  0.8858  1.1745 -0.1390
 8542SOL     OW37087   3.942   0.988   4.042 -0.0496 -0.4478  0.0159
 8542SOL    HW137088   3.938   0.935   3.963  1.5383  2.1214 -1.7572
 8542SOL    HW237089   3.943   0.917   4.107 -0.3790  1.5234  2.1690
 8543SOL     OW37090   0.913   3.189   7.504 -0.1586 -0.4331 -0.1685
 8543SOL    HW137091   0.833   3.136   7.499  1.6122 -2.9806 -1.4233
 8543SOL    HW237092   0.979   3.121   7.492 -0.8837 -1.0310 -0.7564
 8544SOL     OW37093   1.369   1.297  17.050  0.4325  0.5996 -0.3832
 8544SOL    HW137094   1.432   1.310  16.980 -0.6585  0.2256 -1.4295
 8544SOL    HW237095   1.288   1.347  17.038  0.5741  1.1047  0.6962
 8545SOL     OW37096   3.546   1.270  15.679 -0.5095 -0.0484  0.3225
 8545SOL    HW137097   3.528   1.272  15.585 -0.3143  0.0403  0.2874
 8545SOL    HW237098   3.544   1.365  15.694 -3.0605  0.3725 -2.4457
 8546SOL     OW37099   4.441   1.822   8.481 -0.0212 -0.0672  0.0861
 8546SOL    HW137100   4.363   1.831   8.536  0.9662  1.9079  1.1742
 8546SOL    HW237101   4.509   1.868   8.530  0.9983 -0.5484 -0.8781
 8547SOL     OW37102   2.931   1.320   0.328 -0.2122 -0.5030  0.2848
 8547SOL    HW137103   2.839   1.346   0.326 -0.1919 -0.5359 -1.0297
 8547SOL    HW237104   2.943   1.294   0.419  1.7481  2.1008  0.7657
 8548SOL     OW37105   4.256   1.992   5.188  0.5701 -0.0306 -0.2274
 8548SOL    HW137106   4.168   2.030   5.180  1.3010  1.3829 -1.5313
 8548SOL    HW237107   4.316   2.058   5.154 -0.8335 -0.3527 -3.3510
 8549SOL     OW37108   0.636   1.029  11.378  0.4608 -0.2830  0.0761
 8549SOL    HW137109   0.603   0.954  11.428 -0.6332  0.9036  1.1246
 8549SOL    HW237110   0.732   1.020  11.377  0.2371 -2.8743  1.8459
 8550SOL     OW37111   4.540   0.904   5.713  1.0513  0.6172  0.1972
 8550SOL    HW137112   4.630   0.926   5.690  0.5705  0.7436 -1.5469
 8550SOL    HW237113   4.524   0.953   5.793  2.4159 -0.3756  1.0831
 8551SOL     OW37114   0.758   0.051   3.113  0.3611 -0.2814 -0.1162
 8551SOL    HW137115   0.715   0.039   3.028  0.6151 -1.8370 -0.0281
 8551SOL    HW237116   0.699   0.116   3.151 -0.9662 -1.8052  0.4190
 8552SOL     OW37117   2.331   1.838   2.922 -0.2276 -0.1233  0.2282
 8552SOL    HW137118   2.316   1.844   3.016  1.4590 -0.4446  0.5214
 8552SOL    HW237119   2.417   1.880   2.913  0.9095 -2.4431  0.2365
 8553SOL     OW37120   0.347   1.158   3.176  0.2178 -0.1665  0.1736
 8553SOL    HW137121   0.375   1.128   3.262  0.1190 -0.5642  0.0706
 8553SOL    HW237122   0.262   1.195   3.199  0.4736  1.7351 -2.0012
 8554SOL     OW37123   1.289   2.426  14.738  0.8316 -0.3921 -0.3971
 8554SOL    HW137124   1.307   2.504  14.686 -3.9867  2.6048  2.4021
 8554SOL    HW237125   1.268   2.362  14.671  0.7370  0.0826 -0.8170
 8555SOL     OW37126   4.293   0.910   0.839 -0.0509  0.1322 -0.3097
 8555SOL    HW137127   4.307   0.853   0.915  0.7539 -0.8713 -1.1941
 8555SOL    HW237128   4.212   0.952   0.867  0.7987  2.1937 -0.9392
 8556SOL     OW37129   4.526   0.813  13.963  0.1177  0.1923 -0.1460
 8556SOL    HW137130   4.479   0.789  14.043  1.3387 -2.6066 -0.2808
 8556SOL    HW237131   4.597   0.867  13.997 -1.4438  0.6125  2.4814
 8557SOL     OW37132   3.426   4.198   1.310  0.5154 -0.3057  0.6317
 8557SOL    HW137133   3.486   4.201   1.236  1.6387 -1.2570  1.5012
 8557SOL    HW237134   3.453   4.113   1.346 -0.0357 -2.5678 -4.2327
 8558SOL     OW37135   2.670   1.620   2.944  0.0543 -0.4251  0.0091
 8558SOL    HW137136   2.711   1.619   3.030 -0.6912  1.5302  0.3958
 8558SOL    HW237137   2.592   1.566   2.953 -0.7420  0.7664  0.2614
 8559SOL     OW37138   4.342   1.759   5.821 -0.5891 -0.4567  0.0628
 8559SOL    HW137139   4.423   1.789   5.779 -0.5621 -0.6789 -0.0449
 8559SOL    HW237140   4.344   1.789   5.912  0.0959 -0.6257  0.1089
 8560SOL     OW37141   0.043   1.252   6.886  0.2400  0.4157 -0.2475
 8560SOL    HW137142   0.043   1.244   6.791  0.3650  2.4948 -0.4227
 8560SOL    HW237143   4.706   1.323   6.898  0.3946  0.5959 -0.5017
 8561SOL     OW37144   4.155   1.079   5.415  1.1256 -0.4717 -0.4145
 8561SOL    HW137145   4.115   1.137   5.479 -0.0127 -1.0610 -0.5893
 8561SOL    HW237146   4.081   1.067   5.355  0.9961  0.0466 -0.3581
 8562SOL     OW37147   4.112   1.098   6.951  0.3877  0.3586 -0.4028
 8562SOL    HW137148   4.190   1.122   7.001  0.2945  1.2322 -0.6676
 8562SOL    HW237149   4.070   1.184   6.956  1.7099  1.0407 -1.1695
 8563SOL     OW37150   2.856   0.535   4.485 -0.1675 -0.0684 -0.3952
 8563SOL    HW137151   2.917   0.534   4.411 -1.2535 -1.6025 -1.2506
 8563SOL    HW237152   2.872   0.453   4.532  0.6431 -0.0395 -0.6185
 8564SOL     OW37153   0.749   1.571  12.606  0.0792 -0.4569 -0.2129
 8564SOL    HW137154   0.701   1.593  12.526  0.9598 -1.2090 -0.9481
 8564SOL    HW237155   0.695   1.498  12.639  0.2575  0.5772  2.3661
 8565SOL     OW37156   3.079   0.881  15.023  0.0012  0.5329 -0.0157
 8565SOL    HW137157   3.171   0.874  15.047  0.2456 -0.6948 -1.3330
 8565SOL    HW237158   3.081   0.838  14.938  2.2704  3.7544 -1.5234
 8566SOL     OW37159   1.745   3.353   8.834  0.2154  0.0680  0.1401
 8566SOL    HW137160   1.821   3.319   8.881  0.9301 -0.5237 -1.4440
 8566SOL    HW237161   1.702   3.392   8.910 -0.1359  0.4624 -0.2644
 8567SOL     OW37162   2.852   2.741   2.268 -0.0204 -0.3743  0.1331
 8567SOL    HW137163   2.863   2.690   2.348 -1.3185 -0.2024  0.4198
 8567SOL    HW237164   2.797   2.812   2.301 -0.8764  0.4790 -3.1200
 8568SOL     OW37165   1.965   1.854   7.576 -0.2839  0.0037  0.4689
 8568SOL    HW137166   1.932   1.773   7.539  0.2528 -1.4206  3.0995
 8568SOL    HW237167   1.925   1.914   7.513  0.1731  0.0322  0.2068
 8569SOL     OW37168   0.973   4.224  15.010 -0.2904  0.8308  0.0380
 8569SOL    HW137169   0.982   4.225  14.915 -1.4245  2.3169 -0.0504
 8569SOL    HW237170   0.975   4.130  15.029 -0.6884  1.7101  4.3040
 8570SOL     OW37171   0.123   0.127  17.561  0.4772 -0.0264 -0.3883
 8570SOL    HW137172   0.146   0.115  17.653 -2.8897 -2.9188  0.0653
 8570SOL    HW237173   0.060   0.198  17.571  0.5523 -0.1457  1.0070
 8571SOL     OW37174   2.624   3.793   6.344 -0.7235  0.0174 -0.0992
 8571SOL    HW137175   2.621   3.761   6.254 -0.9060 -2.8507  0.9234
 8571SOL    HW237176   2.530   3.797   6.361 -0.6004 -0.1175  0.6303
 8572SOL     OW37177   4.246   3.093   6.949 -0.4116 -0.5981 -0.2365
 8572SOL    HW137178   4.156   3.099   6.981 -0.9922 -0.5754 -1.8740
 8572SOL    HW237179   4.283   3.020   6.999 -0.8911 -1.0663 -0.5640
 8573SOL     OW37180   4.237   3.095  11.749  0.2160 -0.2109  0.5197
 8573SOL    HW137181   4.162   3.086  11.808 -0.2553 -1.3713 -0.2614
 8573SOL    HW237182   4.316   3.102  11.803  0.1956 -0.9185  0.6317
 8574SOL     OW37183   0.293   3.821   3.551  0.2650  0.1374 -0.1391
 8574SOL    HW137184   0.283   3.752   3.486  3.3077 -0.6955  0.2511
 8574SOL    HW237185   0.220   3.791   3.605 -0.1694 -0.1361 -0.8814
 8575SOL     OW37186   3.251   1.590   3.432  0.2605 -0.4556 -0.0587
 8575SOL    HW137187   3.267   1.674   3.390  0.3189 -0.2011  0.4623
 8575SOL    HW237188   3.184   1.616   3.496 -2.3431 -1.1485 -2.5395
 8576SOL     OW37189   0.357   2.228  11.828 -0.2810  0.4388  0.3448
 8576SOL    HW137190   0.266   2.236  11.856 -0.7229 -0.7415 -0.7375
 8576SOL    HW237191   0.378   2.146  11.872 -1.7155 -1.1142 -1.8346
 8577SOL     OW37192   0.392   0.868  11.125 -0.0568 -0.6956  0.2434
 8577SOL    HW137193   0.472   0.913  11.153 -0.6338  1.8765 -2.1776
 8577SOL    HW237194   0.409   0.774  11.118  0.4385 -0.5486 -0.5266
 8578SOL     OW37195   0.475   1.876   6.578  0.0523 -0.3883  0.4840
 8578SOL    HW137196   0.566   1.859   6.602  0.1868  0.0762  0.3102
 8578SOL    HW237197   0.455   1.792   6.536  3.8497 -0.4566 -1.1840
 8579SOL     OW37198   0.536   4.053   6.185 -0.1928 -0.5319 -0.1251
 8579SOL    HW137199   0.500   3.994   6.252 -1.5630 -0.8762 -1.1888
 8579SOL    HW237200   0.603   4.103   6.232 -0.4334 -0.5263  0.2094
 8580SOL     OW37201   1.121   2.950   3.357  0.1253 -0.3962 -0.1159
 8580SOL    HW137202   1.124   2.887   3.429 -2.2950  0.1099  0.4216
 8580SOL    HW237203   1.165   3.029   3.389  0.2677 -1.3516  2.0398
 8581SOL     OW37204   0.890   3.618   0.306  0.2300 -0.0216 -0.1993
 8581SOL    HW137205   0.911   3.559   0.234  0.7557 -0.7545  0.5417
 8581SOL    HW237206   0.968   3.627   0.361  0.8491 -0.9617 -0.9128
 8582SOL     OW37207   1.034   3.293   4.393 -0.1501  0.2642 -0.2029
 8582SOL    HW137208   0.976   3.369   4.386 -1.1907 -0.5806 -0.8175
 8582SOL    HW237209   1.109   3.342   4.362 -1.5497  3.0271  0.7492
 8583SOL     OW37210   0.913   1.238  11.404  0.1846 -0.0093 -0.6588
 8583SOL    HW137211   0.961   1.315  11.373  1.8694 -0.9239 -0.3065
 8583SOL    HW237212   0.844   1.284  11.451 -0.6463 -0.6663 -1.2274
 8584SOL     OW37213   2.246   3.089   5.774  0.1211 -0.0871 -0.2883
 8584SOL    HW137214   2.173   3.148   5.755 -0.3151 -0.1629  1.1303
 8584SOL    HW237215   2.277   3.133   5.853  0.2742 -0.8058  0.0484
 8585SOL     OW37216   2.966   0.173   6.165  0.6976  0.3830  0.5155
 8585SOL    HW137217   2.966   0.165   6.070 -0.4324 -2.2917  0.7266
 8585SOL    HW237218   2.875   0.162   6.194  1.3094 -3.0411  1.1093
 8586SOL     OW37219   0.332   3.094  13.805  0.2537  0.5640 -0.1599
 8586SOL    HW137220   0.407   3.038  13.822 -0.3634  0.5901  2.6956
 8586SOL    HW237221   0.364   3.136  13.725 -1.2817 -0.8782 -1.5412
 8587SOL     OW37222   2.917   1.059  12.465 -0.2431  0.4337  0.5011
 8587SOL    HW137223   2.952   1.146  12.483 -1.8516  1.2719 -0.3523
 8587SOL    HW237224   2.823   1.067  12.482  0.2903  0.7122  3.2515
 8588SOL     OW37225   3.200   3.283  12.648 -0.1893 -0.3076  0.5209
 8588SOL    HW137226   3.128   3.236  12.690  0.0682 -2.4451 -1.4615
 8588SOL    HW237227   3.153   3.364  12.629 -2.8079 -2.7037 -3.1786
 8589SOL     OW37228   2.485   1.651   1.585 -0.1372 -0.8361 -0.1149
 8589SOL    HW137229   2.414   1.673   1.646  0.1138  1.6548 -0.7413
 8589SOL    HW237230   2.441   1.655   1.501 -0.2755 -0.6264 -0.0315
 8590SOL     OW37231   3.163   4.664   7.510  0.1919  0.4047 -0.1265
 8590SOL    HW137232   3.146   0.012   7.451  0.2767  1.3566  1.0304
 8590SOL    HW237233   3.093   4.602   7.488 -0.1956  1.1187 -0.9014
 8591SOL     OW37234   4.048   3.202   1.640 -0.4787  0.0155  0.3048
 8591SOL    HW137235   4.135   3.175   1.613 -0.2756  1.2549 -0.2943
 8591SOL    HW237236   4.020   3.263   1.571 -0.8204  1.2883  1.5781
 8592SOL     OW37237   3.943   1.253   3.022 -0.5217 -0.7032  0.3496
 8592SOL    HW137238   4.020   1.264   3.079  0.1665  2.2422 -1.1686
 8592SOL    HW237239   3.975   1.187   2.961 -1.8748  1.0537 -2.2614
 8593SOL     OW37240   2.054   3.044  13.714  0.2700  0.1646  0.8039
 8593SOL    HW137241   2.101   2.962  13.696  1.6035  1.1156  0.0195
 8593SOL    HW237242   2.065   3.088  13.630 -1.1845  0.7634  0.9280
 8594SOL     OW37243   0.042   1.523   4.709 -0.0578  0.7256 -0.9701
 8594SOL    HW137244   0.028   1.468   4.631 -1.8097 -0.1831 -0.0180
 8594SOL    HW237245   0.008   1.452   4.763 -2.5995  2.7425  0.0880
 8595SOL     OW37246   1.224   0.551   6.794 -0.6281  0.4086  0.2735
 8595SOL    HW137247   1.243   0.460   6.816 -0.5262  0.1246 -1.0187
 8595SOL    HW237248   1.308   0.581   6.760  0.0895 -2.4976 -0.5494
 8596SOL     OW37249   1.184   2.439  16.287 -0.0702 -0.1068 -0.2237
 8596SOL    HW137250   1.133   2.371  16.242 -2.3187 -0.4977  2.9453
 8596SOL    HW237251   1.259   2.430  16.228  0.4560  1.1469  0.2535
 8597SOL     OW37252   2.668   1.929   3.821  0.2024 -0.0852  0.5260
 8597SOL    HW137253   2.679   1.888   3.907  0.3696 -3.3000 -1.0551
 8597SOL    HW237254   2.663   1.851   3.766 -0.7166  1.4745 -1.5708
 8598SOL     OW37255   0.149   4.329   5.327 -0.5819  0.2639  0.3944
 8598SOL    HW137256   0.241   4.332   5.301 -0.8182 -1.3948 -0.6745
 8598SOL    HW237257   0.166   4.263   5.394 -0.9847  0.4734  0.6965
 8599SOL     OW37258   1.756   3.684   6.545 -0.4279  0.2843 -0.5739
 8599SOL    HW137259   1.727   3.593   6.533 -1.1186 -0.0922  3.6902
 8599SOL    HW237260   1.799   3.674   6.631 -1.1198  0.4737 -0.2067
 8600SOL     OW37261   1.672   1.945   3.783  0.4148 -0.1995 -0.1575
 8600SOL    HW137262   1.747   2.003   3.768  0.6209 -0.8478 -1.5795
 8600SOL    HW237263   1.609   1.972   3.717  1.7158 -0.8479 -1.6603
 8601SOL     OW37264   3.071   3.610   0.800 -0.7076  0.5931 -0.1638
 8601SOL    HW137265   2.995   3.578   0.848  0.4450 -3.2967 -0.9214
 8601SOL    HW237266   3.081   3.693   0.847  1.3135  0.6746 -0.7621
 8602SOL     OW37267   0.557   0.982   8.387  0.4471 -0.0917  0.2926
 8602SOL    HW137268   0.490   1.020   8.444  1.3529  0.0497  1.2697
 8602SOL    HW237269   0.571   1.051   8.321  1.5028 -0.5200  0.0700
 8603SOL     OW37270   2.341   1.804  10.490  0.3886  0.0432  0.9447
 8603SOL    HW137271   2.350   1.854  10.409 -2.5644 -0.9747 -0.0092
 8603SOL    HW237272   2.315   1.880  10.542 -0.9304  1.7198 -2.1372
 8604SOL     OW37273   4.158   1.886   6.240  0.2121  0.1887  0.0627
 8604SOL    HW137274   4.203   1.932   6.170 -0.4263 -3.6080 -2.8477
 8604SOL    HW237275   4.112   1.814   6.197  3.6845 -1.7248 -0.4527
 8605SOL     OW37276   3.302   0.285   4.678 -0.3446  0.1302  0.2267
 8605SOL    HW137277   3.245   0.334   4.618  0.9787 -0.2078 -1.2810
 8605SOL    HW237278   3.337   0.219   4.619  1.8381  0.0034  1.6746
 8606SOL     OW37279   1.476   2.464   1.995 -0.0899  0.0619  0.2068
 8606SOL    HW137280   1.438   2.470   2.082 -1.5840 -1.0818 -0.3499
 8606SOL    HW237281   1.463   2.370   1.984  0.0011  0.1490 -0.6438
 8607SOL     OW37282   2.330   0.606   8.739  0.4116 -0.0283  0.1522
 8607SOL    HW137283   2.300   0.679   8.685  0.1842 -1.5548 -1.7788
 8607SOL    HW237284   2.426   0.616   8.743  0.4814 -0.2035 -1.1146
 8608SOL     OW37285   3.622   2.426   7.587  0.1095 -0.1877 -0.1862
 8608SOL    HW137286   3.707   2.417   7.545  0.0880 -1.6735  0.0600
 8608SOL    HW237287   3.560   2.436   7.515  0.9607 -0.3394 -0.9457
 8609SOL     OW37288   4.174   4.654   0.535 -0.2709 -0.0365 -0.6994
 8609SOL    HW137289   4.095   4.692   0.497 -0.4294  0.7676  0.4264
 8609SOL    HW237290   4.183   4.709   0.613  1.2681 -2.1862  0.6319
 8610SOL     OW37291   0.257   1.821   5.642 -0.3664  0.1624  0.2819
 8610SOL    HW137292   0.282   1.897   5.694 -0.5810  0.6773 -0.3852
 8610SOL    HW237293   0.234   1.759   5.712  2.1156 -1.7364 -0.5814
 8611SOL     OW37294   0.672   2.244  15.551 -0.0116 -1.0026 -0.6499
 8611SOL    HW137295   0.674   2.338  15.535 -2.3913 -0.3886  2.5931
 8611SOL    HW237296   0.666   2.237  15.646  0.2171 -0.7890 -0.6227
 8612SOL     OW37297   2.244   3.684   1.706  0.2250 -0.1472 -0.0759
 8612SOL    HW137298   2.231   3.601   1.661 -0.7681  0.2039 -0.4224
 8612SOL    HW237299   2.317   3.717   1.652 -0.1898  1.0735  0.1195
 8613SOL     OW37300   0.963   4.280  10.405  0.4624 -0.0413 -0.2829
 8613SOL    HW137301   1.052   4.266  10.373 -0.1447 -1.4750 -1.3934
 8613SOL    HW237302   0.920   4.199  10.375 -1.0642  1.1527 -1.3526
 8614SOL     OW37303   0.697   2.484   5.849  0.0554  0.9211  0.7516
 8614SOL    HW137304   0.722   2.410   5.793 -3.1159 -1.0381  1.8678
 8614SOL    HW237305   0.696   2.554   5.784  0.1361 -0.5212 -0.8114
 8615SOL     OW37306   1.911   0.873   9.639 -0.1309 -0.2288  0.8873
 8615SOL    HW137307   1.865   0.830   9.711 -0.1825 -0.0324  0.9723
 8615SOL    HW237308   1.989   0.819   9.649 -1.1913 -1.9458  0.0298
 8616SOL     OW37309   3.266   1.895   1.337  0.2234  1.0220 -0.3496
 8616SOL    HW137310   3.348   1.934   1.369  1.5883 -0.6680 -1.7190
 8616SOL    HW237311   3.229   1.958   1.276 -2.1701 -0.0883 -0.0255
 8617SOL     OW37312   0.141   3.388   9.211 -0.0397 -0.0373  0.1673
 8617SOL    HW137313   0.054   3.361   9.180  0.2904 -1.2036  0.2371
 8617SOL    HW237314   0.130   3.385   9.306 -1.0425 -1.6286  0.0167
 8618SOL     OW37315   1.147   0.437   5.339  0.2970 -0.0229 -0.3754
 8618SOL    HW137316   1.089   0.485   5.399 -1.4176 -0.8782 -1.3637
 8618SOL    HW237317   1.163   0.491   5.262  2.9496  1.4907  1.2129
 8619SOL     OW37318   2.484   4.676   1.932 -0.3545 -0.2341 -0.5288
 8619SOL    HW137319   2.412   0.010   1.953  1.2008  0.8503  1.7966
 8619SOL    HW237320   2.491   4.642   2.021 -0.5741  1.3269  0.0796
 8620SOL     OW37321   3.868   4.134   3.958  0.0536 -0.0394 -0.1157
 8620SOL    HW137322   3.905   4.078   4.026  0.6614 -3.0968 -2.9440
 8620SOL    HW237323   3.948   4.174   3.924  0.3889 -0.0347  0.6802
 8621SOL     OW37324   3.987   3.618  17.508 -0.3037  0.1567  0.2664
 8621SOL    HW137325   3.944   3.689  17.555  0.7959  1.5220 -0.8164
 8621SOL    HW237326   4.020   3.562  17.579  0.3130 -1.0055 -0.9458
 8622SOL     OW37327   2.238   2.146   7.036  0.6795 -0.1776  0.5113
 8622SOL    HW137328   2.290   2.226   7.036 -1.0404  0.9193 -2.0523
 8622SOL    HW237329   2.302   2.076   7.055  0.8700 -0.2296 -0.3361
 8623SOL     OW37330   3.485   1.057  12.439  0.1286 -0.1935  0.2733
 8623SOL    HW137331   3.548   0.988  12.421 -1.3263 -1.5689  0.4759
 8623SOL    HW237332   3.523   1.093  12.519  3.0148 -0.2291 -1.1020
 8624SOL     OW37333   0.488   2.147  10.847 -0.2778 -0.1178  0.3989
 8624SOL    HW137334   0.519   2.182  10.930  1.4667  0.6554 -0.5877
 8624SOL    HW237335   0.473   2.233  10.808 -1.6742  0.2543  1.7831
 8625SOL     OW37336   3.256   0.095   6.023  0.9049  0.3268 -0.2641
 8625SOL    HW137337   3.236   0.169   6.079  0.3844 -1.0798  1.3942
 8625SOL    HW237338   3.333   0.054   6.062  0.3453  0.5255  1.0279
 8626SOL     OW37339   2.173   0.065   7.045 -0.7782 -0.4127  0.2551
 8626SOL    HW137340   2.089   0.111   7.042 -1.4914 -1.6788  0.9779
 8626SOL    HW237341   2.225   0.140   7.074 -4.0461  1.8972  0.1837
 8627SOL     OW37342   0.278   2.102  11.569 -0.1100 -0.0336 -0.1341
 8627SOL    HW137343   0.318   2.182  11.604 -0.5592 -1.0213  2.6769
 8627SOL    HW237344   0.186   2.117  11.587 -0.9259 -2.0394 -2.6816
 8628SOL     OW37345   2.691   0.889   7.351  0.3885 -0.0770 -0.0365
 8628SOL    HW137346   2.657   0.801   7.365 -2.1114  0.7985 -0.5170
 8628SOL    HW237347   2.711   0.910   7.442  3.0643  2.2993 -1.1598
 8629SOL     OW37348   4.146   1.314   4.462 -0.1461 -0.1893  0.1596
 8629SOL    HW137349   4.160   1.298   4.555 -0.3177 -0.0744  0.2045
 8629SOL    HW237350   4.163   1.408   4.454  0.0884 -0.0546  2.2088
 8630SOL     OW37351   4.256   0.751   3.397  0.6466  0.2971 -0.3733
 8630SOL    HW137352   4.350   0.743   3.380  0.5473  1.2206 -1.3368
 8630SOL    HW237353   4.226   0.713   3.314  3.0305 -1.9310 -0.1975
 8631SOL     OW37354   3.467   1.533   7.369  0.0245  0.2749  0.1769
 8631SOL    HW137355   3.513   1.570   7.445 -0.2097 -0.0212  0.4665
 8631SOL    HW237356   3.475   1.438   7.379  0.3422  0.1596 -1.1835
 8632SOL     OW37357   3.732   2.466   1.783  0.0932  0.2721 -0.2752
 8632SOL    HW137358   3.649   2.472   1.829 -0.1167  0.6382 -0.6984
 8632SOL    HW237359   3.742   2.551   1.738 -0.4837  0.6316  0.2761
 8633SOL     OW37360   0.124   1.781   2.691  0.1637 -0.4867 -0.1323
 8633SOL    HW137361   0.202   1.761   2.639 -0.8358 -0.9840 -1.4222
 8633SOL    HW237362   0.052   1.784   2.628 -0.3684  1.2773  0.5535
 8634SOL     OW37363   3.021   3.581   6.154  0.0941  0.2025 -0.4212
 8634SOL    HW137364   3.052   3.670   6.136  0.1685  0.1034 -0.7848
 8634SOL    HW237365   3.063   3.527   6.086 -0.4104  0.3140 -0.8241
 8635SOL     OW37366   3.876   3.925  14.874 -0.4800 -0.0424  0.0325
 8635SOL    HW137367   3.922   3.841  14.878  0.1534  0.3911  2.3686
 8635SOL    HW237368   3.869   3.942  14.968 -2.6349  1.2169 -0.3506
 8636SOL     OW37369   4.060   1.575   2.928  0.3173  0.6908 -0.2446
 8636SOL    HW137370   3.981   1.524   2.942  0.3205  0.6948 -0.2112
 8636SOL    HW237371   4.029   1.662   2.954  1.1957  0.4722  1.5585
 8637SOL     OW37372   3.237   1.480   4.454  0.0234 -0.1184 -0.0030
 8637SOL    HW137373   3.248   1.572   4.480  2.1309 -0.5232  0.5405
 8637SOL    HW237374   3.326   1.454   4.429  0.4382  1.9987 -0.7271
 8638SOL     OW37375   3.691   3.073   1.777  0.4264 -0.4300  0.4819
 8638SOL    HW137376   3.671   3.063   1.870 -1.6926  0.1751  0.0910
 8638SOL    HW237377   3.604   3.058   1.739  0.7270  0.2401 -0.4468
 8639SOL     OW37378   1.845   2.008   7.390 -0.4550 -0.4689 -0.0233
 8639SOL    HW137379   1.786   1.944   7.350 -0.4473  0.1017 -0.9501
 8639SOL    HW237380   1.917   2.007   7.328 -0.7543  1.4159 -0.3985
 8640SOL     OW37381   4.387   2.565   9.072 -0.4238  0.6779  0.3389
 8640SOL    HW137382   4.342   2.491   9.031 -1.2944  1.1668  0.4078
 8640SOL    HW237383   4.458   2.517   9.114 -0.5957  1.1472  1.1467
 8641SOL     OW37384   4.550   1.313   6.254 -0.3316  0.2028 -0.4826
 8641SOL    HW137385   4.557   1.229   6.209 -0.1742 -1.0435  1.8471
 8641SOL    HW237386   4.621   1.366   6.218 -1.3701  3.5157  2.2794
 8642SOL     OW37387   2.157   3.762   0.954 -0.6045  0.1611  0.3482
 8642SOL    HW137388   2.230   3.703   0.936 -0.5285  0.3934 -0.1040
 8642SOL    HW237389   2.088   3.728   0.897 -0.6461  3.1953 -1.4267
 8643SOL     OW37390   3.154   3.328   3.296  0.0743  0.0337  0.1393
 8643SOL    HW137391   3.214   3.255   3.312 -1.3466 -0.8411  1.4799
 8643SOL    HW237392   3.199   3.398   3.342 -1.9626  0.5767  1.3284
 8644SOL     OW37393   3.553   3.468   5.795 -0.3122  0.2452 -0.2806
 8644SOL    HW137394   3.581   3.493   5.708  2.9327  1.9499  1.2731
 8644SOL    HW237395   3.469   3.426   5.776 -0.6587  0.3821  0.9526
 8645SOL     OW37396   0.660   1.616   1.329 -0.0070 -0.3263  0.1357
 8645SOL    HW137397   0.753   1.626   1.352 -0.2663  0.3494  0.9125
 8645SOL    HW237398   0.666   1.615   1.233 -0.2047  3.0785  0.0804
 8646SOL     OW37399   1.047   4.525  14.914 -0.2902 -0.2868 -0.3060
 8646SOL    HW137400   0.972   4.470  14.937 -1.0791  1.7555  1.9973
 8646SOL    HW237401   1.124   4.483  14.954 -2.5401 -1.3944  2.9216
 8647SOL     OW37402   3.629   0.696  13.461  1.0868 -0.2902 -0.5123
 8647SOL    HW137403   3.709   0.699  13.515  0.3534  1.3931  0.4826
 8647SOL    HW237404   3.634   0.616  13.409 -0.9442 -0.7640  0.0330
 8648SOL     OW37405   0.115   3.077  14.532  0.8081 -0.3045 -0.3685
 8648SOL    HW137406   0.076   2.993  14.556  0.3985 -0.0058  0.0074
 8648SOL    HW237407   0.091   3.080  14.439 -0.8372 -0.0987  0.0543
 8649SOL     OW37408   1.388   0.026   1.759  0.8514 -0.0536  0.4717
 8649SOL    HW137409   1.394   4.659   1.733  0.7692  0.4308 -1.3246
 8649SOL    HW237410   1.304   0.058   1.725  0.5013  0.2206  1.6146
 8650SOL     OW37411   3.922   0.742   5.538  0.3004 -0.3322 -0.2533
 8650SOL    HW137412   3.952   0.700   5.619  1.0285 -1.1049 -0.9223
 8650SOL    HW237413   3.845   0.790   5.567  1.9725  1.3113  1.5295
 8651SOL     OW37414   0.406   1.783   1.304  0.0174  0.0936  0.7669
 8651SOL    HW137415   0.398   1.858   1.244  0.4325 -0.8959 -0.5219
 8651SOL    HW237416   0.450   1.719   1.248  0.0817 -0.8552  1.9106
 8652SOL     OW37417   3.391   4.680  15.433 -0.4585  0.7219 -0.7770
 8652SOL    HW137418   3.301   4.653  15.452  0.0959  0.0212  0.9163
 8652SOL    HW237419   3.398   0.020  15.503  0.1706 -1.1359  0.8909
 8653SOL     OW37420   3.958   4.550  15.741 -0.3858 -0.6522  0.1458
 8653SOL    HW137421   3.863   4.558  15.745 -0.3826  1.1181 -3.2849
 8653SOL    HW237422   3.966   4.455  15.730 -2.5444 -0.9407  1.1386
 8654SOL     OW37423   4.379   2.173   7.941  0.8979  0.7281  0.0572
 8654SOL    HW137424   4.323   2.222   7.880 -0.2546  2.6861  2.7226
 8654SOL    HW237425   4.385   2.233   8.015 -0.0083  2.4097 -1.2193
 8655SOL     OW37426   3.384   2.153   4.898 -0.3420 -0.1754  0.4225
 8655SOL    HW137427   3.331   2.219   4.853 -1.2925 -1.2267  0.0141
 8655SOL    HW237428   3.377   2.083   4.833 -1.5166  0.0643  0.2917
 8656SOL     OW37429   0.364   1.547   6.540 -0.9844  0.6309  0.3152
 8656SOL    HW137430   0.342   1.460   6.571 -2.7678  1.2846  0.8519
 8656SOL    HW237431   0.376   1.538   6.445 -0.2157  1.0519  0.3672
 8657SOL     OW37432   0.124   1.426   5.558  0.0085  0.0781 -0.4656
 8657SOL    HW137433   0.180   1.494   5.519 -1.0037  0.3675 -1.4338
 8657SOL    HW237434   0.071   1.395   5.485 -0.9821 -0.8421  0.6503
 8658SOL     OW37435   1.558   0.427   3.608  0.3223 -0.1838  0.2345
 8658SOL    HW137436   1.603   0.343   3.620 -0.0283 -0.4928 -0.6131
 8658SOL    HW237437   1.533   0.441   3.699 -0.5029  2.7275 -0.4483
 8659SOL     OW37438   3.651   3.062   1.435 -0.4436 -0.3650  0.4429
 8659SOL    HW137439   3.624   2.976   1.468 -0.9763 -0.3436  0.0692
 8659SOL    HW237440   3.672   3.112   1.514  0.5769  2.0448 -1.3612
 8660SOL     OW37441   0.858   4.205  10.927  0.3367 -0.3790 -0.3261
 8660SOL    HW137442   0.799   4.140  10.889 -1.9063  1.0217  0.8169
 8660SOL    HW237443   0.878   4.162  11.011  0.0181  0.0882 -0.0112
 8661SOL     OW37444   3.735   1.639   4.994  0.3203 -0.1704 -0.2787
 8661SOL    HW137445   3.700   1.574   5.055 -2.3193  2.5125  1.0314
 8661SOL    HW237446   3.699   1.613   4.909  1.7009 -0.7119 -0.6923
 8662SOL     OW37447   3.704   4.051   6.531  0.3297  0.0686  0.3261
 8662SOL    HW137448   3.668   4.085   6.613 -0.8759 -1.6141  0.4885
 8662SOL    HW237449   3.713   4.132   6.480 -1.6491  0.4619  0.6075
 8663SOL     OW37450   4.302   3.264   3.060 -0.0931  0.0927  0.3298
 8663SOL    HW137451   4.371   3.326   3.038 -1.9446  1.7093 -0.8883
 8663SOL    HW237452   4.259   3.267   2.975 -0.8075  0.4465  0.7093
 8664SOL     OW37453   1.229   1.341   6.511  0.0376  0.3325 -0.0930
 8664SOL    HW137454   1.253   1.248   6.512  1.3655  0.6691  0.6371
 8664SOL    HW237455   1.165   1.344   6.440  0.4440  1.4440 -0.4112
 8665SOL     OW37456   1.574   0.129   2.868 -0.0110 -0.1856 -0.0429
 8665SOL    HW137457   1.636   0.187   2.912  0.0829  0.4837 -1.0714
 8665SOL    HW237458   1.508   0.116   2.936 -0.1163 -1.0968 -0.3143
 8666SOL     OW37459   0.545   0.999   7.672 -0.1275 -0.3465  1.1740
 8666SOL    HW137460   0.494   1.061   7.726 -1.3611 -0.5928  0.2772
 8666SOL    HW237461   0.475   0.965   7.617  2.6254 -1.1044 -1.8748
 8667SOL     OW37462   3.179   4.461   9.114 -0.3751  0.4081 -0.1353
 8667SOL    HW137463   3.246   4.412   9.161 -0.0876  1.4126  0.5091
 8667SOL    HW237464   3.241   4.527   9.080  1.8110 -1.0961  0.9089
 8668SOL     OW37465   2.227   0.997   7.755  0.0977 -0.7402 -0.7935
 8668SOL    HW137466   2.133   1.010   7.768 -0.0439 -2.2378 -0.3280
 8668SOL    HW237467   2.237   0.903   7.772 -0.2313 -0.9368 -1.6719
 8669SOL     OW37468   2.258   0.155  17.195  0.0566  0.3003 -0.1910
 8669SOL    HW137469   2.342   0.200  17.202  0.2554  0.1859 -1.7213
 8669SOL    HW237470   2.197   0.224  17.170  2.3827  2.4537  0.1208
 8670SOL     OW37471   3.860   1.699  16.197  0.0730  0.2625 -0.1262
 8670SOL    HW137472   3.893   1.637  16.132  0.0312  0.0079  0.0930
 8670SOL    HW237473   3.911   1.779  16.189  0.2241  0.0346 -1.5257
 8671SOL     OW37474   1.769   3.006   6.297 -0.3152 -0.1731  0.5443
 8671SOL    HW137475   1.807   3.010   6.385 -0.8833 -1.6201  0.8512
 8671SOL    HW237476   1.789   2.915   6.277  1.3221  0.5995 -1.3954
 8672SOL     OW37477   1.484   2.392   4.955  0.1385 -0.0634 -0.0141
 8672SOL    HW137478   1.534   2.469   4.983  0.5154 -0.7323  1.1722
 8672SOL    HW237479   1.460   2.336   5.029 -0.4593 -0.5143 -0.5453
 8673SOL     OW37480   4.357   1.982   0.250 -0.6061  0.2469  0.6462
 8673SOL    HW137481   4.345   2.014   0.160 -0.5079 -0.6707  0.3122
 8673SOL    HW237482   4.378   2.058   0.304  0.7364 -0.8625  1.6741
 8674SOL     OW37483   4.227   2.966  14.660  0.2648 -0.1292 -0.1552
 8674SOL    HW137484   4.170   2.996  14.588 -1.1177  0.5136  1.2122
 8674SOL    HW237485   4.310   2.999  14.627  0.2922  0.8660  0.9440
 8675SOL     OW37486   3.303   0.926   5.308  0.7637  0.0957 -0.1040
 8675SOL    HW137487   3.344   0.943   5.223  0.6214 -1.8578 -0.5746
 8675SOL    HW237488   3.381   0.886   5.347  1.0027  0.6998  0.0328
 8676SOL     OW37489   4.683   1.470   3.647  0.0529 -0.4390  0.1320
 8676SOL    HW137490   4.588   1.476   3.637  0.0976 -0.1786 -0.1304
 8676SOL    HW237491   4.702   1.377   3.659  2.9921 -0.0443 -1.2779
 8677SOL     OW37492   3.544   3.486   2.567  0.5393  0.1265 -0.2380
 8677SOL    HW137493   3.476   3.552   2.582  0.3564 -0.4474  1.4815
 8677SOL    HW237494   3.525   3.450   2.480 -3.5348  1.5441  0.0423
 8678SOL     OW37495   3.439   2.006   4.218 -0.2264  0.3263 -0.7560
 8678SOL    HW137496   3.502   2.074   4.195 -1.1122  1.2725 -0.3916
 8678SOL    HW237497   3.384   2.019   4.141 -2.6607 -0.4062  0.8326
 8679SOL     OW37498   2.644   4.723   8.752 -0.4605 -0.4468 -0.3471
 8679SOL    HW137499   2.665   0.090   8.760  0.8465 -0.7015 -0.8215
 8679SOL    HW237500   2.734   4.693   8.741 -0.6675 -0.8315 -1.0457
 8680SOL     OW37501   2.800   2.740  13.361 -0.9200  0.0062 -0.0019
 8680SOL    HW137502   2.856   2.735  13.439  1.0871 -1.2547 -1.5220
 8680SOL    HW237503   2.810   2.835  13.355  0.6183 -0.2570 -1.4793
 8681SOL     OW37504   4.194   2.175   8.629 -0.1299 -0.2424 -0.1982
 8681SOL    HW137505   4.114   2.221   8.605  1.1768  1.8750 -0.4042
 8681SOL    HW237506   4.252   2.244   8.659 -0.1541 -0.2842 -0.0531
 8682SOL     OW37507   3.375   2.496   3.777  0.6711 -0.2913  0.1750
 8682SOL    HW137508   3.367   2.591   3.779 -2.0725 -0.5253 -0.9169
 8682SOL    HW237509   3.332   2.480   3.693  1.0296  1.9910 -0.4402
 8683SOL     OW37510   0.706   3.082   7.797 -0.4618 -0.6225  0.6533
 8683SOL    HW137511   0.719   3.047   7.709  0.6384  0.2677  0.4557
 8683SOL    HW237512   0.708   3.002   7.850  0.1457  0.6097  2.4972
 8684SOL     OW37513   4.317   4.468   5.022  0.1050 -0.0651  0.3364
 8684SOL    HW137514   4.366   4.544   4.992  0.3237  0.4525  1.9799
 8684SOL    HW237515   4.293   4.494   5.111 -2.0463 -1.6725  0.2360
 8685SOL     OW37516   2.653   1.444   1.296 -0.2339  0.8911 -0.1710
 8685SOL    HW137517   2.717   1.406   1.356 -1.0071 -1.7604 -1.0344
 8685SOL    HW237518   2.570   1.410   1.329 -0.3502  2.0465  0.7397
 8686SOL     OW37519   3.180   4.672   6.326 -0.5124 -0.1493 -0.0449
 8686SOL    HW137520   3.129   4.621   6.390 -1.4666 -0.4072 -1.0112
 8686SOL    HW237521   3.171   4.607   6.257 -1.4043  2.2877 -2.2150
 8687SOL     OW37522   2.303   4.652   8.838 -0.1127 -0.4139  0.5498
 8687SOL    HW137523   2.217   4.631   8.804 -2.0031 -0.2724  5.2387
 8687SOL    HW237524   2.285   0.007   8.887  0.0664 -2.1297  3.4204
 8688SOL     OW37525   3.368   2.695   2.272 -0.0432  0.2830  0.1223
 8688SOL    HW137526   3.304   2.683   2.201  1.6239  0.4761 -1.3968
 8688SOL    HW237527   3.367   2.790   2.288  2.5855  0.2606  0.3324
 8689SOL     OW37528   0.170   3.620   1.982  0.3688  0.6178  0.2318
 8689SOL    HW137529   0.139   3.654   1.898  1.7575  1.5538  0.0963
 8689SOL    HW237530   0.089   3.637   2.029  0.4594  0.5846  0.4022
 8690SOL     OW37531   4.200   1.317   2.822 -0.0361  0.1950 -0.0567
 8690SOL    HW137532   4.261   1.244   2.824 -0.2080 -0.0168 -2.4104
 8690SOL    HW237533   4.124   1.284   2.774 -0.1455  1.7076 -0.9472
 8691SOL     OW37534   1.828   0.598  12.156 -0.3947  0.2294  0.2349
 8691SOL    HW137535   1.780   0.539  12.098 -0.5804 -0.1280  0.7505
 8691SOL    HW237536   1.757   0.629  12.213  0.1453 -0.0206  1.0488
 8692SOL     OW37537   3.786   3.299   7.074 -0.5245 -0.3958  0.1655
 8692SOL    HW137538   3.821   3.388   7.070  1.6647 -1.2511  0.0863
 8692SOL    HW237539   3.748   3.303   7.161  0.9657  1.4927  0.7414
 8693SOL     OW37540   3.931   3.937   8.176  0.0636 -0.7062  0.1133
 8693SOL    HW137541   3.933   3.936   8.272  0.4559  3.0488  0.1450
 8693SOL    HW237542   4.002   3.998   8.155 -0.3300 -0.2654  0.0594
 8694SOL     OW37543   0.764   2.636   1.918  0.1862 -0.1176  0.2193
 8694SOL    HW137544   0.725   2.549   1.916  0.4983 -0.2826  1.1512
 8694SOL    HW237545   0.847   2.631   1.870  0.9892 -0.7977  1.6922
 8695SOL     OW37546   3.795   1.535   5.387 -0.2192 -0.0614 -0.4134
 8695SOL    HW137547   3.873   1.479   5.380  0.2551  0.5996 -0.3287
 8695SOL    HW237548   3.766   1.500   5.471 -0.9067  1.4954 -0.0184
 8696SOL     OW37549   0.027   2.204   9.000 -0.3013  0.3265 -0.2518
 8696SOL    HW137550   4.725   2.213   9.092 -1.8196 -0.4417 -0.6180
 8696SOL    HW237551   0.040   2.109   9.001 -1.5364  0.1572  0.6045
 8697SOL     OW37552   3.413   2.137  15.949  0.3831  0.1221  1.1509
 8697SOL    HW137553   3.508   2.130  15.939 -0.2613 -3.7721 -2.4127
 8697SOL    HW237554   3.395   2.231  15.940  1.4139  0.4108  2.0582
 8698SOL     OW37555   2.233   3.202  11.515  0.3495  0.0750 -0.5582
 8698SOL    HW137556   2.313   3.167  11.476  0.6245  0.4746 -0.3496
 8698SOL    HW237557   2.185   3.119  11.525  0.3131 -0.0161 -1.5439
 8699SOL     OW37558   2.058   3.419  10.757  0.2786 -0.1387 -0.2480
 8699SOL    HW137559   1.963   3.412  10.748  0.1532  0.6240  0.4312
 8699SOL    HW237560   2.063   3.514  10.769  0.7906  0.2674 -3.6320
 8700SOL     OW37561   3.360   3.459   6.748  0.2758  0.2862 -0.2423
 8700SOL    HW137562   3.390   3.540   6.790  0.7660 -0.3312  0.6046
 8700SOL    HW237563   3.420   3.437   6.676  0.0263 -0.7156 -0.1538
 8701SOL     OW37564   0.571   2.106   8.223 -0.2240  0.0755 -0.1673
 8701SOL    HW137565   0.597   2.131   8.134 -1.7755  0.2933 -0.5622
 8701SOL    HW237566   0.592   2.013   8.223 -1.1423 -0.1226 -0.5646
 8702SOL     OW37567   0.586   4.658  15.477  0.1533 -0.1958 -0.3784
 8702SOL    HW137568   0.522   4.588  15.485  1.1017 -0.9993  0.1595
 8702SOL    HW237569   0.552   0.016  15.510  0.3588 -0.1734 -0.2197
 8703SOL     OW37570   0.872   0.071   4.247  0.0236  0.5546  0.2051
 8703SOL    HW137571   0.952   0.041   4.289 -1.0440 -1.4050  0.8229
 8703SOL    HW237572   0.814   0.085   4.322 -0.1591  2.1241 -0.2382
 8704SOL     OW37573   1.777   0.081  12.799  0.4814 -0.1035 -0.3462
 8704SOL    HW137574   1.862   0.079  12.755 -0.3532 -0.5673 -1.9464
 8704SOL    HW237575   1.793   0.005  12.855  1.3003  1.3230  1.3140
 8705SOL     OW37576   2.681   0.320   2.453  0.4250  0.0380  0.6195
 8705SOL    HW137577   2.753   0.285   2.400  0.6357  0.7351  0.4452
 8705SOL    HW237578   2.607   0.278   2.408 -0.5047  2.5320 -0.1863
 8706SOL     OW37579   3.142   2.393   8.480 -0.6259 -0.4382  0.1301
 8706SOL    HW137580   3.187   2.340   8.546 -0.7122 -1.5475 -0.7047
 8706SOL    HW237581   3.067   2.337   8.461 -0.9327  0.7077 -2.0414
 8707SOL     OW37582   3.579   3.720  10.815 -0.2548  0.5174 -0.4567
 8707SOL    HW137583   3.596   3.799  10.764  0.7767  0.1296 -0.7090
 8707SOL    HW237584   3.516   3.760  10.875 -0.4675  0.7832 -0.8558
 8708SOL     OW37585   2.396   2.414   4.599 -0.2827  0.6566 -0.2510
 8708SOL    HW137586   2.461   2.438   4.533 -0.4810 -1.4332 -1.2240
 8708SOL    HW237587   2.345   2.343   4.561  0.5316 -0.7663  1.2889
 8709SOL     OW37588   2.725   3.912   2.608  0.5669  0.4140 -0.2642
 8709SOL    HW137589   2.775   3.927   2.527  2.4989 -0.6275  0.7171
 8709SOL    HW237590   2.679   3.995   2.601  0.7275  0.5238 -0.0013
 8710SOL     OW37591   3.516   2.399   9.853 -0.6104  0.0087  0.1215
 8710SOL    HW137592   3.534   2.424   9.944  0.2423 -0.2168  0.0070
 8710SOL    HW237593   3.523   2.482   9.805 -0.2941  0.4625  0.9454
 8711SOL     OW37594   3.802   4.346   8.057  0.2139 -0.7667  0.1245
 8711SOL    HW137595   3.772   4.279   7.997 -0.1859  1.1555 -1.8082
 8711SOL    HW237596   3.885   4.366   8.013  0.4089  0.7688  1.1948
 8712SOL     OW37597   0.691   3.333  11.390  0.2124  0.2573  0.4379
 8712SOL    HW137598   0.671   3.349  11.482 -1.8743 -0.4101  0.1056
 8712SOL    HW237599   0.766   3.391  11.376  0.4398 -0.0209  0.5001
 8713SOL     OW37600   4.330   2.077   7.255 -0.0730  0.6630 -0.2854
 8713SOL    HW137601   4.339   2.158   7.204  1.2835  1.0600  0.5696
 8713SOL    HW237602   4.244   2.048   7.225  0.2517 -0.0526 -0.5396
 8714SOL     OW37603   1.220   4.012   6.859  0.4179  0.1348  0.0550
 8714SOL    HW137604   1.208   4.023   6.953 -0.1823  0.9317 -0.1098
 8714SOL    HW237605   1.315   4.003   6.849  0.1946 -1.5833 -0.5403
 8715SOL     OW37606   3.576   0.928  10.179 -0.0962 -0.0732 -0.0863
 8715SOL    HW137607   3.639   0.994  10.209  0.6769 -1.3161  1.0254
 8715SOL    HW237608   3.530   0.981  10.113  2.2960  0.7769 -1.0973
 8716SOL     OW37609   0.297   1.716  17.302  0.3791  0.0222 -0.3332
 8716SOL    HW137610   0.333   1.791  17.349 -3.4338 -0.4643  3.3843
 8716SOL    HW237611   0.203   1.731  17.301  0.4012  0.3044  2.6534
 8717SOL     OW37612   3.086   3.945   7.113 -0.6985  0.1456  0.1957
 8717SOL    HW137613   3.025   3.979   7.048  0.7951  0.6420 -0.9663
 8717SOL    HW237614   3.029   3.935   7.189  1.8903 -2.1592  1.8295
 8718SOL     OW37615   1.394   1.688   2.429 -0.3923 -0.0184  0.1020
 8718SOL    HW137616   1.387   1.776   2.392 -0.3349 -0.1220 -0.1546
 8718SOL    HW237617   1.320   1.684   2.490 -0.8746 -0.4502 -0.5175
 8719SOL     OW37618   2.680   3.285   2.875 -0.4077  0.2943 -0.5108
 8719SOL    HW137619   2.635   3.238   2.945 -2.6839  1.7600 -0.9955
 8719SOL    HW237620   2.694   3.369   2.920  2.5359 -2.2449  3.2684
 8720SOL     OW37621   3.525   0.812   2.807 -0.4637  0.3923 -0.5017
 8720SOL    HW137622   3.450   0.752   2.809 -1.4931  1.8002  3.8844
 8720SOL    HW237623   3.483   0.893   2.776 -1.0278  0.7641  1.2264
 8721SOL     OW37624   2.250   0.033  12.255  0.2171 -0.6159  0.1762
 8721SOL    HW137625   2.241   0.124  12.284  0.6104 -0.3714 -0.4775
 8721SOL    HW237626   2.297   0.045  12.172 -0.4249  2.3683  0.2525
 8722SOL     OW37627   2.695   4.459  17.631  0.2535  0.5393  0.3238
 8722SOL    HW137628   2.732   4.546  17.618 -0.1530  0.5753 -0.6004
 8722SOL    HW237629   2.774   4.408  17.619 -1.7096 -1.7562 -2.5385
 8723SOL     OW37630   1.221   2.778  15.141  0.0074 -0.4923  0.3097
 8723SOL    HW137631   1.205   2.858  15.191  0.4121 -0.3279  0.1770
 8723SOL    HW237632   1.138   2.784  15.095 -0.5574 -0.1735  1.3647
 8724SOL     OW37633   0.835   4.057   9.800  0.0651 -0.7173  0.0668
 8724SOL    HW137634   0.882   3.983   9.762 -0.3632 -0.0712 -1.7226
 8724SOL    HW237635   0.897   4.129   9.790 -0.5047  0.1823  2.9979
 8725SOL     OW37636   4.156   2.417   9.402  0.1214  0.3035  0.0197
 8725SOL    HW137637   4.077   2.423   9.349  2.3326 -0.2446 -3.3733
 8725SOL    HW237638   4.115   2.383   9.481 -0.0965 -0.2532 -0.3268
 8726SOL     OW37639   0.415   4.544   8.820  0.0152 -0.0145 -0.0471
 8726SOL    HW137640   0.469   4.609   8.865 -1.4909  1.7969 -0.8783
 8726SOL    HW237641   0.452   4.465   8.859  0.7013 -0.2974 -1.2776
 8727SOL     OW37642   1.615   2.580  15.295  0.1455 -0.0232 -0.0208
 8727SOL    HW137643   1.555   2.651  15.270  0.7330  1.0182  1.5208
 8727SOL    HW237644   1.576   2.576  15.382 -0.8644  3.0322 -0.3077
 8728SOL     OW37645   4.156   1.346  10.155  0.4317 -0.0660 -1.0344
 8728SOL    HW137646   4.249   1.351  10.131  0.3826 -0.3451 -1.2772
 8728SOL    HW237647   4.136   1.253  10.144 -1.6004  0.5326 -2.3369
 8729SOL     OW37648   1.167   4.077   8.078 -0.1458 -0.2751  0.5539
 8729SOL    HW137649   1.209   4.033   8.004  2.0575  0.9209  1.1173
 8729SOL    HW237650   1.089   4.102   8.028  0.2495 -1.0097 -0.4145
 8730SOL     OW37651   4.100   2.393   8.126 -0.4970  0.3962 -0.1057
 8730SOL    HW137652   4.113   2.298   8.128 -1.5789  0.2611  0.0762
 8730SOL    HW237653   4.007   2.410   8.115 -0.2195  1.4062 -0.9172
 8731SOL     OW37654   3.185   3.747   5.981 -0.0909  0.5010  0.1850
 8731SOL    HW137655   3.230   3.663   5.994  1.5327  1.2912 -0.2948
 8731SOL    HW237656   3.215   3.785   5.899 -0.3014  0.8639  0.2794
 8732SOL     OW37657   0.145   4.018   1.045 -0.0341 -0.1328  0.1652
 8732SOL    HW137658   0.234   3.988   1.024  0.4257  1.8566 -0.8025
 8732SOL    HW237659   0.115   4.045   0.959  1.2183  1.9884  0.3740
 8733SOL     OW37660   0.530   0.727   1.405 -0.0411 -0.7868 -0.2290
 8733SOL    HW137661   0.514   0.767   1.319  2.1252  1.2705  0.3296
 8733SOL    HW237662   0.605   0.674   1.379 -0.8632 -2.1610  0.2348
 8734SOL     OW37663   0.915   1.109   1.591  0.0264  0.3346 -0.0077
 8734SOL    HW137664   0.836   1.149   1.553 -0.4672 -0.5822  0.0587
 8734SOL    HW237665   0.907   1.023   1.551  1.6235  0.3815 -0.4231
 8735SOL     OW37666   1.005   1.799   0.919  0.0243  0.4870  0.1579
 8735SOL    HW137667   1.083   1.835   0.876 -0.0117  0.2554 -0.1007
 8735SOL    HW237668   0.998   1.870   0.983 -2.4918  0.1731  0.2211
 8736SOL     OW37669   0.940   4.144   4.221  0.5032 -0.2875  0.3777
 8736SOL    HW137670   0.996   4.072   4.248 -0.8224 -1.3615  0.2723
 8736SOL    HW237671   0.864   4.107   4.175  1.0136  1.2725 -1.7301
 8737SOL     OW37672   4.527   1.423  15.609 -0.5009 -0.1414 -0.1046
 8737SOL    HW137673   4.518   1.356  15.677  2.3431  0.9572  1.3492
 8737SOL    HW237674   4.470   1.494  15.640 -0.6291 -0.0578 -0.5402
 8738SOL     OW37675   2.344   4.261   7.546 -0.0588  0.8136 -0.4363
 8738SOL    HW137676   2.271   4.308   7.585 -1.6964 -0.9558 -1.3424
 8738SOL    HW237677   2.345   4.185   7.605 -2.8306 -0.2640 -1.7458
 8739SOL     OW37678   1.899   0.214   3.846 -0.2243  0.2376  0.4453
 8739SOL    HW137679   1.993   0.205   3.863 -0.5479 -1.3098  1.4742
 8739SOL    HW237680   1.881   0.136   3.794  0.0420  0.5187 -0.0606
 8740SOL     OW37681   1.274   0.151  14.909 -0.2052  0.4967  0.3548
 8740SOL    HW137682   1.287   0.141  14.815  2.1986  1.9460  0.5392
 8740SOL    HW237683   1.350   0.203  14.933 -1.3821  2.2315  0.3611
 8741SOL     OW37684   2.070   4.421  13.596 -0.4341  0.0097  0.0801
 8741SOL    HW137685   2.062   4.483  13.668 -1.0801 -0.2476  0.2329
 8741SOL    HW237686   2.084   4.341  13.646 -0.8650 -0.1777 -0.0889
 8742SOL     OW37687   4.420   0.979   3.249  0.4795 -0.0288 -0.2492
 8742SOL    HW137688   4.455   0.891   3.267 -1.0713 -0.8936 -1.4937
 8742SOL    HW237689   4.492   1.032   3.214  1.5466 -2.0685 -1.1770
 8743SOL     OW37690   0.751   1.390  11.906 -0.5505  0.0445 -0.1665
 8743SOL    HW137691   0.806   1.467  11.894 -1.0979  0.4034 -0.3554
 8743SOL    HW237692   0.784   1.360  11.991  0.7496 -1.9415 -1.3731
 8744SOL     OW37693   4.313   1.579   8.401  0.5719  0.0031  0.4136
 8744SOL    HW137694   4.359   1.663   8.393  0.9406  0.0545  3.1597
 8744SOL    HW237695   4.270   1.574   8.315  0.1134 -1.3389  0.7247
 8745SOL     OW37696   0.793   2.609   7.271 -0.4327 -0.0555 -0.1156
 8745SOL    HW137697   0.726   2.620   7.203 -0.1047 -1.4914 -0.6613
 8745SOL    HW237698   0.842   2.528   7.254 -0.8907 -0.1779 -0.8475
 8746SOL     OW37699   1.610   0.658  16.541 -0.1130 -0.2879 -0.7285
 8746SOL    HW137700   1.597   0.614  16.457  1.3414 -1.6058 -0.2800
 8746SOL    HW237701   1.518   0.666  16.567  0.3484  1.3083  0.3927
 8747SOL     OW37702   2.515   3.775   3.256  0.2079  0.1927  0.0834
 8747SOL    HW137703   2.539   3.815   3.173  0.1611 -0.2015 -0.1167
 8747SOL    HW237704   2.567   3.695   3.250  0.8909  0.6617 -0.2749
 8748SOL     OW37705   0.781   3.177   9.572  0.0590  0.3271 -0.6280
 8748SOL    HW137706   0.836   3.223   9.635 -2.2417 -1.2433  2.5333
 8748SOL    HW237707   0.708   3.163   9.632 -0.1802 -0.0011 -0.9992
 8749SOL     OW37708   1.213   3.595  11.747  0.0359  0.3612  0.1002
 8749SOL    HW137709   1.251   3.676  11.782 -2.2585  1.2709  0.4646
 8749SOL    HW237710   1.278   3.530  11.773 -0.9181 -0.8420 -0.5606
 8750SOL     OW37711   2.225   1.575  16.697  0.1825 -0.8406 -0.0699
 8750SOL    HW137712   2.265   1.499  16.739  1.4656  0.3822  0.9255
 8750SOL    HW237713   2.248   1.646  16.757  0.2890  1.3588 -2.6574
 8751SOL     OW37714   0.905   3.580   8.724  0.0433 -0.3769 -0.1262
 8751SOL    HW137715   0.859   3.502   8.693  0.8995 -2.0741  2.8187
 8751SOL    HW237716   0.914   3.623   8.639 -0.2813 -0.0931 -0.0182
 8752SOL     OW37717   2.884   2.318   5.903  0.7402  0.1569  0.8482
 8752SOL    HW137718   2.953   2.362   5.853 -0.3646 -0.3764 -1.1059
 8752SOL    HW237719   2.875   2.238   5.853 -2.2897 -0.7750  2.8909
 8753SOL     OW37720   0.140   0.036   3.640 -0.2148  0.8866 -0.3358
 8753SOL    HW137721   0.188   4.680   3.624 -2.0799 -0.6727  2.1154
 8753SOL    HW237722   0.136   0.043   3.735  2.1301 -0.9650 -0.0945
 8754SOL     OW37723   3.669   4.161   7.244 -0.1100  0.4562 -0.0277
 8754SOL    HW137724   3.713   4.166   7.160  0.0760 -2.4305 -0.1032
 8754SOL    HW237725   3.705   4.241   7.283  0.1993 -1.6031  3.9412
 8755SOL     OW37726   3.079   4.527   1.363 -0.0397  0.4447  0.8336
 8755SOL    HW137727   3.111   4.613   1.391  1.1704  0.0827  0.5446
 8755SOL    HW237728   2.984   4.533   1.376 -0.2214  0.6407 -0.6311
 8756SOL     OW37729   3.890   4.136   6.039 -0.7320 -0.4575 -0.0820
 8756SOL    HW137730   3.824   4.195   6.076  0.5001  0.2039  1.0341
 8756SOL    HW237731   3.856   4.134   5.949 -1.0479  1.2378 -0.0016
 8757SOL     OW37732   2.788   1.650   4.716  0.1763  0.8183  0.1147
 8757SOL    HW137733   2.874   1.665   4.676  0.7320  0.7813  1.2915
 8757SOL    HW237734   2.788   1.554   4.725  0.4342  0.8080  0.0197
 8758SOL     OW37735   1.645   2.456  11.200  0.1359 -0.3688  0.0852
 8758SOL    HW137736   1.705   2.529  11.214  0.2895 -0.2083 -1.3520
 8758SOL    HW237737   1.691   2.386  11.246  2.5018  0.1039 -1.5404
 8759SOL     OW37738   2.080   3.804   4.255  0.0972 -0.5589  0.1567
 8759SOL    HW137739   1.989   3.792   4.283  0.6062  1.0850  2.4589
 8759SOL    HW237740   2.065   3.849   4.171 -0.6505 -3.8913 -1.5049
 8760SOL     OW37741   0.470   2.586   8.779 -0.0506 -0.4543 -0.5664
 8760SOL    HW137742   0.488   2.516   8.841 -2.6341 -0.2354  0.3973
 8760SOL    HW237743   0.475   2.537   8.697 -1.3281 -2.3958  0.5162
 8761SOL     OW37744   0.625   0.198  10.006  0.0369  0.1901  0.0359
 8761SOL    HW137745   0.562   0.248   9.955  1.2944  0.1333 -1.5875
 8761SOL    HW237746   0.581   0.152  10.078 -0.5873 -0.2554 -0.6343
 8762SOL     OW37747   0.576   1.245   2.790 -0.0420 -0.6695 -0.4721
 8762SOL    HW137748   0.608   1.235   2.880  2.1834 -1.0334 -1.3069
 8762SOL    HW237749   0.484   1.272   2.791  0.3498  0.6234  0.9139
 8763SOL     OW37750   3.119   2.693   3.603 -0.1265  0.3778 -0.1105
 8763SOL    HW137751   3.030   2.719   3.578 -0.3377 -1.6003 -1.3844
 8763SOL    HW237752   3.158   2.672   3.518 -1.6304 -0.9122 -0.4734
 8764SOL     OW37753   2.585   2.982  12.823  0.0818  0.2494 -0.2813
 8764SOL    HW137754   2.602   2.971  12.730 -2.4671 -0.2103 -0.7058
 8764SOL    HW237755   2.610   3.074  12.838 -0.6422 -0.1118  3.1358
 8765SOL     OW37756   1.818   4.233   1.737  0.0002 -0.1096  0.0349
 8765SOL    HW137757   1.762   4.159   1.757 -0.0013 -0.6448 -1.9862
 8765SOL    HW237758   1.777   4.276   1.662 -0.7406 -0.6443  0.1435
 8766SOL     OW37759   2.773   2.861  14.662  0.1185  0.3042 -0.0748
 8766SOL    HW137760   2.766   2.894  14.752  0.5889  2.0193 -0.6587
 8766SOL    HW237761   2.780   2.768  14.682  0.6295  0.4159  0.2701
 8767SOL     OW37762   4.259   3.301   2.762 -0.2881  0.0080 -0.0847
 8767SOL    HW137763   4.165   3.316   2.774 -0.6299 -1.6650 -0.6669
 8767SOL    HW237764   4.268   3.212   2.727 -0.7035  0.9674 -2.6833
 8768SOL     OW37765   3.049   4.605   3.684 -0.2695  0.2791 -0.4547
 8768SOL    HW137766   2.977   4.607   3.747  0.3593 -0.8094  0.2855
 8768SOL    HW237767   3.125   4.605   3.743 -0.3431  2.0708 -0.3444
 8769SOL     OW37768   1.202   0.881   8.754  0.0864 -0.3261 -0.1872
 8769SOL    HW137769   1.190   0.938   8.830 -1.1292  2.2474 -2.2703
 8769SOL    HW237770   1.294   0.898   8.735  0.1514  0.2519  0.6605
 8770SOL     OW37771   1.653   4.329  15.529 -0.7068 -0.3435  0.5965
 8770SOL    HW137772   1.639   4.383  15.607  0.2414  0.9489 -0.1304
 8770SOL    HW237773   1.681   4.406  15.479 -1.0553  1.2481  2.8314
 8771SOL     OW37774   1.581   2.612  14.393  0.5660  0.1790 -0.5829
 8771SOL    HW137775   1.503   2.659  14.424  0.9760  0.7230 -0.3834
 8771SOL    HW237776   1.587   2.646  14.304  2.5100 -0.2517 -0.6153
 8772SOL     OW37777   0.327   0.099   7.154  0.4325  0.0709 -0.5117
 8772SOL    HW137778   0.345   0.007   7.134  1.1273  0.6992 -2.7759
 8772SOL    HW237779   0.335   0.129   7.063 -0.2074 -0.5009 -0.7580
 8773SOL     OW37780   3.281   2.458   3.109 -0.1748  0.3800 -0.0575
 8773SOL    HW137781   3.268   2.422   3.021  1.3891 -0.9384  0.2573
 8773SOL    HW237782   3.354   2.404   3.138 -1.4383 -2.4996 -2.2533
 8774SOL     OW37783   4.227   2.970  12.076  0.7728 -0.4110  0.2806
 8774SOL    HW137784   4.241   2.969  12.171  1.1210 -1.5531  0.2195
 8774SOL    HW237785   4.142   2.927  12.064  1.4533 -2.1352  1.5959
 8775SOL     OW37786   1.548   0.978   9.891 -0.6149 -0.1617  0.2460
 8775SOL    HW137787   1.577   0.999   9.980 -0.0958 -2.1203  0.5312
 8775SOL    HW237788   1.482   0.917   9.923  0.2651  0.0468  2.4743
 8776SOL     OW37789   0.356   2.061  10.631  0.1820 -0.2696 -0.1944
 8776SOL    HW137790   0.410   2.063  10.710 -1.1224 -0.8625  0.7180
 8776SOL    HW237791   0.301   2.139  10.641 -2.1177 -2.0976  1.3684
 8777SOL     OW37792   1.531   2.835   8.413  0.0359  0.1999 -0.1681
 8777SOL    HW137793   1.567   2.767   8.470 -0.3587 -0.2131 -0.4164
 8777SOL    HW237794   1.505   2.896   8.482 -0.3808  0.0820 -0.2238
 8778SOL     OW37795   3.942   3.460  11.187  0.1233 -0.3290  0.4679
 8778SOL    HW137796   3.856   3.451  11.145 -0.7214  1.9359  1.7565
 8778SOL    HW237797   3.976   3.538  11.144  0.8211 -0.2653  1.1515
 8779SOL     OW37798   4.495   4.630  14.405 -0.0462  0.2361 -0.1651
 8779SOL    HW137799   4.418   4.592  14.364 -0.8341  0.4247  1.1318
 8779SOL    HW237800   4.546   4.552  14.427 -1.2753  0.2741  2.7741
 8780SOL     OW37801   2.023   1.249   6.883  0.4246 -0.2368  0.0234
 8780SOL    HW137802   2.081   1.177   6.859  1.9382  1.2100 -0.6701
 8780SOL    HW237803   1.968   1.222   6.957 -1.2132 -0.5915 -1.3277
 8781SOL     OW37804   1.018   0.591   0.058  0.3407  0.3416  0.7849
 8781SOL    HW137805   1.059   0.663   0.011 -1.5571  0.1920 -1.0559
 8781SOL    HW237806   0.945   0.641   0.095 -0.3910 -0.4721  0.4502
 8782SOL     OW37807   4.198   0.047  16.715  0.0324  0.5681  0.2318
 8782SOL    HW137808   4.127   0.094  16.759  0.1907  1.4478 -0.4462
 8782SOL    HW237809   4.152   0.043  16.631  2.6151 -3.1079 -0.9937
 8783SOL     OW37810   1.041   2.868   2.675 -0.7980  0.4024  0.1596
 8783SOL    HW137811   0.958   2.842   2.715  0.3214 -0.1657  2.0897
 8783SOL    HW237812   1.094   2.789   2.686 -1.1055  0.0238 -1.0073
 8784SOL     OW37813   0.688   2.143   9.430 -0.3212 -0.0899 -0.3747
 8784SOL    HW137814   0.680   2.157   9.524 -2.3474 -2.0360 -0.2552
 8784SOL    HW237815   0.731   2.224   9.403  0.7798 -0.1967  1.0292
 8785SOL     OW37816   1.898   0.119   1.534  0.1953 -0.7105 -0.4996
 8785SOL    HW137817   1.945   0.051   1.485  2.3412 -0.7279  1.5344
 8785SOL    HW237818   1.811   0.081   1.531 -0.6897  1.3659 -0.8927
 8786SOL     OW37819   0.348   4.065   2.607  0.5503  0.0082 -0.7919
 8786SOL    HW137820   0.338   4.142   2.663  0.9231 -1.8088  1.7614
 8786SOL    HW237821   0.443   4.064   2.600  0.7729  0.3384  1.9640
 8787SOL     OW37822   4.681   2.578   9.972  0.3541 -0.1152 -0.1223
 8787SOL    HW137823   4.681   2.653   9.911 -1.0991  0.1497  0.2259
 8787SOL    HW237824   0.032   2.596  10.027  0.8366  0.0700 -0.8398
 8788SOL     OW37825   3.090   0.430  11.104 -0.4472 -0.1267 -0.1548
 8788SOL    HW137826   3.071   0.476  11.186  0.3649 -3.0506  1.6580
 8788SOL    HW237827   3.109   0.502  11.044 -0.6793 -0.2981 -0.4300
 8789SOL     OW37828   0.725   1.195   3.029 -0.3161  0.3312  0.3574
 8789SOL    HW137829   0.717   1.100   3.035  2.2446  0.0643 -0.5380
 8789SOL    HW237830   0.708   1.219   3.120  1.3336 -0.6466  0.9387
 8790SOL     OW37831   1.717   3.629   8.671 -0.5999  0.0184  0.1071
 8790SOL    HW137832   1.737   3.543   8.707 -1.1906 -0.0437  0.2728
 8790SOL    HW237833   1.623   3.615   8.669 -0.2874 -1.6162 -4.5854
 8791SOL     OW37834   4.359   0.421   8.871  0.2957  0.5091  0.5210
 8791SOL    HW137835   4.441   0.471   8.873 -0.9548  2.5737 -0.1082
 8791SOL    HW237836   4.290   0.486   8.882 -0.0778  0.1872  0.0383
 8792SOL     OW37837   4.029   1.452   1.027 -0.6146  0.0090 -0.0252
 8792SOL    HW137838   3.948   1.491   0.993 -0.8063  0.4516  0.9457
 8792SOL    HW237839   4.054   1.405   0.947 -1.8124  1.0829 -1.0368
 8793SOL     OW37840   3.639   0.997  16.868 -0.1905 -0.3389 -0.1184
 8793SOL    HW137841   3.627   0.902  16.874 -0.4326 -0.3231 -0.3392
 8793SOL    HW237842   3.568   1.025  16.926  2.1415  0.3710  2.3956
 8794SOL     OW37843   2.457   3.443  15.585 -0.4528  0.1033  0.1452
 8794SOL    HW137844   2.518   3.496  15.638  2.5707 -1.3229 -1.8976
 8794SOL    HW237845   2.446   3.504  15.512  0.3800 -2.0384 -1.7569
 8795SOL     OW37846   4.596   4.702   7.050  0.3532  0.0302 -0.0091
 8795SOL    HW137847   4.636   0.043   6.993 -0.5740 -0.6628 -1.4555
 8795SOL    HW237848   4.510   0.008   7.079 -0.1994 -1.1751 -0.3818
 8796SOL     OW37849   1.370   1.227   8.136 -0.0767 -0.3778 -0.3999
 8796SOL    HW137850   1.320   1.308   8.147  0.2859 -0.3813  1.3222
 8796SOL    HW237851   1.457   1.266   8.131  0.3916 -1.2090  1.0619
 8797SOL     OW37852   4.410   2.731  14.037 -0.4433 -0.4224 -0.0614
 8797SOL    HW137853   4.427   2.647  14.079 -1.0358  0.6102  2.2878
 8797SOL    HW237854   4.338   2.714  13.977 -1.2227  0.7907  0.5228
 8798SOL     OW37855   4.205   3.201   8.058  0.0275  0.2217  0.1496
 8798SOL    HW137856   4.205   3.258   7.981  1.9473  0.9700  0.7051
 8798SOL    HW237857   4.201   3.264   8.130  4.4141  0.0249  0.5973
 8799SOL     OW37858   0.264   2.419   7.650  0.4566  0.0581  0.1757
 8799SOL    HW137859   0.177   2.381   7.645 -0.5878  2.4686 -0.0917
 8799SOL    HW237860   0.254   2.514   7.651 -0.1438 -0.0073 -0.0402
 8800SOL     OW37861   2.636   3.096  17.440 -0.4622 -0.3618  0.0903
 8800SOL    HW137862   2.557   3.149  17.434  0.8805  1.5271 -0.7615
 8800SOL    HW237863   2.703   3.162  17.455 -1.3678  0.7153 -0.6588
 8801SOL     OW37864   2.760   0.279   2.064 -0.2153 -0.5754  0.1697
 8801SOL    HW137865   2.834   0.332   2.093  0.7351 -0.3565 -2.6164
 8801SOL    HW237866   2.702   0.348   2.031 -2.3253 -2.5864 -0.3235
 8802SOL     OW37867   2.771   2.675   4.610 -0.1895 -0.2042 -0.3249
 8802SOL    HW137868   2.795   2.625   4.533  1.7448  0.9766 -0.4878
 8802SOL    HW237869   2.769   2.606   4.677  1.9221  0.3484  0.3179
 8803SOL     OW37870   2.454   0.545   9.462 -0.0351  0.7285 -0.1672
 8803SOL    HW137871   2.385   0.556   9.528 -0.7628 -0.9570 -0.6582
 8803SOL    HW237872   2.533   0.535   9.514  0.8631  0.1285 -1.6775
 8804SOL     OW37873   3.740   2.462   1.303 -0.7201  0.1116 -0.3004
 8804SOL    HW137874   3.696   2.387   1.342 -0.6580  0.0669 -0.3156
 8804SOL    HW237875   3.688   2.501   1.232 -1.4426 -0.3734 -0.0263
 8805SOL     OW37876   3.527   2.513   4.860  0.3467  0.1155  0.5854
 8805SOL    HW137877   3.571   2.441   4.816  1.7032  0.3112  1.6033
 8805SOL    HW237878   3.448   2.518   4.807  0.3635  2.1651  0.7627
 8806SOL     OW37879   0.298   0.590   2.233  0.1126  0.1409 -0.1739
 8806SOL    HW137880   0.203   0.583   2.241  0.7253  0.3625  7.0896
 8806SOL    HW237881   0.307   0.648   2.157  2.0122 -2.1134 -1.6681
 8807SOL     OW37882   4.691   2.821  16.136  0.1275  0.0573 -0.3808
 8807SOL    HW137883   4.639   2.829  16.216  0.7563  1.5125 -0.1154
 8807SOL    HW237884   0.036   2.761  16.163  0.2362  1.2777  2.0793
 8808SOL     OW37885   2.161   2.360   2.818 -0.2123  0.2535  0.0724
 8808SOL    HW137886   2.105   2.438   2.822 -0.5256 -0.0643  1.9988
 8808SOL    HW237887   2.160   2.333   2.910 -0.9163  2.0851  0.5916
 8809SOL     OW37888   0.293   0.824  16.178 -0.4427  0.3194 -0.7387
 8809SOL    HW137889   0.201   0.822  16.154 -0.7016  1.3465  0.1749
 8809SOL    HW237890   0.291   0.766  16.254  2.0193 -1.6922 -2.2103
 8810SOL     OW37891   2.006   2.735   5.967  0.2040  0.3026 -0.4311
 8810SOL    HW137892   1.951   2.664   5.998 -1.3064  2.2800  1.4352
 8810SOL    HW237893   2.041   2.693   5.888  1.1641 -0.7110  0.5382
 8811SOL     OW37894   0.920   1.615  12.196  0.2594 -0.0096  0.0064
 8811SOL    HW137895   0.974   1.542  12.226  1.3538  0.6810 -0.2773
 8811SOL    HW237896   0.916   1.601  12.102 -0.4252  0.0290  0.0270
 8812SOL     OW37897   2.064   0.681   3.702 -0.0954 -0.3038 -0.4316
 8812SOL    HW137898   2.138   0.630   3.668  1.4367  1.1126  0.8298
 8812SOL    HW237899   2.035   0.623   3.773 -1.7350  0.2642 -0.6613
 8813SOL     OW37900   0.525   3.550   0.807 -0.3532  0.2530  0.0509
 8813SOL    HW137901   0.601   3.576   0.860  0.6806 -0.0874 -1.2445
 8813SOL    HW237902   0.495   3.640   0.797 -0.0810  0.2275 -1.0069
 8814SOL     OW37903   1.921   3.389   8.175  0.0341 -0.3585  0.1526
 8814SOL    HW137904   1.986   3.458   8.188 -0.7448  0.5123 -0.6092
 8814SOL    HW237905   1.859   3.397   8.248  1.2249  1.1003  1.0011
 8815SOL     OW37906   2.085   3.068  10.172  0.0162 -0.0231  0.0250
 8815SOL    HW137907   2.071   2.973  10.166  0.0695 -0.0553  0.4274
 8815SOL    HW237908   1.999   3.099  10.142 -1.0630 -2.3029  0.7168
 8816SOL     OW37909   0.089   0.424  14.631 -0.5418 -0.3668 -0.2404
 8816SOL    HW137910   0.148   0.457  14.699 -0.9798  1.1591 -0.5916
 8816SOL    HW237911   0.154   0.393  14.568  0.6588  2.8464 -0.5736
 8817SOL     OW37912   0.030   1.633   0.602 -0.0053  0.1709  1.2012
 8817SOL    HW137913   0.044   1.722   0.568 -0.4992 -0.0823  0.3470
 8817SOL    HW237914   4.680   1.647   0.659  0.2385 -0.4052  1.6616
 8818SOL     OW37915   0.552   0.873   9.060  0.0146 -0.0599  0.4343
 8818SOL    HW137916   0.467   0.830   9.056 -0.9241  2.1359 -2.8429
 8818SOL    HW237917   0.570   0.862   8.967  0.3937 -0.6446  0.5742
 8819SOL     OW37918   0.699   0.151   8.643 -0.1272 -0.4264 -0.3600
 8819SOL    HW137919   0.620   0.104   8.619  0.4039 -0.6696 -1.6293
 8819SOL    HW237920   0.762   0.145   8.571  0.3296 -2.0741  0.1734
 8820SOL     OW37921   0.114   3.002   1.885  0.0403  0.0136  0.0300
 8820SOL    HW137922   0.081   2.918   1.917  1.3194  0.0059  1.2763
 8820SOL    HW237923   0.042   3.028   1.827  1.2654  1.8389 -0.6677
 8821SOL     OW37924   4.100   2.198   6.128  0.5275 -0.6119 -0.1417
 8821SOL    HW137925   4.184   2.183   6.172  0.5458  3.4485  1.2167
 8821SOL    HW237926   4.130   2.216   6.039 -4.7639  1.0154 -1.5621
 8822SOL     OW37927   4.255   1.959   3.662  0.0033  0.1246  0.0655
 8822SOL    HW137928   4.297   1.874   3.658 -1.7799 -0.8199  1.2265
 8822SOL    HW237929   4.205   1.958   3.744 -2.7188  1.7879 -1.5410
 8823SOL     OW37930   1.748   4.020   7.972 -0.0045  0.2361 -0.0238
 8823SOL    HW137931   1.740   4.080   7.898 -1.1768 -1.7125 -1.4623
 8823SOL    HW237932   1.676   3.959   7.954  0.6384  0.1364 -2.2509
 8824SOL     OW37933   2.011   0.888   1.935  0.3646 -0.1100  0.1352
 8824SOL    HW137934   1.937   0.900   1.994  1.9276 -1.5313  2.4092
 8824SOL    HW237935   2.068   0.963   1.950  0.3325  0.0849 -0.7176
 8825SOL     OW37936   1.014   2.286   5.931 -0.5735  0.2844 -0.5914
 8825SOL    HW137937   1.012   2.245   6.018  0.7298  0.5465 -0.4264
 8825SOL    HW237938   1.023   2.210   5.874 -0.1060  1.5106 -2.1594
 8826SOL     OW37939   3.662   0.970  13.538 -0.1815  0.3733 -0.0381
 8826SOL    HW137940   3.719   1.004  13.469 -1.2837 -1.1429 -1.7008
 8826SOL    HW237941   3.655   0.881  13.503  1.5490  1.4303 -2.9972
 8827SOL     OW37942   1.114   4.434   5.349 -0.0581 -0.4532  0.0668
 8827SOL    HW137943   1.039   4.447   5.406  0.1422  2.8164 -0.4407
 8827SOL    HW237944   1.134   4.520   5.313 -0.5714 -0.5597 -0.4693
 8828SOL     OW37945   3.993   1.987  15.539  1.1102  0.2223  0.2406
 8828SOL    HW137946   4.071   2.020  15.495  0.7805 -1.5968 -1.7174
 8828SOL    HW237947   4.004   1.897  15.509 -0.5534  0.1420 -0.0948
 8829SOL     OW37948   4.393   3.209   5.345  0.1290  1.0290 -0.3849
 8829SOL    HW137949   4.387   3.303   5.362  1.5686  0.9368  0.6036
 8829SOL    HW237950   4.301   3.183   5.340  0.8716 -1.9302  1.4960
 8830SOL     OW37951   1.322   3.315  13.275  0.7122 -0.0293  0.6191
 8830SOL    HW137952   1.365   3.270  13.203 -0.1554  1.3551 -0.7536
 8830SOL    HW237953   1.243   3.343  13.229  1.4206  0.9251 -0.0035
 8831SOL     OW37954   4.045   4.335  13.467  0.5352  0.3795 -0.4738
 8831SOL    HW137955   4.000   4.417  13.445 -0.6975  0.4783  2.4499
 8831SOL    HW237956   4.136   4.363  13.456  0.2148  0.9014 -1.7696
 8832SOL     OW37957   2.575   4.254  12.049 -0.4622 -0.0307 -0.5917
 8832SOL    HW137958   2.547   4.163  12.063 -0.7098 -0.3618 -3.3339
 8832SOL    HW237959   2.577   4.256  11.954 -0.2080 -0.5145 -0.5962
 8833SOL     OW37960   3.615   4.523   7.806 -0.0427  0.6033 -0.1193
 8833SOL    HW137961   3.547   4.485   7.750  2.0715 -0.3318 -2.0775
 8833SOL    HW237962   3.687   4.466   7.778 -0.5041 -0.5818  1.0833
 8834SOL     OW37963   1.845   2.779  12.817  0.8239 -0.1188 -0.3586
 8834SOL    HW137964   1.768   2.834  12.802  0.4578 -0.2149  1.2053
 8834SOL    HW237965   1.810   2.694  12.842  1.3123  0.2739  1.6937
 8835SOL     OW37966   4.380   4.510  17.147  0.2071 -0.6096 -0.0309
 8835SOL    HW137967   4.432   4.476  17.219  0.0118  1.0493  0.8877
 8835SOL    HW237968   4.420   4.473  17.068 -0.1440  0.5302 -0.7423
 8836SOL     OW37969   2.453   3.592   9.991  0.1417  0.5304  0.5329
 8836SOL    HW137970   2.514   3.648  10.037  0.0338  1.4581 -0.4589
 8836SOL    HW237971   2.508   3.539   9.933 -1.4689 -1.5721  0.8848
 8837SOL     OW37972   0.729   2.326   4.586 -0.1321  0.6971 -0.3739
 8837SOL    HW137973   0.816   2.366   4.587  0.4992 -0.6635  0.0503
 8837SOL    HW237974   0.692   2.366   4.507 -3.5801 -1.4011  0.1865
 8838SOL     OW37975   0.699   1.115   3.601 -0.3973 -0.3514 -0.4019
 8838SOL    HW137976   0.699   1.021   3.619  1.0654 -0.4191 -0.7521
 8838SOL    HW237977   0.652   1.104   3.518  0.1146  1.2408 -0.8901
 8839SOL     OW37978   4.253   0.145   2.176 -0.1633  0.2961  0.1255
 8839SOL    HW137979   4.234   0.124   2.084  0.8469  0.9811 -0.2345
 8839SOL    HW237980   4.177   0.104   2.218 -1.1191  2.5708  0.5891
 8840SOL     OW37981   2.161   2.465   6.329 -0.5689  0.2772  0.0880
 8840SOL    HW137982   2.122   2.429   6.409  2.5669 -2.4711  0.3836
 8840SOL    HW237983   2.090   2.520   6.298  0.3163 -0.3305 -3.0815
 8841SOL     OW37984   2.556   0.862   4.720  0.1099  0.2170  0.8018
 8841SOL    HW137985   2.646   0.832   4.707  0.1595  0.5849  0.3043
 8841SOL    HW237986   2.512   0.786   4.758 -1.1105  2.0667  3.1262
 8842SOL     OW37987   3.307   4.357   7.790  0.5186 -0.2504  0.1735
 8842SOL    HW137988   3.352   4.403   7.719 -0.6445 -0.1758 -0.5273
 8842SOL    HW237989   3.219   4.348   7.753  0.3158 -1.6371  0.9734
 8843SOL     OW37990   1.108   1.579  10.109 -0.1337  0.0703  0.2993
 8843SOL    HW137991   1.176   1.539  10.163 -1.2481 -1.3888  0.6153
 8843SOL    HW237992   1.085   1.659  10.156 -0.4923  0.0124  0.2197
 8844SOL     OW37993   0.133   0.254   2.022 -0.4846 -0.1264 -0.0513
 8844SOL    HW137994   0.038   0.246   2.031 -0.2187  0.1022  2.9106
 8844SOL    HW237995   0.146   0.324   1.958  1.2814 -1.8992 -1.5874
 8845SOL     OW37996   1.105   0.193   0.812  0.1908  0.3473  0.2897
 8845SOL    HW137997   1.104   0.117   0.869 -0.7651 -0.2073 -0.4544
 8845SOL    HW237998   1.012   0.197   0.787 -0.2605 -1.8682  1.6915
 8846SOL     OW37999   4.207   0.401   5.010  0.0383  0.2018  0.2525
 8846SOL    HW138000   4.166   0.471   5.062  1.8156  1.8417 -0.5530
 8846SOL    HW238001   4.136   0.337   5.006  1.0301 -0.8487 -0.6596
 8847SOL     OW38002   0.499   1.811   7.156  0.2598  0.0626 -0.0094
 8847SOL    HW138003   0.582   1.839   7.196 -0.7540  1.5195  1.0995
 8847SOL    HW238004   0.528   1.766   7.077 -0.2298 -1.0543  0.4443
 8848SOL     OW38005   1.479   0.696   5.100  0.9722 -0.1112 -0.2843
 8848SOL    HW138006   1.533   0.645   5.160 -0.9637 -0.4542  1.1618
 8848SOL    HW238007   1.391   0.670   5.126  0.5861  2.3645  0.9660
 8849SOL     OW38008   2.520   1.941   5.379  0.0428  0.0120 -0.2370
 8849SOL    HW138009   2.593   1.964   5.436  0.4234  0.9710 -1.1180
 8849SOL    HW238010   2.453   1.989   5.428 -1.0430  0.6403 -2.3274
 8850SOL     OW38011   4.308   3.099   8.958 -0.4826 -0.0684 -0.3765
 8850SOL    HW138012   4.392   3.062   8.984 -0.3670 -0.2372 -0.9820
 8850SOL    HW238013   4.298   3.078   8.865 -0.3152 -0.1202 -0.3827
 8851SOL     OW38014   2.883   3.585  12.522 -0.3405 -0.4040  0.2282
 8851SOL    HW138015   2.943   3.628  12.461  3.0150 -0.8797  3.1931
 8851SOL    HW238016   2.920   3.606  12.608  1.6217  2.8113 -1.3936
 8852SOL     OW38017   1.858   3.842  17.287  0.1916  0.7354  0.3983
 8852SOL    HW138018   1.843   3.900  17.361 -4.0307 -0.9696  0.8752
 8852SOL    HW238019   1.876   3.905  17.217  2.5491  0.4032  0.6867
 8853SOL     OW38020   2.140   2.818   3.631  0.3785 -0.0132  0.2753
 8853SOL    HW138021   2.218   2.768   3.655  1.5873  0.9186 -1.6840
 8853SOL    HW238022   2.191   2.870   3.569 -0.5228  1.2122  0.5763
 8854SOL     OW38023   4.712   0.498   8.223  0.1364  0.1316 -0.0167
 8854SOL    HW138024   4.706   0.488   8.318  0.5116  0.1623  0.0080
 8854SOL    HW238025   0.070   0.544   8.229  0.0267  0.1414  1.5006
 8855SOL     OW38026   3.492   1.599   1.051 -0.1814  0.1014 -0.3725
 8855SOL    HW138027   3.423   1.627   0.990 -0.2072  0.0661 -0.3601
 8855SOL    HW238028   3.563   1.662   1.049 -0.0711 -0.0191 -0.2794
 8856SOL     OW38029   2.286   0.089   5.279 -0.6126 -0.0095 -0.1897
 8856SOL    HW138030   2.376   0.103   5.251  0.2913 -1.8745  1.8323
 8856SOL    HW238031   2.289   4.724   5.311 -2.6017 -0.6028 -1.6236
 8857SOL     OW38032   1.550   2.951   9.024 -0.3619 -0.6546  0.1431
 8857SOL    HW138033   1.625   2.891   9.018 -0.8159 -1.1774 -0.3700
 8857SOL    HW238034   1.579   2.992   9.105  0.8199  0.3531 -0.8123
 8858SOL     OW38035   0.583   1.985   2.786  0.3249  0.6623  0.0257
 8858SOL    HW138036   0.625   1.980   2.700  1.9190  0.3596  0.8127
 8858SOL    HW238037   0.584   1.895   2.820  0.8358 -0.3202 -2.5670
 8859SOL     OW38038   0.082   1.467   7.475 -0.1591  0.5072  0.0834
 8859SOL    HW138039   0.136   1.468   7.396  0.6689 -0.0444  0.6550
 8859SOL    HW238040   0.136   1.428   7.543 -0.7638  0.8520  0.7524
 8860SOL     OW38041   0.431   4.255   3.300 -0.1084 -0.3562  0.1783
 8860SOL    HW138042   0.496   4.281   3.366  1.5467 -1.1845 -1.1164
 8860SOL    HW238043   0.356   4.269   3.358  0.4818  3.3348 -0.0002
 8861SOL     OW38044   0.579   1.296  14.405 -0.0084  0.2047  0.3354
 8861SOL    HW138045   0.575   1.201  14.414  0.9881  0.0232 -1.1283
 8861SOL    HW238046   0.542   1.323  14.489  2.1206  1.2161  0.9199
 8862SOL     OW38047   3.317   2.072   4.002  0.1831 -0.1830 -0.4818
 8862SOL    HW138048   3.356   2.136   3.942  2.5437 -2.0970 -0.9654
 8862SOL    HW238049   3.226   2.071   3.972  0.3020  2.5648 -0.9806
 8863SOL     OW38050   4.065   1.221   4.014  0.0999 -0.3565  0.3857
 8863SOL    HW138051   4.033   1.132   4.024  0.1528 -0.6317 -1.9969
 8863SOL    HW238052   4.123   1.217   4.090  0.5830 -1.2146 -0.0349
 8864SOL     OW38053   1.759   2.861   6.819  0.2762  0.5156  0.7643
 8864SOL    HW138054   1.794   2.935   6.869 -0.4044  1.6707 -0.4613
 8864SOL    HW238055   1.731   2.811   6.895 -0.8777 -0.9416 -0.6200
 8865SOL     OW38056   3.752   2.987  15.766 -0.5219 -0.2038 -0.4522
 8865SOL    HW138057   3.773   2.984  15.673  3.6722  1.6559  0.4401
 8865SOL    HW238058   3.656   2.993  15.763 -0.6362 -1.7382  0.0618
 8866SOL     OW38059   2.435   3.105   5.561 -1.0964  0.2457 -0.5957
 8866SOL    HW138060   2.501   3.042   5.590 -0.7332  2.1832  2.7136
 8866SOL    HW238061   2.380   3.116   5.638 -0.0542  0.3934  0.1330
 8867SOL     OW38062   0.982   3.980   2.826 -0.8950 -0.0954  0.3498
 8867SOL    HW138063   0.931   3.907   2.790 -3.0773  1.7443 -0.2695
 8867SOL    HW238064   0.968   4.049   2.762  1.8600 -0.5953 -0.7973
 8868SOL     OW38065   3.916   1.323  16.430  0.1809  0.0218  0.5087
 8868SOL    HW138066   3.857   1.252  16.455  0.4573  0.0496  1.2490
 8868SOL    HW238067   3.995   1.301  16.480  1.4080  1.3853 -0.8486
 8869SOL     OW38068   3.540   2.117   6.513  0.0593 -0.1153  0.4856
 8869SOL    HW138069   3.597   2.100   6.588 -0.1626  0.0314  0.6874
 8869SOL    HW238070   3.498   2.032   6.506  1.4074 -0.7547  0.1222
 8870SOL     OW38071   0.525   3.101   6.271  0.3241  0.1524  0.4986
 8870SOL    HW138072   0.483   3.061   6.347 -2.3214  2.3512  0.2119
 8870SOL    HW238073   0.559   3.184   6.305  1.6659  0.0282 -0.5362
 8871SOL     OW38074   2.674   2.393   6.055  0.0257 -0.5376 -0.4865
 8871SOL    HW138075   2.742   2.371   5.991  0.4661  0.6209 -0.4197
 8871SOL    HW238076   2.634   2.306   6.061 -0.8682 -0.0500  0.5670
 8872SOL     OW38077   2.405   0.952   7.241  0.0390  0.0460  0.0600
 8872SOL    HW138078   2.466   0.953   7.315  0.6397  0.5270 -0.4421
 8872SOL    HW238079   2.445   0.880   7.194 -1.0271 -0.5803  0.1096
 8873SOL     OW38080   2.484   3.070   2.515  0.1485  0.6944  0.3882
 8873SOL    HW138081   2.408   3.118   2.485  0.8291  1.5776  0.0787
 8873SOL    HW238082   2.429   2.995   2.539 -2.7420  2.2670 -1.4045
 8874SOL     OW38083   1.091   1.156   8.323 -0.1324  0.5187 -0.0731
 8874SOL    HW138084   1.064   1.068   8.348 -0.8753  1.6152  2.9260
 8874SOL    HW238085   1.161   1.181   8.384  0.0615  1.3279 -0.6216
 8875SOL     OW38086   4.436   1.309   7.509 -0.1383  0.2758  0.9041
 8875SOL    HW138087   4.382   1.230   7.506  1.8190 -1.0407  0.5196
 8875SOL    HW238088   4.515   1.279   7.554 -0.3863 -0.2513  0.9838
 8876SOL     OW38089   1.219   2.899   7.978  0.4392 -0.0542  0.4073
 8876SOL    HW138090   1.248   2.816   7.941 -2.4594 -0.9760  0.1847
 8876SOL    HW238091   1.135   2.871   8.015 -0.7148  0.8235 -1.5005
 8877SOL     OW38092   3.482   2.191   0.833 -0.4759  0.5327  0.1281
 8877SOL    HW138093   3.565   2.192   0.880  0.1605  2.0688 -1.0379
 8877SOL    HW238094   3.425   2.167   0.906  0.4173 -0.3178  0.5432
 8878SOL     OW38095   2.661   3.388   2.225  1.1049  0.4567  0.2743
 8878SOL    HW138096   2.745   3.405   2.269  0.6531  0.0182  1.3069
 8878SOL    HW238097   2.677   3.298   2.199 -0.2693 -0.0434  1.1558
 8879SOL     OW38098   4.381   0.794   6.662  0.5335 -0.2946  0.2865
 8879SOL    HW138099   4.321   0.860   6.696 -1.0008 -1.6472  0.2253
 8879SOL    HW238100   4.420   0.846   6.593 -2.6261  0.1984 -1.1057
 8880SOL     OW38101   3.289   4.302   3.520  0.0516 -0.0830  0.2133
 8880SOL    HW138102   3.227   4.303   3.593 -1.3542  3.9516 -1.0229
 8880SOL    HW238103   3.311   4.209   3.518  0.6841  0.0863 -0.7811
 8881SOL     OW38104   4.155   1.140   2.200  0.2012 -0.0795  0.1726
 8881SOL    HW138105   4.154   1.125   2.295 -0.7782 -2.3528 -0.2087
 8881SOL    HW238106   4.085   1.081   2.175  1.9682 -2.4033  0.7563
 8882SOL     OW38107   3.794   0.311   1.738 -0.0701 -0.1617 -0.6152
 8882SOL    HW138108   3.888   0.289   1.739 -0.3506 -1.4248 -1.2088
 8882SOL    HW238109   3.790   0.400   1.772 -1.7546 -0.7074  0.5852
 8883SOL     OW38110   2.906   3.909   5.587 -0.3129 -0.1170  0.2820
 8883SOL    HW138111   2.978   3.972   5.585 -0.8288  0.5587  3.1209
 8883SOL    HW238112   2.913   3.890   5.680 -0.0070  3.6691  1.0414
 8884SOL     OW38113   0.407   2.197   7.789 -0.1150  0.0513  0.1523
 8884SOL    HW138114   0.345   2.199   7.863 -0.8003  1.0753 -0.4600
 8884SOL    HW238115   0.370   2.264   7.732 -0.8473  0.7126  1.4023
 8885SOL     OW38116   3.620   3.034   6.772  0.6037 -0.4660  0.1617
 8885SOL    HW138117   3.625   2.997   6.684 -1.0365 -2.8657  1.0958
 8885SOL    HW238118   3.619   2.953   6.823 -2.3665 -1.1131 -0.9062
 8886SOL     OW38119   1.298   1.101  12.326  0.0168 -0.1597  0.1724
 8886SOL    HW138120   1.279   1.081  12.234 -1.3961 -2.5858  1.0001
 8886SOL    HW238121   1.369   1.038  12.341  0.2667  0.2230  0.5971
 8887SOL     OW38122   4.586   0.111   5.980  0.2320  0.1830 -0.0190
 8887SOL    HW138123   4.680   0.101   5.995  0.2935  0.2977 -0.3279
 8887SOL    HW238124   4.559   0.063   6.058  1.8957 -3.0764 -1.4214
 8888SOL     OW38125   0.545   2.979  11.296 -0.3544  0.1658  0.3557
 8888SOL    HW138126   0.512   3.057  11.252 -1.1095 -0.8353 -0.8725
 8888SOL    HW238127   0.490   2.907  11.266  0.2569 -0.8357  1.6386
 8889SOL     OW38128   1.577   3.652   1.033 -0.0320  0.9032  0.5678
 8889SOL    HW138129   1.635   3.711   1.082  3.7131 -1.0304 -1.4635
 8889SOL    HW238130   1.565   3.583   1.098  2.5006  0.3328  0.4368
 8890SOL     OW38131   1.070   3.355   2.557  0.1360  0.1185  0.4987
 8890SOL    HW138132   1.120   3.273   2.548  1.4458  1.3133 -3.2749
 8890SOL    HW238133   1.035   3.325   2.641  0.1069 -2.0479 -0.2839
 8891SOL     OW38134   3.854   0.291   6.073  0.1063 -0.0911 -0.2455
 8891SOL    HW138135   3.912   0.236   6.125  0.9435  0.9452 -0.1095
 8891SOL    HW238136   3.773   0.258   6.113 -1.2822  0.1983 -2.8195
 8892SOL     OW38137   0.922   0.764   0.694 -0.0777 -0.6642 -0.6614
 8892SOL    HW138138   0.983   0.695   0.719 -2.1135 -1.7635  1.2781
 8892SOL    HW238139   0.972   0.806   0.624 -1.3706  1.0846 -0.5170
 8893SOL     OW38140   3.973   3.750   9.318  0.5382 -0.6133  0.3848
 8893SOL    HW138141   4.005   3.794   9.240  0.3173  0.4495  0.9039
 8893SOL    HW238142   4.016   3.801   9.385 -0.8647 -1.1377  1.6806
 8894SOL     OW38143   2.763   1.977   5.075  0.2945 -0.4390  0.5360
 8894SOL    HW138144   2.804   2.037   5.012 -0.1745 -0.1410  0.5227
 8894SOL    HW238145   2.826   1.906   5.062  0.4016 -0.2760  0.1482
 8895SOL     OW38146   4.306   0.242  15.816  0.2360 -0.1390 -0.4264
 8895SOL    HW138147   4.349   0.321  15.849  0.3077 -0.1495 -0.4927
 8895SOL    HW238148   4.343   0.242  15.727  0.3715  2.3759 -0.3601
 8896SOL     OW38149   3.187   3.720  10.371 -0.0606 -0.1337 -0.2464
 8896SOL    HW138150   3.145   3.704  10.455 -0.7724  0.9451 -0.4006
 8896SOL    HW238151   3.190   3.638  10.321 -1.8675 -0.6605  0.5159
 8897SOL     OW38152   2.374   3.816  17.045  0.2693 -0.4684 -0.2142
 8897SOL    HW138153   2.445   3.877  17.066  0.4241 -0.2380 -1.4134
 8897SOL    HW238154   2.410   3.761  16.975  2.0180  0.8812 -0.3968
 8898SOL     OW38155   0.191   3.922   5.195  0.1602  0.2024 -0.2738
 8898SOL    HW138156   0.186   3.835   5.154 -0.7665  0.0023  0.2606
 8898SOL    HW238157   0.142   3.979   5.136 -0.8781  0.7971  1.1569
 8899SOL     OW38158   0.597   1.198   7.457  0.0964  0.0440  0.5165
 8899SOL    HW138159   0.693   1.201   7.463  0.1746  1.5258 -1.4074
 8899SOL    HW238160   0.585   1.278   7.509 -1.7492 -0.1975  0.4494
 8900SOL     OW38161   4.700   2.188   5.916 -0.2487 -0.0468 -0.1832
 8900SOL    HW138162   4.724   2.242   5.841 -1.2787  0.5463 -0.0866
 8900SOL    HW238163   4.605   2.194   5.902 -0.2184 -1.0513 -0.8235
 8901SOL     OW38164   1.415   2.470   1.650  0.3220 -0.4423 -0.3527
 8901SOL    HW138165   1.354   2.429   1.711  0.5389 -0.3903 -0.0967
 8901SOL    HW238166   1.458   2.386   1.637 -1.3671 -1.0198 -2.1874
 8902SOL     OW38167   3.154   4.033   7.864  0.1395  0.0590  0.1384
 8902SOL    HW138168   3.126   3.942   7.859 -1.6710  0.6097  0.4652
 8902SOL    HW238169   3.161   4.047   7.769  0.1272  1.7258  0.3759
 8903SOL     OW38170   2.017   4.567  12.507 -0.3482 -0.3382  0.1468
 8903SOL    HW138171   1.985   4.637  12.564  0.1533 -0.0066  0.0163
 8903SOL    HW238172   1.951   4.499  12.523  1.4187 -1.7979  1.1863
 8904SOL     OW38173   0.072   0.716   6.192  0.5742  0.8831 -0.0203
 8904SOL    HW138174   0.008   0.740   6.259  0.5167 -0.4150  0.3731
 8904SOL    HW238175   0.023   0.722   6.110 -0.5143  2.1004  0.7256
 8905SOL     OW38176   2.067   2.403   4.303  0.2226  0.2384 -0.1659
 8905SOL    HW138177   2.034   2.492   4.297 -1.0158 -0.2100  0.0779
 8905SOL    HW238178   2.113   2.394   4.219 -0.9042  0.9534 -0.8622
 8906SOL     OW38179   3.922   4.104   9.150  0.0196 -0.3928  0.0216
 8906SOL    HW138180   3.827   4.110   9.144  0.2683  2.1151 -1.1773
 8906SOL    HW238181   3.935   4.166   9.222 -1.4666 -1.7936  1.4840
 8907SOL     OW38182   2.068   1.814   9.000  0.3102  0.0064 -0.1413
 8907SOL    HW138183   1.992   1.822   8.943 -0.7514  1.1374  1.4299
 8907SOL    HW238184   2.027   1.800   9.086 -0.7753  1.3776 -0.4393
 8908SOL     OW38185   4.646   1.798   2.480 -0.6384  0.6230  0.1171
 8908SOL    HW138186   4.697   1.781   2.400 -0.0671 -0.2716  0.6636
 8908SOL    HW238187   4.558   1.811   2.445 -1.4258 -1.4444  1.3408
 8909SOL     OW38188   4.612   3.071   9.833  0.4347  0.3680 -0.1598
 8909SOL    HW138189   4.707   3.079   9.822  0.5691  1.4073  1.7504
 8909SOL    HW238190   4.589   3.100   9.921  1.8018  1.5483 -0.1810
 8910SOL     OW38191   0.614   3.664   4.655  0.8172 -0.3692 -0.1779
 8910SOL    HW138192   0.520   3.673   4.640  0.9691  0.1423 -0.8037
 8910SOL    HW238193   0.663   3.700   4.581  0.1821  0.2508 -0.2966
 8911SOL     OW38194   1.338   2.206   0.759  0.3091  0.0585  0.0307
 8911SOL    HW138195   1.414   2.256   0.732  0.9507 -1.3511 -0.7698
 8911SOL    HW238196   1.308   2.270   0.824  0.1528  1.3318 -1.3118
 8912SOL     OW38197   2.335   1.973   8.309 -0.2717  0.4446  0.1025
 8912SOL    HW138198   2.280   1.986   8.386 -0.3364 -1.9814  0.4566
 8912SOL    HW238199   2.286   2.019   8.242 -1.0331  0.1065  0.4358
 8913SOL     OW38200   3.797   4.303  13.571 -0.0680  0.1150  0.4370
 8913SOL    HW138201   3.888   4.329  13.557 -0.1032 -0.6112 -1.1704
 8913SOL    HW238202   3.804   4.213  13.539 -1.4590  0.6040 -1.2434
 8914SOL     OW38203   2.522   1.857  12.907 -0.4940  0.0143  0.6920
 8914SOL    HW138204   2.441   1.907  12.920 -0.0749  0.9547 -0.3164
 8914SOL    HW238205   2.489   1.784  12.959  0.1845 -0.1670  0.8639
 8915SOL     OW38206   0.593   0.273   5.131  0.2077 -0.0526 -0.3152
 8915SOL    HW138207   0.688   0.267   5.137  0.1918 -0.9853 -0.9211
 8915SOL    HW238208   0.575   0.297   5.040  0.8958 -2.7519 -1.1722
 8916SOL     OW38209   0.867   4.439   5.493  0.7474 -0.5434  0.0212
 8916SOL    HW138210   0.847   4.349   5.467  2.0068 -0.7538 -0.2201
 8916SOL    HW238211   0.804   4.456   5.563 -0.2179 -2.1421 -0.4491
 8917SOL     OW38212   1.507   1.682  10.407  0.0650 -0.3204  0.0208
 8917SOL    HW138213   1.563   1.747  10.367 -0.2458 -0.8367 -1.2440
 8917SOL    HW238214   1.460   1.742  10.466 -0.3814  0.8956 -1.5728
 8918SOL     OW38215   2.822   0.044   1.307 -0.0687 -0.1068  0.6376
 8918SOL    HW138216   2.887   4.701   1.322 -0.5776 -1.0268 -1.3821
 8918SOL    HW238217   2.780   0.052   1.393 -1.4246  0.7632 -0.1056
 8919SOL     OW38218   1.703   2.178   7.893  0.2254 -0.0348 -0.6229
 8919SOL    HW138219   1.743   2.152   7.809 -0.5439  0.5140 -1.1523
 8919SOL    HW238220   1.659   2.261   7.875 -1.5640 -1.5651 -3.1558
 8920SOL     OW38221   3.042   3.582   2.548  0.6038 -0.2898 -0.1055
 8920SOL    HW138222   2.980   3.612   2.615  0.8172  0.9971 -0.4805
 8920SOL    HW238223   3.046   3.659   2.491 -1.5141 -0.6549 -0.7253
 8921SOL     OW38224   3.858   0.231   3.325 -0.2332 -0.6611  0.3416
 8921SOL    HW138225   3.899   0.315   3.343  1.6332 -0.9638 -2.5147
 8921SOL    HW238226   3.912   0.178   3.383  0.1880  0.3224  0.8444
 8922SOL     OW38227   1.308   0.265   0.646 -0.4020  0.3326  0.6598
 8922SOL    HW138228   1.240   0.235   0.707  0.1636  0.6998  1.4758
 8922SOL    HW238229   1.371   0.293   0.712 -0.5098  0.1736  0.8322
 8923SOL     OW38230   0.825   2.315   2.788 -0.6884  0.3899 -0.1795
 8923SOL    HW138231   0.829   2.234   2.737  2.2872 -0.1302  0.9282
 8923SOL    HW238232   0.881   2.295   2.862  1.0549 -1.8178 -2.0815
 8924SOL     OW38233   3.014   2.651   7.471 -0.5519 -0.1355  0.4111
 8924SOL    HW138234   3.091   2.650   7.527  0.2868  0.5510 -0.7368
 8924SOL    HW238235   2.974   2.736   7.490  0.3875 -0.0356  1.8892
 8925SOL     OW38236   1.116   1.883  10.265  0.0088  0.4082  0.4026
 8925SOL    HW138237   1.174   1.959  10.273 -1.2548  1.5982 -1.8867
 8925SOL    HW238238   1.116   1.847  10.353  0.6398 -2.4508 -0.7534
 8926SOL     OW38239   0.586   3.028  12.776  0.2863  0.0476  0.3935
 8926SOL    HW138240   0.601   2.934  12.770 -1.8665 -0.4026  2.1164
 8926SOL    HW238241   0.616   3.059  12.691 -2.1982 -0.6828 -0.7342
 8927SOL     OW38242   0.911   3.541   9.294 -0.8851  0.1619  0.1994
 8927SOL    HW138243   0.952   3.465   9.252 -1.7107 -0.9205  1.3655
 8927SOL    HW238244   0.914   3.513   9.385  0.0919 -0.8370 -0.1314
 8928SOL     OW38245   3.360   4.035   2.278 -0.3711  0.1303  0.2000
 8928SOL    HW138246   3.354   3.958   2.221  2.3860 -1.0814  1.5170
 8928SOL    HW238247   3.309   4.102   2.233 -1.8902 -0.9103  0.3811
 8929SOL     OW38248   4.340   1.290   2.082 -0.6247  0.4917 -0.5616
 8929SOL    HW138249   4.299   1.369   2.046 -0.8785  0.4907 -0.2760
 8929SOL    HW238250   4.260   1.244   2.108 -0.6090  1.1529  0.6625
 8930SOL     OW38251   3.041   1.234   0.981 -0.1957 -0.6059  0.0915
 8930SOL    HW138252   3.079   1.263   0.898 -1.6308  0.4439 -0.1977
 8930SOL    HW238253   3.045   1.311   1.038  0.3721 -0.1649 -0.5445
 8931SOL     OW38254   2.995   4.154   3.194  0.1389 -0.5783 -0.2120
 8931SOL    HW138255   3.064   4.090   3.176  0.8994  0.1568  0.0778
 8931SOL    HW238256   2.942   4.143   3.116 -1.0321 -1.3500  0.6867
 8932SOL     OW38257   1.881   1.893   4.186 -0.3009  0.0432 -0.5808
 8932SOL    HW138258   1.805   1.871   4.132 -1.1040  1.2635  0.0480
 8932SOL    HW238259   1.843   1.918   4.271 -0.4352 -0.7310 -0.4125
 8933SOL     OW38260   0.350   2.150   2.093 -0.0351  0.2145  0.2613
 8933SOL    HW138261   0.418   2.134   2.029 -1.1350  2.0657 -1.3607
 8933SOL    HW238262   0.331   2.239   2.065  3.7364  0.2135 -2.2740
 8934SOL     OW38263   4.110   4.611   6.978 -0.3100  0.0900 -0.3173
 8934SOL    HW138264   4.163   4.620   7.058 -0.3999 -1.5576 -0.0663
 8934SOL    HW238265   4.132   4.701   6.954  0.0821  0.0892  0.0271
 8935SOL     OW38266   3.325   4.171   8.009 -0.2457 -0.0111  0.2895
 8935SOL    HW138267   3.331   4.227   7.932 -0.8110 -1.0237 -0.4862
 8935SOL    HW238268   3.254   4.120   7.971  0.5628  1.2259 -2.8698
 8936SOL     OW38269   2.527   2.486   4.360 -0.4243  0.0648 -0.1681
 8936SOL    HW138270   2.482   2.457   4.281 -3.1354 -1.2617  1.8894
 8936SOL    HW238271   2.537   2.581   4.348  0.8330 -0.2772 -1.8542
 8937SOL     OW38272   0.520   3.976   3.555  0.3686  0.3446  0.0515
 8937SOL    HW138273   0.524   3.990   3.650  0.4370 -1.4844  0.3044
 8937SOL    HW238274   0.439   3.929   3.538  0.8853 -0.9169  1.0477
 8938SOL     OW38275   1.781   4.067   3.597 -0.6203 -0.3311  0.0304
 8938SOL    HW138276   1.829   4.122   3.536 -1.7434 -0.7329 -1.2247
 8938SOL    HW238277   1.694   4.107   3.607 -1.4644 -1.8205 -1.2514
 8939SOL     OW38278   2.967   0.210  12.970 -0.2353 -0.3739 -0.0636
 8939SOL    HW138279   2.975   0.116  12.953 -0.2452 -0.3017 -0.4692
 8939SOL    HW238280   3.029   0.216  13.043 -0.6026 -1.1785  0.3114
 8940SOL     OW38281   0.675   4.368  10.074 -0.5902  0.6791  0.3393
 8940SOL    HW138282   0.673   4.279  10.040 -3.1325 -0.0306  2.3536
 8940SOL    HW238283   0.688   4.426   9.999 -1.5934  0.9324  0.3627
 8941SOL     OW38284   0.656   4.343   3.519 -0.1723  0.0455  0.2168
 8941SOL    HW138285   0.731   4.298   3.559  0.4542 -0.6643 -1.7954
 8941SOL    HW238286   0.700   4.423   3.492 -0.2982  0.5225  1.4021
 8942SOL     OW38287   1.369   2.143   7.772 -0.0304  0.0816  0.0466
 8942SOL    HW138288   1.295   2.103   7.818  0.5095 -1.1356 -0.1242
 8942SOL    HW238289   1.376   2.225   7.821 -1.1251 -1.3405  2.6157
 8943SOL     OW38290   2.942   3.394   2.308 -0.2299  0.2059 -0.3121
 8943SOL    HW138291   2.971   3.424   2.395 -1.1559  1.3229 -0.3822
 8943SOL    HW238292   3.011   3.435   2.255  1.6806 -2.5312  0.0436
 8944SOL     OW38293   0.225   2.206   8.014  0.0204  0.0150  0.3652
 8944SOL    HW138294   0.263   2.252   8.089  0.0519  1.5739 -0.6110
 8944SOL    HW238295   0.166   2.277   7.991  0.6910 -0.1129 -1.7231
 8945SOL     OW38296   0.883   0.739   8.635 -0.3263 -0.4808 -0.3867
 8945SOL    HW138297   0.833   0.699   8.564  0.4889  1.7397 -2.1859
 8945SOL    HW238298   0.925   0.666   8.682 -1.3571 -0.1490  1.0532
 8946SOL     OW38299   3.341   3.666   4.898  0.2277 -0.2062 -0.0467
 8946SOL    HW138300   3.328   3.598   4.965 -0.3088  0.4840  0.5529
 8946SOL    HW238301   3.359   3.748   4.944 -2.3394  1.0134 -1.1765
 8947SOL     OW38302   0.592   1.217   4.436 -0.5224 -0.4159 -0.0611
 8947SOL    HW138303   0.590   1.162   4.358  1.6275 -2.8436  1.5809
 8947SOL    HW238304   0.515   1.274   4.431  0.7917  1.4674  0.8210
 8948SOL     OW38305   0.637   0.053  11.555  0.4390  0.1035  0.3927
 8948SOL    HW138306   0.660   0.141  11.585  1.5863  0.0874 -0.4461
 8948SOL    HW238307   0.684   0.042  11.473  1.8332  3.6286  0.7050
 8949SOL     OW38308   3.162   4.684  16.348 -0.6553  0.1844 -0.4923
 8949SOL    HW138309   3.104   4.664  16.422  0.8593 -2.2889  0.0502
 8949SOL    HW238310   3.218   0.022  16.393 -1.8584  0.8547  0.0636
 8950SOL     OW38311   3.622   3.079   3.828 -0.0216  0.3105  0.1757
 8950SOL    HW138312   3.712   3.050   3.816  0.3718  1.3391  0.6102
 8950SOL    HW238313   3.586   2.997   3.861  2.1223 -1.0876 -0.9715
 8951SOL     OW38314   0.629   2.867   7.943  0.7695 -0.6295  0.0399
 8951SOL    HW138315   0.544   2.899   7.974 -0.6970 -2.7649 -1.7959
 8951SOL    HW238316   0.672   2.845   8.026  2.0672  0.1368 -0.4271
 8952SOL     OW38317   2.445   0.273   7.772  0.7585 -0.3076  0.0189
 8952SOL    HW138318   2.408   0.189   7.743 -2.6087  1.2411 -0.0700
 8952SOL    HW238319   2.398   0.333   7.715  0.5640  1.7667  2.4104
 8953SOL     OW38320   0.497   1.973   7.657  0.8227 -0.5999  0.3247
 8953SOL    HW138321   0.489   2.046   7.719 -2.7299 -0.5392 -0.2085
 8953SOL    HW238322   0.449   2.009   7.582 -0.7065  0.4423  1.7799
 8954SOL     OW38323   1.639   1.329   3.522 -0.1929 -0.0211  0.7431
 8954SOL    HW138324   1.581   1.302   3.593 -1.9636 -0.6733 -0.9296
 8954SOL    HW238325   1.628   1.419   3.551 -1.0173 -0.5481  2.0884
 8955SOL     OW38326   0.458   2.178  12.239  0.4539 -0.7157 -0.8261
 8955SOL    HW138327   0.374   2.146  12.204  0.2854  0.3302 -1.3801
 8955SOL    HW238328   0.428   2.262  12.273  0.5968 -1.5011  1.2646
 8956SOL     OW38329   0.203   1.794   9.395 -0.3846  0.1785  0.4179
 8956SOL    HW138330   0.115   1.816   9.425 -0.0567 -2.0657  3.0968
 8956SOL    HW238331   0.199   1.698   9.404  0.8899  0.1598  0.8209
 8957SOL     OW38332   1.129   4.316   8.352 -0.3616 -0.2845  0.8014
 8957SOL    HW138333   1.087   4.384   8.405  0.6214  0.4903  0.5921
 8957SOL    HW238334   1.111   4.236   8.401  0.1674 -0.2542  1.0433
 8958SOL     OW38335   2.694   0.077   5.448 -0.2010 -0.3572 -0.1639
 8958SOL    HW138336   2.703   0.035   5.534  0.5035 -0.3371 -0.2207
 8958SOL    HW238337   2.783   0.115   5.446  0.7342 -2.5748 -0.2797
 8959SOL     OW38338   3.319   2.597   4.687 -0.2219  0.2019  0.0536
 8959SOL    HW138339   3.235   2.552   4.674  0.2406 -0.9726  1.0665
 8959SOL    HW238340   3.308   2.673   4.630  1.8549 -0.5603 -1.3373
 8960SOL     OW38341   3.271   3.976  17.232  0.3458  0.7483  0.5821
 8960SOL    HW138342   3.312   4.055  17.198  0.3877  0.8543  0.8834
 8960SOL    HW238343   3.179   4.004  17.224  1.0424  2.6491 -0.6264
 8961SOL     OW38344   3.397   2.406   8.902  0.6304  0.4526  0.6567
 8961SOL    HW138345   3.336   2.342   8.938  0.6514 -0.3234 -0.6784
 8961SOL    HW238346   3.466   2.388   8.966  0.3524 -1.3579  0.4288
 8962SOL     OW38347   3.393   0.874  17.615 -0.7608  0.6065  0.2931
 8962SOL    HW138348   3.476   0.920  17.598 -0.1578 -0.7828 -0.4912
 8962SOL    HW238349   3.333   0.943  17.643  0.0140  0.5032  2.1757
 8963SOL     OW38350   3.463   3.728   8.492 -0.5817 -0.2402  0.1430
 8963SOL    HW138351   3.385   3.783   8.500 -1.5306 -1.8773  2.2231
 8963SOL    HW238352   3.508   3.739   8.575  1.8967  0.0843 -1.2451
 8964SOL     OW38353   3.906   4.320  13.177  0.0121 -0.9853 -0.1393
 8964SOL    HW138354   3.991   4.323  13.133 -0.6470  0.3476 -1.3528
 8964SOL    HW238355   3.939   4.339  13.264  1.6070 -3.2112 -0.2531
 8965SOL     OW38356   2.777   2.286   7.755 -0.1362  0.6691 -0.3190
 8965SOL    HW138357   2.722   2.361   7.777  0.7176  1.4453 -0.8625
 8965SOL    HW238358   2.848   2.285   7.818  1.3841  1.1366 -2.0154
 8966SOL     OW38359   0.410   2.423  16.325  0.0533 -0.0198 -0.0925
 8966SOL    HW138360   0.421   2.515  16.348  1.2320 -0.2269  0.2254
 8966SOL    HW238361   0.343   2.398  16.388 -1.4411  1.0194 -1.2718
 8967SOL     OW38362   0.406   1.099   3.942  0.1916  0.0875 -0.1650
 8967SOL    HW138363   0.377   1.045   3.868  3.1332 -0.5270 -0.8670
 8967SOL    HW238364   0.479   1.143   3.898  1.0997 -0.8171  0.4518
 8968SOL     OW38365   3.558   1.870   5.768  0.0241 -0.3763  0.4152
 8968SOL    HW138366   3.505   1.922   5.829  1.3515  0.2744  1.0091
 8968SOL    HW238367   3.505   1.863   5.689  1.1492 -0.9680 -0.2931
 8969SOL     OW38368   2.573   3.465   3.328 -0.5956 -0.0118  0.2440
 8969SOL    HW138369   2.490   3.445   3.284 -2.0242 -0.5311  3.1534
 8969SOL    HW238370   2.579   3.383   3.378 -1.0920 -0.7716 -0.9531
 8970SOL     OW38371   1.143   0.627   8.742  0.4372 -0.2259 -0.1012
 8970SOL    HW138372   1.139   0.607   8.649 -1.2658  2.0964 -0.5155
 8970SOL    HW238373   1.140   0.722   8.739 -0.4853 -0.2912 -1.1715
 8971SOL     OW38374   4.624   1.991   8.606 -0.3736  0.6132  0.0372
 8971SOL    HW138375   4.591   2.059   8.665 -0.6728  0.4524  0.0488
 8971SOL    HW238376   4.701   1.970   8.659 -0.8884  0.7839  0.8438
 8972SOL     OW38377   4.288   2.354   1.114  0.7356  0.4920 -0.0247
 8972SOL    HW138378   4.287   2.422   1.181 -1.4992  0.6500 -0.1956
 8972SOL    HW238379   4.375   2.319   1.132 -0.2553 -1.9474  0.0498
 8973SOL     OW38380   3.948   2.132   4.670 -0.2302  0.5407  0.0963
 8973SOL    HW138381   3.947   2.216   4.716 -0.4465  1.4459 -1.5894
 8973SOL    HW238382   3.880   2.091   4.724 -0.5063 -1.1733 -1.5677
 8974SOL     OW38383   4.194   2.347   2.963  0.1790 -0.1423 -0.2453
 8974SOL    HW138384   4.168   2.439   2.972 -2.4123 -1.0357  1.3800
 8974SOL    HW238385   4.281   2.355   3.001 -0.0965 -3.0833  0.9984
 8975SOL     OW38386   3.301   2.524   5.639 -0.0850 -0.1408  0.0912
 8975SOL    HW138387   3.330   2.582   5.569  0.4693  2.0800  2.1587
 8975SOL    HW238388   3.330   2.438   5.608  1.5857  0.3611  0.2700
 8976SOL     OW38389   4.046   0.874   7.414  0.4837  0.5419 -0.5766
 8976SOL    HW138390   3.953   0.863   7.432  0.4376 -1.7128 -2.0905
 8976SOL    HW238391   4.042   0.882   7.318  1.9294 -1.1366 -0.7785
 8977SOL     OW38392   3.424   3.503  10.960 -1.1772 -0.0534  0.6935
 8977SOL    HW138393   3.419   3.568  10.891 -0.5106  1.4489  2.0611
 8977SOL    HW238394   3.333   3.477  10.945 -0.4382 -1.1062 -1.8834
 8978SOL     OW38395   4.294   1.715   7.462  0.3170 -0.2508  0.3767
 8978SOL    HW138396   4.315   1.794   7.511 -3.2483  0.0799  1.4147
 8978SOL    HW238397   4.382   1.692   7.433  0.7084 -1.1871  2.2982
 8979SOL     OW38398   1.701   2.901   7.858  0.1558 -0.3490 -0.2171
 8979SOL    HW138399   1.706   2.826   7.918  1.1037 -0.3548 -0.3015
 8979SOL    HW238400   1.757   2.969   7.894  1.2224 -0.4157 -1.7523
 8980SOL     OW38401   3.178   4.037   1.154 -0.1433 -0.6579  0.0745
 8980SOL    HW138402   3.157   4.104   1.089 -0.5883 -1.8096 -0.9816
 8980SOL    HW238403   3.272   4.021   1.146 -0.3213 -1.8246  0.3373
 8981SOL     OW38404   3.394   4.174   7.254  0.2561 -0.7747 -0.5994
 8981SOL    HW138405   3.485   4.201   7.257  0.0968  0.1588 -3.4107
 8981SOL    HW238406   3.384   4.139   7.165  0.2339 -0.5601 -0.6825
 8982SOL     OW38407   0.445   4.053   4.450 -0.1269  0.6466  0.2620
 8982SOL    HW138408   0.445   4.129   4.392 -1.0917 -0.4520 -1.1518
 8982SOL    HW238409   0.490   4.090   4.527  0.8700  0.9565 -0.4722
 8983SOL     OW38410   3.011   3.128   1.753  0.1012 -0.1623  0.2736
 8983SOL    HW138411   3.040   3.198   1.812  0.9670  0.1597 -0.5378
 8983SOL    HW238412   2.988   3.185   1.680 -2.0098  0.4283  1.3906
 8984SOL     OW38413   1.959   1.788   2.125  0.3690  0.3960  0.1869
 8984SOL    HW138414   1.922   1.845   2.193 -0.2745 -1.1041  1.0993
 8984SOL    HW238415   1.971   1.710   2.179  0.3911  0.3063  0.0516
 8985SOL     OW38416   3.463   4.527   4.648 -0.9641  0.2909 -0.0410
 8985SOL    HW138417   3.517   4.560   4.720  1.4019  0.2686 -1.7974
 8985SOL    HW238418   3.495   4.439   4.629  0.2820  1.1494 -1.9882
 8986SOL     OW38419   1.777   0.334   8.985 -0.1936  0.4399  0.8322
 8986SOL    HW138420   1.751   0.244   8.963  3.3536 -0.9913  2.4874
 8986SOL    HW238421   1.825   0.313   9.065 -2.2661  1.3440  2.2893
 8987SOL     OW38422   0.807   0.123   4.916  0.2067 -0.5885 -0.1658
 8987SOL    HW138423   0.886   0.161   4.956 -1.9415  0.8645  2.7187
 8987SOL    HW238424   0.819   0.029   4.902  1.2054 -0.3820 -0.7182
 8988SOL     OW38425   4.127   0.927   4.429 -0.2590  0.5000  0.3797
 8988SOL    HW138426   4.201   0.866   4.434 -1.6198 -1.2973 -1.2008
 8988SOL    HW238427   4.148   0.972   4.510  1.9673  0.1475 -0.0044
 8989SOL     OW38428   4.714   3.295   3.310 -0.0567  0.1855 -0.0857
 8989SOL    HW138429   0.044   3.229   3.352 -1.0036  0.1017  1.0375
 8989SOL    HW238430   4.645   3.247   3.264 -0.4717  0.5110  0.1899
 8990SOL     OW38431   3.962   0.244  17.073  0.2813 -0.2656 -0.1929
 8990SOL    HW138432   3.949   0.200  17.157 -0.0182 -0.2349 -0.2244
 8990SOL    HW238433   3.967   0.333  17.108 -1.6646 -0.4928  0.6194
 8991SOL     OW38434   0.819   0.489  11.039  0.0323 -0.0238  0.2201
 8991SOL    HW138435   0.756   0.512  10.971  0.2537  0.8363  0.2984
 8991SOL    HW238436   0.823   0.569  11.092  1.1229 -0.6281  1.0443
 8992SOL     OW38437   3.316   4.391   3.270  0.1160  0.3765 -0.3877
 8992SOL    HW138438   3.386   4.455   3.256 -0.4834  0.8885 -1.0657
 8992SOL    HW238439   3.308   4.378   3.364 -0.8099  0.9618 -0.3785
 8993SOL     OW38440   2.502   0.637   6.292  0.0725  0.2712 -0.4543
 8993SOL    HW138441   2.518   0.713   6.235  0.7269 -0.1657 -0.8569
 8993SOL    HW238442   2.445   0.670   6.361  0.0122 -0.2474 -0.2628
 8994SOL     OW38443   3.492   2.896  14.302 -0.4617  0.5481  0.2459
 8994SOL    HW138444   3.450   2.981  14.291  1.8573  1.9547  2.5886
 8994SOL    HW238445   3.438   2.851  14.367  1.1781 -0.4000  0.9492
 8995SOL     OW38446   4.650   4.149   7.609 -1.0279 -0.3746 -0.6446
 8995SOL    HW138447   4.679   4.097   7.534 -2.3913 -1.3798 -0.4711
 8995SOL    HW238448   4.561   4.115   7.617 -0.2982 -1.8100  1.2888
 8996SOL     OW38449   0.489   1.411   1.369  0.2591  0.7662 -0.2772
 8996SOL    HW138450   0.460   1.411   1.277  1.2897 -3.4956 -0.6104
 8996SOL    HW238451   0.557   1.479   1.370  1.2467 -0.2299 -0.3323
 8997SOL     OW38452   3.164   1.435   7.564 -0.5300 -0.6475 -0.0797
 8997SOL    HW138453   3.241   1.478   7.526  0.8523 -1.8249  1.3834
 8997SOL    HW238454   3.181   1.341   7.571 -1.5633 -0.8119  0.1511
 8998SOL     OW38455   2.709   3.210  13.616  0.6010  0.0628 -0.3206
 8998SOL    HW138456   2.738   3.120  13.631 -2.0555 -0.6042  0.7824
 8998SOL    HW238457   2.694   3.212  13.521 -1.8306 -0.5177  0.0636
 8999SOL     OW38458   0.057   1.145   4.443  0.3713 -0.7171 -0.0682
 8999SOL    HW138459   0.009   1.129   4.361  2.7673 -3.0131 -1.0139
 8999SOL    HW238460   0.009   1.218   4.483  1.1358 -0.1945 -0.1002
 9000SOL     OW38461   3.824   3.492   7.618 -0.2093  0.2181 -0.0475
 9000SOL    HW138462   3.907   3.508   7.662 -0.3253  1.0343 -0.1164
 9000SOL    HW238463   3.764   3.523   7.686 -1.5265  1.6560 -1.8551
 9001SOL     OW38464   3.469   0.821   3.317  0.2243 -0.5087 -0.2359
 9001SOL    HW138465   3.400   0.756   3.316 -1.4390  1.2678 -0.3692
 9001SOL    HW238466   3.418   0.901   3.331  2.3689  0.4662  2.1504
 9002SOL     OW38467   2.131   3.917   7.837  0.0260 -0.3686  0.0514
 9002SOL    HW138468   2.102   3.970   7.911  0.7776  1.3987 -0.9244
 9002SOL    HW238469   2.174   3.852   7.893 -0.8624 -0.7414  0.3050
 9003SOL     OW38470   2.946   3.017  16.213  0.1120 -0.3248  0.0268
 9003SOL    HW138471   2.978   2.929  16.236  1.3927 -0.2803 -1.5602
 9003SOL    HW238472   2.863   3.009  16.259 -0.7773  0.5140 -1.4428
 9004SOL     OW38473   0.134   0.762   9.673  0.5452 -0.4433  0.1389
 9004SOL    HW138474   0.053   0.744   9.721  0.4558 -1.1423 -0.2788
 9004SOL    HW238475   0.125   0.709   9.594  0.3581  0.0760 -0.1878
 9005SOL     OW38476   2.331   4.200   2.398 -0.5638 -0.1271  0.1476
 9005SOL    HW138477   2.350   4.246   2.480 -0.0243 -0.7316  0.3518
 9005SOL    HW238478   2.237   4.214   2.387 -0.2922 -0.3414 -2.4077
 9006SOL     OW38479   2.940   1.845   7.001  0.1074  0.1297  0.5815
 9006SOL    HW138480   3.035   1.857   6.998 -0.0425  1.7104  1.9543
 9006SOL    HW238481   2.902   1.933   7.001  0.1734  0.1653  1.6848
 9007SOL     OW38482   0.118   3.634   4.452  0.4857  0.1767 -0.4562
 9007SOL    HW138483   0.064   3.708   4.479 -0.4523 -0.5894 -0.2291
 9007SOL    HW238484   0.129   3.640   4.357 -1.5639 -0.8460 -0.7499
 9008SOL     OW38485   4.042   2.328   9.615 -0.2258  0.1816  0.5882
 9008SOL    HW138486   4.094   2.349   9.692  2.4701 -0.9302 -0.9507
 9008SOL    HW238487   4.019   2.235   9.623 -0.9430  0.4230  1.3491
 9009SOL     OW38488   3.990   1.147  13.648  0.1252  0.3214 -0.4810
 9009SOL    HW138489   4.068   1.112  13.690  1.2310  0.9741 -1.9558
 9009SOL    HW238490   3.943   1.165  13.729 -1.7503 -1.8283 -1.0871
 9010SOL     OW38491   3.398   1.420  15.162  0.3380 -0.0801 -0.1104
 9010SOL    HW138492   3.388   1.477  15.086  0.6356  0.6702  0.4154
 9010SOL    HW238493   3.357   1.340  15.130  1.5356 -0.8841  0.3531
 9011SOL     OW38494   1.491   0.322  10.471 -0.2788  0.5898 -0.3997
 9011SOL    HW138495   1.430   0.260  10.512 -1.0424  1.0550 -0.8182
 9011SOL    HW238496   1.529   0.272  10.399  1.2485 -0.8729  1.4269
 9012SOL     OW38497   1.103   0.013  16.001  0.3958  0.0792 -1.0468
 9012SOL    HW138498   1.031   4.703  15.949 -1.5698  0.4279  1.4647
 9012SOL    HW238499   1.120   4.660  16.054 -1.1827  0.5836  0.2112
 9013SOL     OW38500   4.093   3.642   4.660  0.7343 -0.0804  0.5056
 9013SOL    HW138501   4.001   3.649   4.685  0.0594 -1.8205 -1.5131
 9013SOL    HW238502   4.127   3.560   4.696 -0.3963 -0.3197  1.0361
 9014SOL     OW38503   0.483   2.576   2.708 -0.3283 -0.1352 -0.4015
 9014SOL    HW138504   0.479   2.650   2.648 -0.9485  1.0821  1.1390
 9014SOL    HW238505   0.394   2.582   2.743 -0.2031  1.0407 -0.2879
 9015SOL     OW38506   1.592   0.165  10.259 -0.0764 -0.5686  0.0432
 9015SOL    HW138507   1.685   0.146  10.250  0.1954  1.6026 -1.5728
 9015SOL    HW238508   1.567   0.166  10.167 -0.4555  0.5437  0.1560
 9016SOL     OW38509   1.521   0.547   9.203  0.0482  0.4559 -0.0580
 9016SOL    HW138510   1.506   0.453   9.189  0.3355  0.4300 -0.2014
 9016SOL    HW238511   1.612   0.535   9.231 -0.2747 -0.5404  0.5481
 9017SOL     OW38512   4.441   4.027   1.895  1.2555 -0.0624  0.4870
 9017SOL    HW138513   4.450   3.935   1.921 -0.5641  0.1783  1.9793
 9017SOL    HW238514   4.403   4.022   1.807  0.7965 -0.8430  0.7255
 9018SOL     OW38515   4.253   4.559   4.503 -0.5276 -0.4829 -0.4790
 9018SOL    HW138516   4.295   4.596   4.580 -1.4533 -2.4118  0.9526
 9018SOL    HW238517   4.183   4.623   4.514 -1.3719 -1.2890 -1.1256
 9019SOL     OW38518   2.476   0.003   0.023 -0.5095  0.2415  0.4724
 9019SOL    HW138519   2.394   0.011  17.677 -0.6026 -1.5243  0.3368
 9019SOL    HW238520   2.492   0.091   0.058  0.2435 -0.0826  0.9238
 9020SOL     OW38521   2.437   4.547  16.791  0.9469  0.0875  0.6240
 9020SOL    HW138522   2.413   4.573  16.880  1.8265  1.0517  0.5762
 9020SOL    HW238523   2.500   4.475  16.802  1.2823  0.2803 -0.0239
 9021SOL     OW38524   1.673   0.539   8.037 -0.2301  0.0686  0.4865
 9021SOL    HW138525   1.642   0.628   8.019 -0.0148  0.1763  0.6541
 9021SOL    HW238526   1.707   0.561   8.124  1.0586 -0.3049  0.0813
 9022SOL     OW38527   3.020   0.868   3.146  0.0330 -0.4356  0.6308
 9022SOL    HW138528   2.935   0.901   3.116 -1.1788 -1.6127  2.7536
 9022SOL    HW238529   3.062   0.936   3.094 -1.1543 -0.6298 -0.6141
 9023SOL     OW38530   3.809   2.376  12.329  0.0903 -0.2883 -0.1829
 9023SOL    HW138531   3.883   2.348  12.275  0.3292  1.9443 -1.0283
 9023SOL    HW238532   3.842   2.382  12.419 -0.0110 -0.4913 -0.1312
 9024SOL     OW38533   4.536   0.435   1.945 -0.0430  0.1439  1.1670
 9024SOL    HW138534   4.546   0.375   2.018  0.3919 -0.8089  0.3163
 9024SOL    HW238535   4.487   0.494   2.002  0.4657  1.2145  0.5011
 9025SOL     OW38536   2.422   2.877   1.918  0.0564 -0.0888  0.6736
 9025SOL    HW138537   2.469   2.810   1.969  1.7240  1.3963  1.1002
 9025SOL    HW238538   2.395   2.937   1.988 -1.0199  0.3270 -0.1039
 9026SOL     OW38539   0.952   2.778   5.123 -0.1847  0.5699 -0.6773
 9026SOL    HW138540   0.997   2.839   5.064  0.9343 -1.9923 -2.4870
 9026SOL    HW238541   0.935   2.706   5.063 -2.5957 -0.5441  1.3492
 9027SOL     OW38542   1.705   2.901  15.946 -0.8481 -0.2579 -0.0690
 9027SOL    HW138543   1.625   2.939  15.909 -0.0621  1.5219  0.0643
 9027SOL    HW238544   1.780   2.954  15.921 -1.6763  1.4625  1.1446
 9028SOL     OW38545   2.147   3.419  15.478  0.1262 -0.4447 -0.0006
 9028SOL    HW138546   2.150   3.413  15.382  1.7068 -0.9229  0.0659
 9028SOL    HW238547   2.241   3.434  15.492  0.0233  1.3475 -1.1933
 9029SOL     OW38548   1.321   3.135  12.763  0.0626  0.4715 -0.1971
 9029SOL    HW138549   1.276   3.151  12.846  0.4508  1.4688 -0.1735
 9029SOL    HW238550   1.310   3.040  12.762  1.5835  0.2985 -1.0562
 9030SOL     OW38551   0.338   2.985   8.935  0.1398 -0.5256  0.1652
 9030SOL    HW138552   0.318   3.014   8.846  0.6375  2.1823  0.9458
 9030SOL    HW238553   0.429   3.013   8.934 -0.0346  0.1073  2.6772
 9031SOL     OW38554   3.543   2.297   9.507  0.2004 -0.1295  0.2116
 9031SOL    HW138555   3.549   2.253   9.592  0.3070  0.5688  0.5731
 9031SOL    HW238556   3.632   2.332   9.508 -0.6701  2.0772 -0.1351
 9032SOL     OW38557   3.903   1.639   6.827  0.2537 -0.4853  0.2416
 9032SOL    HW138558   3.851   1.620   6.750  0.3506  1.8816 -0.4131
 9032SOL    HW238559   3.871   1.727   6.849  0.2114 -0.4945  0.2169
 9033SOL     OW38560   3.917   1.475   8.117  0.4109 -0.4232 -0.7396
 9033SOL    HW138561   4.001   1.429   8.120  0.3247 -0.5428 -0.2062
 9033SOL    HW238562   3.907   1.502   8.208  2.3696  1.2569 -1.0019
 9034SOL     OW38563   1.792   3.398  13.117  0.5627 -0.2499 -0.0366
 9034SOL    HW138564   1.750   3.330  13.065  1.2681  1.1834 -2.4394
 9034SOL    HW238565   1.720   3.400  13.180  0.4877  0.5632 -0.1439
 9035SOL     OW38566   1.300   0.347  13.045 -0.2908  0.5061  0.7349
 9035SOL    HW138567   1.348   0.273  13.083 -1.5518 -0.5879  0.1776
 9035SOL    HW238568   1.267   0.390  13.124 -0.2866  1.6165  0.1388
 9036SOL     OW38569   3.510   4.546   9.629 -0.6373 -0.0849 -0.6056
 9036SOL    HW138570   3.440   4.564   9.692  0.3442  0.6769  0.2751
 9036SOL    HW238571   3.578   4.519   9.690 -0.1500 -1.4428 -1.7639
 9037SOL     OW38572   2.400   3.843   3.498  0.1904  0.2601 -0.1877
 9037SOL    HW138573   2.452   3.788   3.557  1.2179 -0.1928 -1.5155
 9037SOL    HW238574   2.439   3.824   3.413  1.8584 -0.9418  0.8444
 9038SOL     OW38575   3.445   0.109   7.665 -0.2435 -0.4233  0.4326
 9038SOL    HW138576   3.464   0.186   7.611  0.1093 -0.2859  0.7434
 9038SOL    HW238577   3.514   0.109   7.731  0.8731  0.6725 -0.7268
 9039SOL     OW38578   3.165   1.607  10.920 -0.8529  0.1232  0.2780
 9039SOL    HW138579   3.073   1.604  10.945 -0.9559 -1.8138 -0.3409
 9039SOL    HW238580   3.202   1.613  11.008  0.2064  0.3880 -0.1827
 9040SOL     OW38581   1.207   4.714   3.240 -0.2179  0.7015 -0.8360
 9040SOL    HW138582   1.140   0.002   3.307 -0.0768  1.9708 -0.9596
 9040SOL    HW238583   1.147   4.667   3.183  0.7310 -0.6583 -0.7323
 9041SOL     OW38584   3.910   1.818   5.598  0.1659  0.0400  0.5103
 9041SOL    HW138585   3.968   1.886   5.633  0.1131  0.5226 -0.3573
 9041SOL    HW238586   3.971   1.771   5.542 -1.3782 -0.4233 -0.7506
 9042SOL     OW38587   1.652   2.421   5.842  0.0428 -1.0486 -0.0713
 9042SOL    HW138588   1.572   2.469   5.820 -0.7600 -2.5825 -0.4682
 9042SOL    HW238589   1.619   2.334   5.862 -2.1904 -0.2340 -0.1339
 9043SOL     OW38590   0.918   4.634   1.958 -0.2807  0.2774 -0.3643
 9043SOL    HW138591   1.008   4.652   1.929  0.1665 -0.7201  0.3988
 9043SOL    HW238592   0.914   4.542   1.932 -0.3586  0.2678 -0.3179
 9044SOL     OW38593   3.423   0.557   8.686  0.6471 -0.4147 -0.3240
 9044SOL    HW138594   3.389   0.515   8.607 -1.3047  0.4685  0.0468
 9044SOL    HW238595   3.429   0.649   8.660  1.1367  0.1375  1.7374
 9045SOL     OW38596   0.388   1.368   4.569 -0.6097 -0.3859  0.4445
 9045SOL    HW138597   0.354   1.445   4.615 -0.9615  2.4087 -4.4472
 9045SOL    HW238598   0.353   1.389   4.482 -0.0184  3.0394  1.0256
 9046SOL     OW38599   4.142   0.264   8.839  0.3145 -0.3605 -0.1960
 9046SOL    HW138600   4.235   0.248   8.854  0.2170 -0.5250  0.2431
 9046SOL    HW238601   4.115   0.263   8.931 -1.1815 -1.3210 -0.6399
 9047SOL     OW38602   1.855   2.357   5.667 -0.0945  0.3840 -0.1085
 9047SOL    HW138603   1.785   2.359   5.733 -0.6302  2.8010 -0.7669
 9047SOL    HW238604   1.831   2.438   5.623  2.6568  2.3545  2.0160
 9048SOL     OW38605   2.289   2.067   5.480  0.2015  0.6130 -0.3040
 9048SOL    HW138606   2.324   2.155   5.469  0.4494  0.6163  0.5844
 9048SOL    HW238607   2.205   2.087   5.521 -0.6626 -0.8074 -1.3869
 9049SOL     OW38608   2.283   0.784   6.489  0.2689 -0.2930  0.3093
 9049SOL    HW138609   2.234   0.766   6.408  1.6476 -0.7661 -0.4269
 9049SOL    HW238610   2.239   0.861   6.526  0.5654 -1.4464  3.0466
 9050SOL     OW38611   4.290   0.352   3.371 -0.1324 -0.2081  0.7824
 9050SOL    HW138612   4.375   0.396   3.378 -0.2284 -0.1300  1.4387
 9050SOL    HW238613   4.315   0.280   3.429  1.3727 -1.4453 -1.3983
 9051SOL     OW38614   0.235   1.305   5.122  0.5268 -0.1435 -0.2068
 9051SOL    HW138615   0.180   1.229   5.103  1.8531 -1.5559  1.6308
 9051SOL    HW238616   0.280   1.327   5.041 -0.1496 -2.3024 -1.1794
 9052SOL     OW38617   3.735   4.173   2.191  0.1671  0.2520  0.0240
 9052SOL    HW138618   3.651   4.197   2.229  0.4117  0.1523  0.6311
 9052SOL    HW238619   3.724   4.231   2.115  0.1935  1.0576  0.6245
 9053SOL     OW38620   0.645   3.247  15.278  0.0800  0.1696 -0.2404
 9053SOL    HW138621   0.646   3.189  15.201 -0.6843  0.8066 -0.7265
 9053SOL    HW238622   0.739   3.261  15.287  0.3080  0.5978 -3.2200
 9054SOL     OW38623   2.489   1.919   3.521  0.4009  0.0601  0.4054
 9054SOL    HW138624   2.507   2.012   3.512  0.8569 -0.1860 -1.2236
 9054SOL    HW238625   2.577   1.884   3.508  0.8045  1.2948 -0.1906
 9055SOL     OW38626   2.073   4.125   6.444  0.0999  0.1686  0.0933
 9055SOL    HW138627   2.083   4.073   6.524  0.7277 -0.5457 -0.4498
 9055SOL    HW238628   2.051   4.055   6.383 -0.4692  0.5980 -0.1939
 9056SOL     OW38629   1.606   3.110   0.571 -0.1889  0.5932  0.4234
 9056SOL    HW138630   1.646   3.196   0.557  1.2057 -0.3041 -1.0876
 9056SOL    HW238631   1.651   3.086   0.653 -0.6916 -0.8314  0.2803
 9057SOL     OW38632   2.241   0.660  11.985 -0.1148  0.5637 -0.2796
 9057SOL    HW138633   2.262   0.744  12.025  0.1753 -0.3257  1.3912
 9057SOL    HW238634   2.199   0.621  12.061  1.8208  2.2513  1.6570
 9058SOL     OW38635   3.717   1.472   6.939  0.1361 -0.3482 -0.0683
 9058SOL    HW138636   3.799   1.508   6.904  1.0599 -1.0925  1.2909
 9058SOL    HW238637   3.722   1.514   7.025 -2.3727  1.8331 -1.0129
 9059SOL     OW38638   3.355   0.220   4.221 -0.0592 -0.1557  0.2135
 9059SOL    HW138639   3.414   0.253   4.289  0.7955 -1.3812  0.0633
 9059SOL    HW238640   3.303   0.295   4.194  1.7852  0.1746 -2.3529
 9060SOL     OW38641   4.091   1.330   6.659 -0.0927 -0.3872 -0.0097
 9060SOL    HW138642   4.108   1.420   6.631  1.8265 -0.0649  2.2612
 9060SOL    HW238643   4.001   1.322   6.626  0.1495 -2.5466 -0.1636
 9061SOL     OW38644   1.495   3.379   7.043  0.4688 -0.3404  0.0412
 9061SOL    HW138645   1.457   3.408   6.960  2.2413 -1.5190 -1.1731
 9061SOL    HW238646   1.504   3.285   7.027  2.5546 -0.2546  0.8171
 9062SOL     OW38647   4.616   2.935   4.608  0.0338 -0.1532  1.0562
 9062SOL    HW138648   4.692   2.910   4.557 -0.7444  1.3554 -0.8524
 9062SOL    HW238649   4.594   2.858   4.660 -2.1990 -0.9877 -1.1157
 9063SOL     OW38650   1.767   0.687   6.373 -0.0327  0.3060  0.1456
 9063SOL    HW138651   1.838   0.751   6.377 -1.2784  1.7415 -0.6733
 9063SOL    HW238652   1.779   0.668   6.280  1.0901 -0.3626  0.4350
 9064SOL     OW38653   2.290   2.394   8.376  0.2519 -0.2899 -0.2412
 9064SOL    HW138654   2.306   2.330   8.445 -2.6814 -2.3909 -1.4985
 9064SOL    HW238655   2.200   2.375   8.349 -0.3797  1.8147  0.3407
 9065SOL     OW38656   0.777   4.186   6.599 -0.6125  0.1269 -0.3161
 9065SOL    HW138657   0.773   4.092   6.580  0.3956  0.1509 -0.6572
 9065SOL    HW238658   0.839   4.192   6.671 -0.9193 -0.8273  0.0174
 9066SOL     OW38659   1.839   3.741   4.378 -0.4093  0.6026 -0.3194
 9066SOL    HW138660   1.801   3.679   4.316  0.7832  0.0778 -0.5231
 9066SOL    HW238661   1.764   3.775   4.427 -0.5979  0.6648 -0.6550
 9067SOL     OW38662   2.041   3.251   4.750  0.1208 -0.7643 -0.2028
 9067SOL    HW138663   2.022   3.333   4.796 -1.1034  0.5102 -3.0389
 9067SOL    HW238664   2.001   3.277   4.667 -0.7650 -0.4332  0.3299
 9068SOL     OW38665   1.391   2.916   5.366  0.0293  0.0063 -0.2668
 9068SOL    HW138666   1.349   2.962   5.294  0.3921  0.4836 -0.1712
 9068SOL    HW238667   1.462   2.886   5.309 -0.5205 -0.5214 -0.6755
 9069SOL     OW38668   2.125   0.718  17.228 -0.2930  0.5326  0.0359
 9069SOL    HW138669   2.165   0.677  17.305 -0.9575 -1.8000 -0.8530
 9069SOL    HW238670   2.203   0.714  17.173 -1.3981  2.3381 -1.6628
 9070SOL     OW38671   4.346   1.994   4.240  0.0373  0.1413  0.3336
 9070SOL    HW138672   4.439   2.010   4.227  0.0265  2.1651  2.6843
 9070SOL    HW238673   4.320   2.085   4.256 -2.1155 -0.5094  0.4863
 9071SOL     OW38674   0.091   1.342  15.598 -0.1417  0.1384 -0.2565
 9071SOL    HW138675   0.100   1.425  15.645  0.4310 -0.6422  1.0026
 9071SOL    HW238676   0.016   1.362  15.543 -0.7001  0.4306  0.6200
 9072SOL     OW38677   1.943   0.754  12.371  0.1984 -0.6364  0.3668
 9072SOL    HW138678   1.885   0.810  12.423  0.5812 -0.6358  0.7961
 9072SOL    HW238679   1.939   0.785  12.281  1.8163 -1.2166  0.0997
 9073SOL     OW38680   3.757   1.096  14.227  0.3336  0.1163  0.1735
 9073SOL    HW138681   3.721   1.150  14.156  0.9593  2.3797  1.5509
 9073SOL    HW238682   3.734   1.158  14.296  2.7687  0.2644  0.8550
 9074SOL     OW38683   3.384   0.406  17.477  0.3176 -0.2622 -0.0204
 9074SOL    HW138684   3.365   0.349  17.552  0.8819  0.2141  0.4851
 9074SOL    HW238685   3.479   0.414  17.484  0.7098 -3.4772 -1.5439
 9075SOL     OW38686   1.406   0.659  15.731  0.1517  0.2551 -0.1593
 9075SOL    HW138687   1.382   0.574  15.694 -1.5349  1.3262 -1.5443
 9075SOL    HW238688   1.350   0.657  15.809  0.7669  4.5802  0.4270
 9076SOL     OW38689   3.751   4.114  17.279 -0.2503  0.8124  0.2775
 9076SOL    HW138690   3.776   4.037  17.330  2.4138  2.0088  0.7237
 9076SOL    HW238691   3.827   4.120  17.221 -0.6329 -0.6255 -0.3698
 9077SOL     OW38692   1.145   0.147   4.685  0.3032 -0.0599  0.2584
 9077SOL    HW138693   1.178   0.066   4.646 -2.1385 -1.5863  1.3823
 9077SOL    HW238694   1.176   0.209   4.618 -0.6206 -1.3811 -1.4026
 9078SOL     OW38695   3.468   0.210   3.884  0.0343  0.0078 -0.5614
 9078SOL    HW138696   3.477   0.302   3.910  2.5451 -0.9471  1.9426
 9078SOL    HW238697   3.526   0.169   3.948  1.2467  2.0058 -0.4056
 9079SOL     OW38698   0.773   0.354   1.070  0.3423 -0.3671  0.3309
 9079SOL    HW138699   0.792   0.283   1.131  1.3797  0.0482  0.4875
 9079SOL    HW238700   0.851   0.408   1.082  0.1101  0.0765 -0.1327
 9080SOL     OW38701   2.813   2.812   5.837 -0.3325  0.3026 -0.6108
 9080SOL    HW138702   2.885   2.764   5.878 -1.0096  1.1526  1.5948
 9080SOL    HW238703   2.739   2.772   5.883  0.7241 -0.4385  0.4659
 9081SOL     OW38704   3.943   2.850   3.425 -0.2580  0.4020  0.0389
 9081SOL    HW138705   4.032   2.883   3.426  0.7227 -2.2383 -0.0398
 9081SOL    HW238706   3.951   2.770   3.373 -1.0589  1.4025 -1.6284
 9082SOL     OW38707   0.608   0.906  14.724  0.0148 -0.0468 -0.0651
 9082SOL    HW138708   0.538   0.958  14.764 -0.2096  0.4895 -1.1583
 9082SOL    HW238709   0.670   0.883  14.794 -0.3861  0.8948  0.6142
 9083SOL     OW38710   0.348   3.392   8.983 -0.5118  0.3933 -0.2818
 9083SOL    HW138711   0.440   3.407   9.005 -0.6861  1.1882 -0.1082
 9083SOL    HW238712   0.318   3.362   9.069  0.0379  1.8753  0.4251
 9084SOL     OW38713   4.167   1.615   3.268  0.3793  0.2570 -0.3060
 9084SOL    HW138714   4.154   1.531   3.223  0.2583  0.4560 -0.6452
 9084SOL    HW238715   4.160   1.679   3.197  1.3462  0.0420 -0.5906
 9085SOL     OW38716   3.469   1.889   1.688  0.4223 -0.1825  0.2207
 9085SOL    HW138717   3.533   1.863   1.754  0.8296 -1.5362 -0.6976
 9085SOL    HW238718   3.477   1.818   1.624 -3.2571 -0.5862  0.2342
 9086SOL     OW38719   3.576   4.632   8.658  0.6078  0.0908 -0.0308
 9086SOL    HW138720   3.640   4.700   8.637 -1.0330  1.8226  0.5763
 9086SOL    HW238721   3.640   4.563   8.677 -0.4826 -0.6719  0.8759
 9087SOL     OW38722   1.139   0.593   0.794  0.1253 -0.3788  0.1482
 9087SOL    HW138723   1.132   0.531   0.867 -2.0121 -0.6154 -0.2686
 9087SOL    HW238724   1.230   0.568   0.780  0.5156  0.4210  1.2126
 9088SOL     OW38725   0.424   2.955  16.740 -0.0201  0.4645 -0.2069
 9088SOL    HW138726   0.357   2.887  16.732 -0.0759  0.5430 -0.4253
 9088SOL    HW238727   0.436   2.941  16.646 -0.4592 -1.2228 -0.0235
 9089SOL     OW38728   0.558   4.271   4.611  0.0087 -0.1970  0.3292
 9089SOL    HW138729   0.551   4.355   4.566 -0.6838 -0.5432 -0.2200
 9089SOL    HW238730   0.631   4.280   4.672 -2.2998  0.7983  2.9516
 9090SOL     OW38731   1.627   4.178   1.190 -0.0962 -0.3883 -0.0683
 9090SOL    HW138732   1.577   4.237   1.135 -0.0066 -2.4548 -2.3652
 9090SOL    HW238733   1.704   4.145   1.144  1.4920  1.3921  1.3081
 9091SOL     OW38734   0.221   0.943  11.343 -0.3830  0.0018  0.3180
 9091SOL    HW138735   0.228   0.975  11.253  0.1120  0.7478  0.6275
 9091SOL    HW238736   0.131   0.959  11.369 -1.3708 -1.1235 -2.4935
 9092SOL     OW38737   0.096   2.758   1.503  0.2966 -0.3774  0.1270
 9092SOL    HW138738   0.146   2.711   1.437  3.7679 -0.7203  3.0224
 9092SOL    HW238739   0.105   2.847   1.472  1.1077 -0.8202 -0.8892
 9093SOL     OW38740   1.040   3.711   3.234 -0.1779 -0.1418  0.0873
 9093SOL    HW138741   0.988   3.790   3.222  0.2149  0.4684  2.4024
 9093SOL    HW238742   1.007   3.681   3.319 -1.2415  1.8288  0.3585
 9094SOL     OW38743   4.439   0.768   5.944  0.2085  0.0417  0.2162
 9094SOL    HW138744   4.502   0.818   5.997 -1.6071 -0.2137  2.6069
 9094SOL    HW238745   4.491   0.691   5.923  1.8075  0.5786  2.1547
 9095SOL     OW38746   2.081   0.630  10.018  0.2546 -0.7227 -0.7076
 9095SOL    HW138747   2.102   0.723  10.021 -1.6077 -0.2919 -1.3539
 9095SOL    HW238748   2.160   0.604   9.971  1.4504 -0.9340  1.3900
 9096SOL     OW38749   0.791   2.557   7.762 -0.1935  0.2348 -0.2289
 9096SOL    HW138750   0.819   2.648   7.752 -0.4679  0.2033 -1.2916
 9096SOL    HW238751   0.834   2.515   7.687  1.8876  0.4861  0.8192
 9097SOL     OW38752   0.310   0.536   6.692 -0.3032 -0.0060  0.6614
 9097SOL    HW138753   0.388   0.488   6.665  0.3995  0.3339  2.0627
 9097SOL    HW238754   0.329   0.621   6.653  0.1450 -0.9707 -1.2300
 9098SOL     OW38755   3.771   0.251   2.344 -0.6412 -0.1949 -0.0575
 9098SOL    HW138756   3.784   0.346   2.335  0.3847 -0.3928 -0.6715
 9098SOL    HW238757   3.845   0.218   2.293 -1.2647 -4.1189  1.6194
 9099SOL     OW38758   0.782   2.523   6.740  0.2476  0.2089 -0.2632
 9099SOL    HW138759   0.696   2.529   6.699 -0.7912  1.7488  2.1662
 9099SOL    HW238760   0.827   2.595   6.696 -0.2352  0.3983 -0.4462
 9100SOL     OW38761   3.795   2.371   9.526  0.2134 -0.3976 -0.1207
 9100SOL    HW138762   3.865   2.390   9.588 -0.3396 -1.9004  0.9586
 9100SOL    HW238763   3.828   2.417   9.449  0.2194 -1.0118 -0.4791
 9101SOL     OW38764   4.497   2.592   7.344  0.1402  0.0547  0.1576
 9101SOL    HW138765   4.485   2.506   7.306 -0.0011 -0.3570  1.1387
 9101SOL    HW238766   4.511   2.637   7.261 -0.6231  0.4869  0.2604
 9102SOL     OW38767   3.768   2.536  12.106  0.0269 -0.0575 -0.1292
 9102SOL    HW138768   3.737   2.489  12.183 -2.3337 -0.3397 -1.2636
 9102SOL    HW238769   3.852   2.491  12.097  0.9221  1.5394  0.1185
 9103SOL     OW38770   4.208   2.597   1.958 -0.0947 -0.0760  0.7681
 9103SOL    HW138771   4.117   2.626   1.970 -0.7578 -1.0563 -1.7823
 9103SOL    HW238772   4.197   2.515   1.911  1.3473  0.2385 -0.1250
 9104SOL     OW38773   2.009   1.220   5.634  0.2198  0.1653 -0.1927
 9104SOL    HW138774   1.992   1.295   5.578  1.5847 -0.1757 -1.0710
 9104SOL    HW238775   2.098   1.198   5.605  0.6952  1.5571  0.2088
 9105SOL     OW38776   0.953   4.612  11.165  0.6519  0.3224 -0.1169
 9105SOL    HW138777   0.905   4.623  11.083 -1.6917 -0.4684  1.1789
 9105SOL    HW238778   0.894   4.659  11.224  0.0027 -0.6556  0.0067
 9106SOL     OW38779   3.973   0.322   7.000 -0.4181  0.1037  0.1518
 9106SOL    HW138780   3.986   0.405   6.955 -1.1891  0.1560  0.0176
 9106SOL    HW238781   3.948   0.354   7.087 -0.2315  1.9934 -0.4959
 9107SOL     OW38782   3.240   3.287   6.412  0.2167 -0.2558  0.3615
 9107SOL    HW138783   3.171   3.299   6.477  1.9666 -0.0820  2.2130
 9107SOL    HW238784   3.195   3.275   6.329  0.7441 -0.2673  0.0745
 9108SOL     OW38785   0.053   1.725   2.220 -0.3470  0.4551 -0.3283
 9108SOL    HW138786   0.083   1.636   2.199  0.7446  0.7893 -0.2044
 9108SOL    HW238787   0.000   1.739   2.141  0.8146 -1.7069 -1.5121
 9109SOL     OW38788   2.298   2.461  12.164  0.2488 -0.1071  0.3946
 9109SOL    HW138789   2.220   2.457  12.109 -0.5655 -0.7266  1.5961
 9109SOL    HW238790   2.363   2.445  12.095 -0.3689 -0.8405 -0.0230
 9110SOL     OW38791   2.096   3.186   1.262 -0.2552 -0.6180 -0.2787
 9110SOL    HW138792   2.154   3.166   1.335  0.6791  1.2444 -0.5272
 9110SOL    HW238793   2.012   3.178   1.307 -0.0501  0.6116  0.3246
 9111SOL     OW38794   1.028   0.785   5.971  0.5068  0.4106  0.1404
 9111SOL    HW138795   1.117   0.769   6.002  0.1192  1.0253  1.5589
 9111SOL    HW238796   1.012   0.698   5.934  0.7205 -0.3225  1.7780
 9112SOL     OW38797   3.670   0.715   6.417 -0.0254  1.0076  0.2393
 9112SOL    HW138798   3.580   0.700   6.446  0.1684 -0.1760  0.1891
 9112SOL    HW238799   3.668   0.802   6.375 -2.2118  1.4449  1.2631
 9113SOL     OW38800   0.965   4.134  11.715  0.1499  0.9694  0.6078
 9113SOL    HW138801   0.963   4.121  11.620  3.1134 -1.5278  0.8754
 9113SOL    HW238802   1.061   4.127  11.714 -0.0470 -1.5287  0.2381
 9114SOL     OW38803   4.088   1.605   6.132  0.1734 -0.4548  0.1882
 9114SOL    HW138804   3.996   1.593   6.158  0.3643  0.6172  1.3232
 9114SOL    HW238805   4.067   1.634   6.043 -2.3149 -4.3867 -0.5279
 9115SOL     OW38806   3.475   2.563   6.581 -0.5233 -0.0884 -0.0759
 9115SOL    HW138807   3.430   2.623   6.522 -0.7007  0.8493  1.0169
 9115SOL    HW238808   3.463   2.611   6.663 -0.9072 -0.1606 -0.0877
 9116SOL     OW38809   2.279   1.215   3.824  0.6013  0.1039 -0.8389
 9116SOL    HW138810   2.350   1.266   3.864  0.2590  0.2564 -0.4277
 9116SOL    HW238811   2.323   1.144   3.777  2.4342 -1.8645  3.8999
 9117SOL     OW38812   0.498   2.295  11.606 -0.3830 -0.2985  0.0466
 9117SOL    HW138813   0.458   2.287  11.693  0.1390  0.9811  0.4195
 9117SOL    HW238814   0.581   2.254  11.631  0.0207 -0.1144 -0.9765
 9118SOL     OW38815   3.949   0.150  16.815 -0.1397 -0.0699 -0.3387
 9118SOL    HW138816   3.859   0.177  16.831  0.3749  0.6684  1.3833
 9118SOL    HW238817   3.978   0.153  16.906 -1.0623  2.1052 -0.1319
 9119SOL     OW38818   3.163   3.769   3.459  0.4456  0.3358  0.0779
 9119SOL    HW138819   3.102   3.737   3.526  1.0018 -0.3820  0.2446
 9119SOL    HW238820   3.225   3.695   3.458  0.5177  0.4446 -2.0536
 9120SOL     OW38821   0.340   2.104   8.859  0.3831 -0.0891 -0.2063
 9120SOL    HW138822   0.370   2.194   8.865 -0.4994  0.0261  2.3428
 9120SOL    HW238823   0.429   2.073   8.845  0.0375 -0.4867 -1.6184
 9121SOL     OW38824   4.354   4.607   2.543 -0.9068 -0.1337 -0.2028
 9121SOL    HW138825   4.358   4.520   2.504  0.3760  1.0394 -2.6882
 9121SOL    HW238826   4.432   4.603   2.598 -1.1814 -0.5679  0.1541
 9122SOL     OW38827   3.508   0.963   6.583 -0.0304  0.1948  0.2681
 9122SOL    HW138828   3.425   1.008   6.595  0.1237  1.0445 -2.0203
 9122SOL    HW238829   3.495   0.910   6.505  1.3073 -0.2027  0.3022
 9123SOL     OW38830   0.713   1.885   7.839 -0.3347 -0.1791 -0.1590
 9123SOL    HW138831   0.739   1.977   7.848 -1.2190  0.2068 -1.6506
 9123SOL    HW238832   0.680   1.886   7.750 -0.0044 -1.1031 -0.2959
 9124SOL     OW38833   1.258   1.549  12.647 -0.4010 -0.0886 -0.5822
 9124SOL    HW138834   1.269   1.637  12.682 -0.3708 -1.3069  2.4332
 9124SOL    HW238835   1.317   1.505  12.709  0.2508 -0.7059 -1.6302
 9125SOL     OW38836   1.455   1.241   1.954  0.5923  0.7660 -0.0450
 9125SOL    HW138837   1.428   1.299   1.883 -0.1139  1.1004  0.4984
 9125SOL    HW238838   1.373   1.200   1.981  0.1935  0.8096 -1.2216
 9126SOL     OW38839   4.024   0.695   1.628 -0.3390  0.0001  0.2515
 9126SOL    HW138840   4.005   0.603   1.610  2.3629 -0.0325 -2.4621
 9126SOL    HW238841   4.029   0.722   1.536  0.1366 -1.4958 -0.1587
 9127SOL     OW38842   3.599   2.997   8.242  0.1294 -0.1715 -0.3163
 9127SOL    HW138843   3.681   2.949   8.228  1.0974  1.2519  0.3479
 9127SOL    HW238844   3.542   2.925   8.267 -0.7634  0.3888 -0.7560
 9128SOL     OW38845   1.656   3.573   1.508 -0.0835  0.1128  0.1683
 9128SOL    HW138846   1.751   3.568   1.517 -0.1851  1.7484  2.0927
 9128SOL    HW238847   1.615   3.569   1.595 -1.2830  1.6823 -0.3229
 9129SOL     OW38848   3.468   2.327   6.363  0.3231 -0.5935 -0.4645
 9129SOL    HW138849   3.505   2.256   6.416 -1.2944 -2.1597 -1.4382
 9129SOL    HW238850   3.462   2.401   6.423 -0.3116 -1.0017 -0.0247
 9130SOL     OW38851   0.724   4.633   3.370 -0.7312  0.0809  0.3318
 9130SOL    HW138852   0.726   4.705   3.306  0.1706 -1.4813 -1.4024
 9130SOL    HW238853   0.817   4.614   3.371 -0.3523  1.9716  1.3361
 9131SOL     OW38854   3.935   3.118   5.577 -0.2583  0.2947 -0.0356
 9131SOL    HW138855   3.885   3.198   5.595 -0.1371 -0.2183  2.5737
 9131SOL    HW238856   3.871   3.048   5.590 -0.1647  0.4048  1.0234
 9132SOL     OW38857   0.098   3.796   7.278 -0.1326  0.0302 -0.2663
 9132SOL    HW138858   0.143   3.807   7.195  0.6872 -0.0111  0.1767
 9132SOL    HW238859   0.047   3.717   7.260 -1.8095  0.8942  0.5801
 9133SOL     OW38860   1.445   1.674   9.502  0.2143 -0.1861  0.0757
 9133SOL    HW138861   1.482   1.644   9.585  4.8550 -0.9648 -2.3062
 9133SOL    HW238862   1.478   1.608   9.442 -0.5398 -1.7394  1.3608
 9134SOL     OW38863   3.201   1.034   6.006 -0.2955 -0.3827 -0.3001
 9134SOL    HW138864   3.246   0.952   6.025 -2.5936 -2.6826 -4.6969
 9134SOL    HW238865   3.111   1.020   6.036  0.4452 -1.2310  1.4491
 9135SOL     OW38866   4.700   2.961   4.956  0.3192 -0.0691  0.7204
 9135SOL    HW138867   4.612   2.998   4.959  0.4995  0.5632 -2.0857
 9135SOL    HW238868   0.005   2.985   5.044 -0.9054 -0.1605  1.1734
 9136SOL     OW38869   2.917   4.086   4.995 -0.0801 -0.2875  0.0789
 9136SOL    HW138870   2.906   4.174   4.961 -3.0096 -1.1637 -1.2019
 9136SOL    HW238871   2.828   4.055   4.983  0.3398 -0.8218 -1.6675
 9137SOL     OW38872   3.035   0.942   7.238  0.0839  0.0761  0.0604
 9137SOL    HW138873   3.119   0.897   7.228 -0.2847 -0.1303 -2.1563
 9137SOL    HW238874   3.045   1.028   7.198 -1.8165 -0.0061 -0.5797
 9138SOL     OW38875   2.100   0.336  17.044 -0.1650 -0.0508 -0.4103
 9138SOL    HW138876   2.191   0.345  17.018 -0.2090  2.0437  0.1918
 9138SOL    HW238877   2.063   0.424  17.050  0.6220  0.3566 -1.6469
 9139SOL     OW38878   3.321   1.338   0.040  0.1899  0.7385  0.2955
 9139SOL    HW138879   3.239   1.366   0.080  0.8954 -0.3725  2.5451
 9139SOL    HW238880   3.292   1.259  17.696  1.1149  0.3532  0.3593
 9140SOL     OW38881   0.980   4.405  14.169 -0.3181  0.2561  0.3291
 9140SOL    HW138882   0.921   4.413  14.245  1.5000 -1.8058  1.9657
 9140SOL    HW238883   0.967   4.494  14.136 -1.9923 -0.3196 -0.5494
 9141SOL     OW38884   1.099   1.447  12.983  0.3045 -0.0681 -0.4705
 9141SOL    HW138885   1.053   1.499  12.918 -0.8807 -0.4131  0.0898
 9141SOL    HW238886   1.121   1.366  12.937  1.0269 -0.3077  0.2965
 9142SOL     OW38887   0.751   0.432  10.049 -0.1161  0.4285 -0.0089
 9142SOL    HW138888   0.707   0.435  10.134 -4.6105 -1.6858 -2.2126
 9142SOL    HW238889   0.741   0.339  10.028 -0.7638  0.7779 -1.2397
 9143SOL     OW38890   0.401   2.690  16.338 -0.1683  0.3733  0.0808
 9143SOL    HW138891   0.417   2.751  16.411  0.4529 -0.3363  0.5366
 9143SOL    HW238892   0.449   2.732  16.266 -1.6036  1.8182 -0.0391
 9144SOL     OW38893   1.806   1.984   4.421  0.2419 -0.4487 -0.0395
 9144SOL    HW138894   1.777   1.966   4.510 -1.3624 -2.0814 -0.8836
 9144SOL    HW238895   1.855   2.065   4.434  0.4973 -0.5306 -0.4741
 9145SOL     OW38896   2.488   3.662   3.722  0.1954 -0.4891 -0.4407
 9145SOL    HW138897   2.486   3.730   3.789 -2.8076 -0.0495 -1.0072
 9145SOL    HW238898   2.426   3.592   3.744  0.2028 -0.0805  0.8907
 9146SOL     OW38899   2.271   2.686   8.377 -0.2655 -0.0325 -0.0444
 9146SOL    HW138900   2.296   2.595   8.393 -0.5706 -0.1122 -0.0034
 9146SOL    HW238901   2.210   2.691   8.451 -0.4204  0.0540 -0.1791
 9147SOL     OW38902   1.652   4.153   7.304  0.0886 -0.7483 -0.0182
 9147SOL    HW138903   1.614   4.191   7.383 -2.8633 -1.8847 -0.9175
 9147SOL    HW238904   1.621   4.222   7.246 -1.4943 -0.8926  0.6683
 9148SOL     OW38905   3.018   2.416   7.068  0.2196  0.1785  0.6986
 9148SOL    HW138906   2.996   2.497   7.023 -1.1591 -1.0758 -0.8758
 9148SOL    HW238907   3.104   2.386   7.038 -0.1901  0.1749 -0.4484
 9149SOL     OW38908   3.111   1.662  10.087 -0.2887  0.0226  0.0904
 9149SOL    HW138909   3.201   1.641  10.059 -0.2434 -0.7777  0.8287
 9149SOL    HW238910   3.075   1.574  10.079 -1.5645  0.5907 -0.3048
 9150SOL     OW38911   1.299   3.769   1.830  0.3628 -0.0543 -0.2446
 9150SOL    HW138912   1.296   3.735   1.740  0.5290  1.7527 -0.9367
 9150SOL    HW238913   1.235   3.709   1.868  1.8638 -0.1168  2.1680
 9151SOL     OW38914   4.411   0.677   8.968 -0.2875 -0.3542  0.1362
 9151SOL    HW138915   4.332   0.651   9.016  0.4243  1.5476  2.3458
 9151SOL    HW238916   4.375   0.747   8.913  1.5772 -1.2329 -2.1490
 9152SOL     OW38917   0.090   2.855   7.453  0.5716 -0.1124  0.1002
 9152SOL    HW138918   0.057   2.878   7.367 -1.9070 -1.0050  0.7862
 9152SOL    HW238919   0.185   2.857   7.449  0.6493 -1.3564  0.9718
 9153SOL     OW38920   3.665   0.029   4.472  0.2290 -0.0126  0.0141
 9153SOL    HW138921   3.744   0.041   4.420  0.3805 -0.8635  0.0395
 9153SOL    HW238922   3.641   4.671   4.430 -0.3855  0.1782 -0.0206
 9154SOL     OW38923   0.778   3.874  16.627 -0.5275 -0.7555 -0.1897
 9154SOL    HW138924   0.689   3.891  16.595 -0.2629 -1.1848 -1.1465
 9154SOL    HW238925   0.782   3.936  16.700  0.5266 -1.1989  0.1309
 9155SOL     OW38926   2.869   2.193  10.353  0.1201  0.3313  0.3354
 9155SOL    HW138927   2.792   2.185  10.409  0.7547  0.6150  1.2572
 9155SOL    HW238928   2.857   2.126  10.287  0.6711  1.8395 -1.2834
 9156SOL     OW38929   0.563   2.604   7.097  0.0831 -0.1482 -0.0625
 9156SOL    HW138930   0.481   2.640   7.130 -1.0838 -1.8220 -1.1308
 9156SOL    HW238931   0.582   2.658   7.020 -1.2195 -1.1385 -1.0777
 9157SOL     OW38932   1.268   0.227  16.073 -0.6733  0.2729 -0.2515
 9157SOL    HW138933   1.192   0.278  16.044  0.3818  0.2446 -3.0304
 9157SOL    HW238934   1.229   0.153  16.119 -0.5833  0.8634  0.7894
 9158SOL     OW38935   0.272   0.642   0.560 -0.4775 -0.3656 -0.1276
 9158SOL    HW138936   0.289   0.736   0.559  0.9898 -0.6147  1.3652
 9158SOL    HW238937   0.287   0.626   0.653  1.6041 -1.5699 -0.6699
 9159SOL     OW38938   0.626   3.793   7.027 -0.7277  0.3660 -0.2000
 9159SOL    HW138939   0.661   3.706   7.008  0.3752  1.0071 -1.0723
 9159SOL    HW238940   0.707   3.843   7.024 -0.8905  0.4512 -2.7516
 9160SOL     OW38941   1.074   2.919   4.931 -0.0124  0.2199  0.2983
 9160SOL    HW138942   1.002   2.944   4.874  0.6873  0.7549 -0.3438
 9160SOL    HW238943   1.139   2.906   4.862 -0.1839  0.4254  0.0986
 9161SOL     OW38944   3.218   3.471  14.978  0.5403 -0.5229  0.1425
 9161SOL    HW138945   3.186   3.401  15.035  0.7943 -0.4516  0.3716
 9161SOL    HW238946   3.264   3.525  15.042 -0.4967 -0.0758  0.5100
 9162SOL     OW38947   4.644   1.528   9.360  0.1844  0.1646 -0.8182
 9162SOL    HW138948   4.550   1.520   9.380 -0.2451  0.1353 -2.8680
 9162SOL    HW238949   4.644   1.569   9.274  0.1038  0.2490 -0.7786
 9163SOL     OW38950   3.082   2.650  13.247 -0.7975  0.0413  0.0875
 9163SOL    HW138951   3.028   2.728  13.240 -0.1175  0.4860 -0.1621
 9163SOL    HW238952   3.165   2.672  13.289 -0.9107 -1.2923  1.0035
 9164SOL     OW38953   3.013   3.093   5.497  0.0900 -0.7326 -0.7149
 9164SOL    HW138954   3.027   3.020   5.556  2.8534 -0.0754 -0.5543
 9164SOL    HW238955   2.995   3.166   5.556  1.1879 -0.4058 -0.7948
 9165SOL     OW38956   2.806   0.689   4.753  0.1973  0.1367 -0.3516
 9165SOL    HW138957   2.805   0.634   4.675  1.2958 -0.7637  0.2778
 9165SOL    HW238958   2.863   0.644   4.815 -0.3634  0.5669  0.4824
 9166SOL     OW38959   4.440   1.755  11.673  1.0311  0.3291  0.0567
 9166SOL    HW138960   4.362   1.807  11.653 -0.4191 -0.8771  2.7083
 9166SOL    HW238961   4.498   1.815  11.626  0.9596  1.5427  1.5116
 9167SOL     OW38962   1.181   2.065  14.400 -0.4995 -0.5773  0.0883
 9167SOL    HW138963   1.269   2.027  14.394  0.3401  1.6244 -1.3648
 9167SOL    HW238964   1.148   2.020  14.477  0.2544 -0.3162  0.5683
 9168SOL     OW38965   4.051   2.895   1.993 -0.4518  0.5611 -0.0164
 9168SOL    HW138966   4.004   2.813   2.010  1.6729 -0.0272  3.0512
 9168SOL    HW238967   4.041   2.911   1.899  1.1630 -1.9257 -0.6314
 9169SOL     OW38968   2.404   2.193   9.731  0.2167  0.4720 -0.2900
 9169SOL    HW138969   2.315   2.202   9.697  0.0921  1.6651  0.3504
 9169SOL    HW238970   2.398   2.245   9.812  0.5140  1.1408 -0.6987
 9170SOL     OW38971   0.005   1.051   0.594 -0.1722  0.1613 -0.4049
 9170SOL    HW138972   0.072   1.112   0.626 -0.8636  0.7300 -0.0299
 9170SOL    HW238973   4.656   1.090   0.641  0.2404 -1.3416  1.5155
 9171SOL     OW38974   0.064   1.861  17.390  0.3613  0.1285 -0.1752
 9171SOL    HW138975   0.095   1.876  17.479 -1.8335  0.0485  0.6124
 9171SOL    HW238976   4.697   1.889  17.395 -0.2425 -2.0862  1.1490
 9172SOL     OW38977   4.017   1.184  11.793  0.2619 -0.6816  0.4872
 9172SOL    HW138978   4.072   1.217  11.722  1.0760 -1.9490  0.5344
 9172SOL    HW238979   4.047   1.236  11.869 -2.5168  0.1217  1.0357
 9173SOL     OW38980   2.799   0.029   7.786 -0.6908 -0.0707 -0.2410
 9173SOL    HW138981   2.725   4.703   7.817  0.3116 -0.6223  1.2294
 9173SOL    HW238982   2.789   0.006   7.693  2.2563 -0.6472 -0.4114
 9174SOL     OW38983   4.009   4.183  17.102  0.1491 -0.0379 -0.0399
 9174SOL    HW138984   4.093   4.229  17.105 -1.2609  2.6174 -0.9098
 9174SOL    HW238985   4.036   4.092  17.108 -2.4086 -0.9167 -1.8959
 9175SOL     OW38986   2.361   2.367  16.069  0.0761  0.1673 -0.0111
 9175SOL    HW138987   2.325   2.347  15.983  0.7609 -0.4869 -0.1454
 9175SOL    HW238988   2.441   2.314  16.066 -0.4055 -0.4562 -1.8571
 9176SOL     OW38989   4.185   0.587   9.647  0.4634 -0.2312 -0.4045
 9176SOL    HW138990   4.215   0.619   9.562 -1.5588  1.7939 -0.3457
 9176SOL    HW238991   4.108   0.644   9.652  0.8573  0.2972 -0.3138
 9177SOL     OW38992   4.127   4.209   1.814 -0.6032 -0.2564 -0.1240
 9177SOL    HW138993   4.080   4.126   1.810 -0.4655 -0.3829  0.8983
 9177SOL    HW238994   4.084   4.247   1.737 -0.5331 -1.1989 -0.6290
 9178SOL     OW38995   2.669   2.531   7.839 -0.2451  0.3287 -0.1433
 9178SOL    HW138996   2.737   2.584   7.797  0.0826  0.6874  0.8274
 9178SOL    HW238997   2.613   2.597   7.880  2.2299  3.0803 -1.1383
 9179SOL     OW38998   1.292   0.496  16.180  0.1209  0.4874 -0.3339
 9179SOL    HW138999   1.206   0.476  16.217  0.2510  1.4626  0.5020
 9179SOL    HW239000   1.329   0.412  16.155 -0.5374  0.4980 -1.3598
 9180SOL     OW39001   4.636   3.711  10.090 -0.5639 -0.0612 -0.0711
 9180SOL    HW139002   4.684   3.788  10.059 -0.0469 -0.3734 -0.0457
 9180SOL    HW239003   4.621   3.661  10.009  3.4081  0.2576 -1.0048
 9181SOL     OW39004   4.115   3.507   9.408  0.1511  0.1289  0.0872
 9181SOL    HW139005   4.042   3.568   9.396  0.3822  0.5892  1.0365
 9181SOL    HW239006   4.067   3.426   9.422  0.6795 -0.1696  0.1771
 9182SOL     OW39007   1.184   2.048   0.558 -0.0084 -0.7479 -0.1751
 9182SOL    HW139008   1.233   2.090   0.628 -0.2061  0.2723 -0.6493
 9182SOL    HW239009   1.210   2.093   0.477 -0.2849 -1.1677 -0.4952
 9183SOL     OW39010   4.543   0.306   2.169 -0.1608 -0.4339  0.5797
 9183SOL    HW139011   4.470   0.257   2.207  0.1150 -0.5668  0.9412
 9183SOL    HW239012   4.589   0.323   2.251  2.2994 -2.9455 -0.2560
 9184SOL     OW39013   0.879   1.243   7.165 -0.1448  0.4158 -0.0673
 9184SOL    HW139014   0.879   1.339   7.158  1.2261  0.3328 -1.1744
 9184SOL    HW239015   0.894   1.227   7.072  0.7797 -2.0695  0.5110
 9185SOL     OW39016   3.543   2.423   3.417  0.1618  0.0483 -0.0284
 9185SOL    HW139017   3.499   2.381   3.343 -0.0684  0.4854 -0.1400
 9185SOL    HW239018   3.634   2.423   3.388 -0.6682  0.4926 -2.6033
 9186SOL     OW39019   0.361   3.751  12.467  0.4751 -0.0791  0.3362
 9186SOL    HW139020   0.363   3.723  12.375  2.1400 -2.6938  1.1710
 9186SOL    HW239021   0.440   3.801  12.485  1.3992 -1.3660 -0.1541
 9187SOL     OW39022   1.400   3.829   2.757 -0.5764  0.1792 -0.2970
 9187SOL    HW139023   1.399   3.777   2.677 -0.8964 -0.4122  0.0995
 9187SOL    HW239024   1.320   3.881   2.743  0.1983  0.9174 -2.0483
 9188SOL     OW39025   1.117   0.298   9.032 -0.1600  0.5932  0.3434
 9188SOL    HW139026   1.122   0.394   9.041  0.8678  0.5183  0.6022
 9188SOL    HW239027   1.105   0.289   8.938 -0.4891  1.7704  0.2674
 9189SOL     OW39028   0.627   4.466   2.583 -0.2386  0.2701  0.4019
 9189SOL    HW139029   0.672   4.488   2.501  0.9358 -2.3240  0.3353
 9189SOL    HW239030   0.614   4.550   2.627  1.8970  0.9880 -0.3316
 9190SOL     OW39031   0.729   2.923   5.102 -0.2282 -0.2239 -0.2056
 9190SOL    HW139032   0.778   2.982   5.044 -1.7020  0.4426 -0.7750
 9190SOL    HW239033   0.803   2.874   5.137 -0.7515 -0.0055  1.2013
 9191SOL     OW39034   3.362   4.452   6.686 -0.3687 -0.0305  0.3244
 9191SOL    HW139035   3.404   4.535   6.664 -1.1281  0.0747 -0.7389
 9191SOL    HW239036   3.344   4.422   6.596 -1.3489 -1.2236  0.9217
 9192SOL     OW39037   4.099   4.299  11.379  0.3470  0.1802 -0.0125
 9192SOL    HW139038   4.057   4.224  11.336  0.1675  0.2970 -0.0385
 9192SOL    HW239039   4.146   4.256  11.451 -1.0309  1.1956  1.4861
 9193SOL     OW39040   0.733   2.603  10.756  0.0421 -0.1112 -0.6899
 9193SOL    HW139041   0.821   2.571  10.772 -0.3046 -1.3819 -1.3323
 9193SOL    HW239042   0.752   2.676  10.697 -1.0490  0.5338 -0.2456
 9194SOL     OW39043   1.046   1.373   1.460 -0.7136  0.0437 -0.6103
 9194SOL    HW139044   1.043   1.366   1.365 -0.3411  1.3533 -0.7088
 9194SOL    HW239045   1.071   1.282   1.479 -2.6799 -0.3977 -0.1313
 9195SOL     OW39046   0.440   3.391  13.186 -0.6724 -0.4882  1.0652
 9195SOL    HW139047   0.531   3.388  13.158 -0.7089 -0.6423  0.9593
 9195SOL    HW239048   0.445   3.486  13.190 -0.7838 -0.3198 -2.7149
 9196SOL     OW39049   1.564   1.033   8.988 -0.1974  0.3201 -0.4929
 9196SOL    HW139050   1.603   1.119   8.998 -1.0086  0.2872  2.9004
 9196SOL    HW239051   1.608   0.982   9.055  0.8401  1.4972 -0.2831
 9197SOL     OW39052   3.133   2.972  16.886  0.3050 -0.3030 -0.1960
 9197SOL    HW139053   3.106   2.882  16.908 -0.0251 -0.7268 -2.3372
 9197SOL    HW239054   3.123   2.962  16.792 -0.8917 -0.0397 -0.0879
 9198SOL     OW39055   1.210   1.105   7.232  0.0738  0.0398 -0.8790
 9198SOL    HW139056   1.204   1.131   7.324 -0.8296 -1.9866 -0.3520
 9198SOL    HW239057   1.151   1.030   7.228 -2.6267  2.1555 -1.0772
 9199SOL     OW39058   1.185   4.177   5.958  0.1648  0.1334  0.3998
 9199SOL    HW139059   1.264   4.145   5.914 -0.2558  0.8574 -0.8581
 9199SOL    HW239060   1.155   4.102   6.010 -2.3055  0.2529 -0.8811
 9200SOL     OW39061   0.200   1.509   6.968  0.3427  0.5439  0.0579
 9200SOL    HW139062   0.113   1.542   6.991  0.6135  1.1161  0.2558
 9200SOL    HW239063   0.222   1.581   6.910  0.5144  0.1585 -0.3545
 9201SOL     OW39064   1.732   4.510   0.080 -0.3491  0.2137  0.3044
 9201SOL    HW139065   1.692   4.591   0.047 -2.0612 -0.3151  1.0500
 9201SOL    HW239066   1.811   4.496   0.028 -0.1136  0.5661  0.5639
 9202SOL     OW39067   2.277   1.049   5.004 -0.0289 -0.3918  0.5201
 9202SOL    HW139068   2.273   1.079   4.913 -1.8466 -1.1522  0.3597
 9202SOL    HW239069   2.370   1.025   5.006  0.2518  0.5244 -1.7665
 9203SOL     OW39070   3.989   1.292   1.986 -0.1985  0.1187  0.0854
 9203SOL    HW139071   3.915   1.240   1.954 -0.5134  1.1466 -0.8819
 9203SOL    HW239072   4.037   1.230   2.041  0.4782  0.0111 -0.6254
 9204SOL     OW39073   2.273   1.767  13.790  0.0042  0.1141 -0.0877
 9204SOL    HW139074   2.193   1.803  13.751  0.3205 -1.0452 -1.7969
 9204SOL    HW239075   2.231   1.706  13.851 -0.1578  1.4609  1.1479
 9205SOL     OW39076   2.306   0.852   2.843 -0.2860  0.1174 -0.1037
 9205SOL    HW139077   2.287   0.760   2.825 -2.0321  0.8135 -1.7926
 9205SOL    HW239078   2.316   0.882   2.753  0.7836 -1.8742 -0.6608
 9206SOL     OW39079   0.176   1.221   9.434  0.3988 -0.2667 -0.3610
 9206SOL    HW139080   0.239   1.151   9.417 -0.5359 -1.2714  0.2988
 9206SOL    HW239081   0.206   1.296   9.383 -1.0857  0.9331  0.5216
 9207SOL     OW39082   3.372   2.383   2.549 -0.6147  0.1606  0.2403
 9207SOL    HW139083   3.428   2.461   2.548 -1.5557  0.8375 -0.2014
 9207SOL    HW239084   3.388   2.327   2.473  2.0835  1.4413 -0.1386
 9208SOL     OW39085   3.208   3.088  16.586  0.7278 -0.3541  0.0781
 9208SOL    HW139086   3.132   3.144  16.603  0.4815 -0.5595 -0.3585
 9208SOL    HW239087   3.203   3.078  16.491 -1.6194  0.7437  0.0842
 9209SOL     OW39088   1.999   0.609   5.792  0.2715  0.2609  0.0833
 9209SOL    HW139089   2.002   0.551   5.868 -0.2888 -1.1169 -0.9404
 9209SOL    HW239090   1.922   0.665   5.801  0.6613  0.8869 -0.5365
 9210SOL     OW39091   1.696   1.139  11.135 -0.6026 -0.0516 -0.1802
 9210SOL    HW139092   1.722   1.052  11.167  0.1402 -0.0902 -0.8842
 9210SOL    HW239093   1.613   1.106  11.102 -0.8030  0.5239 -0.2516
 9211SOL     OW39094   2.197   0.376   6.647  0.5279 -0.6114 -0.0600
 9211SOL    HW139095   2.269   0.374   6.583  0.3762 -0.4535 -0.2332
 9211SOL    HW239096   2.167   0.463   6.623 -3.5171 -1.7462  0.9274
 9212SOL     OW39097   4.225   2.324   2.390  0.0288  0.0599 -0.7995
 9212SOL    HW139098   4.214   2.379   2.467  2.2696 -1.0863  0.3479
 9212SOL    HW239099   4.271   2.250   2.429 -0.1322 -0.4244 -1.5169
 9213SOL     OW39100   0.523   2.717   7.762  0.0797 -0.6088 -0.1291
 9213SOL    HW139101   0.577   2.779   7.811  0.8009  0.1092 -1.8108
 9213SOL    HW239102   0.595   2.665   7.727  0.5191  0.8988 -1.4610
 9214SOL     OW39103   0.548   1.976   1.094 -0.2807  0.2821 -0.2663
 9214SOL    HW139104   0.587   1.926   1.023 -1.0066 -3.2042  1.7873
 9214SOL    HW239105   0.610   1.955   1.163 -1.1798 -2.3762 -0.2788
 9215SOL     OW39106   1.547   1.723   5.748  0.3091 -0.6660  0.7799
 9215SOL    HW139107   1.544   1.767   5.663  2.0182 -1.1951  0.4356
 9215SOL    HW239108   1.495   1.646   5.725  0.1181 -0.8147  1.7246
 9216SOL     OW39109   2.637   3.928   7.801  0.1877 -0.0379  0.0106
 9216SOL    HW139110   2.645   3.879   7.883  1.9418  0.6149  0.2562
 9216SOL    HW239111   2.615   4.014   7.837 -0.4445 -0.2131  0.0428
 9217SOL     OW39112   3.934   2.684   5.260  0.0072  0.2214 -0.5472
 9217SOL    HW139113   4.012   2.729   5.226  2.3206 -3.5572 -0.2673
 9217SOL    HW239114   3.915   2.621   5.191  4.1669  0.5813 -2.0094
 9218SOL     OW39115   4.413   4.256   3.141  0.1553 -0.8014  0.0777
 9218SOL    HW139116   4.434   4.289   3.054 -3.1650  0.3038 -0.3007
 9218SOL    HW239117   4.480   4.188   3.148  2.3904  1.3419 -0.6936
 9219SOL     OW39118   2.435   1.308   7.883  0.1434  0.3593  0.4245
 9219SOL    HW139119   2.527   1.323   7.905  0.1000  0.4567  0.5438
 9219SOL    HW239120   2.386   1.312   7.966  2.8056 -3.1406  2.1450
 9220SOL     OW39121   0.233   0.799   5.860 -0.4599 -0.5245  0.4566
 9220SOL    HW139122   0.161   0.738   5.845 -0.2279 -1.0048  1.2884
 9220SOL    HW239123   0.307   0.742   5.882  0.0944 -1.4837 -3.7261
 9221SOL     OW39124   1.585   1.519   0.549  0.3297  0.0334 -0.7011
 9221SOL    HW139125   1.601   1.427   0.525 -0.6913  0.1033 -1.6744
 9221SOL    HW239126   1.664   1.551   0.591 -1.5170  1.5429  1.6525
 9222SOL     OW39127   1.122   4.577   7.822 -0.5625 -0.1883 -0.2544
 9222SOL    HW139128   1.086   4.580   7.911  0.9831  1.1966  0.3204
 9222SOL    HW239129   1.055   4.523   7.780 -2.4747  2.0498 -0.0796
 9223SOL     OW39130   1.769   0.525   9.303 -0.4270  0.0459 -0.1733
 9223SOL    HW139131   1.851   0.476   9.303 -0.0155  0.7523  2.1810
 9223SOL    HW239132   1.791   0.612   9.336 -0.9978 -0.2072  0.8851
 9224SOL     OW39133   4.115   2.541   0.859  0.0420  0.1753 -0.1527
 9224SOL    HW139134   4.166   2.555   0.939  0.7783 -0.2082 -0.5557
 9224SOL    HW239135   4.170   2.475   0.816  0.3699  1.1377 -1.2015
 9225SOL     OW39136   0.061   4.480  16.044 -0.1798 -0.0826  0.0022
 9225SOL    HW139137   0.011   4.534  15.983 -1.1420 -0.3145  0.5753
 9225SOL    HW239138   0.146   4.521  16.030  0.2376 -0.7118  0.7179
 9226SOL     OW39139   2.705   2.127  13.354 -0.2630 -0.0174  0.3107
 9226SOL    HW139140   2.722   2.081  13.272 -1.7223 -0.0448  0.0153
 9226SOL    HW239141   2.675   2.215  13.328  1.6666  0.2949 -0.8929
 9227SOL     OW39142   1.543   1.598   3.441 -0.4565  0.3492 -0.2193
 9227SOL    HW139143   1.595   1.671   3.473  1.1808 -0.6372 -0.6707
 9227SOL    HW239144   1.528   1.632   3.353  3.6980  3.2573  0.2387
 9228SOL     OW39145   0.737   0.297   6.168 -0.6402 -0.6341 -0.5112
 9228SOL    HW139146   0.718   0.203   6.167  0.1357 -0.7836 -2.1253
 9228SOL    HW239147   0.822   0.302   6.124 -2.0939  2.1258 -2.9405
 9229SOL     OW39148   1.914   0.165  17.184  0.1233  0.1508  0.0326
 9229SOL    HW139149   1.974   0.194  17.115 -1.6927  0.0892 -1.5583
 9229SOL    HW239150   1.903   0.243  17.239  0.4309 -0.7877  1.4189
 9230SOL     OW39151   2.195   3.254  17.175  0.7431  0.3243 -0.0681
 9230SOL    HW139152   2.256   3.180  17.177  0.9210  0.4242 -1.8018
 9230SOL    HW239153   2.133   3.235  17.245  0.7810  2.0812  0.4339
 9231SOL     OW39154   1.698   2.770   2.339  0.2906  0.2542  0.4240
 9231SOL    HW139155   1.687   2.760   2.434 -1.4940  1.9903  0.3902
 9231SOL    HW239156   1.625   2.819   2.302 -0.1435  0.0606  1.0323
 9232SOL     OW39157   2.931   4.615  17.122 -0.8000 -0.0344  0.0420
 9232SOL    HW139158   2.897   4.643  17.038  0.9166  2.1746  0.0975
 9232SOL    HW239159   3.007   4.558  17.107 -1.4483 -0.5834 -1.1599
 9233SOL     OW39160   3.725   3.306   3.930 -0.0611 -0.7523  0.0621
 9233SOL    HW139161   3.667   3.379   3.908 -0.3655 -0.7446  0.8774
 9233SOL    HW239162   3.674   3.227   3.911 -2.9904  0.5188  2.4828
 9234SOL     OW39163   3.225   4.203   2.125 -0.4612 -0.0888 -0.8665
 9234SOL    HW139164   3.159   4.137   2.104  0.1864 -0.9622 -0.1317
 9234SOL    HW239165   3.167   4.279   2.128 -0.2045  0.1015 -0.6704
 9235SOL     OW39166   1.589   3.353   4.552  0.3209  0.3301 -0.2071
 9235SOL    HW139167   1.591   3.447   4.572 -1.6446  0.8457 -2.4388
 9235SOL    HW239168   1.543   3.315   4.627 -0.6141 -0.5177 -1.2087
 9236SOL     OW39169   3.779   2.938   2.744 -0.4847 -0.0121 -0.7559
 9236SOL    HW139170   3.702   2.993   2.730  1.0889  2.8344  1.8550
 9236SOL    HW239171   3.779   2.866   2.680 -1.4585  0.7629 -1.6319
 9237SOL     OW39172   2.856   3.722  11.191  0.2181 -0.1254 -0.3937
 9237SOL    HW139173   2.867   3.733  11.286  2.0405  1.1271 -0.7439
 9237SOL    HW239174   2.891   3.804  11.156  0.0781 -0.1552 -0.5990
 9238SOL     OW39175   1.670   3.135   4.162  0.6920 -0.0018  0.5124
 9238SOL    HW139176   1.642   3.217   4.202 -0.4107 -0.0586 -0.1481
 9238SOL    HW239177   1.601   3.130   4.096  0.6827  0.4074  0.4911
 9239SOL     OW39178   3.932   2.347   5.089  0.3813 -0.0036  0.4577
 9239SOL    HW139179   3.837   2.356   5.095  0.1451 -1.8755 -0.2678
 9239SOL    HW239180   3.944   2.253   5.072  0.0962 -0.2497  1.6380
 9240SOL     OW39181   0.187   3.784  17.576 -0.1352 -0.2776  0.4329
 9240SOL    HW139182   0.184   3.803  17.483  3.8100  1.6200  0.6843
 9240SOL    HW239183   0.282   3.794  17.590 -0.0803  0.0517 -0.1763
 9241SOL     OW39184   2.665   2.822   4.152 -0.0996 -0.2881  0.3727
 9241SOL    HW139185   2.623   2.842   4.236 -2.3016 -1.1535 -0.5309
 9241SOL    HW239186   2.664   2.907   4.107  1.1188 -1.4120 -1.7698
 9242SOL     OW39187   0.361   1.219  16.695 -0.6166 -0.3358 -0.5076
 9242SOL    HW139188   0.270   1.204  16.670 -0.5001 -0.8376 -0.6326
 9242SOL    HW239189   0.366   1.162  16.772  1.8489  1.6790  0.8405
 9243SOL     OW39190   1.745   2.431  13.981  0.4413 -0.1514 -0.1490
 9243SOL    HW139191   1.818   2.408  14.038 -1.4754  0.3471  2.5056
 9243SOL    HW239192   1.686   2.469  14.045 -2.1003 -2.0027 -1.3912
 9244SOL     OW39193   0.282   1.080  17.439 -0.1781 -0.1150  0.2049
 9244SOL    HW139194   0.367   1.109  17.473 -1.1014  1.2527  1.3779
 9244SOL    HW239195   0.221   1.107  17.508  2.0173  0.6396  1.8632
 9245SOL     OW39196   1.500   1.155  14.514 -0.2381  0.1797  0.4657
 9245SOL    HW139197   1.489   1.198  14.598 -3.2864 -0.9223  0.6293
 9245SOL    HW239198   1.594   1.143  14.523 -0.2901 -1.2990 -0.7911
 9246SOL     OW39199   2.245   0.095   1.909 -0.0202  0.1170 -0.0508
 9246SOL    HW139200   2.221   0.096   1.816 -0.2137 -1.4178 -0.0099
 9246SOL    HW239201   2.185   0.166   1.928 -0.9503 -0.6419 -0.1561
 9247SOL     OW39202   2.177   2.689   1.956  0.3394  0.1105 -0.1004
 9247SOL    HW139203   2.255   2.679   2.010 -0.6871  2.0253  1.7176
 9247SOL    HW239204   2.202   2.743   1.881  1.5071  2.1099  1.7260
 9248SOL     OW39205   1.813   4.177   0.664 -0.2786 -0.3979  0.1626
 9248SOL    HW139206   1.828   4.097   0.614 -1.4800  1.1065 -2.5714
 9248SOL    HW239207   1.737   4.210   0.616 -0.6357  0.6966  1.4524
 9249SOL     OW39208   3.873   0.848   2.667 -0.5799  0.3329 -0.1146
 9249SOL    HW139209   3.818   0.776   2.638  0.9938 -0.3253 -1.4484
 9249SOL    HW239210   3.816   0.909   2.714  0.7197  3.6281 -2.7776
 9250SOL     OW39211   4.158   3.025  12.357  0.0469  0.5433 -0.7188
 9250SOL    HW139212   4.224   3.082  12.396 -2.5615  0.5682  3.7046
 9250SOL    HW239213   4.073   3.065  12.378  0.0933  0.2948 -0.0696
 9251SOL     OW39214   0.336   2.232   9.213 -0.5737  0.2081  0.2376
 9251SOL    HW139215   0.354   2.273   9.129  2.9700 -0.0853  0.8310
 9251SOL    HW239216   0.241   2.229   9.208 -0.4969 -0.2236 -0.9107
 9252SOL     OW39217   1.975   2.092   3.333 -0.2347 -0.1728  0.0377
 9252SOL    HW139218   2.024   2.116   3.255 -0.9224 -1.7521 -0.8786
 9252SOL    HW239219   1.921   2.026   3.291  2.0447 -1.5646 -0.7466
 9253SOL     OW39220   2.376   1.525   4.575 -0.0337 -0.3161  0.4007
 9253SOL    HW139221   2.378   1.616   4.543 -0.3359 -0.2874  0.4578
 9253SOL    HW239222   2.333   1.543   4.659 -1.5387 -1.3264 -0.1461
 9254SOL     OW39223   0.255   3.719   8.489 -0.4546 -0.0860 -0.0084
 9254SOL    HW139224   0.276   3.774   8.565  1.3976  1.0759 -1.3615
 9254SOL    HW239225   0.302   3.639   8.513  0.4208  1.2151  2.6746
 9255SOL     OW39226   0.221   3.718   6.198  0.3515  0.5529 -0.2188
 9255SOL    HW139227   0.171   3.744   6.121  0.5792 -0.8085 -0.8329
 9255SOL    HW239228   0.168   3.649   6.238  0.1127 -1.1953 -3.5286
 9256SOL     OW39229   1.638   3.286   8.591 -0.5404  0.8951 -0.1754
 9256SOL    HW139230   1.689   3.266   8.670 -1.5710 -0.3451  0.1796
 9256SOL    HW239231   1.557   3.315   8.635 -0.2221  0.9235  0.3931
 9257SOL     OW39232   1.507   3.614   4.450  0.1286  0.2115  0.2094
 9257SOL    HW139233   1.442   3.639   4.516  0.4301  0.7736  0.2981
 9257SOL    HW239234   1.558   3.695   4.442 -2.7050  1.9605 -0.1678
 9258SOL     OW39235   1.247   3.306   6.913 -0.2646 -0.5749  0.6431
 9258SOL    HW139236   1.169   3.281   6.863 -0.6063  1.5830  0.0750
 9258SOL    HW239237   1.308   3.245   6.871 -1.0310  0.8270 -2.5288
 9259SOL     OW39238   2.900   3.336   8.974  0.0833 -0.4706  0.1628
 9259SOL    HW139239   2.848   3.258   8.990 -1.3815  0.4652  0.0131
 9259SOL    HW239240   2.989   3.310   8.995  0.3864  0.1673 -0.3174
 9260SOL     OW39241   3.492   1.643  16.815 -0.1731 -0.3432  0.8298
 9260SOL    HW139242   3.463   1.724  16.774 -0.1352 -1.1868 -0.8789
 9260SOL    HW239243   3.581   1.628  16.782  0.6062 -0.0451  2.8283
 9261SOL     OW39244   1.348   1.702   3.816 -0.1156  0.5143 -0.4130
 9261SOL    HW139245   1.413   1.655   3.868  0.1022 -0.0736 -1.2122
 9261SOL    HW239246   1.373   1.794   3.809  0.6497  0.3872  0.7537
 9262SOL     OW39247   3.417   2.818   2.602  0.5403 -0.5007  0.1401
 9262SOL    HW139248   3.472   2.757   2.553  0.1396 -0.3927 -0.4417
 9262SOL    HW239249   3.384   2.762   2.672  0.2063  1.6845  1.7227
 9263SOL     OW39250   4.053   2.189   1.273  0.1478  0.1886 -0.3328
 9263SOL    HW139251   3.978   2.198   1.332 -0.1971 -2.0759 -0.4218
 9263SOL    HW239252   4.072   2.279   1.246 -0.1255 -0.1523 -1.6539
 9264SOL     OW39253   0.569   1.896  11.176  0.5374  0.2007  0.6581
 9264SOL    HW139254   0.505   1.936  11.235  1.7593 -0.1966  2.2485
 9264SOL    HW239255   0.520   1.883  11.094 -1.8970  1.6632  1.9035
 9265SOL     OW39256   4.245   2.289   6.501  0.3738  0.2339  0.4153
 9265SOL    HW139257   4.310   2.220   6.488 -0.6380 -0.3223 -1.6554
 9265SOL    HW239258   4.300   2.324   6.571 -0.6036  1.6444  0.4748
 9266SOL     OW39259   0.902   3.181   8.848  0.3400 -0.0045 -0.9408
 9266SOL    HW139260   0.967   3.145   8.788  2.1740 -2.7187  2.6818
 9266SOL    HW239261   0.963   3.230   8.903 -0.2897 -1.0689  0.7073
 9267SOL     OW39262   3.712   4.085  15.665 -0.4708 -0.3325  0.2952
 9267SOL    HW139263   3.729   4.010  15.722  0.6853 -1.1820 -1.1866
 9267SOL    HW239264   3.643   4.120  15.722 -1.2446 -0.0795 -0.8080
 9268SOL     OW39265   0.846   0.528  11.409 -0.0232 -0.6893  0.0971
 9268SOL    HW139266   0.889   0.601  11.453  1.0276 -1.6672  0.6903
 9268SOL    HW239267   0.768   0.578  11.388  0.2509  0.5263  2.0088
 9269SOL     OW39268   0.211   4.245   7.275 -0.2794  0.2926 -0.0232
 9269SOL    HW139269   0.259   4.236   7.358 -0.1130 -0.3291 -0.1923
 9269SOL    HW239270   0.243   4.168   7.230 -1.2380  0.1292 -0.4154
 9270SOL     OW39271   1.220   4.189   8.704 -0.2922 -0.4165  0.1840
 9270SOL    HW139272   1.222   4.282   8.685 -0.9323 -0.5678 -0.6383
 9270SOL    HW239273   1.139   4.161   8.660 -0.9642 -0.7618  1.6605
 9271SOL     OW39274   1.624   2.404   9.291 -0.9294  0.4309 -0.1348
 9271SOL    HW139275   1.699   2.452   9.328 -1.1339  0.8724 -0.2883
 9271SOL    HW239276   1.570   2.390   9.368 -2.0191  3.1499 -0.3829
 9272SOL     OW39277   0.221   0.320   9.414  0.1397  0.0820  0.0140
 9272SOL    HW139278   0.130   0.304   9.388  0.2507 -1.1109  0.3216
 9272SOL    HW239279   0.265   0.290   9.335  0.6976 -1.8760  1.0655
 9273SOL     OW39280   4.238   0.828   8.796  0.0321  0.0618  0.1640
 9273SOL    HW139281   4.175   0.884   8.843 -0.2714  0.0613 -0.2461
 9273SOL    HW239282   4.299   0.892   8.759  2.1820 -1.8058  0.5102
 9274SOL     OW39283   1.435   4.015   4.135 -0.6938  0.1913 -0.4894
 9274SOL    HW139284   1.369   4.085   4.141 -0.5636  0.3717 -1.2453
 9274SOL    HW239285   1.482   4.049   4.211 -0.6780 -0.4928 -0.1881
 9275SOL     OW39286   4.293   3.828   8.891 -0.1878  0.2336 -0.1948
 9275SOL    HW139287   4.361   3.802   8.829 -0.3647  0.9888 -0.7137
 9275SOL    HW239288   4.297   3.924   8.881  0.3249  0.2697  0.3714
 9276SOL     OW39289   4.262   4.173   2.074 -0.0750  0.3017  0.0453
 9276SOL    HW139290   4.297   4.104   2.017 -0.2579  1.0763 -1.0119
 9276SOL    HW239291   4.196   4.211   2.016 -0.6912 -2.3397 -0.9766
 9277SOL     OW39292   2.463   2.309   5.221 -0.5389 -0.5363 -0.3520
 9277SOL    HW139293   2.426   2.333   5.306 -1.6057 -1.1130 -0.6515
 9277SOL    HW239294   2.415   2.377   5.174  0.6096 -0.0817 -0.8676
 9278SOL     OW39295   4.609   3.799   3.891 -0.0307 -0.1916  0.7145
 9278SOL    HW139296   4.528   3.837   3.858 -0.2406 -1.2624  0.0173
 9278SOL    HW239297   4.584   3.724   3.946  2.2872 -0.6022  1.1943
 9279SOL     OW39298   1.056   0.207   6.694 -0.1123  0.7432 -1.0942
 9279SOL    HW139299   1.048   0.301   6.678 -1.3484  0.6897 -0.8094
 9279SOL    HW239300   1.151   0.212   6.709 -0.3937 -0.2326  1.0772
 9280SOL     OW39301   1.716   2.138   3.515  0.1814 -0.1783 -0.2106
 9280SOL    HW139302   1.703   2.114   3.424 -0.1445  0.2202 -0.2673
 9280SOL    HW239303   1.639   2.189   3.538 -1.3711 -0.9004 -3.9729
 9281SOL     OW39304   1.556   3.462  13.272  0.7346 -0.3375  0.4120
 9281SOL    HW139305   1.478   3.407  13.266  0.0840  0.6704 -0.2472
 9281SOL    HW239306   1.514   3.545  13.250  0.6456  0.0026  1.8636
 9282SOL     OW39307   2.744   4.354  13.625 -0.2154  0.4471  0.1692
 9282SOL    HW139308   2.766   4.432  13.676 -0.4327  0.2029  0.6426
 9282SOL    HW239309   2.757   4.285  13.690 -0.7195  0.3033  0.1161
 9283SOL     OW39310   1.441   2.574   9.128  0.3861  0.5069  0.2904
 9283SOL    HW139311   1.506   2.626   9.174  0.4273  2.2625 -1.7627
 9283SOL    HW239312   1.428   2.509   9.197 -0.2492  1.1786  0.7947
 9284SOL     OW39313   1.987   4.369   0.461  0.6737  0.3608 -0.3834
 9284SOL    HW139314   1.941   4.395   0.541 -1.4209  0.1621 -1.4996
 9284SOL    HW239315   2.046   4.301   0.492  0.0058 -0.0540 -0.0098
 9285SOL     OW39316   3.407   0.744   6.441 -0.2407  0.0026 -0.1441
 9285SOL    HW139317   3.338   0.700   6.391  1.0926 -1.5766 -0.6001
 9285SOL    HW239318   3.384   0.716   6.530 -2.2681  1.0228 -0.3596
 9286SOL     OW39319   4.459   2.594   1.548 -0.2426  0.5760  0.2720
 9286SOL    HW139320   4.435   2.560   1.634 -0.7947  0.3297  0.0189
 9286SOL    HW239321   4.439   2.687   1.560 -0.8186  0.3447  1.0477
 9287SOL     OW39322   1.898   0.084   4.303  0.4840 -0.1073  0.0508
 9287SOL    HW139323   1.850   0.132   4.235  0.2765 -0.8224 -0.3087
 9287SOL    HW239324   1.938   0.160   4.346 -1.2723 -1.5807  4.3262
 9288SOL     OW39325   4.490   1.766   3.620  0.6534 -0.1644  0.3170
 9288SOL    HW139326   4.560   1.710   3.656  1.2011 -0.1613 -0.7457
 9288SOL    HW239327   4.456   1.712   3.549  1.8772 -0.2857 -0.1811
 9289SOL     OW39328   4.234   3.947  15.041 -0.4879  0.2589  0.1662
 9289SOL    HW139329   4.256   4.013  14.975  2.2993  0.1937  1.0278
 9289SOL    HW239330   4.224   3.863  14.996 -1.4853 -0.4504  1.6820
 9290SOL     OW39331   4.703   3.155  15.393  0.6456  0.8861 -0.2921
 9290SOL    HW139332   4.624   3.205  15.373 -0.8703 -1.1901  0.5371
 9290SOL    HW239333   0.023   3.156  15.309 -0.4719 -0.5474 -0.9083
 9291SOL     OW39334   1.499   4.291   5.863  0.0204 -0.3233  0.1582
 9291SOL    HW139335   1.494   4.232   5.939 -0.8677  1.0862  1.1781
 9291SOL    HW239336   1.589   4.272   5.836  0.0871 -2.0260  1.5309
 9292SOL     OW39337   0.328   0.894   0.591 -0.2824 -0.7476 -0.5301
 9292SOL    HW139338   0.287   0.981   0.590 -0.4209 -0.8070  0.4109
 9292SOL    HW239339   0.400   0.902   0.527  0.9313 -0.0428  0.9255
 9293SOL     OW39340   3.996   1.081   9.259 -1.0365  0.0015 -0.3555
 9293SOL    HW139341   4.042   1.018   9.202 -0.1889  0.9871 -0.7582
 9293SOL    HW239342   4.072   1.121   9.300  0.0454 -1.3923 -0.9892
 9294SOL     OW39343   3.153   2.000   4.309 -0.3818 -0.4336 -0.0291
 9294SOL    HW139344   3.242   2.019   4.280 -0.4452  0.4815  0.3593
 9294SOL    HW239345   3.121   2.090   4.322  0.8562  0.3742 -2.5422
 9295SOL     OW39346   3.824   1.824   4.368 -0.2992 -0.1310 -0.6349
 9295SOL    HW139347   3.767   1.852   4.296 -0.1486  0.4965 -0.5088
 9295SOL    HW239348   3.875   1.905   4.366  1.0377 -0.9785 -1.7236
 9296SOL     OW39349   2.423   3.176   4.414 -0.5952 -0.0115 -0.3069
 9296SOL    HW139350   2.429   3.136   4.501  0.5409  0.9629  0.0606
 9296SOL    HW239351   2.332   3.202   4.399 -1.2639 -1.9815  0.3002
 9297SOL     OW39352   4.141   2.632   2.976  0.7146 -0.2845 -0.0006
 9297SOL    HW139353   4.055   2.671   2.992  1.3126  0.7494  0.6788
 9297SOL    HW239354   4.200   2.707   2.980  2.7262 -1.8260 -0.5069
 9298SOL     OW39355   4.609   2.315   6.147 -0.3378 -0.1818  0.0058
 9298SOL    HW139356   4.663   2.317   6.068 -2.2726  3.8784 -1.2158
 9298SOL    HW239357   4.669   2.351   6.213 -0.2692  0.4044 -0.3783
 9299SOL     OW39358   1.059   2.020  14.628  0.2190  0.2315  0.1392
 9299SOL    HW139359   1.058   2.049  14.719  0.9343 -0.9982  0.5350
 9299SOL    HW239360   1.027   1.930  14.634  0.7439 -0.1669 -2.7820
 9300SOL     OW39361   0.768   0.353   7.479 -0.5205  0.8396 -0.2479
 9300SOL    HW139362   0.797   0.311   7.560  0.9043  0.5846 -0.8909
 9300SOL    HW239363   0.845   0.408   7.463  0.2174 -0.5741 -1.6076
 9301SOL     OW39364   3.673   3.858  14.691  0.4663  1.0713  0.1052
 9301SOL    HW139365   3.734   3.902  14.750  1.8898  1.7788 -1.9108
 9301SOL    HW239366   3.715   3.861  14.605  1.7131 -1.5175  0.6269
 9302SOL     OW39367   4.079   2.148   3.090  0.4051 -0.0070  0.1351
 9302SOL    HW139368   4.129   2.197   3.025  0.0998 -1.0732 -0.8977
 9302SOL    HW239369   4.020   2.217   3.122 -1.7569 -1.5517 -0.5019
 9303SOL     OW39370   2.306   2.143   7.416 -0.3704  0.1518  0.3071
 9303SOL    HW139371   2.383   2.117   7.365 -0.1374 -1.7087  1.5663
 9303SOL    HW239372   2.283   2.223   7.370 -0.0538  0.5655  0.8583
 9304SOL     OW39373   1.011   0.722  16.975 -0.0046  0.1847  0.4036
 9304SOL    HW139374   0.965   0.686  16.899  0.1732  1.5244 -0.3416
 9304SOL    HW239375   0.954   0.694  17.047 -0.5012  2.4891  0.9024
 9305SOL     OW39376   3.443   2.086   7.553 -0.4315 -0.0955 -0.0472
 9305SOL    HW139377   3.389   2.017   7.594 -0.7349  1.9874  3.0434
 9305SOL    HW239378   3.498   2.028   7.501  1.2628  2.0087 -0.5856
 9306SOL     OW39379   2.154   0.462   6.920  0.2379 -0.3584 -0.0721
 9306SOL    HW139380   2.160   0.555   6.902 -0.8197 -0.2853 -0.0502
 9306SOL    HW239381   2.163   0.425   6.832 -0.7324 -1.0316  0.1114
 9307SOL     OW39382   0.224   1.202   0.673  0.0116  0.0056  0.2488
 9307SOL    HW139383   0.155   1.260   0.704  0.6150  0.5518  0.5857
 9307SOL    HW239384   0.302   1.258   0.675 -1.3362  1.8815 -0.0405
 9308SOL     OW39385   0.355   1.639   2.570  0.2086 -0.8544  0.7895
 9308SOL    HW139386   0.447   1.616   2.582  0.4441  0.2756  1.0876
 9308SOL    HW239387   0.361   1.678   2.483 -0.6182 -2.0229  0.1988
 9309SOL     OW39388   2.211   4.550   1.052  0.1847  0.0578 -0.3686
 9309SOL    HW139389   2.260   4.468   1.056  0.9095  0.4688 -0.9746
 9309SOL    HW239390   2.276   4.617   1.070  1.5294 -1.3550  0.0716
 9310SOL     OW39391   0.977   1.798   5.937 -0.5239 -0.0450 -0.2462
 9310SOL    HW139392   1.054   1.838   5.898  1.2108 -2.1598  0.9948
 9310SOL    HW239393   0.950   1.872   5.992 -1.5949 -0.0580 -0.7481
 9311SOL     OW39394   4.162   3.483   7.523 -0.5021  0.0322  0.2482
 9311SOL    HW139395   4.189   3.395   7.497  0.8794  0.1631  1.2422
 9311SOL    HW239396   4.197   3.521   7.443  1.5495 -1.7184  0.2797
 9312SOL     OW39397   4.412   3.690   5.222 -0.5385 -0.0316 -0.1161
 9312SOL    HW139398   4.454   3.760   5.271 -0.4933 -0.0152 -0.1777
 9312SOL    HW239399   4.467   3.710   5.146 -0.2225  1.8496  0.6078
 9313SOL     OW39400   3.285   1.595   8.865 -0.0266  0.3071 -0.0919
 9313SOL    HW139401   3.348   1.662   8.837  0.3941  0.2149  0.6480
 9313SOL    HW239402   3.345   1.530   8.901 -0.8503 -1.8476 -2.5527
 9314SOL     OW39403   1.358   4.405   4.697 -0.2664 -0.5105 -0.6269
 9314SOL    HW139404   1.403   4.339   4.644 -1.2958 -2.6139  1.1009
 9314SOL    HW239405   1.349   4.358   4.780  1.1204 -1.7528 -1.1723
 9315SOL     OW39406   1.327   0.150  11.086  0.0102  0.4351 -0.4721
 9315SOL    HW139407   1.414   0.136  11.049  0.3802 -1.5519  1.1192
 9315SOL    HW239408   1.299   0.236  11.055 -1.9013 -0.4690 -1.2526
 9316SOL     OW39409   3.099   4.214   4.341  0.4723 -0.0980  0.1121
 9316SOL    HW139410   3.132   4.198   4.430 -0.0523 -3.4193 -0.2540
 9316SOL    HW239411   3.162   4.171   4.283  1.0442  0.0101  0.6488
 9317SOL     OW39412   1.970   1.036   2.929 -0.2481 -0.1130 -0.6540
 9317SOL    HW139413   2.064   1.021   2.928 -0.1351  0.4798  0.8030
 9317SOL    HW239414   1.934   0.949   2.946  1.0843 -0.6068 -0.4351
 9318SOL     OW39415   2.878   4.628   8.709 -0.2202 -0.1136  0.0789
 9318SOL    HW139416   2.921   4.570   8.772 -0.8724 -0.3822  0.2780
 9318SOL    HW239417   2.857   4.571   8.636  1.7592 -1.2232  0.3581
 9319SOL     OW39418   2.522   2.463   1.548  0.4627 -0.2026 -0.3497
 9319SOL    HW139419   2.467   2.490   1.622  1.2467 -0.6011  0.3835
 9319SOL    HW239420   2.597   2.426   1.595  0.1387 -2.5195 -1.6514
 9320SOL     OW39421   1.270   0.838  10.893 -0.5651 -0.1419  0.2733
 9320SOL    HW139422   1.221   0.758  10.910 -0.7272 -0.4601 -1.6532
 9320SOL    HW239423   1.216   0.898  10.945 -0.2784  0.1288  0.2607
 9321SOL     OW39424   0.805   0.078   2.453  0.2036 -0.0496  0.7659
 9321SOL    HW139425   0.803   0.144   2.384 -0.8733 -0.2645  0.5836
 9321SOL    HW239426   0.874   0.021   2.419  1.4310  1.4399  0.7765
 9322SOL     OW39427   2.457   0.815  12.748 -0.0921  0.3384  0.2770
 9322SOL    HW139428   2.449   0.733  12.797 -0.0766 -0.0681 -0.4063
 9322SOL    HW239429   2.514   0.796  12.674 -0.3497 -1.4482  0.5191
 9323SOL     OW39430   3.095   1.657   2.249  0.2518  0.2533  0.3873
 9323SOL    HW139431   3.152   1.707   2.190 -0.0034 -1.0767 -0.9993
 9323SOL    HW239432   3.116   1.570   2.216  0.0052  0.5436 -0.5360
 9324SOL     OW39433   2.300   4.506  13.044 -0.2175 -0.3663  0.2277
 9324SOL    HW139434   2.321   4.440  13.110 -0.3031  1.2299  1.8616
 9324SOL    HW239435   2.351   4.483  12.967  0.5100 -0.0444  0.6218
 9325SOL     OW39436   0.460   2.961   1.582  0.4638 -0.0605  0.1523
 9325SOL    HW139437   0.550   2.976   1.611 -0.5634  2.5578  1.9200
 9325SOL    HW239438   0.471   2.918   1.497 -0.2579  1.1176 -0.5381
 9326SOL     OW39439   4.700   0.091   9.013  0.6255 -0.4477  0.5727
 9326SOL    HW139440   4.690   0.144   9.092 -0.7146 -0.9505  0.7302
 9326SOL    HW239441   4.721   0.163   8.953  1.8603  0.0529  1.6193
 9327SOL     OW39442   3.743   1.347   7.389  0.0618 -0.0675  0.3147
 9327SOL    HW139443   3.808   1.341   7.319 -0.1947  1.3214 -0.0407
 9327SOL    HW239444   3.767   1.432   7.427  0.3856  0.6557 -1.5194
 9328SOL     OW39445   1.060   4.576   8.937  0.3308  0.2518  0.1581
 9328SOL    HW139446   1.099   4.547   9.019  2.3783  0.1067 -0.8702
 9328SOL    HW239447   1.121   4.647   8.918 -1.5420  1.6059 -0.8098
 9329SOL     OW39448   4.356   1.671   3.019  0.1836 -0.2788  0.0254
 9329SOL    HW139449   4.352   1.758   2.979 -1.9709 -0.6411 -0.5480
 9329SOL    HW239450   4.415   1.685   3.093 -1.5455 -0.2675  1.3735
 9330SOL     OW39451   4.006   0.689   1.353  0.2322 -0.7214  0.0081
 9330SOL    HW139452   3.965   0.675   1.268 -0.6574 -1.8174  0.6277
 9330SOL    HW239453   4.089   0.730   1.327 -0.3487 -0.3739 -1.2902
 9331SOL     OW39454   0.167   2.158   3.851  0.0250 -0.2619 -0.2395
 9331SOL    HW139455   0.250   2.146   3.897  0.6903  2.0969 -0.8344
 9331SOL    HW239456   0.153   2.252   3.865  1.2951 -0.1055  0.0102
 9332SOL     OW39457   1.819   0.889   4.485  0.2452 -0.0481  0.7263
 9332SOL    HW139458   1.849   0.952   4.420 -0.8132 -0.6506 -0.3484
 9332SOL    HW239459   1.902   0.842   4.498  0.4880  0.8156  2.3092
 9333SOL     OW39460   4.467   3.135  11.272  0.2721  0.3824 -0.1499
 9333SOL    HW139461   4.461   3.138  11.176 -0.4240  0.3731 -0.1040
 9333SOL    HW239462   4.486   3.223  11.303  2.3683 -0.6031  1.3336
 9334SOL     OW39463   0.112   3.965   8.416  0.3281 -0.3292  0.1586
 9334SOL    HW139464   0.182   3.900   8.422 -1.2099 -1.9554  0.2535
 9334SOL    HW239465   0.114   3.982   8.322 -0.1068  0.2250  0.2471
 9335SOL     OW39466   3.731   2.378   8.483  0.5478  0.2494 -0.2734
 9335SOL    HW139467   3.648   2.357   8.526 -0.5235  0.4124 -2.2480
 9335SOL    HW239468   3.715   2.472   8.483 -1.7489 -0.1355 -1.2552
 9336SOL     OW39469   4.067   2.093   7.193  0.1526 -0.1546 -0.0278
 9336SOL    HW139470   4.002   2.158   7.219  0.5294  1.3217 -2.6840
 9336SOL    HW239471   4.082   2.125   7.103 -0.9191  1.2261  0.2809
 9337SOL     OW39472   4.428   4.236  15.116  0.1437  0.2176  0.6069
 9337SOL    HW139473   4.481   4.210  15.040  0.0236  0.8067  0.3224
 9337SOL    HW239474   4.358   4.279  15.068 -1.5447  0.5258  3.3733
 9338SOL     OW39475   2.868   4.247   2.202  0.9633  0.0585  0.3484
 9338SOL    HW139476   2.803   4.297   2.153 -1.2061 -3.3923 -0.3010
 9338SOL    HW239477   2.947   4.294   2.174 -0.9598  1.7592 -2.2620
 9339SOL     OW39478   0.110   2.585   6.837 -0.2612 -0.1776  0.1481
 9339SOL    HW139479   0.182   2.543   6.884  0.6564 -0.8250 -1.8685
 9339SOL    HW239480   0.130   2.543   6.754 -1.3430  1.1707 -0.7843
 9340SOL     OW39481   2.461   2.011   0.225 -0.7338  0.1200 -0.2232
 9340SOL    HW139482   2.475   1.957   0.147  0.2120  1.0577 -0.7015
 9340SOL    HW239483   2.508   1.966   0.295  3.1047  0.6082 -2.4891
 9341SOL     OW39484   1.084   0.091   4.042  0.3337 -0.0186  0.0313
 9341SOL    HW139485   1.023   0.068   4.112  1.5717  0.1390  1.1746
 9341SOL    HW239486   1.044   0.049   3.966  0.9758  1.1093 -0.9337
 9342SOL     OW39487   4.199   1.897   8.578 -0.3858  0.5004 -0.6168
 9342SOL    HW139488   4.198   1.989   8.606 -0.2990  0.1923  0.3888
 9342SOL    HW239489   4.129   1.886   8.513 -1.4516  0.1401  0.5840
 9343SOL     OW39490   3.117   0.336   5.702 -0.2142 -0.4303  0.4582
 9343SOL    HW139491   3.181   0.339   5.632 -0.7556  2.2048  0.0888
 9343SOL    HW239492   3.053   0.395   5.663  0.7115  0.2064 -0.0656
 9344SOL     OW39493   0.465   1.234  11.450 -0.1620  0.4781  0.3208
 9344SOL    HW139494   0.516   1.312  11.430 -1.2438  0.3505 -2.9077
 9344SOL    HW239495   0.522   1.162  11.422  0.1893 -0.0301  2.3161
 9345SOL     OW39496   4.636   3.009   2.802  0.3462  0.3508 -0.6432
 9345SOL    HW139497   4.590   3.026   2.720 -0.9932 -2.6098 -0.4932
 9345SOL    HW239498   0.002   2.999   2.776  0.1266  2.2406 -2.1355
 9346SOL     OW39499   1.697   1.345   5.542  0.0640 -0.2420  0.3378
 9346SOL    HW139500   1.779   1.389   5.559  1.3434 -2.1998 -0.7632
 9346SOL    HW239501   1.724   1.253   5.540 -0.4724 -0.4189  1.1456
 9347SOL     OW39502   3.751   1.742   8.382 -0.0054 -0.5144  0.2863
 9347SOL    HW139503   3.812   1.671   8.402  0.4013 -0.8411 -2.1354
 9347SOL    HW239504   3.756   1.739   8.287 -0.4426 -0.0805  0.2488
 9348SOL     OW39505   1.800   2.151   5.422 -0.7258 -0.0948 -0.0973
 9348SOL    HW139506   1.750   2.232   5.412 -2.0958 -0.8941  0.2757
 9348SOL    HW239507   1.784   2.109   5.338  0.7392  0.7292 -0.7911
 9349SOL     OW39508   0.217   0.885  17.646 -0.1297  0.3955 -0.0729
 9349SOL    HW139509   0.189   0.976  17.660  0.8707  0.8494 -0.9636
 9349SOL    HW239510   0.161   0.865  17.571 -1.0769  1.1518  0.4326
 9350SOL     OW39511   1.993   0.051   8.367  0.0860 -0.0998  0.1488
 9350SOL    HW139512   2.014   0.040   8.460  0.1270  1.4958  0.3286
 9350SOL    HW239513   2.042   0.132   8.355  0.7606 -0.7282 -1.3816
 9351SOL     OW39514   2.780   0.379   7.424 -0.3088 -0.1722 -0.2604
 9351SOL    HW139515   2.768   0.400   7.517 -3.4612 -0.4640 -0.6042
 9351SOL    HW239516   2.700   0.332   7.399 -0.0153  0.6434 -2.7017
 9352SOL     OW39517   1.932   3.980   2.926 -0.0411 -0.6172 -0.0489
 9352SOL    HW139518   1.935   3.900   2.873 -0.2210 -0.6262 -0.0457
 9352SOL    HW239519   1.876   3.962   3.001 -0.4080  0.3163 -0.1010
 9353SOL     OW39520   1.049   3.316   6.624  0.5576 -0.0507 -0.3226
 9353SOL    HW139521   0.959   3.320   6.592  0.5823  1.8498 -0.1852
 9353SOL    HW239522   1.090   3.364   6.551  2.4494 -1.0065  0.1217
 9354SOL     OW39523   2.456   2.959  12.163 -0.2364 -0.1829  0.8467
 9354SOL    HW139524   2.410   2.883  12.127  0.1041 -0.1789  0.4042
 9354SOL    HW239525   2.467   2.942  12.257 -0.0401 -4.7190  0.0350
 9355SOL     OW39526   2.881   0.379   6.415 -0.1762  0.2492 -0.2341
 9355SOL    HW139527   2.907   0.288   6.401 -2.3042 -0.5482  0.8942
 9355SOL    HW239528   2.849   0.374   6.505 -1.6157 -0.4856 -0.7935
 9356SOL     OW39529   0.523   1.716   1.568 -0.0611 -0.3466 -0.8595
 9356SOL    HW139530   0.550   1.628   1.543 -1.1977 -0.6740 -0.9013
 9356SOL    HW239531   0.495   1.757   1.486 -1.0087  1.7918  0.5268
 9357SOL     OW39532   4.680   3.795   9.037 -0.0481 -0.3157  0.1474
 9357SOL    HW139533   4.646   3.706   9.035  3.5973 -1.7158 -0.6793
 9357SOL    HW239534   0.006   3.797   8.955  0.6977 -0.5161  0.6097
 9358SOL     OW39535   3.734   4.187   1.696  0.4000  0.0152 -0.2621
 9358SOL    HW139536   3.730   4.093   1.708 -0.1406  0.3098  1.7787
 9358SOL    HW239537   3.830   4.190   1.686  0.5999  0.4893  1.7716
 9359SOL     OW39538   0.046   3.489   4.740  0.6445 -0.0546 -0.2970
 9359SOL    HW139539   0.049   3.526   4.652  0.8714 -0.0457 -0.2852
 9359SOL    HW239540   4.679   3.489   4.762  0.4935 -1.2722 -0.9101
 9360SOL     OW39541   3.604   4.158   2.821 -0.1448  0.0534 -0.4939
 9360SOL    HW139542   3.623   4.251   2.811  0.1832  0.2773  2.2013
 9360SOL    HW239543   3.509   4.155   2.822 -0.0522 -2.5873  0.2380
 9361SOL     OW39544   0.152   4.503   8.757  0.5240 -0.0437 -0.4911
 9361SOL    HW139545   0.240   4.530   8.784  0.4941 -0.8970  0.4983
 9361SOL    HW239546   0.107   4.542   8.832  0.6276  0.3915 -0.6560
 9362SOL     OW39547   0.726   3.870  13.290  0.1076  0.3127  0.1619
 9362SOL    HW139548   0.660   3.816  13.334 -0.1563  0.9286  0.5240
 9362SOL    HW239549   0.765   3.808  13.229 -0.7314  0.6652 -0.7380
 9363SOL     OW39550   0.435   3.241   8.324 -0.1175 -0.1726  0.0922
 9363SOL    HW139551   0.403   3.184   8.254 -0.8306  1.2500 -0.7328
 9363SOL    HW239552   0.357   3.247   8.380  0.8280 -2.1461  1.6227
 9364SOL     OW39553   2.423   0.412  11.871  0.1197 -0.6567 -0.0822
 9364SOL    HW139554   2.381   0.337  11.912  1.5407 -0.5524  1.5924
 9364SOL    HW239555   2.353   0.477  11.866  0.4681 -0.2834 -0.1900
 9365SOL     OW39556   4.261   3.439   6.216 -0.6534 -0.0025 -0.1164
 9365SOL    HW139557   4.197   3.403   6.155  0.1494 -2.9992  0.7984
 9365SOL    HW239558   4.321   3.365   6.208  0.4269  0.7198  1.3652
 9366SOL     OW39559   4.216   3.128   6.553  0.0612  0.2229  0.1922
 9366SOL    HW139560   4.287   3.111   6.490  1.3588 -0.8254  1.9270
 9366SOL    HW239561   4.207   3.220   6.531  1.3026 -0.5691 -3.8391
 9367SOL     OW39562   0.830   3.645   7.771 -0.1172  0.7912  0.1673
 9367SOL    HW139563   0.853   3.642   7.864 -1.3902 -1.3250  0.4239
 9367SOL    HW239564   0.800   3.554   7.761  0.0116  0.6260  1.2682
 9368SOL     OW39565   0.264   1.056   5.944  0.1871 -0.6082  0.7279
 9368SOL    HW139566   0.323   1.065   5.868  2.1394 -2.4456  2.0341
 9368SOL    HW239567   0.271   0.961   5.947  1.5283 -0.5998 -2.0616
 9369SOL     OW39568   0.989   0.242   7.369 -0.5017 -0.4652  0.5732
 9369SOL    HW139569   0.898   0.223   7.347 -0.0156 -1.5974 -0.4819
 9369SOL    HW239570   1.022   0.170   7.424 -0.1856 -1.4870 -0.9627
 9370SOL     OW39571   1.240   3.187   3.458  0.1751  0.2400 -0.5703
 9370SOL    HW139572   1.284   3.208   3.541  2.6935 -2.1777 -1.2760
 9370SOL    HW239573   1.215   3.268   3.413  0.8026  0.0695 -1.2169
 9371SOL     OW39574   2.677   3.793  14.064 -0.1637  0.2784 -0.8774
 9371SOL    HW139575   2.585   3.804  14.091 -0.4861 -3.3232 -0.4849
 9371SOL    HW239576   2.666   3.782  13.970 -0.4829 -1.8318 -0.5876
 9372SOL     OW39577   1.136   3.036   6.330 -0.0891 -0.3534  0.5324
 9372SOL    HW139578   1.162   3.013   6.241 -0.9760  0.9963 -0.0843
 9372SOL    HW239579   1.051   2.992   6.329  0.1480 -0.8268  1.2380
 9373SOL     OW39580   1.699   4.458  11.412 -0.2825  0.2762  0.1910
 9373SOL    HW139581   1.608   4.488  11.412 -0.2131  0.4727 -1.9407
 9373SOL    HW239582   1.690   4.367  11.442 -2.3701  0.9498  1.6049
 9374SOL     OW39583   1.035   0.405   1.784 -0.2404  0.3498  0.0345
 9374SOL    HW139584   1.030   0.463   1.860  1.4135 -1.2477  1.3504
 9374SOL    HW239585   0.960   0.433   1.731  0.3179  0.7279 -0.5527
 9375SOL     OW39586   2.144   1.672  15.454  0.4675 -0.3034  0.1819
 9375SOL    HW139587   2.181   1.623  15.381 -0.7774 -0.0813 -0.6038
 9375SOL    HW239588   2.094   1.611  15.508 -2.0973  1.0737 -0.6355
 9376SOL     OW39589   4.244   1.998   1.185 -0.4833 -0.4526 -0.1028
 9376SOL    HW139590   4.315   1.990   1.248 -0.1027 -1.0215 -0.5953
 9376SOL    HW239591   4.190   2.060   1.233 -1.4914 -1.5074  0.1165
 9377SOL     OW39592   4.583   2.010   5.578 -0.6306 -0.6670 -0.6711
 9377SOL    HW139593   4.513   1.963   5.534 -0.4937 -0.5878 -0.9713
 9377SOL    HW239594   4.599   2.077   5.511 -2.8513  1.3513  0.8075
 9378SOL     OW39595   1.090   1.718   3.429 -0.8686 -0.1174  0.2612
 9378SOL    HW139596   1.044   1.638   3.406  1.4312 -1.0718 -1.0140
 9378SOL    HW239597   1.170   1.678   3.464 -1.0481  0.9405  1.9152
 9379SOL     OW39598   1.098   2.263   1.305  0.0222  0.6022  0.4438
 9379SOL    HW139599   1.028   2.214   1.348  1.2044  0.6319  2.4026
 9379SOL    HW239600   1.167   2.204   1.336  0.1629  1.0629  1.0144
 9380SOL     OW39601   0.089   3.489   3.174  0.2678 -0.3566 -0.3080
 9380SOL    HW139602   0.052   3.418   3.226  2.1712 -0.4063  0.9623
 9380SOL    HW239603   0.008   3.512   3.129  0.7481  0.6687 -0.6495
 9381SOL     OW39604   3.618   0.243   4.332 -0.0196  0.0763  0.4075
 9381SOL    HW139605   3.645   0.200   4.251 -0.7417 -1.1900  0.8501
 9381SOL    HW239606   3.624   0.175   4.399  0.2316 -1.8879 -1.6199
 9382SOL     OW39607   3.176   0.253   2.171  0.0458  0.3502 -0.6136
 9382SOL    HW139608   3.240   0.291   2.110  0.1513  0.7456 -0.2507
 9382SOL    HW239609   3.231   0.207   2.235 -2.4491 -0.9897  0.5395
 9383SOL     OW39610   2.535   3.469   0.555  0.5852  0.1369  0.0614
 9383SOL    HW139611   2.476   3.394   0.553  1.5292 -0.6091  0.0033
 9383SOL    HW239612   2.619   3.441   0.518  0.2790  0.4586 -0.8632
 9384SOL     OW39613   0.707   1.495  14.322 -0.6416 -0.4483  0.0056
 9384SOL    HW139614   0.665   1.417  14.356 -1.2464 -0.1621 -0.0859
 9384SOL    HW239615   0.652   1.528  14.250 -0.0037  2.3592  0.7943
 9385SOL     OW39616   0.360   2.203   1.742  0.1318 -0.3998  0.5617
 9385SOL    HW139617   0.426   2.188   1.810  0.2225 -1.0345  0.3315
 9385SOL    HW239618   0.314   2.119   1.736 -1.0100  0.2430  0.2540
 9386SOL     OW39619   0.326   1.670   7.819  0.2143  0.0425  0.3416
 9386SOL    HW139620   0.353   1.731   7.887  1.4546 -0.5739  0.4015
 9386SOL    HW239621   0.230   1.677   7.821  0.2039  0.1757 -0.3483
 9387SOL     OW39622   2.772   4.490   3.388  0.5430  0.2440 -0.0556
 9387SOL    HW139623   2.784   4.487   3.483 -0.4651 -0.1405  0.0596
 9387SOL    HW239624   2.803   4.405   3.358  1.4663  0.3961  0.4722
 9388SOL     OW39625   2.323   1.549   3.279 -0.1059 -0.1991  0.3516
 9388SOL    HW139626   2.331   1.455   3.298  1.4501 -0.1254  0.0369
 9388SOL    HW239627   2.277   1.588   3.354 -1.2653 -2.5254  0.8600
 9389SOL     OW39628   2.450   1.976  14.660  0.4697 -0.8107 -0.0444
 9389SOL    HW139629   2.482   1.888  14.641  1.3913 -0.3937 -0.3925
 9389SOL    HW239630   2.356   1.959  14.655  0.2433  0.2054  0.9213
 9390SOL     OW39631   0.632   3.129   8.933  0.1502  0.0619 -0.4289
 9390SOL    HW139632   0.641   3.216   8.973  3.9072  0.5744 -2.3949
 9390SOL    HW239633   0.722   3.124   8.899  0.6882 -0.1273  0.9924
 9391SOL     OW39634   2.965   1.948  10.706 -0.2491 -0.0616  0.9256
 9391SOL    HW139635   3.025   1.974  10.636 -0.1921 -1.7459  0.3404
 9391SOL    HW239636   2.896   2.012  10.695  0.7658  0.8362 -0.1723
 9392SOL     OW39637   0.877   0.234   7.699  0.4605 -0.0163 -0.3363
 9392SOL    HW139638   0.826   0.233   7.780  0.4590 -1.1770 -0.3542
 9392SOL    HW239639   0.959   0.273   7.729  0.4116 -1.5580  1.7994
 9393SOL     OW39640   4.585   0.261  14.608  0.1970 -0.3633  0.1025
 9393SOL    HW139641   4.658   0.312  14.643 -0.5078 -0.1028  1.1924
 9393SOL    HW239642   4.606   0.176  14.646  0.7055 -0.7643 -1.0811
 9394SOL     OW39643   0.148   0.519  16.615 -0.4847  0.2691 -0.0951
 9394SOL    HW139644   0.146   0.445  16.676  1.1613 -1.4586 -2.1255
 9394SOL    HW239645   0.064   0.560  16.635 -2.0089 -1.8739 -2.0665
 9395SOL     OW39646   4.337   4.674   7.151  0.1527  0.1414 -0.2525
 9395SOL    HW139647   4.374   4.586   7.165 -0.7313 -0.1693  0.0899
 9395SOL    HW239648   4.294   4.689   7.235 -0.7641 -1.4423 -0.4420
 9396SOL     OW39649   2.559   4.433   6.522 -0.0822 -0.1701  0.9161
 9396SOL    HW139650   2.547   4.527   6.521  1.3111  0.0019 -3.4493
 9396SOL    HW239651   2.601   4.418   6.607  0.3838  0.2310  0.7596
 9397SOL     OW39652   4.523   1.132   3.786 -0.6032 -0.6244  0.2079
 9397SOL    HW139653   4.496   1.127   3.878 -0.9669 -2.1169  0.0293
 9397SOL    HW239654   4.441   1.153   3.742 -0.3561  0.1161  0.1040
 9398SOL     OW39655   0.280   2.865   6.267 -0.2923 -0.1350  0.1508
 9398SOL    HW139656   0.302   2.904   6.182  0.5283 -1.0243 -0.0405
 9398SOL    HW239657   0.234   2.783   6.245 -0.6562  0.6552 -2.0799
 9399SOL     OW39658   2.913   3.112   4.687  0.4840 -0.1327  0.4522
 9399SOL    HW139659   2.837   3.084   4.738  0.2696  0.0142  0.2174
 9399SOL    HW239660   2.866   3.122   4.604 -1.9880  0.7917  1.9465
 9400SOL     OW39661   3.664   0.539   2.161  0.0611  0.2222  0.2963
 9400SOL    HW139662   3.738   0.509   2.108 -1.3581 -0.3538 -1.3687
 9400SOL    HW239663   3.710   0.604   2.214  1.3180 -0.4174 -0.0041
 9401SOL     OW39664   3.976   4.130   2.335  0.1244  0.5386 -0.4486
 9401SOL    HW139665   3.940   4.194   2.396 -4.2664  0.4837 -2.9393
 9401SOL    HW239666   3.907   4.129   2.269  0.8604 -0.3686 -1.2088
 9402SOL     OW39667   4.321   2.673   9.415 -0.1117  0.3078 -0.0314
 9402SOL    HW139668   4.257   2.602   9.418 -0.7485  0.8319 -1.5135
 9402SOL    HW239669   4.394   2.632   9.462 -0.0783  0.2864 -0.1007
 9403SOL     OW39670   3.457   3.413  12.622  0.2034 -0.5284 -0.0089
 9403SOL    HW139671   3.503   3.330  12.604  0.2954 -0.2953 -0.8094
 9403SOL    HW239672   3.381   3.378  12.669 -0.5807 -1.0443 -1.6924
 9404SOL     OW39673   2.578   4.631   7.868  0.2016 -0.2685  0.2366
 9404SOL    HW139674   2.521   4.670   7.801  1.4670  1.0097 -0.0848
 9404SOL    HW239675   2.529   4.549   7.883 -0.5149  0.3262  1.1786
 9405SOL     OW39676   1.303   0.083   3.837  0.5874 -0.0357 -0.3517
 9405SOL    HW139677   1.279   0.176   3.836 -0.6655 -0.3893 -2.1256
 9405SOL    HW239678   1.235   0.064   3.901  2.0321  0.3033  1.3042
 9406SOL     OW39679   1.720   1.630   4.490 -0.0837 -0.0094 -0.0947
 9406SOL    HW139680   1.715   1.635   4.395  1.2630  1.1593 -0.1091
 9406SOL    HW239681   1.648   1.568   4.501 -0.0522 -0.0007  0.1680
 9407SOL     OW39682   2.717   3.613  14.282  0.2401  1.1060 -0.1019
 9407SOL    HW139683   2.661   3.643  14.354 -1.0908 -0.2072 -0.5961
 9407SOL    HW239684   2.695   3.679  14.217 -0.1220 -0.7174 -1.8039
 9408SOL     OW39685   1.048   2.944  13.110  0.1032 -0.2272  0.2719
 9408SOL    HW139686   1.097   3.022  13.084 -1.2793 -0.3860 -2.7950
 9408SOL    HW239687   0.965   2.985  13.132 -0.1782 -0.3537 -0.5883
 9409SOL     OW39688   0.033   3.131   7.301 -0.0320 -0.0756 -0.4199
 9409SOL    HW139689   4.710   3.123   7.219 -1.6403 -3.3099  0.8254
 9409SOL    HW239690   0.033   3.225   7.317  1.9461  0.1076 -1.4194
 9410SOL     OW39691   0.619   4.126   9.125  0.0247 -0.2922 -0.1738
 9410SOL    HW139692   0.700   4.076   9.131 -0.1609 -0.5645  0.0532
 9410SOL    HW239693   0.652   4.216   9.129  1.9545 -0.9251 -1.8409
 9411SOL     OW39694   4.163   0.608  16.988  0.4212  0.1719 -0.8209
 9411SOL    HW139695   4.186   0.660  17.065  1.0539 -0.3200 -0.6779
 9411SOL    HW239696   4.173   0.675  16.920  1.8175 -0.8586 -1.6550
 9412SOL     OW39697   1.243   3.659   1.590  0.7407  0.0200 -0.4579
 9412SOL    HW139698   1.163   3.612   1.613  0.5644  0.8622  0.6262
 9412SOL    HW239699   1.279   3.607   1.518 -0.9964 -2.2024  0.2810
 9413SOL     OW39700   1.303   4.455   8.561 -0.2175  0.6767 -0.1815
 9413SOL    HW139701   1.353   4.393   8.509 -0.1792  1.6376 -1.3033
 9413SOL    HW239702   1.224   4.453   8.507  0.4745  0.3818 -1.1816
 9414SOL     OW39703   2.731   1.766   0.627 -0.1324  0.6974 -0.0631
 9414SOL    HW139704   2.699   1.676   0.634 -0.8440  0.9039 -0.6507
 9414SOL    HW239705   2.680   1.820   0.687 -0.4080 -0.4957  0.7670
 9415SOL     OW39706   2.296   2.218  10.346 -0.2035  0.1343  0.3307
 9415SOL    HW139707   2.314   2.305  10.309  1.2476 -0.2149  0.2040
 9415SOL    HW239708   2.232   2.183  10.285 -0.6617  0.3938  0.6603
 9416SOL     OW39709   0.043   1.061  12.423 -0.1020 -0.3800 -0.0354
 9416SOL    HW139710   4.680   1.042  12.392 -1.2395  2.0745  1.6760
 9416SOL    HW239711   0.031   1.131  12.488  0.3230  0.2815 -0.6669
 9417SOL     OW39712   1.893   4.399   5.326 -0.5853  0.1144 -0.7624
 9417SOL    HW139713   1.817   4.436   5.371 -0.8035 -0.0788 -0.9718
 9417SOL    HW239714   1.918   4.461   5.258  1.1830  0.6643  0.3937
 9418SOL     OW39715   0.392   0.468   4.213  0.3639 -0.6931 -0.0146
 9418SOL    HW139716   0.484   0.490   4.212 -0.1973  1.5065 -1.3452
 9418SOL    HW239717   0.357   0.530   4.149  0.1571  0.7626  1.5155
 9419SOL     OW39718   2.136   3.227   6.025 -0.4192  0.0904 -0.4540
 9419SOL    HW139719   2.080   3.299   5.998 -0.2546  0.1371 -0.6717
 9419SOL    HW239720   2.080   3.152   6.046 -2.7881  2.3512  1.1154
 9420SOL     OW39721   0.713   0.089   3.973  0.2311 -0.3368 -0.1685
 9420SOL    HW139722   0.688   0.002   4.003  1.0375  0.4310  2.8245
 9420SOL    HW239723   0.758   0.121   4.052 -1.7928 -1.0023  1.2328
 9421SOL     OW39724   0.541   0.768   2.320  0.1234  0.2427 -0.3082
 9421SOL    HW139725   0.601   0.840   2.299  1.1171 -0.2538  0.8167
 9421SOL    HW239726   0.483   0.771   2.244  1.8936 -0.5409 -1.6832
 9422SOL     OW39727   1.921   1.768   8.173  0.3078 -0.0779  0.0346
 9422SOL    HW139728   1.926   1.854   8.216 -1.4342  1.3063 -2.5122
 9422SOL    HW239729   2.013   1.746   8.159  0.3957  0.6861 -0.5744
 9423SOL     OW39730   1.379   3.142   6.757  0.0273  0.6950  0.1489
 9423SOL    HW139731   1.433   3.188   6.693 -1.4581  1.9290 -0.2284
 9423SOL    HW239732   1.327   3.084   6.702 -0.2900  0.6369  0.5055
 9424SOL     OW39733   3.201   0.987   6.973 -0.8032  0.4264  0.4543
 9424SOL    HW139734   3.276   0.951   7.020 -1.1325 -1.1523 -0.2207
 9424SOL    HW239735   3.167   0.902   6.945  0.3447  0.2415 -0.4070
 9425SOL     OW39736   3.685   1.890   7.091 -0.1699 -0.5678 -0.5045
 9425SOL    HW139737   3.769   1.909   7.131 -0.6373  2.5487 -1.0064
 9425SOL    HW239738   3.644   1.976   7.098  2.0142  0.5978 -1.9508
 9426SOL     OW39739   1.218   0.763   6.421 -0.0014 -0.1004 -0.1363
 9426SOL    HW139740   1.173   0.797   6.499  0.5805  0.0323  0.1435
 9426SOL    HW239741   1.310   0.780   6.440  0.2778 -3.0092  1.0904
 9427SOL     OW39742   2.737   2.372   8.058 -0.0013  0.3765 -0.3569
 9427SOL    HW139743   2.713   2.414   7.975  2.7553  3.0230  0.2329
 9427SOL    HW239744   2.655   2.396   8.101  0.5807  1.2107  0.2752
 9428SOL     OW39745   0.383   2.576   3.375 -0.1664 -0.1554  0.0391
 9428SOL    HW139746   0.454   2.633   3.345 -0.2960  0.6725  1.3202
 9428SOL    HW239747   0.385   2.510   3.306  0.7517  0.1806 -0.2586
 9429SOL     OW39748   1.868   4.012   5.233 -0.3126 -0.2023  0.0804
 9429SOL    HW139749   1.851   4.042   5.323 -1.1254  0.4026 -0.2806
 9429SOL    HW239750   1.787   4.034   5.188 -0.0123  0.3904 -0.1743
 9430SOL     OW39751   1.137   3.681   4.018  0.2766 -0.0095 -0.0006
 9430SOL    HW139752   1.224   3.646   4.036 -0.0735 -1.0429 -0.3604
 9430SOL    HW239753   1.155   3.775   4.017 -0.6252  0.1599 -1.2110
 9431SOL     OW39754   4.506   0.505   3.946  0.2357  0.4476  0.6001
 9431SOL    HW139755   4.597   0.478   3.956  0.0493 -0.3885  0.0340
 9431SOL    HW239756   4.515   0.591   3.904 -0.2906  0.1006 -0.2324
 9432SOL     OW39757   3.054   3.265   4.863 -0.3900  0.6758 -0.8870
 9432SOL    HW139758   3.020   3.355   4.858 -2.1807  0.1762  2.5260
 9432SOL    HW239759   3.003   3.229   4.790 -0.1457 -0.4690 -0.4899
 9433SOL     OW39760   2.108   3.499   3.995 -0.1418  0.0356  0.5969
 9433SOL    HW139761   2.083   3.515   4.086  0.0440  1.9289  0.3176
 9433SOL    HW239762   2.128   3.589   3.969  1.6038 -0.7419 -0.7331
 9434SOL     OW39763   4.678   1.952   6.401  0.2689  0.3000 -0.0700
 9434SOL    HW139764   4.592   1.913   6.387  0.2322  0.4076 -0.1422
 9434SOL    HW239765   4.707   1.945   6.311  0.3347  0.7161 -0.0841
 9435SOL     OW39766   2.723   0.262   8.724 -0.4335 -0.0136 -0.4767
 9435SOL    HW139767   2.667   0.304   8.789  2.5474  0.2204  1.9402
 9435SOL    HW239768   2.789   0.327   8.700 -1.3846  1.0317 -0.2477
 9436SOL     OW39769   1.230   4.147  11.779  0.2569  0.1051 -0.4493
 9436SOL    HW139770   1.313   4.099  11.779  0.1724 -0.0559  0.7837
 9436SOL    HW239771   1.202   4.140  11.871  0.6172 -3.8572 -0.6225
 9437SOL     OW39772   2.219   3.622   4.679 -0.7723 -0.0150  0.3470
 9437SOL    HW139773   2.268   3.698   4.647  0.8046 -1.1295  0.1255
 9437SOL    HW239774   2.151   3.609   4.612 -0.3534  0.0454 -0.0906
 9438SOL     OW39775   4.062   2.865   6.397  0.5663 -0.2370  0.2861
 9438SOL    HW139776   4.039   2.839   6.308 -1.3253 -1.4666  1.1123
 9438SOL    HW239777   4.042   2.958   6.403  0.4411 -0.1502 -1.5809
 9439SOL     OW39778   4.517   0.163  14.372 -0.0722  0.1903 -0.0210
 9439SOL    HW139779   4.465   0.086  14.394  0.0174  0.0764 -0.2056
 9439SOL    HW239780   4.537   0.201  14.457 -0.8227  1.4387 -0.4090
 9440SOL     OW39781   3.101   4.557   2.611  0.3398  0.5788  0.2961
 9440SOL    HW139782   3.055   4.574   2.694  2.5255 -0.8650  1.7864
 9440SOL    HW239783   3.066   4.628   2.557 -0.1877 -0.1988 -0.3888
 9441SOL     OW39784   3.214   2.247   6.354  0.2890 -0.0922  0.3749
 9441SOL    HW139785   3.215   2.259   6.260  0.0003 -2.3724  0.0807
 9441SOL    HW239786   3.303   2.279   6.366  0.0467  0.4812  0.6445
 9442SOL     OW39787   1.631   2.670   8.601  0.0620 -0.0033  0.8072
 9442SOL    HW139788   1.692   2.684   8.673  0.2348 -1.5779  0.9695
 9442SOL    HW239789   1.643   2.576   8.587  0.6504  0.2511 -0.4408
 9443SOL     OW39790   3.153   3.011   4.675  0.1242 -0.3195 -0.4253
 9443SOL    HW139791   3.060   3.035   4.674 -0.2971 -2.0554 -3.1033
 9443SOL    HW239792   3.151   2.996   4.770 -0.6147  0.0125 -0.3824
 9444SOL     OW39793   4.579   3.415   1.943  0.0650 -0.0913 -0.3970
 9444SOL    HW139794   4.667   3.393   1.911  0.2271 -0.4880  0.3165
 9444SOL    HW239795   4.554   3.482   1.879  0.6918 -0.9629 -1.5590
 9445SOL     OW39796   4.154   3.260   9.158  0.5823 -0.2385 -0.7630
 9445SOL    HW139797   4.247   3.268   9.181  0.4607 -0.6079 -0.1485
 9445SOL    HW239798   4.165   3.197   9.087 -0.8846  0.3732 -1.5479
 9446SOL     OW39799   2.281   1.729   1.747 -0.0287 -0.2920  0.0167
 9446SOL    HW139800   2.246   1.779   1.821 -1.2290 -0.1899 -0.6216
 9446SOL    HW239801   2.199   1.704   1.704  0.0429  0.3584 -0.4938
 9447SOL     OW39802   3.609   2.630   9.288  0.7210  0.2851 -0.2363
 9447SOL    HW139803   3.608   2.680   9.370 -1.6427 -0.0987 -0.0262
 9447SOL    HW239804   3.589   2.704   9.230  1.3271  1.2234  0.7475
 9448SOL     OW39805   3.800   1.496   0.863 -0.2913 -0.8455  0.2892
 9448SOL    HW139806   3.718   1.533   0.828  1.7828  0.0224 -3.6815
 9448SOL    HW239807   3.835   1.476   0.776 -1.6069  0.3790 -0.5223
 9449SOL     OW39808   1.533   0.201  14.927 -0.1449 -0.2680  0.4304
 9449SOL    HW139809   1.550   0.121  14.976 -1.3049 -0.2363  0.8840
 9449SOL    HW239810   1.612   0.247  14.955  0.8217 -1.4411 -0.3754
 9450SOL     OW39811   3.209   1.113  12.856 -0.5007  0.4954 -0.1016
 9450SOL    HW139812   3.284   1.068  12.818 -0.3053 -0.1488  1.0443
 9450SOL    HW239813   3.240   1.202  12.876 -3.9038  1.6184  0.2314
 9451SOL     OW39814   2.105   3.746   9.641 -0.0106  0.6661 -0.1269
 9451SOL    HW139815   2.122   3.671   9.697  0.8589  0.0141 -1.2709
 9451SOL    HW239816   2.122   3.697   9.560  1.9239  1.1207  0.0037
 9452SOL     OW39817   0.335   3.115   6.073 -0.2101  0.2022  0.0539
 9452SOL    HW139818   0.401   3.112   6.142 -0.8982 -0.9426  0.6663
 9452SOL    HW239819   0.383   3.155   6.000  1.4930 -1.3365  0.3309
 9453SOL     OW39820   4.094   0.548  15.515 -0.0990 -0.4007 -0.0548
 9453SOL    HW139821   4.005   0.520  15.496 -0.7274 -0.0209  2.3231
 9453SOL    HW239822   4.092   0.627  15.461 -1.8838  0.2279  0.9253
 9454SOL     OW39823   0.140   3.903   6.675  0.0640 -0.0780 -0.2928
 9454SOL    HW139824   0.226   3.934   6.700  0.2527 -1.1398  0.3868
 9454SOL    HW239825   0.164   3.849   6.599 -0.4896  1.2937 -1.4564
 9455SOL     OW39826   2.042   3.955   4.031  0.0814 -0.0816 -0.3039
 9455SOL    HW139827   2.006   3.951   3.942  0.2522 -0.1642 -0.3684
 9455SOL    HW239828   2.028   4.049   4.044 -0.2917  0.1901 -2.6693
 9456SOL     OW39829   0.182   3.151  17.067 -0.1139  0.0563  0.3261
 9456SOL    HW139830   0.166   3.194  17.151 -0.0846  0.5530  0.0716
 9456SOL    HW239831   0.104   3.097  17.053  0.2554 -0.0834 -1.1720
 9457SOL     OW39832   2.421   3.087   3.609  0.5466 -0.6047 -0.2493
 9457SOL    HW139833   2.452   3.010   3.560  2.7590 -0.4775  0.9591
 9457SOL    HW239834   2.359   3.129   3.551  0.9811 -0.2633 -0.4677
 9458SOL     OW39835   2.341   4.430  12.757 -0.0908 -0.4282 -0.7850
 9458SOL    HW139836   2.386   4.364  12.704 -0.5329 -0.0498 -1.6170
 9458SOL    HW239837   2.260   4.381  12.772 -0.1439  0.0252  0.4399
 9459SOL     OW39838   2.324   2.902   7.494  0.1348  0.0136 -0.5774
 9459SOL    HW139839   2.308   2.838   7.563 -4.2639  0.8488 -0.8281
 9459SOL    HW239840   2.348   2.979   7.545  1.8987 -1.8933  1.4805
 9460SOL     OW39841   1.529   3.095   3.940  0.0755  0.7859  0.1678
 9460SOL    HW139842   1.540   3.012   3.892  1.7121  0.3010  1.3826
 9460SOL    HW239843   1.579   3.154   3.883 -1.7077  1.2035 -0.9791
 9461SOL     OW39844   0.003   4.209   6.004 -0.0141 -0.0681  0.0151
 9461SOL    HW139845   4.644   4.175   6.034  1.2076 -0.6649  2.8194
 9461SOL    HW239846   0.051   4.224   6.086 -0.3885 -0.4485  0.3031
 9462SOL     OW39847   0.804   0.940   6.487 -0.2151  0.0350 -0.0174
 9462SOL    HW139848   0.857   0.899   6.419  1.5653  1.6145  0.4465
 9462SOL    HW239849   0.748   0.868   6.518 -1.9519  0.5593 -1.8975
 9463SOL     OW39850   3.952   2.378   3.212  0.1647 -0.5946  0.2985
 9463SOL    HW139851   3.896   2.446   3.175  0.5280 -0.6852 -0.4128
 9463SOL    HW239852   4.007   2.432   3.269 -2.7229  0.5741  1.9940
 9464SOL     OW39853   0.738   0.019   6.158 -0.4662  0.6341 -0.3597
 9464SOL    HW139854   0.824   0.033   6.118 -0.2461 -1.5475 -0.6725
 9464SOL    HW239855   0.713   4.663   6.114  2.5443 -1.7878  2.3630
 9465SOL     OW39856   3.622   0.075   4.741  0.3976  0.1992 -0.4417
 9465SOL    HW139857   3.608   0.069   4.647  1.3608 -3.5857 -0.3437
 9465SOL    HW239858   3.551   0.125   4.781 -1.3303 -1.8068 -1.0459
 9466SOL     OW39859   3.745   0.519   3.479  0.8971  0.3540 -0.0744
 9466SOL    HW139860   3.727   0.612   3.466 -1.7404  0.1034  1.6998
 9466SOL    HW239861   3.653   0.493   3.472  1.3513 -1.1518 -0.5986
 9467SOL     OW39862   0.711   3.756   2.744 -0.6860  0.2975  0.4676
 9467SOL    HW139863   0.720   3.665   2.716  1.9152  0.7863 -0.3301
 9467SOL    HW239864   0.672   3.799   2.668  0.4752  0.4032 -0.0647
 9468SOL     OW39865   3.492   3.014   1.218  0.0583  0.0092 -0.4034
 9468SOL    HW139866   3.537   3.047   1.296 -1.5964 -0.9787  0.9678
 9468SOL    HW239867   3.438   2.945   1.255 -0.0943  0.6292  0.5295
 9469SOL     OW39868   0.133   4.576   3.011  0.1424  1.0441  0.2416
 9469SOL    HW139869   0.188   4.624   3.072  3.4253  0.8773 -2.5712
 9469SOL    HW239870   0.133   4.486   3.045  2.2019  0.9567  0.0331
 9470SOL     OW39871   2.481   4.205   0.760 -0.0682  0.4831  0.2066
 9470SOL    HW139872   2.563   4.157   0.749  0.0411  0.8716 -0.6672
 9470SOL    HW239873   2.412   4.149   0.797  0.3651 -0.5266 -0.5055
 9471SOL     OW39874   3.744   1.140  10.144 -0.0605 -0.1209 -0.7089
 9471SOL    HW139875   3.765   1.154  10.052  1.5856  1.0321 -0.1553
 9471SOL    HW239876   3.759   1.224  10.186 -1.2506 -0.7920  1.0435
 9472SOL     OW39877   1.718   3.250   5.946 -0.3070 -0.1862 -0.1443
 9472SOL    HW139878   1.627   3.225   5.931  0.2052  0.0385 -3.7642
 9472SOL    HW239879   1.758   3.177   5.898  2.5224  1.3037 -0.0503
 9473SOL     OW39880   1.660   4.087  10.092 -0.0105 -0.3935  0.4774
 9473SOL    HW139881   1.570   4.054  10.088  0.0233 -0.4379  0.0868
 9473SOL    HW239882   1.659   4.126  10.180 -0.0872 -2.3928  1.3448
 9474SOL     OW39883   3.406   3.245   9.318 -0.4895 -0.1247 -0.1436
 9474SOL    HW139884   3.426   3.338   9.331  1.0424 -0.4778 -0.0326
 9474SOL    HW239885   3.313   3.238   9.340 -0.0001  1.7556  2.4494
 9475SOL     OW39886   2.946   2.394   3.796 -0.4469 -0.9719  0.2798
 9475SOL    HW139887   2.867   2.341   3.806 -1.6248  0.7891  0.3120
 9475SOL    HW239888   2.912   2.476   3.759 -0.5450 -1.6879 -1.2177
 9476SOL     OW39889   2.422   3.614   8.614 -0.2432  0.4133 -0.0748
 9476SOL    HW139890   2.448   3.569   8.694  1.5345  0.3936 -0.6786
 9476SOL    HW239891   2.333   3.578   8.612  0.0278 -0.2291 -0.6524
 9477SOL     OW39892   2.616   2.344  14.252  0.0648 -0.1438  0.0405
 9477SOL    HW139893   2.596   2.293  14.331  0.0811 -2.4360 -1.4274
 9477SOL    HW239894   2.710   2.339  14.273  0.6570 -5.9596 -4.0951
 9478SOL     OW39895   0.383   4.628   2.327  0.0923  0.6398  0.1485
 9478SOL    HW139896   0.438   4.583   2.262 -2.2724 -0.5386 -1.0399
 9478SOL    HW239897   0.337   4.686   2.266 -0.8986 -0.5820 -0.2657
 9479SOL     OW39898   0.558   2.085   1.919 -0.1458  0.1242  0.6080
 9479SOL    HW139899   0.645   2.118   1.896  0.0927 -0.3720  0.8031
 9479SOL    HW239900   0.557   1.999   1.877  3.8038  0.2879  0.1490
 9480SOL     OW39901   0.852   2.582   3.632  0.0821  0.1349  0.2267
 9480SOL    HW139902   0.816   2.509   3.580 -0.1453 -1.1624  2.1989
 9480SOL    HW239903   0.885   2.636   3.560  2.1155 -1.2654  0.1195
 9481SOL     OW39904   1.262   2.321   4.781 -0.4092  0.1866 -0.5138
 9481SOL    HW139905   1.297   2.246   4.830 -0.8077  0.7315  0.6084
 9481SOL    HW239906   1.343   2.371   4.787  1.7355 -3.3735  0.6321
 9482SOL     OW39907   1.959   1.511   1.458  0.5135 -0.0404 -0.3582
 9482SOL    HW139908   1.998   1.557   1.532  0.5781 -0.0299 -0.3991
 9482SOL    HW239909   1.890   1.574   1.439  1.4233  1.1403  0.2856
 9483SOL     OW39910   3.661   4.286  10.775  0.3245  0.3778 -0.0193
 9483SOL    HW139911   3.593   4.305  10.710 -1.0681 -0.7015  1.1183
 9483SOL    HW239912   3.613   4.219  10.824  0.8165  0.5144  0.6489
 9484SOL     OW39913   2.435   3.191   7.989 -0.5911 -0.1027  0.1051
 9484SOL    HW139914   2.347   3.205   8.025 -0.0818 -0.8967  1.6925
 9484SOL    HW239915   2.450   3.272   7.941  2.1229  0.3251  1.6511
 9485SOL     OW39916   0.167   0.927   1.445 -0.0790  0.2627 -0.0154
 9485SOL    HW139917   0.122   0.849   1.414  0.5458 -0.4298  0.8090
 9485SOL    HW239918   0.215   0.963   1.370  1.2459  1.6236  1.4697
 9486SOL     OW39919   1.976   2.673   4.013  0.6430 -0.0654 -0.3121
 9486SOL    HW139920   1.903   2.721   3.975  0.8540 -0.6566 -1.4605
 9486SOL    HW239921   1.971   2.714   4.099 -1.9072 -0.2708 -0.3440
 9487SOL     OW39922   3.510   4.588   8.378  0.0271  0.1832 -0.3578
 9487SOL    HW139923   3.534   4.629   8.461  0.5996 -0.9772  0.0540
 9487SOL    HW239924   3.504   4.495   8.402  3.0462  0.0898  0.0705
 9488SOL     OW39925   0.295   0.873   6.230 -0.5156  0.4099  0.1460
 9488SOL    HW139926   0.241   0.796   6.213  1.1827 -1.0699  1.5449
 9488SOL    HW239927   0.236   0.946   6.249 -1.4286 -0.4497  0.6034
 9489SOL     OW39928   3.188   3.205   4.090 -0.4022 -0.0941 -0.2833
 9489SOL    HW139929   3.237   3.278   4.053  0.0443  0.1588  0.8163
 9489SOL    HW239930   3.239   3.138   4.045 -0.5470 -1.9150  2.2688
 9490SOL     OW39931   3.856   0.079  10.190  0.1647  0.4338  0.0795
 9490SOL    HW139932   3.937   0.057  10.144  1.8707  1.7748  2.4253
 9490SOL    HW239933   3.874   0.170  10.216  0.0213  0.3452  0.4858
 9491SOL     OW39934   3.387   2.282   5.567 -0.0488  0.2645 -0.6870
 9491SOL    HW139935   3.423   2.257   5.652 -3.4957  0.1101  0.7203
 9491SOL    HW239936   3.391   2.200   5.518  0.0692 -1.0306  1.4765
 9492SOL     OW39937   0.794   2.032   1.687  0.2829  0.5862  0.0259
 9492SOL    HW139938   0.864   1.979   1.725 -0.1758 -1.9533 -2.6474
 9492SOL    HW239939   0.720   1.974   1.702  1.3545  0.1728  3.6305
 9493SOL     OW39940   0.321   3.022  15.538  0.3820 -0.2309  0.4383
 9493SOL    HW139941   0.414   3.036  15.553  0.3610  0.9371 -0.5389
 9493SOL    HW239942   0.319   3.010  15.443  2.6246  0.5816  0.2816
 9494SOL     OW39943   0.886   4.662   0.040  0.3608  0.6224 -0.7608
 9494SOL    HW139944   0.909   4.569   0.045 -2.2520  0.0758  0.9259
 9494SOL    HW239945   0.832   4.665   0.119 -0.4788 -0.0401 -1.3276
 9495SOL     OW39946   0.632   3.689   5.859 -0.4268  0.2943 -0.0161
 9495SOL    HW139947   0.637   3.630   5.784 -0.1681 -0.7855  0.8455
 9495SOL    HW239948   0.580   3.637   5.920 -1.4528  0.5525 -0.6861
 9496SOL     OW39949   0.259   2.686   5.716 -0.3414 -0.2394 -0.3077
 9496SOL    HW139950   0.323   2.617   5.737 -0.8775 -0.2863  1.1824
 9496SOL    HW239951   0.273   2.676   5.622 -1.2717 -0.0689 -0.4602
 9497SOL     OW39952   4.634   0.534   6.505 -0.4663  0.1813  0.4585
 9497SOL    HW139953   4.632   0.443   6.476  0.7432  0.0123  0.9017
 9497SOL    HW239954   4.543   0.540   6.535 -0.8160  1.3982 -0.8724
 9498SOL     OW39955   3.069   4.589   1.661 -0.1524  0.0332  0.3312
 9498SOL    HW139956   3.055   4.495   1.672 -0.9130  0.2994  1.5531
 9498SOL    HW239957   3.162   4.589   1.682 -0.5200  3.0942  1.8308
 9499SOL     OW39958   3.284   0.775   3.963  0.4455  0.4493  0.0409
 9499SOL    HW139959   3.352   0.764   4.029 -0.6922  1.6925  1.4406
 9499SOL    HW239960   3.205   0.732   3.995 -0.7713  2.2874 -0.4370
 9500SOL     OW39961   3.108   4.309  16.591  0.0086 -0.5808  0.1320
 9500SOL    HW139962   3.089   4.245  16.523 -0.7555 -1.4299  1.1429
 9500SOL    HW239963   3.069   4.386  16.549  1.9926  0.6476  0.5619
 9501SOL     OW39964   0.497   1.337   8.617  0.5119  0.0068  0.2159
 9501SOL    HW139965   0.530   1.331   8.706  2.0219  0.5202 -0.3043
 9501SOL    HW239966   0.582   1.348   8.573 -0.2860 -3.0467 -2.0681
 9502SOL     OW39967   0.078   2.258   9.789 -0.3517 -0.0255 -0.0347
 9502SOL    HW139968   4.712   2.242   9.812 -0.7375  0.8055 -0.9789
 9502SOL    HW239969   0.107   2.297   9.871 -0.8124 -0.9328  0.5682
 9503SOL     OW39970   1.854   1.120   3.165 -0.0217  0.2992  0.3670
 9503SOL    HW139971   1.911   1.153   3.234  1.3112  1.8182 -1.4621
 9503SOL    HW239972   1.910   1.107   3.088  1.4925  1.9031  1.1768
 9504SOL     OW39973   0.553   1.541  14.089  0.2456 -0.3098 -0.3887
 9504SOL    HW139974   0.591   1.612  14.038  0.1779  1.0922  1.5398
 9504SOL    HW239975   0.470   1.583  14.112  0.0845 -0.5389 -0.5491
 9505SOL     OW39976   2.747   1.555   4.199 -0.0276 -0.1708  0.1693
 9505SOL    HW139977   2.813   1.535   4.266 -0.9176  0.2981  1.1816
 9505SOL    HW239978   2.668   1.535   4.250 -0.9259 -0.8199 -1.4980
 9506SOL     OW39979   2.996   3.407   5.608 -0.1221  0.3629 -0.2638
 9506SOL    HW139980   2.927   3.341   5.617  1.0699 -0.6827  1.1465
 9506SOL    HW239981   2.932   3.477   5.621 -0.9255  0.6113 -5.4471
 9507SOL     OW39982   0.727   1.509   5.678 -0.3031 -0.0995  0.2864
 9507SOL    HW139983   0.755   1.450   5.747  3.4380  0.5192 -0.6918
 9507SOL    HW239984   0.789   1.488   5.608  1.4596 -0.7101  2.0198
 9508SOL     OW39985   1.911   2.818   4.989  0.0161  0.2253  0.3184
 9508SOL    HW139986   1.863   2.895   5.018  0.0848  0.2438  0.3835
 9508SOL    HW239987   1.973   2.863   4.931  1.5149  0.6331  2.2476
 9509SOL     OW39988   2.309   4.066  13.081 -0.1657 -0.0399 -0.3795
 9509SOL    HW139989   2.315   3.995  13.145 -2.7827  0.8171  0.8281
 9509SOL    HW239990   2.217   4.085  13.099 -0.2354 -2.9603  2.4973
 9510SOL     OW39991   4.614   2.218  16.890  0.1448 -0.1260  0.7988
 9510SOL    HW139992   4.664   2.264  16.956 -0.7982 -2.1902  2.9396
 9510SOL    HW239993   4.523   2.236  16.912  0.6020  1.9317  1.0298
 9511SOL     OW39994   3.109   3.194   5.191 -0.3334  0.1126  0.5601
 9511SOL    HW139995   3.094   3.255   5.262 -1.4689 -1.2866  1.5397
 9511SOL    HW239996   3.019   3.164   5.174 -0.2251 -0.2681  0.6480
 9512SOL     OW39997   2.690   4.444   2.109 -0.1058  0.4600  0.3604
 9512SOL    HW139998   2.598   4.430   2.133 -0.3750  1.0391 -0.3133
 9512SOL    HW239999   2.703   4.518   2.167  2.1756 -1.2755  2.0256
 9513SOL     OW40000   1.557   1.914   9.406  0.1435 -0.5415 -0.3197
 9513SOL    HW140001   1.520   1.826   9.406 -2.0725  0.3834  0.1975
 9513SOL    HW240002   1.500   1.950   9.474  2.0764  0.1359  0.9283
 9514SOL     OW40003   0.212   1.672   6.225 -0.1595 -0.5867 -0.5256
 9514SOL    HW140004   0.258   1.756   6.229 -0.8879 -0.2380  0.6795
 9514SOL    HW240005   0.289   1.617   6.241  1.4505  2.0812  0.8366
 9515SOL     OW40006   3.501   4.683   6.636  0.2421  0.2316  0.3312
 9515SOL    HW140007   3.559   0.019   6.592 -1.0156  0.6007 -0.7864
 9515SOL    HW240008   3.490   4.712   6.727  4.0727 -2.5441  1.7392
 9516SOL     OW40009   2.854   2.902   0.739 -0.0934  0.4296  0.3164
 9516SOL    HW140010   2.858   2.825   0.683 -0.2977  0.9325 -0.3896
 9516SOL    HW240011   2.820   2.969   0.680  0.0571 -2.1031 -2.6629
 9517SOL     OW40012   4.459   3.751  12.901 -0.2207  0.5875 -0.4985
 9517SOL    HW140013   4.455   3.837  12.859  2.3994  1.0004  0.0986
 9517SOL    HW240014   4.377   3.746  12.951  1.2263  0.3763  1.8666
 9518SOL     OW40015   4.446   2.449   3.177  0.6018  0.0552 -0.1997
 9518SOL    HW140016   4.539   2.472   3.176  0.9127 -1.2698 -0.6325
 9518SOL    HW240017   4.415   2.540   3.177 -0.3163 -0.2626 -0.0149
 9519SOL     OW40018   1.680   1.447   5.972  0.3735  0.1939  0.1225
 9519SOL    HW140019   1.630   1.494   6.039 -0.2330  0.5412 -0.5723
 9519SOL    HW240020   1.611   1.430   5.909 -0.6426  2.5756  0.5978
 9520SOL     OW40021   0.503   1.145   3.408  0.1726 -0.3008  0.1844
 9520SOL    HW140022   0.483   1.175   3.497  2.8079 -1.3692  1.1255
 9520SOL    HW240023   0.553   1.211   3.359 -1.0961  0.4074 -0.1511
 9521SOL     OW40024   0.475   4.092   8.486 -0.0014 -0.4770  0.5392
 9521SOL    HW140025   0.429   4.091   8.401  0.9107 -0.8933  0.0542
 9521SOL    HW240026   0.431   4.172   8.515  2.2753  0.4144  1.5323
 9522SOL     OW40027   3.768   4.167   5.491  0.1774  0.2305 -0.0664
 9522SOL    HW140028   3.677   4.197   5.491  0.4424  0.9988 -2.0957
 9522SOL    HW240029   3.773   4.114   5.412  1.1063 -1.0862  0.8781
 9523SOL     OW40030   1.791   2.018   8.773  0.2083 -0.4475 -0.0667
 9523SOL    HW140031   1.833   2.091   8.819  0.4678 -0.0384 -0.9424
 9523SOL    HW240032   1.773   1.962   8.849  0.4120 -0.1687  0.1904
 9524SOL     OW40033   1.463   0.276   8.866  0.6492 -0.3264  0.8206
 9524SOL    HW140034   1.510   0.196   8.842 -0.5967 -0.3545 -1.4611
 9524SOL    HW240035   1.488   0.281   8.959 -2.9169  0.3200  1.7493
 9525SOL     OW40036   0.188   2.034   6.978 -0.0200 -0.4850 -0.1591
 9525SOL    HW140037   0.245   2.011   6.905  0.4835 -0.2404  0.1537
 9525SOL    HW240038   0.254   2.040   7.048 -0.6289  2.6719  0.1472
 9526SOL     OW40039   3.707   0.243   2.610 -0.4453 -0.3394  0.0045
 9526SOL    HW140040   3.751   0.256   2.526 -1.2925 -1.4080 -0.6065
 9526SOL    HW240041   3.619   0.254   2.572  0.9252  0.3755 -2.9993
 9527SOL     OW40042   1.359   1.445   2.337  0.0233  0.0891  0.2680
 9527SOL    HW140043   1.400   1.528   2.361 -0.5365  0.9266 -1.6655
 9527SOL    HW240044   1.359   1.461   2.243 -0.2588 -1.7026 -0.0304
 9528SOL     OW40045   1.718   3.834   4.614 -0.2976  0.4669  0.4320
 9528SOL    HW140046   1.740   3.889   4.689 -0.7744  1.0322  0.1592
 9528SOL    HW240047   1.661   3.770   4.657 -1.2837  0.2092 -1.2510
 9529SOL     OW40048   1.048   1.302  11.980 -0.1075  0.4333  0.3608
 9529SOL    HW140049   0.974   1.295  12.041 -0.4172  0.5073 -0.0080
 9529SOL    HW240050   1.109   1.355  12.032 -0.2589  0.5627  0.4081
 9530SOL     OW40051   2.933   1.790   5.006  0.1793 -0.0850 -0.2045
 9530SOL    HW140052   2.947   1.695   5.013  2.3555  0.3217  1.0514
 9530SOL    HW240053   2.997   1.807   4.936  1.9626 -3.5616  0.5741
 9531SOL     OW40054   3.164   4.053  13.145  0.6980  0.2953  0.3443
 9531SOL    HW140055   3.131   4.083  13.230  1.8983  0.1260  0.8681
 9531SOL    HW240056   3.228   4.119  13.121 -1.1715  1.5283 -1.2448
 9532SOL     OW40057   4.712   0.818   8.031  0.1465 -0.5475  0.0951
 9532SOL    HW140058   4.667   0.875   8.093 -0.0663 -2.3996  1.6050
 9532SOL    HW240059   4.644   0.759   8.000 -0.1240 -0.3337  0.2898
 9533SOL     OW40060   1.932   3.534   3.229  0.2766 -0.6858 -0.2214
 9533SOL    HW140061   1.952   3.452   3.182  2.3286 -0.0158 -0.4917
 9533SOL    HW240062   2.017   3.576   3.226 -0.1761  0.1308 -1.5260
 9534SOL     OW40063   3.282   2.804   4.527  0.2378  1.2166 -0.1971
 9534SOL    HW140064   3.244   2.875   4.579  2.4249  1.1189  1.5419
 9534SOL    HW240065   3.213   2.797   4.461  0.6694  1.1954 -0.6468
 9535SOL     OW40066   4.341   2.972   8.054  0.7478  0.2303  0.2249
 9535SOL    HW140067   4.295   3.056   8.063 -0.3869 -0.3829  0.1634
 9535SOL    HW240068   4.287   2.907   8.099 -0.3811  1.4398  0.6165
 9536SOL     OW40069   1.070   3.589   2.926  0.3596 -0.7452  0.2478
 9536SOL    HW140070   1.054   3.623   3.014  0.2553  1.7017 -0.6973
 9536SOL    HW240071   1.164   3.572   2.935  0.4301 -0.7116 -0.4718
 9537SOL     OW40072   0.197   3.066   5.444  0.0190 -0.3444 -0.4824
 9537SOL    HW140073   0.210   3.009   5.368  2.5552 -1.5862  0.8813
 9537SOL    HW240074   0.136   3.014   5.497  0.4024  0.8407  1.1389
 9538SOL     OW40075   0.162   1.530   9.551 -0.1440  0.0430  0.2163
 9538SOL    HW140076   0.101   1.497   9.485 -0.9199  0.7590  0.5817
 9538SOL    HW240077   0.117   1.516   9.634 -0.3353 -1.9497 -0.2251
 9539SOL     OW40078   0.501   1.303  16.493  0.3201 -0.4140 -0.1744
 9539SOL    HW140079   0.571   1.346  16.542 -2.7382  1.9848  2.0521
 9539SOL    HW240080   0.451   1.268  16.566  1.9955  0.8567  1.5648
 9540SOL     OW40081   3.303   1.104   7.779  0.4387 -0.6506  0.1243
 9540SOL    HW140082   3.335   1.157   7.851  1.3703  0.5429 -1.1794
 9540SOL    HW240083   3.207   1.107   7.785  0.4791 -0.5006  0.6833
 9541SOL     OW40084   3.288   4.150   5.370 -0.1560  0.1357  1.1751
 9541SOL    HW140085   3.332   4.069   5.345  0.5318  0.5688  0.9827
 9541SOL    HW240086   3.209   4.130   5.320  1.2342 -1.1871 -0.4744
 9542SOL     OW40087   3.339   2.082   0.590  0.0705  0.4664  0.0107
 9542SOL    HW140088   3.382   2.079   0.675 -3.1196  2.4520  1.7328
 9542SOL    HW240089   3.358   1.995   0.556 -2.5224 -0.1692  0.2014
 9543SOL     OW40090   1.756   2.881   4.583  0.0385  0.4260 -0.3703
 9543SOL    HW140091   1.805   2.826   4.644  2.7189  1.0491 -2.0009
 9543SOL    HW240092   1.749   2.811   4.518  0.1144  0.5592 -0.5214
 9544SOL     OW40093   2.410   3.808   4.566  0.3781  0.4617  0.3498
 9544SOL    HW140094   2.445   3.870   4.631 -1.6360 -0.0193  1.9009
 9544SOL    HW240095   2.479   3.821   4.501 -2.4927 -0.1093 -2.7611
 9545SOL     OW40096   0.770   3.060  14.086  0.6062 -0.3634  0.1811
 9545SOL    HW140097   0.771   2.976  14.133  1.3094 -0.1440  0.5580
 9545SOL    HW240098   0.797   3.047  13.995 -1.0921 -0.5427 -0.2890
 9546SOL     OW40099   0.743   3.574   3.068 -0.4243 -0.7048  0.1555
 9546SOL    HW140100   0.776   3.558   2.980  1.3409 -0.2318  0.7231
 9546SOL    HW240101   0.750   3.491   3.116  0.2181 -0.0170  1.2590
 9547SOL     OW40102   0.979   3.377   8.398 -0.0927 -0.2154  0.1349
 9547SOL    HW140103   0.930   3.371   8.480 -0.3452  0.3418  0.0201
 9547SOL    HW240104   0.926   3.445   8.358 -0.5123  0.3120  1.5759
 9548SOL     OW40105   3.027   1.236  16.333 -0.2347 -0.1991  0.0369
 9548SOL    HW140106   2.976   1.187  16.397 -1.1604  1.0071  0.2363
 9548SOL    HW240107   3.083   1.282  16.395  1.4063 -2.7797  0.4760
 9549SOL     OW40108   1.328   1.024   2.478  0.2320  0.4037 -0.2073
 9549SOL    HW140109   1.309   1.117   2.478 -0.0738  0.3416 -1.3298
 9549SOL    HW240110   1.257   0.980   2.432  1.7704 -3.3100  0.9680
 9550SOL     OW40111   2.257   1.910   7.904 -0.2719 -0.4090 -0.2975
 9550SOL    HW140112   2.292   1.951   7.825 -1.7229  1.2604 -0.0547
 9550SOL    HW240113   2.171   1.878   7.875  0.4667 -0.9373 -1.8974
 9551SOL     OW40114   4.374   4.162   7.581 -0.7182 -0.2543  0.2170
 9551SOL    HW140115   4.393   4.240   7.529 -1.6274 -0.5221 -0.5331
 9551SOL    HW240116   4.281   4.175   7.600 -0.0896  3.0335  1.0194
 9552SOL     OW40117   0.821   4.534   6.373 -0.8119  0.1538 -0.3916
 9552SOL    HW140118   0.745   4.588   6.350  0.9000  2.6062 -0.2279
 9552SOL    HW240119   0.849   4.505   6.287 -0.9672 -0.0487 -0.3745
 9553SOL     OW40120   1.235   2.377   5.261  0.5979  0.3986  0.0486
 9553SOL    HW140121   1.190   2.417   5.336  1.0237  0.7503  0.1187
 9553SOL    HW240122   1.169   2.317   5.226  0.1073  0.7709  0.3311
 9554SOL     OW40123   2.178   3.350   2.754 -0.0074 -0.0923  0.2969
 9554SOL    HW140124   2.111   3.334   2.687  0.9348  1.7547 -1.0860
 9554SOL    HW240125   2.199   3.259   2.777  0.9549  0.6513  2.3579
 9555SOL     OW40126   3.434   4.141   4.242 -0.3122 -0.1012  0.7603
 9555SOL    HW140127   3.491   4.122   4.167  0.0286  1.5103  0.6000
 9555SOL    HW240128   3.423   4.236   4.229 -2.4693 -0.8485 -2.7557
 9556SOL     OW40129   1.438   0.655   6.665  0.3338 -0.0739  0.5934
 9556SOL    HW140130   1.460   0.713   6.592 -0.3852 -0.5069  0.0387
 9556SOL    HW240131   1.496   0.698   6.728  0.7158 -0.4075  0.4711
 9557SOL     OW40132   3.982   3.093   7.055 -0.3722  0.3430 -0.4585
 9557SOL    HW140133   3.896   3.128   7.029 -1.3478 -1.3595  0.4648
 9557SOL    HW240134   3.947   3.005   7.068  0.5277 -0.0070 -0.4023
 9558SOL     OW40135   3.237   0.457   9.905 -0.2617 -0.4323  0.2207
 9558SOL    HW140136   3.278   0.376   9.934  1.4533  0.7399  1.1050
 9558SOL    HW240137   3.145   0.437   9.889 -0.1900 -0.5503 -0.0399
 9559SOL     OW40138   0.387   1.982   5.823  0.1099 -0.3138  0.5017
 9559SOL    HW140139   0.453   1.921   5.854 -0.5324  0.4465  3.4219
 9559SOL    HW240140   0.403   2.067   5.865 -1.0131 -0.6004  1.5201
 9560SOL     OW40141   0.090   0.870   8.419 -0.5558  0.8721 -0.5691
 9560SOL    HW140142   0.078   0.961   8.445  3.6000  1.1727  0.2724
 9560SOL    HW240143   4.725   0.846   8.399 -0.7416  0.9374  0.1937
 9561SOL     OW40144   2.301   3.835   0.248  0.1921 -0.1773  0.1594
 9561SOL    HW140145   2.242   3.910   0.245  1.0719  0.4585 -1.2366
 9561SOL    HW240146   2.289   3.797   0.160 -0.5900  0.6928 -0.1033
 9562SOL     OW40147   1.570   3.882  11.296  0.1726  0.4194 -0.2380
 9562SOL    HW140148   1.564   3.834  11.379 -2.0605  0.3129 -0.4565
 9562SOL    HW240149   1.498   3.945  11.300  0.5047  0.9191 -2.2755
 9563SOL     OW40150   2.296   3.056   6.570 -0.0955  0.5098 -0.5757
 9563SOL    HW140151   2.238   3.104   6.629  0.5489 -0.7967  1.1122
 9563SOL    HW240152   2.274   2.963   6.564  0.4695  0.2244  1.8813
 9564SOL     OW40153   0.172   3.863   2.904 -0.7506  0.3006 -0.0350
 9564SOL    HW140154   0.231   3.794   2.933 -1.7063  0.5948  2.6770
 9564SOL    HW240155   0.221   3.942   2.929 -0.9422  0.6765 -0.8614
 9565SOL     OW40156   2.474   1.607   7.981 -0.0652  0.6859 -0.3461
 9565SOL    HW140157   2.526   1.587   8.058  0.8582  1.7438 -0.6887
 9565SOL    HW240158   2.457   1.520   7.946  3.4644 -0.0848 -0.1221
 9566SOL     OW40159   2.029   3.713  10.760  0.2128  0.3756 -0.0200
 9566SOL    HW140160   1.970   3.737  10.831  0.3802  0.9661 -0.0799
 9566SOL    HW240161   2.011   3.782  10.696  1.1719 -0.7964 -1.5584
 9567SOL     OW40162   3.078   0.340  14.488 -0.9140  0.1165 -0.0863
 9567SOL    HW140163   3.124   0.407  14.538 -1.4191 -0.7474  1.5341
 9567SOL    HW240164   2.992   0.321  14.526 -0.9997 -1.3745 -1.0512
 9568SOL     OW40165   2.165   3.294   5.404 -0.3071 -0.2688 -0.0259
 9568SOL    HW140166   2.168   3.331   5.316  2.2328 -0.3239  0.0363
 9568SOL    HW240167   2.150   3.200   5.391  0.9401 -0.6553  1.2977
   4.72533   4.72533  17.70264
